                         Program Version 4.2.0 -  RELEASE  -
|  1> # ORCA input file
|  2> # SCF done       -198.013920890089          0.000685467227
|  3> ! CAM-B3LYP def2-SVP def2/J RIJCOSX Grid4 TightSCF
|  4> %maxcore 5000
|  5> %tddft
|  6>     Mode sTDDFT
|  7>     Ethresh 5.0
|  8>     maxcore 5000
|  9> end
| 10>
| 11> %pal
| 12>   nprocs 6
| 13>   end
| 14> * xyz 0 1
| 15>    C        2.27829       -14.55347        -6.77156
| 16>    C        3.12015       -14.58121        -5.73051
| 17>    C        3.96723       -15.66202        -5.31032
| 18>    C        4.70669       -15.40119        -4.21100
| 19>    C        4.51311       -14.09860        -3.66936
| 20>    S        3.34057       -13.21332        -4.62903
| 21>    C        5.10993       -13.55045        -2.56410
| 22>    C        6.04628       -14.14284        -1.67712
| 23>    C        6.43603       -13.34208        -0.65382
| 24>    C        5.84006       -12.05204        -0.66325
| 25>    S        4.74829       -11.91130        -2.04881
| 26>    C        6.02334       -11.03846         0.22515
| 27>    N        5.40397        -9.83699         0.07857
| 28>    C        5.45333        -8.77542         0.91039
| 29>    S        6.44753        -8.78359         2.33381
| 30>    C        5.99506        -7.13246         2.63933
| 31>    N        6.52411        -6.52599         3.77168
| 32>    O        6.21873        -5.36564         3.99729
| 33>    O        7.26634        -7.20930         4.46534
| 34>    C        5.14075        -6.62229         1.69435
| 35>    C        4.79659        -7.55229         0.70181
| 36>    C        3.90799        -7.23929        -0.39499
| 37>    C        3.12251        -8.10606        -1.05700
| 38>    C        2.27332        -7.81408        -2.19287
| 39>    C        1.53110        -8.86928        -2.74663
| 40>    C        0.72152        -8.63986        -3.83138
| 41>    C        0.63371        -7.35649        -4.39636
| 42>    C        1.36584        -6.30600        -3.86222
| 43>    C        2.17605        -6.54213        -2.77021
| 44>    C       -0.28670        -7.40637        -5.51155
| 45>    C       -0.77499        -8.71901        -5.63036
| 46>    C       -0.16171        -9.61239        -4.57718
| 47>    C       -1.23473       -10.21852        -3.65445
| 48>    C       -2.09697        -9.16090        -2.97590
| 49>    C        0.66671       -10.74284        -5.21564
| 50>    C        1.75547       -10.22604        -6.14750
| 51>    C       -1.68866        -9.03577        -6.60452
| 52>    C       -2.12827        -8.04780        -7.50139
| 53>    C       -1.62512        -6.74591        -7.37111
| 54>    C       -0.71551        -6.41886        -6.38681
| 55>    C       -3.09566        -8.41159        -8.50904
| 56>    C       -3.45660        -7.66263        -9.57103
| 57>    C       -4.43539        -8.02549       -10.54082
| 58>    C       -5.28319        -9.11553       -10.57806
| 59>    C       -6.11508        -9.08417       -11.69783
| 60>    C       -5.90260        -7.96459       -12.53400
| 61>    S       -4.66155        -6.94597       -11.91189
| 62>    C       -6.80337        -8.06939       -13.59126
| 63>    C       -7.55430        -9.25389       -13.37350
| 64>    N       -7.11723        -9.85637       -12.22170
| 65>    C       -8.51717        -9.49339       -14.34301
| 66>    C       -8.51874        -8.50564       -15.32131
| 67>    S       -7.29837        -7.26348       -15.02388
| 68>    C       -9.34307        -8.38310       -16.45519
| 69>    C      -10.36422        -9.23201       -16.77828
| 70>    C      -11.15202        -9.03759       -17.92384
| 71>    C      -12.21931        -9.82433       -18.28349
| 72>    C      -13.05924        -9.66148       -19.44967
| 73>    C      -12.89831        -8.75625       -20.47004
| 74>    C      -13.75375        -8.66172       -21.58640
| 75>    N      -14.41204        -8.53524       -22.51915
| 76>    C      -11.86292        -7.80504       -20.57097
| 77>    N      -11.05615        -7.00434       -20.73935
| 78>    C      -14.12244       -10.66047       -19.37495
| 79>    C      -13.92531       -11.44758       -18.21490
| 80>    C      -12.72415       -10.97037       -17.49849
| 81>    O      -12.27288       -11.43987       -16.47163
| 82>    C      -14.76548       -12.47538       -17.86398
| 83>    C      -15.85791       -12.73925       -18.69705
| 84>    C      -16.04867       -11.94666       -19.85275
| 85>    C      -15.19670       -10.90810       -20.20876
| 86>    S      -17.46117       -12.43824       -20.73885
| 87>    C      -17.77075       -13.68456       -19.55949
| 88>    C      -16.86515       -13.73294       -18.55430
| 89>   Br      -19.26073       -14.80570       -19.76675
| 90>    H        2.17436       -15.40873        -7.41547
| 91>    H        1.68394       -13.68680        -6.99623
| 92>    H        3.98117       -16.58904        -5.85555
| 93>    H        5.39332       -16.09652        -3.76139
| 94>    H        6.39783       -15.14791        -1.82527
| 95>    H        7.13469       -13.62463         0.11308
| 96>    H        6.66067       -11.16027         1.08777
| 97>    H        4.88065        -9.70244        -0.78202
| 98>    H        4.76767        -5.61516         1.74202
| 99>    H        3.88667        -6.18997        -0.65336
|100>    H        3.05524        -9.13369        -0.71967
|101>    H        1.60786        -9.85772        -2.31542
|102>    H        1.30419        -5.31732        -4.29186
|103>    H        2.74393        -5.72369        -2.35596
|104>    H       -0.73832       -10.82536        -2.89441
|105>    H       -1.87118       -10.88051        -4.24559
|106>    H       -1.48489        -8.49943        -2.36686
|107>    H       -2.83536        -9.63513        -2.33342
|108>    H       -2.61982        -8.55854        -3.71564
|109>    H       -0.00763       -11.39826        -5.77137
|110>    H        1.12692       -11.33271        -4.42079
|111>    H        1.32389        -9.67049        -6.97740
|112>    H        2.33027       -11.05829        -6.54684
|113>    H        2.43714        -9.57041        -5.61099
|114>    H       -2.07190       -10.04253        -6.69677
|115>    H       -1.96939        -5.97441        -8.04196
|116>    H       -0.34788        -5.40745        -6.29819
|117>    H       -3.54604        -9.38771        -8.38343
|118>    H       -2.98345        -6.70642        -9.74459
|119>    H       -5.30029        -9.88081        -9.82474
|120>    H       -7.47841       -10.70774       -11.82811
|121>    H       -9.18693       -10.33288       -14.35642
|122>    H       -9.14374        -7.53858       -17.10385
|123>    H      -10.59392       -10.07366       -16.14457
|124>    H      -10.89343        -8.19619       -18.55354
|125>    H      -14.58697       -13.05734       -16.97329
|126>    H      -15.38845       -10.33278       -21.09877
|127>    H      -16.90425       -14.43851       -17.74451
|128> *
|129>
|130>                          ****END OF INPUT****

CARTESIAN COORDINATES (ANGSTROEM)
---------------------------------
  C      2.278290  -14.553470   -6.771560
  C      3.120150  -14.581210   -5.730510
  C      3.967230  -15.662020   -5.310320
  C      4.706690  -15.401190   -4.211000
  C      4.513110  -14.098600   -3.669360
  S      3.340570  -13.213320   -4.629030
  C      5.109930  -13.550450   -2.564100
  C      6.046280  -14.142840   -1.677120
  C      6.436030  -13.342080   -0.653820
  C      5.840060  -12.052040   -0.663250
  S      4.748290  -11.911300   -2.048810
  C      6.023340  -11.038460    0.225150
  N      5.403970   -9.836990    0.078570
  C      5.453330   -8.775420    0.910390
  S      6.447530   -8.783590    2.333810
  C      5.995060   -7.132460    2.639330
  N      6.524110   -6.525990    3.771680
  O      6.218730   -5.365640    3.997290
  O      7.266340   -7.209300    4.465340
  C      5.140750   -6.622290    1.694350
  C      4.796590   -7.552290    0.701810
  C      3.907990   -7.239290   -0.394990
  C      3.122510   -8.106060   -1.057000
  C      2.273320   -7.814080   -2.192870
  C      1.531100   -8.869280   -2.746630
  C      0.721520   -8.639860   -3.831380
  C      0.633710   -7.356490   -4.396360
  C      1.365840   -6.306000   -3.862220
  C      2.176050   -6.542130   -2.770210
  C     -0.286700   -7.406370   -5.511550
  C     -0.774990   -8.719010   -5.630360
  C     -0.161710   -9.612390   -4.577180
  C     -1.234730  -10.218520   -3.654450
  C     -2.096970   -9.160900   -2.975900
  C      0.666710  -10.742840   -5.215640
  C      1.755470  -10.226040   -6.147500
  C     -1.688660   -9.035770   -6.604520
  C     -2.128270   -8.047800   -7.501390
  C     -1.625120   -6.745910   -7.371110
  C     -0.715510   -6.418860   -6.386810
  C     -3.095660   -8.411590   -8.509040
  C     -3.456600   -7.662630   -9.571030
  C     -4.435390   -8.025490  -10.540820
  C     -5.283190   -9.115530  -10.578060
  C     -6.115080   -9.084170  -11.697830
  C     -5.902600   -7.964590  -12.534000
  S     -4.661550   -6.945970  -11.911890
  C     -6.803370   -8.069390  -13.591260
  C     -7.554300   -9.253890  -13.373500
  N     -7.117230   -9.856370  -12.221700
  C     -8.517170   -9.493390  -14.343010
  C     -8.518740   -8.505640  -15.321310
  S     -7.298370   -7.263480  -15.023880
  C     -9.343070   -8.383100  -16.455190
  C    -10.364220   -9.232010  -16.778280
  C    -11.152020   -9.037590  -17.923840
  C    -12.219310   -9.824330  -18.283490
  C    -13.059240   -9.661480  -19.449670
  C    -12.898310   -8.756250  -20.470040
  C    -13.753750   -8.661720  -21.586400
  N    -14.412040   -8.535240  -22.519150
  C    -11.862920   -7.805040  -20.570970
  N    -11.056150   -7.004340  -20.739350
  C    -14.122440  -10.660470  -19.374950
  C    -13.925310  -11.447580  -18.214900
  C    -12.724150  -10.970370  -17.498490
  O    -12.272880  -11.439870  -16.471630
  C    -14.765480  -12.475380  -17.863980
  C    -15.857910  -12.739250  -18.697050
  C    -16.048670  -11.946660  -19.852750
  C    -15.196700  -10.908100  -20.208760
  S    -17.461170  -12.438240  -20.738850
  C    -17.770750  -13.684560  -19.559490
  C    -16.865150  -13.732940  -18.554300
  Br   -19.260730  -14.805700  -19.766750
  H      2.174360  -15.408730   -7.415470
  H      1.683940  -13.686800   -6.996230
  H      3.981170  -16.589040   -5.855550
  H      5.393320  -16.096520   -3.761390
  H      6.397830  -15.147910   -1.825270
  H      7.134690  -13.624630    0.113080
  H      6.660670  -11.160270    1.087770
  H      4.880650   -9.702440   -0.782020
  H      4.767670   -5.615160    1.742020
  H      3.886670   -6.189970   -0.653360
  H      3.055240   -9.133690   -0.719670
  H      1.607860   -9.857720   -2.315420
  H      1.304190   -5.317320   -4.291860
  H      2.743930   -5.723690   -2.355960
  H     -0.738320  -10.825360   -2.894410
  H     -1.871180  -10.880510   -4.245590
  H     -1.484890   -8.499430   -2.366860
  H     -2.835360   -9.635130   -2.333420
  H     -2.619820   -8.558540   -3.715640
  H     -0.007630  -11.398260   -5.771370
  H      1.126920  -11.332710   -4.420790
  H      1.323890   -9.670490   -6.977400
  H      2.330270  -11.058290   -6.546840
  H      2.437140   -9.570410   -5.610990
  H     -2.071900  -10.042530   -6.696770
  H     -1.969390   -5.974410   -8.041960
  H     -0.347880   -5.407450   -6.298190
  H     -3.546040   -9.387710   -8.383430
  H     -2.983450   -6.706420   -9.744590
  H     -5.300290   -9.880810   -9.824740
  H     -7.478410  -10.707740  -11.828110
  H     -9.186930  -10.332880  -14.356420
  H     -9.143740   -7.538580  -17.103850
  H    -10.593920  -10.073660  -16.144570
  H    -10.893430   -8.196190  -18.553540
  H    -14.586970  -13.057340  -16.973290
  H    -15.388450  -10.332780  -21.098770
  H    -16.904250  -14.438510  -17.744510

 Total Charge           Charge          ....    0
 Multiplicity           Mult            ....    1
 Number of Electrons    NEL             ....  588
 Basis Dimension        Dim             .... 1282

ORBITAL ENERGIES
----------------

  NO   OCC          E(Eh)            E(eV)
   0   2.0000    -482.881195    -13139.8653
   1   2.0000     -88.979915     -2421.2666
   2   2.0000     -88.969526     -2420.9839
   3   2.0000     -88.965660     -2420.8787
   4   2.0000     -88.962373     -2420.7892
   5   2.0000     -88.954691     -2420.5802
   6   2.0000     -88.944214     -2420.2951
   7   2.0000     -62.558899     -1702.3142
   8   2.0000     -56.392843     -1534.5273
   9   2.0000     -56.390139     -1534.4537
  10   2.0000     -56.390105     -1534.4528
  11   2.0000     -19.225512      -523.1528
  12   2.0000     -19.224944      -523.1373
  13   2.0000     -19.207043      -522.6502
  14   2.0000     -14.637427      -398.3046
  15   2.0000     -14.485401      -394.1678
  16   2.0000     -14.474931      -393.8829
  17   2.0000     -14.406227      -392.0134
  18   2.0000     -14.404393      -391.9635
  19   2.0000     -10.366848      -282.0963
  20   2.0000     -10.357463      -281.8409
  21   2.0000     -10.353242      -281.7260
  22   2.0000     -10.337091      -281.2866
  23   2.0000     -10.332440      -281.1600
  24   2.0000     -10.330682      -281.1122
  25   2.0000     -10.329282      -281.0741
  26   2.0000     -10.323731      -280.9230
  27   2.0000     -10.321925      -280.8739
  28   2.0000     -10.318382      -280.7774
  29   2.0000     -10.317529      -280.7542
  30   2.0000     -10.314514      -280.6722
  31   2.0000     -10.313934      -280.6564
  32   2.0000     -10.312825      -280.6262
  33   2.0000     -10.311248      -280.5833
  34   2.0000     -10.311024      -280.5772
  35   2.0000     -10.310068      -280.5512
  36   2.0000     -10.309725      -280.5419
  37   2.0000     -10.308186      -280.5000
  38   2.0000     -10.306265      -280.4477
  39   2.0000     -10.303975      -280.3854
  40   2.0000     -10.303476      -280.3718
  41   2.0000     -10.301657      -280.3223
  42   2.0000     -10.300546      -280.2921
  43   2.0000     -10.299496      -280.2635
  44   2.0000     -10.297400      -280.2065
  45   2.0000     -10.296241      -280.1750
  46   2.0000     -10.295443      -280.1532
  47   2.0000     -10.294238      -280.1205
  48   2.0000     -10.293888      -280.1109
  49   2.0000     -10.293497      -280.1003
  50   2.0000     -10.292816      -280.0818
  51   2.0000     -10.291305      -280.0407
  52   2.0000     -10.289864      -280.0014
  53   2.0000     -10.288350      -279.9602
  54   2.0000     -10.286510      -279.9102
  55   2.0000     -10.286213      -279.9021
  56   2.0000     -10.284524      -279.8561
  57   2.0000     -10.283526      -279.8290
  58   2.0000     -10.283277      -279.8222
  59   2.0000     -10.282754      -279.8080
  60   2.0000     -10.282693      -279.8063
  61   2.0000     -10.282668      -279.8056
  62   2.0000     -10.279395      -279.7166
  63   2.0000     -10.275097      -279.5996
  64   2.0000     -10.274965      -279.5960
  65   2.0000     -10.274313      -279.5783
  66   2.0000     -10.273620      -279.5594
  67   2.0000     -10.273577      -279.5583
  68   2.0000     -10.273465      -279.5552
  69   2.0000     -10.273415      -279.5538
  70   2.0000     -10.273389      -279.5531
  71   2.0000     -10.272955      -279.5413
  72   2.0000     -10.272558      -279.5305
  73   2.0000     -10.270563      -279.4762
  74   2.0000     -10.270223      -279.4670
  75   2.0000     -10.265127      -279.3283
  76   2.0000     -10.262971      -279.2696
  77   2.0000     -10.248458      -278.8747
  78   2.0000     -10.246397      -278.8186
  79   2.0000      -8.788320      -239.1423
  80   2.0000      -8.075300      -219.7401
  81   2.0000      -8.065500      -219.4734
  82   2.0000      -8.060544      -219.3385
  83   2.0000      -8.057344      -219.2515
  84   2.0000      -8.050824      -219.0741
  85   2.0000      -8.040347      -218.7890
  86   2.0000      -6.624584      -180.2641
  87   2.0000      -6.610074      -179.8693
  88   2.0000      -6.609875      -179.8639
  89   2.0000      -6.045034      -164.4937
  90   2.0000      -6.040616      -164.3735
  91   2.0000      -6.036662      -164.2659
  92   2.0000      -6.035185      -164.2257
  93   2.0000      -6.030927      -164.1099
  94   2.0000      -6.030145      -164.0886
  95   2.0000      -6.026975      -164.0023
  96   2.0000      -6.026720      -163.9954
  97   2.0000      -6.026096      -163.9784
  98   2.0000      -6.022928      -163.8922
  99   2.0000      -6.022050      -163.8683
 100   2.0000      -6.020693      -163.8314
 101   2.0000      -6.018786      -163.7795
 102   2.0000      -6.016786      -163.7251
 103   2.0000      -6.011451      -163.5799
 104   2.0000      -6.010206      -163.5460
 105   2.0000      -6.006267      -163.4388
 106   2.0000      -6.000924      -163.2934
 107   2.0000      -2.740463       -74.5718
 108   2.0000      -2.736361       -74.4602
 109   2.0000      -2.736274       -74.4578
 110   2.0000      -2.724704       -74.1430
 111   2.0000      -2.724692       -74.1426
 112   2.0000      -1.304430       -35.4953
 113   2.0000      -1.123233       -30.5647
 114   2.0000      -1.120556       -30.4919
 115   2.0000      -1.095602       -29.8128
 116   2.0000      -1.094058       -29.7708
 117   2.0000      -1.014774       -27.6134
 118   2.0000      -1.004579       -27.3360
 119   2.0000      -1.003034       -27.2939
 120   2.0000      -0.994161       -27.0525
 121   2.0000      -0.990392       -26.9499
 122   2.0000      -0.984330       -26.7850
 123   2.0000      -0.983745       -26.7690
 124   2.0000      -0.980162       -26.6716
 125   2.0000      -0.977904       -26.6101
 126   2.0000      -0.972857       -26.4728
 127   2.0000      -0.950931       -25.8762
 128   2.0000      -0.936218       -25.4758
 129   2.0000      -0.927944       -25.2506
 130   2.0000      -0.915522       -24.9126
 131   2.0000      -0.911109       -24.7925
 132   2.0000      -0.900520       -24.5044
 133   2.0000      -0.898278       -24.4434
 134   2.0000      -0.893804       -24.3216
 135   2.0000      -0.883696       -24.0466
 136   2.0000      -0.878836       -23.9143
 137   2.0000      -0.877907       -23.8891
 138   2.0000      -0.870606       -23.6904
 139   2.0000      -0.860347       -23.4112
 140   2.0000      -0.852905       -23.2087
 141   2.0000      -0.851271       -23.1642
 142   2.0000      -0.849020       -23.1030
 143   2.0000      -0.841401       -22.8957
 144   2.0000      -0.838481       -22.8162
 145   2.0000      -0.835608       -22.7380
 146   2.0000      -0.834206       -22.6999
 147   2.0000      -0.830567       -22.6009
 148   2.0000      -0.826365       -22.4865
 149   2.0000      -0.823746       -22.4153
 150   2.0000      -0.821651       -22.3582
 151   2.0000      -0.805253       -21.9120
 152   2.0000      -0.797656       -21.7053
 153   2.0000      -0.783051       -21.3079
 154   2.0000      -0.765221       -20.8227
 155   2.0000      -0.762231       -20.7414
 156   2.0000      -0.754875       -20.5412
 157   2.0000      -0.749644       -20.3988
 158   2.0000      -0.737819       -20.0771
 159   2.0000      -0.729200       -19.8425
 160   2.0000      -0.724224       -19.7071
 161   2.0000      -0.717611       -19.5272
 162   2.0000      -0.710494       -19.3335
 163   2.0000      -0.702926       -19.1276
 164   2.0000      -0.691967       -18.8294
 165   2.0000      -0.687313       -18.7027
 166   2.0000      -0.683946       -18.6111
 167   2.0000      -0.680572       -18.5193
 168   2.0000      -0.676953       -18.4208
 169   2.0000      -0.675403       -18.3786
 170   2.0000      -0.673219       -18.3192
 171   2.0000      -0.661923       -18.0118
 172   2.0000      -0.658118       -17.9083
 173   2.0000      -0.654807       -17.8182
 174   2.0000      -0.649697       -17.6791
 175   2.0000      -0.646479       -17.5916
 176   2.0000      -0.643806       -17.5188
 177   2.0000      -0.634584       -17.2679
 178   2.0000      -0.629255       -17.1229
 179   2.0000      -0.624235       -16.9863
 180   2.0000      -0.620412       -16.8823
 181   2.0000      -0.618591       -16.8327
 182   2.0000      -0.617095       -16.7920
 183   2.0000      -0.616332       -16.7712
 184   2.0000      -0.611093       -16.6287
 185   2.0000      -0.607693       -16.5362
 186   2.0000      -0.604457       -16.4481
 187   2.0000      -0.597930       -16.2705
 188   2.0000      -0.595306       -16.1991
 189   2.0000      -0.591704       -16.1011
 190   2.0000      -0.589789       -16.0490
 191   2.0000      -0.585196       -15.9240
 192   2.0000      -0.579017       -15.7558
 193   2.0000      -0.576803       -15.6956
 194   2.0000      -0.568420       -15.4675
 195   2.0000      -0.560893       -15.2627
 196   2.0000      -0.556245       -15.1362
 197   2.0000      -0.550755       -14.9868
 198   2.0000      -0.547175       -14.8894
 199   2.0000      -0.546403       -14.8684
 200   2.0000      -0.545131       -14.8338
 201   2.0000      -0.544544       -14.8178
 202   2.0000      -0.540716       -14.7136
 203   2.0000      -0.536552       -14.6003
 204   2.0000      -0.535865       -14.5816
 205   2.0000      -0.531894       -14.4736
 206   2.0000      -0.531024       -14.4499
 207   2.0000      -0.525198       -14.2914
 208   2.0000      -0.523987       -14.2584
 209   2.0000      -0.521255       -14.1841
 210   2.0000      -0.519949       -14.1485
 211   2.0000      -0.519111       -14.1257
 212   2.0000      -0.517518       -14.0824
 213   2.0000      -0.515452       -14.0262
 214   2.0000      -0.511700       -13.9241
 215   2.0000      -0.505129       -13.7453
 216   2.0000      -0.502886       -13.6842
 217   2.0000      -0.501659       -13.6508
 218   2.0000      -0.500445       -13.6178
 219   2.0000      -0.499509       -13.5923
 220   2.0000      -0.496339       -13.5061
 221   2.0000      -0.493981       -13.4419
 222   2.0000      -0.492347       -13.3974
 223   2.0000      -0.489753       -13.3268
 224   2.0000      -0.487273       -13.2594
 225   2.0000      -0.485639       -13.2149
 226   2.0000      -0.484580       -13.1861
 227   2.0000      -0.483039       -13.1442
 228   2.0000      -0.478346       -13.0165
 229   2.0000      -0.476761       -12.9733
 230   2.0000      -0.473397       -12.8818
 231   2.0000      -0.471776       -12.8377
 232   2.0000      -0.469396       -12.7729
 233   2.0000      -0.468412       -12.7461
 234   2.0000      -0.467719       -12.7273
 235   2.0000      -0.463993       -12.6259
 236   2.0000      -0.459772       -12.5110
 237   2.0000      -0.459018       -12.4905
 238   2.0000      -0.457612       -12.4522
 239   2.0000      -0.452753       -12.3200
 240   2.0000      -0.450387       -12.2556
 241   2.0000      -0.448626       -12.2077
 242   2.0000      -0.446061       -12.1379
 243   2.0000      -0.444459       -12.0943
 244   2.0000      -0.440442       -11.9850
 245   2.0000      -0.439838       -11.9686
 246   2.0000      -0.439306       -11.9541
 247   2.0000      -0.438025       -11.9193
 248   2.0000      -0.434710       -11.8291
 249   2.0000      -0.433305       -11.7908
 250   2.0000      -0.431720       -11.7477
 251   2.0000      -0.429457       -11.6861
 252   2.0000      -0.428963       -11.6727
 253   2.0000      -0.426045       -11.5933
 254   2.0000      -0.424529       -11.5520
 255   2.0000      -0.422793       -11.5048
 256   2.0000      -0.419652       -11.4193
 257   2.0000      -0.419605       -11.4180
 258   2.0000      -0.416638       -11.3373
 259   2.0000      -0.414285       -11.2733
 260   2.0000      -0.411895       -11.2082
 261   2.0000      -0.409563       -11.1448
 262   2.0000      -0.403592       -10.9823
 263   2.0000      -0.399145       -10.8613
 264   2.0000      -0.398110       -10.8331
 265   2.0000      -0.392563       -10.6822
 266   2.0000      -0.389283       -10.5929
 267   2.0000      -0.388885       -10.5821
 268   2.0000      -0.387423       -10.5423
 269   2.0000      -0.384102       -10.4520
 270   2.0000      -0.380369       -10.3504
 271   2.0000      -0.374645       -10.1946
 272   2.0000      -0.370672       -10.0865
 273   2.0000      -0.369741       -10.0612
 274   2.0000      -0.365607        -9.9487
 275   2.0000      -0.354851        -9.6560
 276   2.0000      -0.354197        -9.6382
 277   2.0000      -0.345860        -9.4113
 278   2.0000      -0.340805        -9.2738
 279   2.0000      -0.339783        -9.2460
 280   2.0000      -0.338239        -9.2039
 281   2.0000      -0.326994        -8.8979
 282   2.0000      -0.326550        -8.8859
 283   2.0000      -0.324382        -8.8269
 284   2.0000      -0.318658        -8.6711
 285   2.0000      -0.317036        -8.6270
 286   2.0000      -0.308690        -8.3999
 287   2.0000      -0.299471        -8.1490
 288   2.0000      -0.289074        -7.8661
 289   2.0000      -0.287369        -7.8197
 290   2.0000      -0.280463        -7.6318
 291   2.0000      -0.260251        -7.0818
 292   2.0000      -0.232786        -6.3344
 293   2.0000      -0.221343        -6.0231
 294   0.0000      -0.092005        -2.5036
 295   0.0000      -0.069578        -1.8933
 296   0.0000      -0.057393        -1.5618
 297   0.0000      -0.045545        -1.2393
 298   0.0000      -0.036779        -1.0008

MULLIKEN ATOMIC CHARGES
-----------------------
   0 C :   -0.037838
   1 C :   -0.055983
   2 C :    0.048378
   3 C :    0.029412
   4 C :   -0.062082
   5 S :    0.066182
   6 C :   -0.043406
   7 C :    0.026641
   8 C :    0.043814
   9 C :   -0.045726
  10 S :    0.029353
  11 C :    0.030324
  12 N :   -0.031775
  13 C :   -0.118591
  14 S :    0.146942
  15 C :   -0.015341
  16 N :    0.280826
  17 O :   -0.262349
  18 O :   -0.278995
  19 C :    0.015518
  20 C :    0.104916
  21 C :   -0.001152
  22 C :   -0.044969
  23 C :    0.120551
  24 C :   -0.110411
  25 C :    0.010018
  26 C :    0.112773
  27 C :   -0.042341
  28 C :   -0.014029
  29 C :    0.108980
  30 C :    0.019884
  31 C :   -0.137885
  32 C :    0.064139
  33 C :    0.025078
  34 C :    0.062498
  35 C :    0.027820
  36 C :   -0.111787
  37 C :    0.128448
  38 C :   -0.016695
  39 C :   -0.042347
  40 C :   -0.011775
  41 C :    0.068549
  42 C :   -0.077707
  43 C :   -0.067527
  44 C :    0.119528
  45 C :   -0.125496
  46 S :    0.143343
  47 C :   -0.108804
  48 C :    0.120091
  49 N :   -0.018132
  50 C :   -0.050411
  51 C :   -0.095079
  52 S :    0.156722
  53 C :    0.086341
  54 C :   -0.025393
  55 C :   -0.028500
  56 C :   -0.081921
  57 C :    0.331673
  58 C :   -0.361867
  59 C :   -0.188602
  60 N :    0.143790
  61 C :   -0.190567
  62 N :    0.140072
  63 C :    0.013167
  64 C :   -0.007345
  65 C :    0.140708
  66 O :   -0.166656
  67 C :   -0.076925
  68 C :    0.120284
  69 C :   -0.092210
  70 C :   -0.023530
  71 S :    0.182555
  72 C :   -0.123917
  73 C :    0.035774
  74 Br:    0.018137
  75 H :    0.020588
  76 H :    0.022358
  77 H :   -0.011191
  78 H :   -0.010474
  79 H :   -0.012908
  80 H :   -0.009051
  81 H :    0.023925
  82 H :    0.146746
  83 H :    0.006388
  84 H :   -0.004453
  85 H :   -0.021349
  86 H :   -0.039138
  87 H :   -0.036465
  88 H :   -0.032444
  89 H :    0.000874
  90 H :   -0.004440
  91 H :    0.022113
  92 H :    0.008636
  93 H :    0.020770
  94 H :   -0.006327
  95 H :    0.004045
  96 H :    0.019555
  97 H :    0.004206
  98 H :    0.021377
  99 H :   -0.045829
 100 H :   -0.029584
 101 H :   -0.036645
 102 H :   -0.025905
 103 H :   -0.018214
 104 H :   -0.026671
 105 H :    0.127321
 106 H :   -0.006308
 107 H :    0.004995
 108 H :    0.019937
 109 H :    0.005857
 110 H :   -0.015594
 111 H :   -0.009522
 112 H :   -0.004342
Sum of atomic charges:   -0.0000000

LOEWDIN ATOMIC CHARGES
----------------------
   0 C :   -0.081273
   1 C :   -0.137161
   2 C :   -0.033303
   3 C :   -0.025029
   4 C :   -0.184569
   5 S :    0.359669
   6 C :   -0.174279
   7 C :   -0.039749
   8 C :   -0.028456
   9 C :   -0.181659
  10 S :    0.334479
  11 C :   -0.011710
  12 N :    0.049825
  13 C :   -0.096082
  14 S :    0.447258
  15 C :   -0.220268
  16 N :    0.274379
  17 O :   -0.228327
  18 O :   -0.245191
  19 C :    0.005470
  20 C :   -0.108244
  21 C :   -0.019867
  22 C :   -0.038204
  23 C :   -0.026005
  24 C :   -0.021437
  25 C :    0.004527
  26 C :   -0.017531
  27 C :   -0.015673
  28 C :   -0.015948
  29 C :   -0.016259
  30 C :    0.004111
  31 C :   -0.034979
  32 C :   -0.011955
  33 C :   -0.058032
  34 C :   -0.015094
  35 C :   -0.058982
  36 C :   -0.021565
  37 C :   -0.025853
  38 C :   -0.014230
  39 C :   -0.016221
  40 C :   -0.007507
  41 C :   -0.047591
  42 C :   -0.144293
  43 C :   -0.081921
  44 C :   -0.002213
  45 C :   -0.232282
  46 S :    0.420432
  47 C :   -0.204824
  48 C :   -0.018491
  49 N :    0.059414
  50 C :   -0.040711
  51 C :   -0.177275
  52 S :    0.428830
  53 C :    0.020204
  54 C :   -0.046151
  55 C :    0.068095
  56 C :   -0.110880
  57 C :    0.076113
  58 C :   -0.150425
  59 C :   -0.018238
  60 N :   -0.062753
  61 C :   -0.020336
  62 N :   -0.061244
  63 C :   -0.019336
  64 C :   -0.049210
  65 C :    0.084087
  66 O :   -0.159720
  67 C :    0.018070
  68 C :   -0.034647
  69 C :   -0.144919
  70 C :   -0.011377
  71 S :    0.429768
  72 C :   -0.273321
  73 C :   -0.071702
  74 Br:    0.132393
  75 H :    0.028979
  76 H :    0.025037
  77 H :    0.033637
  78 H :    0.032774
  79 H :    0.032604
  80 H :    0.034956
  81 H :    0.030725
  82 H :    0.082285
  83 H :    0.045423
  84 H :    0.031047
  85 H :    0.020414
  86 H :    0.023140
  87 H :    0.027067
  88 H :    0.024545
  89 H :    0.020980
  90 H :    0.018891
  91 H :    0.025729
  92 H :    0.023746
  93 H :    0.025136
  94 H :    0.017039
  95 H :    0.012399
  96 H :    0.024667
  97 H :    0.016791
  98 H :    0.026579
  99 H :    0.022226
 100 H :    0.025317
 101 H :    0.027097
 102 H :    0.025290
 103 H :    0.025942
 104 H :    0.029307
 105 H :    0.094544
 106 H :    0.038994
 107 H :    0.036711
 108 H :    0.029487
 109 H :    0.040881
 110 H :    0.038733
 111 H :    0.040335
 112 H :    0.037924

  Mayer bond orders larger than 0.100000
B(  0-C ,  1-C ) :   1.8681 B(  0-C , 75-H ) :   0.9500 B(  0-C , 76-H ) :   0.9400
B(  1-C ,  2-C ) :   1.0797 B(  1-C ,  5-S ) :   1.0078 B(  2-C ,  3-C ) :   1.6666
B(  2-C , 77-H ) :   0.9927 B(  3-C ,  4-C ) :   1.1478 B(  3-C , 78-H ) :   0.9917
B(  4-C ,  5-S ) :   1.0359 B(  4-C ,  6-C ) :   1.5763 B(  6-C ,  7-C ) :   1.1621
B(  6-C , 10-S ) :   1.0334 B(  7-C ,  8-C ) :   1.6352 B(  7-C , 79-H ) :   0.9912
B(  8-C ,  9-C ) :   1.1399 B(  8-C , 80-H ) :   0.9942 B(  9-C , 10-S ) :   1.0064
B(  9-C , 11-C ) :   1.6254 B( 11-C , 12-N ) :   1.1306 B( 11-C , 81-H ) :   0.9609
B( 12-N , 13-C ) :   1.2485 B( 12-N , 82-H ) :   0.8905 B( 13-C , 14-S ) :   1.1336
B( 13-C , 20-C ) :   1.3512 B( 14-S , 15-C ) :   1.0600 B( 15-C , 16-N ) :   0.9945
B( 15-C , 19-C ) :   1.4643 B( 16-N , 17-O ) :   1.5221 B( 16-N , 18-O ) :   1.4960
B( 17-O , 18-O ) :   0.2486 B( 19-C , 20-C ) :   1.2458 B( 19-C , 83-H ) :   1.0069
B( 20-C , 21-C ) :   1.0614 B( 21-C , 22-C ) :   1.7070 B( 21-C , 84-H ) :   0.9599
B( 22-C , 23-C ) :   1.0753 B( 22-C , 85-H ) :   0.9690 B( 23-C , 24-C ) :   1.2857
B( 23-C , 28-C ) :   1.3534 B( 24-C , 25-C ) :   1.3803 B( 24-C , 86-H ) :   1.0108
B( 25-C , 26-C ) :   1.3705 B( 25-C , 31-C ) :   0.9173 B( 26-C , 27-C ) :   1.3294
B( 26-C , 29-C ) :   0.9996 B( 27-C , 28-C ) :   1.3993 B( 27-C , 87-H ) :   0.9897
B( 28-C , 88-H ) :   0.9831 B( 29-C , 30-C ) :   1.3698 B( 29-C , 39-C ) :   1.3289
B( 30-C , 31-C ) :   0.9140 B( 30-C , 36-C ) :   1.3801 B( 31-C , 32-C ) :   1.0368
B( 31-C , 34-C ) :   1.0361 B( 32-C , 33-C ) :   1.0999 B( 32-C , 89-H ) :   0.9400
B( 32-C , 90-H ) :   0.9391 B( 33-C , 91-H ) :   0.9645 B( 33-C , 92-H ) :   0.9643
B( 33-C , 93-H ) :   0.9646 B( 34-C , 35-C ) :   1.1000 B( 34-C , 94-H ) :   0.9365
B( 34-C , 95-H ) :   0.9353 B( 35-C , 96-H ) :   0.9623 B( 35-C , 97-H ) :   0.9614
B( 35-C , 98-H ) :   0.9627 B( 36-C , 37-C ) :   1.2806 B( 36-C , 99-H ) :   1.0128
B( 37-C , 38-C ) :   1.3443 B( 37-C , 40-C ) :   1.0727 B( 38-C , 39-C ) :   1.4005
B( 38-C ,100-H ) :   0.9838 B( 39-C ,101-H ) :   0.9900 B( 40-C , 41-C ) :   1.7063
B( 40-C ,102-H ) :   0.9813 B( 41-C , 42-C ) :   1.1116 B( 41-C ,103-H ) :   0.9538
B( 42-C , 43-C ) :   1.4872 B( 42-C , 46-S ) :   1.1064 B( 43-C , 44-C ) :   1.2287
B( 43-C ,104-H ) :   1.0092 B( 44-C , 45-C ) :   1.3937 B( 44-C , 49-N ) :   1.1711
B( 45-C , 46-S ) :   1.0290 B( 45-C , 47-C ) :   1.4028 B( 47-C , 48-C ) :   1.3613
B( 47-C , 52-S ) :   1.0616 B( 48-C , 49-N ) :   1.1535 B( 48-C , 50-C ) :   1.2742
B( 49-N ,105-H ) :   0.9340 B( 50-C , 51-C ) :   1.4154 B( 50-C ,106-H ) :   1.0113
B( 51-C , 52-S ) :   1.0716 B( 51-C , 53-C ) :   1.1698 B( 53-C , 54-C ) :   1.5290
B( 53-C ,107-H ) :   0.9721 B( 54-C , 55-C ) :   1.2174 B( 54-C ,108-H ) :   0.9753
B( 55-C , 56-C ) :   1.4760 B( 55-C ,109-H ) :   0.9629 B( 56-C , 57-C ) :   1.0852
B( 56-C , 65-C ) :   0.9647 B( 57-C , 58-C ) :   1.6081 B( 57-C , 63-C ) :   0.9959
B( 58-C , 59-C ) :   1.1465 B( 58-C , 61-C ) :   1.1497 B( 59-C , 60-N ) :   2.9656
B( 61-C , 62-N ) :   2.9618 B( 63-C , 64-C ) :   1.2766 B( 63-C , 70-C ) :   1.4160
B( 64-C , 65-C ) :   0.9437 B( 64-C , 67-C ) :   1.4249 B( 65-C , 66-O ) :   2.1795
B( 67-C , 68-C ) :   1.2444 B( 67-C ,110-H ) :   1.0165 B( 68-C , 69-C ) :   1.3101
B( 68-C , 73-C ) :   1.1609 B( 69-C , 70-C ) :   1.3266 B( 69-C , 71-S ) :   1.0838
B( 70-C ,111-H ) :   0.9797 B( 71-S , 72-C ) :   1.0864 B( 72-C , 73-C ) :   1.6191
B( 72-C , 74-Br) :   1.0156 B( 73-C ,112-H ) :   1.0003

-----------------------------------------------------------------------------
         ABSORPTION SPECTRUM VIA TRANSITION ELECTRIC DIPOLE MOMENTS
-----------------------------------------------------------------------------
State   Energy  Wavelength   fosc         T2         TX        TY        TZ
        (cm-1)    (nm)                  (au**2)     (au)      (au)      (au)
-----------------------------------------------------------------------------
   0   16693.4    599.0   2.444946107  48.21710   4.85230   0.66087   4.92296
   1   18498.6    540.6   1.201905135  21.38986  -0.89194  -3.23995  -3.17758
   2   22123.0    452.0   0.085309785   1.26949   0.49292   0.35420   0.94924
   3   24420.5    409.5   0.439807512   5.92904  -1.61555  -0.54820  -1.73739
   4   25096.5    398.5   0.177781034   2.33210  -0.78867  -0.08787  -1.30475
   5   25694.1    389.2   0.050958528   0.65292   0.40837  -0.16124   0.67835
   6   26339.8    379.7   0.030140064   0.37671   0.20707  -0.17698   0.55001
   7   26976.1    370.7   0.618636578   7.54974   1.71310   0.33921   2.12131
   8   27585.5    362.5   0.284402707   3.39412   1.34495   1.21915   0.31451
   9   28000.3    357.1   0.199268895   2.34289   0.19339  -0.63449   1.37946
  10   28069.8    356.3   0.101966943   1.19590   0.80663   0.69457  -0.25065
  11   28807.6    347.1   0.000970646   0.01109  -0.08111  -0.06425   0.01964
  12   29913.9    334.3   0.101484831   1.11687   0.69517  -0.57156   0.55402
  13   30208.6    331.0   0.005767833   0.06286   0.17196   0.02421   0.18083
  14   30689.1    325.8   0.104920956   1.12552   0.78570  -0.16122   0.69442
  15   31467.6    317.8   0.027558981   0.28832  -0.41495   0.03003  -0.33946
  16   31889.8    313.6   0.214644463   2.21586  -1.04841  -0.32856  -1.00437
  17   32359.9    309.0   0.019220386   0.19554   0.32185   0.02368   0.30230
  18   32431.5    308.3   0.155335128   1.57681   0.54283  -0.29146   1.09417
  19   32990.6    303.1   0.004314288   0.04305   0.20027   0.03953   0.03715
  20   33404.7    299.4   0.520767310   5.13229  -1.40306  -1.63824   0.69274
  21   33681.8    296.9   0.115047908   1.12450   0.16773   0.94496   0.45103
  22   34102.1    293.2   0.133722571   1.29092   0.99109   0.31139   0.46011
  23   34229.2    292.1   0.114783235   1.10397  -0.25933  -0.90517   0.46623
  24   35498.7    281.7   0.038882295   0.36059  -0.24987   0.17279  -0.51798
  25   35829.9    279.1   0.038341924   0.35229  -0.08798  -0.24393  -0.53390
  26   36177.6    276.4   0.047965107   0.43648  -0.54372  -0.31267  -0.20757
  27   36265.6    275.7   0.036244442   0.32902   0.44030   0.36015   0.07382
  28   36459.5    274.3   0.018810001   0.16985  -0.19044   0.00118  -0.36548
  29   36987.9    270.4   0.083388740   0.74220  -0.02996  -0.64140   0.57438
  30   37083.4    269.7   0.004841896   0.04298  -0.14291  -0.14937  -0.01575
  31   37396.6    267.4   0.003674325   0.03235   0.00505   0.11007   0.14214
  32   37725.3    265.1   0.029823282   0.26025   0.05831  -0.42152   0.28139
  33   38530.7    259.5   0.047794734   0.40837   0.38507  -0.02930   0.50914
  34   38707.4    258.3   0.099218962   0.84387   0.24666  -0.50666   0.72548
  35   38849.5    257.4   0.039553655   0.33518   0.30067   0.41587   0.26802
  36   39064.5    256.0   0.104944419   0.88441  -0.30626   0.44414  -0.77030
  37   39415.1    253.7   0.032612041   0.27239  -0.17499  -0.11269  -0.47861
  38   39887.6    250.7   0.050366246   0.41570  -0.18006   0.20483  -0.58423
  39   40076.0    249.5   0.051423609   0.42243   0.41205   0.08248   0.49582
  40   40211.1    248.7   0.009885313   0.08093   0.07902   0.17992  -0.20571

FINAL SINGLE POINT ENERGY     -7767.333801784920

DIPOLE MOMENT
-------------
                                X             Y             Z
Electronic contribution:   -237.18716     -44.20323    -187.61826
Nuclear contribution   :    238.13952      40.53204     189.57937
                        -----------------------------------------
Total Dipole Moment    :      0.95236      -3.67119       1.96111
                        -----------------------------------------
Magnitude (a.u.)       :      4.26973
Magnitude (Debye)      :     10.85279

Rotational constants in cm-1:     0.001546     0.000106     0.000102
Rotational constants in MHz :    46.343188     3.169210     3.071960

                             ****ORCA TERMINATED NORMALLY****
TOTAL RUN TIME: 0 days 0 hours 13 minutes 58 seconds 185 msec
