                         Program Version 4.2.0 -  RELEASE  -
|  1> # ORCA input file
|  2> # SCF done       -184.730467557153          0.000158500863
|  3> ! CAM-B3LYP def2-SVP def2/J RIJCOSX Grid4 TightSCF
|  4> %maxcore 5000
|  5> %tddft
|  6>     Mode sTDDFT
|  7>     Ethresh 5.0
|  8>     maxcore 5000
|  9> end
| 10>
| 11> %pal
| 12>   nprocs 6
| 13>   end
| 14> * xyz 0 1
| 15>    C        4.58204         2.62125        -0.22636
| 16>    C        5.51053         1.77195         0.23232
| 17>    C        6.83837         2.08250         0.68168
| 18>    C        7.55193         1.01511         1.09861
| 19>    C        6.85791        -0.22623         1.01761
| 20>    S        5.24331         0.02712         0.37491
| 21>    C        7.32138        -1.46300         1.38219
| 22>    C        8.59059        -1.78998         1.92960
| 23>    C        8.74565        -3.10403         2.21405
| 24>    C        7.61455        -3.92425         1.91582
| 25>    S        6.34531        -2.91391         1.22766
| 26>    C        7.55645        -5.25803         2.18147
| 27>    C        6.50861        -6.21172         1.97117
| 28>    C        6.65338        -7.48010         2.56799
| 29>    C        5.67190        -8.42349         2.42017
| 30>    C        4.52443        -8.15202         1.65196
| 31>    C        4.37698        -6.91390         1.04129
| 32>    C        5.35787        -5.95817         1.20871
| 33>    C        3.66900        -9.31828         1.67573
| 34>    C        4.27864       -10.30294         2.47346
| 35>    C        5.61075        -9.81863         2.99599
| 36>    C        5.63627        -9.79205         4.53508
| 37>    C        4.50980        -8.95482         5.12877
| 38>    C        6.76689       -10.69244         2.47515
| 39>    C        6.81083       -10.76760         0.95379
| 40>    C        3.66571       -11.50957         2.69557
| 41>    C        2.41562       -11.77267         2.11432
| 42>    C        1.83918       -10.79690         1.28950
| 43>    C        2.44536        -9.57538         1.07301
| 44>    C        1.70765       -13.00965         2.35027
| 45>    C        1.95915       -13.86200         3.36327
| 46>    C        1.25451       -15.07386         3.61625
| 47>    O        0.29921       -15.53328         2.77234
| 48>    C       -0.18282       -16.69171         3.28204
| 49>    C        0.46876       -16.97672         4.46883
| 50>    C        1.39323       -15.94732         4.68885
| 51>    C        2.33110       -15.81483         5.83763
| 52>    C       -1.18714       -17.40073         2.55801
| 53>    C       -1.75916       -18.53585         3.00637
| 54>    C       -2.73920       -19.35320         2.33507
| 55>    C       -3.25555       -20.46244         3.02578
| 56>    C       -4.15757       -21.29434         2.41357
| 57>    C       -4.57255       -21.05124         1.09240
| 58>    C       -4.08274       -19.95016         0.40266
| 59>    C       -3.17736       -19.11474         1.02515
| 60>    C       -5.48620       -22.10074         0.69805
| 61>    C       -5.63907       -22.99040         1.77755
| 62>    C       -4.82056       -22.53516         2.96283
| 63>    C       -5.72136       -22.19970         4.16666
| 64>    C       -6.78836       -21.16303         3.83631
| 65>    C       -3.78375       -23.59549         3.37509
| 66>    C       -2.84671       -23.97802         2.23587
| 67>    C       -6.43962       -24.09793         1.67307
| 68>    C       -7.11832       -24.35607         0.46880
| 69>    C       -6.96057       -23.45285        -0.59577
| 70>    C       -6.15776       -22.33602        -0.49412
| 71>    C       -7.95519       -25.50892         0.28350
| 72>    C       -8.19687       -26.48640         1.19319
| 73>    C       -9.01721       -27.60549         0.94420
| 74>    C       -9.25847       -28.59595         1.85568
| 75>    C      -10.06100       -29.75361         1.67470
| 76>    C      -10.12044       -30.57291         2.75537
| 77>    C       -9.36887       -30.11759         3.86930
| 78>    S       -8.57940       -28.60080         3.48151
| 79>    C       -9.23428       -30.71698         5.09694
| 80>    C       -9.81639       -31.94017         5.53249
| 81>    C       -9.50932       -32.28472         6.80223
| 82>    C       -8.65291       -31.35396         7.48026
| 83>    S       -8.26808       -30.01706         6.38471
| 84>    C       -8.18891       -31.42979         8.73489
| 85>    H        4.78789         3.67496        -0.29369
| 86>    H        3.61072         2.28370        -0.53776
| 87>    H        7.19606         3.09701         0.67188
| 88>    H        8.56131         1.06727         1.46725
| 89>    H        9.34255        -1.04035         2.10015
| 90>    H        9.63749        -3.53183         2.63844
| 91>    H        8.44309        -5.65994         2.66016
| 92>    H        7.53745        -7.68992         3.15415
| 93>    H        3.50431        -6.69601         0.44376
| 94>    H        5.24222        -5.00035         0.72742
| 95>    H        6.59784        -9.39094         4.86298
| 96>    H        5.55966       -10.81715         4.90453
| 97>    H        4.57733        -7.92434         4.78721
| 98>    H        4.56826        -8.96277         6.21497
| 99>    H        3.54099        -9.35073         4.83225
|100>    H        6.65677       -11.69927         2.88416
|101>    H        7.70932       -10.28271         2.84548
|102>    H        5.88905       -11.19420         0.56464
|103>    H        7.64205       -11.39158         0.63293
|104>    H        6.93754        -9.77627         0.52431
|105>    H        4.14807       -12.26136         3.30158
|106>    H        0.88377       -11.00644         0.82929
|107>    H        1.97361        -8.83351         0.44564
|108>    H        0.89079       -13.23406         1.67716
|109>    H        2.73118       -13.64495         4.08693
|110>    H        0.30423       -17.82702         5.09865
|111>    H        2.21110       -16.65551         6.51579
|112>    H        2.13903       -14.89363         6.38688
|113>    H        3.36376       -15.79242         5.49063
|114>    H       -1.46108       -16.96440         1.60861
|115>    H       -1.45701       -18.90167         3.97911
|116>    H       -2.92921       -20.65252         4.03881
|117>    H       -4.39911       -19.75213        -0.61103
|118>    H       -2.78874       -18.26590         0.48404
|119>    H       -5.09370       -21.82696         4.97911
|120>    H       -6.20270       -23.11797         4.50996
|121>    H       -6.33103       -20.23346         3.50434
|122>    H       -7.39322       -20.95489         4.71605
|123>    H       -7.44288       -21.52451         3.04623
|124>    H       -4.31195       -24.48528         3.72415
|125>    H       -3.19832       -23.20630         4.21098
|126>    H       -3.40826       -24.38845         1.39953
|127>    H       -2.13345       -24.72696         2.57265
|128>    H       -2.29475       -23.10887         1.88461
|129>    H       -6.54573       -24.77105         2.50946
|130>    H       -7.48423       -23.64825        -1.52128
|131>    H       -6.05146       -21.65982        -1.32965
|132>    H       -8.42604       -25.59465        -0.68897
|133>    H       -7.74832       -26.44269         2.17643
|134>    H       -9.48493       -27.69520        -0.02789
|135>    H      -10.56697       -29.93729         0.74281
|136>    H      -10.68083       -31.49017         2.78949
|137>    H      -10.44514       -32.52247         4.88209
|138>    H       -9.85662       -33.17241         7.30077
|139>    H       -8.44871       -32.26066         9.36675
|140>    H       -7.54925       -30.67192         9.14825
|141> *
|142>
|143>                          ****END OF INPUT****

CARTESIAN COORDINATES (ANGSTROEM)
---------------------------------
  C      4.582040    2.621250   -0.226360
  C      5.510530    1.771950    0.232320
  C      6.838370    2.082500    0.681680
  C      7.551930    1.015110    1.098610
  C      6.857910   -0.226230    1.017610
  S      5.243310    0.027120    0.374910
  C      7.321380   -1.463000    1.382190
  C      8.590590   -1.789980    1.929600
  C      8.745650   -3.104030    2.214050
  C      7.614550   -3.924250    1.915820
  S      6.345310   -2.913910    1.227660
  C      7.556450   -5.258030    2.181470
  C      6.508610   -6.211720    1.971170
  C      6.653380   -7.480100    2.567990
  C      5.671900   -8.423490    2.420170
  C      4.524430   -8.152020    1.651960
  C      4.376980   -6.913900    1.041290
  C      5.357870   -5.958170    1.208710
  C      3.669000   -9.318280    1.675730
  C      4.278640  -10.302940    2.473460
  C      5.610750   -9.818630    2.995990
  C      5.636270   -9.792050    4.535080
  C      4.509800   -8.954820    5.128770
  C      6.766890  -10.692440    2.475150
  C      6.810830  -10.767600    0.953790
  C      3.665710  -11.509570    2.695570
  C      2.415620  -11.772670    2.114320
  C      1.839180  -10.796900    1.289500
  C      2.445360   -9.575380    1.073010
  C      1.707650  -13.009650    2.350270
  C      1.959150  -13.862000    3.363270
  C      1.254510  -15.073860    3.616250
  O      0.299210  -15.533280    2.772340
  C     -0.182820  -16.691710    3.282040
  C      0.468760  -16.976720    4.468830
  C      1.393230  -15.947320    4.688850
  C      2.331100  -15.814830    5.837630
  C     -1.187140  -17.400730    2.558010
  C     -1.759160  -18.535850    3.006370
  C     -2.739200  -19.353200    2.335070
  C     -3.255550  -20.462440    3.025780
  C     -4.157570  -21.294340    2.413570
  C     -4.572550  -21.051240    1.092400
  C     -4.082740  -19.950160    0.402660
  C     -3.177360  -19.114740    1.025150
  C     -5.486200  -22.100740    0.698050
  C     -5.639070  -22.990400    1.777550
  C     -4.820560  -22.535160    2.962830
  C     -5.721360  -22.199700    4.166660
  C     -6.788360  -21.163030    3.836310
  C     -3.783750  -23.595490    3.375090
  C     -2.846710  -23.978020    2.235870
  C     -6.439620  -24.097930    1.673070
  C     -7.118320  -24.356070    0.468800
  C     -6.960570  -23.452850   -0.595770
  C     -6.157760  -22.336020   -0.494120
  C     -7.955190  -25.508920    0.283500
  C     -8.196870  -26.486400    1.193190
  C     -9.017210  -27.605490    0.944200
  C     -9.258470  -28.595950    1.855680
  C    -10.061000  -29.753610    1.674700
  C    -10.120440  -30.572910    2.755370
  C     -9.368870  -30.117590    3.869300
  S     -8.579400  -28.600800    3.481510
  C     -9.234280  -30.716980    5.096940
  C     -9.816390  -31.940170    5.532490
  C     -9.509320  -32.284720    6.802230
  C     -8.652910  -31.353960    7.480260
  S     -8.268080  -30.017060    6.384710
  C     -8.188910  -31.429790    8.734890
  H      4.787890    3.674960   -0.293690
  H      3.610720    2.283700   -0.537760
  H      7.196060    3.097010    0.671880
  H      8.561310    1.067270    1.467250
  H      9.342550   -1.040350    2.100150
  H      9.637490   -3.531830    2.638440
  H      8.443090   -5.659940    2.660160
  H      7.537450   -7.689920    3.154150
  H      3.504310   -6.696010    0.443760
  H      5.242220   -5.000350    0.727420
  H      6.597840   -9.390940    4.862980
  H      5.559660  -10.817150    4.904530
  H      4.577330   -7.924340    4.787210
  H      4.568260   -8.962770    6.214970
  H      3.540990   -9.350730    4.832250
  H      6.656770  -11.699270    2.884160
  H      7.709320  -10.282710    2.845480
  H      5.889050  -11.194200    0.564640
  H      7.642050  -11.391580    0.632930
  H      6.937540   -9.776270    0.524310
  H      4.148070  -12.261360    3.301580
  H      0.883770  -11.006440    0.829290
  H      1.973610   -8.833510    0.445640
  H      0.890790  -13.234060    1.677160
  H      2.731180  -13.644950    4.086930
  H      0.304230  -17.827020    5.098650
  H      2.211100  -16.655510    6.515790
  H      2.139030  -14.893630    6.386880
  H      3.363760  -15.792420    5.490630
  H     -1.461080  -16.964400    1.608610
  H     -1.457010  -18.901670    3.979110
  H     -2.929210  -20.652520    4.038810
  H     -4.399110  -19.752130   -0.611030
  H     -2.788740  -18.265900    0.484040
  H     -5.093700  -21.826960    4.979110
  H     -6.202700  -23.117970    4.509960
  H     -6.331030  -20.233460    3.504340
  H     -7.393220  -20.954890    4.716050
  H     -7.442880  -21.524510    3.046230
  H     -4.311950  -24.485280    3.724150
  H     -3.198320  -23.206300    4.210980
  H     -3.408260  -24.388450    1.399530
  H     -2.133450  -24.726960    2.572650
  H     -2.294750  -23.108870    1.884610
  H     -6.545730  -24.771050    2.509460
  H     -7.484230  -23.648250   -1.521280
  H     -6.051460  -21.659820   -1.329650
  H     -8.426040  -25.594650   -0.688970
  H     -7.748320  -26.442690    2.176430
  H     -9.484930  -27.695200   -0.027890
  H    -10.566970  -29.937290    0.742810
  H    -10.680830  -31.490170    2.789490
  H    -10.445140  -32.522470    4.882090
  H     -9.856620  -33.172410    7.300770
  H     -8.448710  -32.260660    9.366750
  H     -7.549250  -30.671920    9.148250

 Total Charge           Charge          ....    0
 Multiplicity           Mult            ....    1
 Number of Electrons    NEL             ....  518
 Basis Dimension        Dim             .... 1276

ORBITAL ENERGIES
----------------

  NO   OCC          E(Eh)            E(eV)
   0   2.0000     -88.934840     -2420.0400
   1   2.0000     -88.933892     -2420.0142
   2   2.0000     -88.930553     -2419.9234
   3   2.0000     -88.929663     -2419.8991
   4   2.0000     -19.273645      -524.4626
   5   2.0000     -10.315480      -280.6985
   6   2.0000     -10.308023      -280.4956
   7   2.0000     -10.301620      -280.3213
   8   2.0000     -10.301036      -280.3054
   9   2.0000     -10.300659      -280.2952
  10   2.0000     -10.299676      -280.2684
  11   2.0000     -10.299405      -280.2610
  12   2.0000     -10.298802      -280.2447
  13   2.0000     -10.297062      -280.1973
  14   2.0000     -10.297053      -280.1971
  15   2.0000     -10.282782      -279.8087
  16   2.0000     -10.282304      -279.7957
  17   2.0000     -10.280498      -279.7466
  18   2.0000     -10.277938      -279.6769
  19   2.0000     -10.277432      -279.6631
  20   2.0000     -10.277050      -279.6527
  21   2.0000     -10.276884      -279.6482
  22   2.0000     -10.276207      -279.6298
  23   2.0000     -10.270226      -279.4671
  24   2.0000     -10.270195      -279.4662
  25   2.0000     -10.269805      -279.4556
  26   2.0000     -10.269760      -279.4544
  27   2.0000     -10.269407      -279.4448
  28   2.0000     -10.269128      -279.4372
  29   2.0000     -10.268771      -279.4275
  30   2.0000     -10.268230      -279.4127
  31   2.0000     -10.266919      -279.3771
  32   2.0000     -10.266876      -279.3759
  33   2.0000     -10.266671      -279.3703
  34   2.0000     -10.266550      -279.3670
  35   2.0000     -10.265688      -279.3436
  36   2.0000     -10.264082      -279.2999
  37   2.0000     -10.263957      -279.2965
  38   2.0000     -10.263954      -279.2964
  39   2.0000     -10.263019      -279.2710
  40   2.0000     -10.262297      -279.2513
  41   2.0000     -10.262115      -279.2464
  42   2.0000     -10.261720      -279.2356
  43   2.0000     -10.261679      -279.2345
  44   2.0000     -10.261531      -279.2305
  45   2.0000     -10.261468      -279.2287
  46   2.0000     -10.261443      -279.2280
  47   2.0000     -10.260827      -279.2113
  48   2.0000     -10.260716      -279.2083
  49   2.0000     -10.260624      -279.2058
  50   2.0000     -10.260578      -279.2045
  51   2.0000     -10.260322      -279.1976
  52   2.0000     -10.260126      -279.1922
  53   2.0000     -10.259192      -279.1668
  54   2.0000     -10.259170      -279.1662
  55   2.0000     -10.259120      -279.1648
  56   2.0000     -10.258833      -279.1570
  57   2.0000     -10.258185      -279.1394
  58   2.0000     -10.257913      -279.1320
  59   2.0000     -10.257333      -279.1162
  60   2.0000     -10.257270      -279.1145
  61   2.0000     -10.255537      -279.0673
  62   2.0000     -10.255305      -279.0610
  63   2.0000     -10.255178      -279.0576
  64   2.0000     -10.255052      -279.0542
  65   2.0000     -10.254699      -279.0445
  66   2.0000     -10.238491      -278.6035
  67   2.0000     -10.238292      -278.5981
  68   2.0000     -10.238179      -278.5950
  69   2.0000     -10.238120      -278.5934
  70   2.0000      -8.030659      -218.5253
  71   2.0000      -8.030098      -218.5101
  72   2.0000      -8.027232      -218.4321
  73   2.0000      -8.026342      -218.4079
  74   2.0000      -6.000492      -163.2817
  75   2.0000      -5.999879      -163.2650
  76   2.0000      -5.997072      -163.1886
  77   2.0000      -5.996479      -163.1725
  78   2.0000      -5.996229      -163.1657
  79   2.0000      -5.995976      -163.1588
  80   2.0000      -5.993184      -163.0828
  81   2.0000      -5.992269      -163.0579
  82   2.0000      -5.991398      -163.0342
  83   2.0000      -5.990822      -163.0186
  84   2.0000      -5.987717      -162.9341
  85   2.0000      -5.986799      -162.9091
  86   2.0000      -1.190202       -32.3870
  87   2.0000      -0.983962       -26.7750
  88   2.0000      -0.983000       -26.7488
  89   2.0000      -0.978853       -26.6359
  90   2.0000      -0.977215       -26.5914
  91   2.0000      -0.961158       -26.1544
  92   2.0000      -0.960088       -26.1253
  93   2.0000      -0.938360       -25.5341
  94   2.0000      -0.935182       -25.4476
  95   2.0000      -0.915396       -24.9092
  96   2.0000      -0.911346       -24.7990
  97   2.0000      -0.898453       -24.4481
  98   2.0000      -0.894784       -24.3483
  99   2.0000      -0.893429       -24.3114
 100   2.0000      -0.881925       -23.9984
 101   2.0000      -0.876315       -23.8457
 102   2.0000      -0.869695       -23.6656
 103   2.0000      -0.861056       -23.4305
 104   2.0000      -0.853089       -23.2137
 105   2.0000      -0.839701       -22.8494
 106   2.0000      -0.836935       -22.7742
 107   2.0000      -0.836033       -22.7496
 108   2.0000      -0.830000       -22.5854
 109   2.0000      -0.829213       -22.5640
 110   2.0000      -0.829047       -22.5595
 111   2.0000      -0.823955       -22.4210
 112   2.0000      -0.823643       -22.4125
 113   2.0000      -0.822217       -22.3737
 114   2.0000      -0.819201       -22.2916
 115   2.0000      -0.813141       -22.1267
 116   2.0000      -0.810201       -22.0467
 117   2.0000      -0.806037       -21.9334
 118   2.0000      -0.795446       -21.6452
 119   2.0000      -0.789318       -21.4784
 120   2.0000      -0.775208       -21.0945
 121   2.0000      -0.764625       -20.8065
 122   2.0000      -0.754349       -20.5269
 123   2.0000      -0.752134       -20.4666
 124   2.0000      -0.751508       -20.4496
 125   2.0000      -0.733982       -19.9727
 126   2.0000      -0.722618       -19.6634
 127   2.0000      -0.711294       -19.3553
 128   2.0000      -0.709778       -19.3140
 129   2.0000      -0.706182       -19.2162
 130   2.0000      -0.689475       -18.7616
 131   2.0000      -0.682317       -18.5668
 132   2.0000      -0.675928       -18.3929
 133   2.0000      -0.670438       -18.2435
 134   2.0000      -0.667415       -18.1613
 135   2.0000      -0.666408       -18.1339
 136   2.0000      -0.666226       -18.1289
 137   2.0000      -0.665885       -18.1197
 138   2.0000      -0.660201       -17.9650
 139   2.0000      -0.655227       -17.8296
 140   2.0000      -0.646285       -17.5863
 141   2.0000      -0.640531       -17.4297
 142   2.0000      -0.636617       -17.3232
 143   2.0000      -0.632981       -17.2243
 144   2.0000      -0.625640       -17.0245
 145   2.0000      -0.618576       -16.8323
 146   2.0000      -0.614940       -16.7334
 147   2.0000      -0.612365       -16.6633
 148   2.0000      -0.609543       -16.5865
 149   2.0000      -0.607037       -16.5183
 150   2.0000      -0.595817       -16.2130
 151   2.0000      -0.591048       -16.0832
 152   2.0000      -0.590700       -16.0738
 153   2.0000      -0.587312       -15.9816
 154   2.0000      -0.585052       -15.9201
 155   2.0000      -0.581799       -15.8316
 156   2.0000      -0.578456       -15.7406
 157   2.0000      -0.566053       -15.4031
 158   2.0000      -0.562277       -15.3003
 159   2.0000      -0.556227       -15.1357
 160   2.0000      -0.551321       -15.0022
 161   2.0000      -0.544489       -14.8163
 162   2.0000      -0.542123       -14.7519
 163   2.0000      -0.536283       -14.5930
 164   2.0000      -0.534696       -14.5498
 165   2.0000      -0.534480       -14.5439
 166   2.0000      -0.531264       -14.4564
 167   2.0000      -0.528433       -14.3794
 168   2.0000      -0.526186       -14.3182
 169   2.0000      -0.524673       -14.2771
 170   2.0000      -0.522490       -14.2177
 171   2.0000      -0.510852       -13.9010
 172   2.0000      -0.510478       -13.8908
 173   2.0000      -0.509487       -13.8639
 174   2.0000      -0.509435       -13.8624
 175   2.0000      -0.508866       -13.8469
 176   2.0000      -0.508306       -13.8317
 177   2.0000      -0.506834       -13.7916
 178   2.0000      -0.504401       -13.7255
 179   2.0000      -0.502754       -13.6806
 180   2.0000      -0.497944       -13.5497
 181   2.0000      -0.492877       -13.4119
 182   2.0000      -0.489184       -13.3114
 183   2.0000      -0.488217       -13.2851
 184   2.0000      -0.487173       -13.2567
 185   2.0000      -0.486960       -13.2508
 186   2.0000      -0.486169       -13.2293
 187   2.0000      -0.484903       -13.1949
 188   2.0000      -0.478834       -13.0297
 189   2.0000      -0.477888       -13.0040
 190   2.0000      -0.476869       -12.9763
 191   2.0000      -0.474525       -12.9125
 192   2.0000      -0.472242       -12.8503
 193   2.0000      -0.470904       -12.8139
 194   2.0000      -0.468220       -12.7409
 195   2.0000      -0.465995       -12.6804
 196   2.0000      -0.462560       -12.5869
 197   2.0000      -0.462493       -12.5851
 198   2.0000      -0.461057       -12.5460
 199   2.0000      -0.459637       -12.5074
 200   2.0000      -0.459267       -12.4973
 201   2.0000      -0.458837       -12.4856
 202   2.0000      -0.454646       -12.3715
 203   2.0000      -0.452493       -12.3130
 204   2.0000      -0.451237       -12.2788
 205   2.0000      -0.450680       -12.2636
 206   2.0000      -0.446095       -12.1389
 207   2.0000      -0.443425       -12.0662
 208   2.0000      -0.442249       -12.0342
 209   2.0000      -0.438790       -11.9401
 210   2.0000      -0.436408       -11.8753
 211   2.0000      -0.433159       -11.7869
 212   2.0000      -0.431564       -11.7435
 213   2.0000      -0.427303       -11.6275
 214   2.0000      -0.424427       -11.5492
 215   2.0000      -0.420066       -11.4306
 216   2.0000      -0.419223       -11.4076
 217   2.0000      -0.418279       -11.3820
 218   2.0000      -0.416888       -11.3441
 219   2.0000      -0.416745       -11.3402
 220   2.0000      -0.413255       -11.2452
 221   2.0000      -0.412976       -11.2376
 222   2.0000      -0.410388       -11.1672
 223   2.0000      -0.408880       -11.1262
 224   2.0000      -0.408551       -11.1172
 225   2.0000      -0.407969       -11.1014
 226   2.0000      -0.406338       -11.0570
 227   2.0000      -0.399927       -10.8826
 228   2.0000      -0.399200       -10.8628
 229   2.0000      -0.397616       -10.8197
 230   2.0000      -0.390642       -10.6299
 231   2.0000      -0.387980       -10.5575
 232   2.0000      -0.386166       -10.5081
 233   2.0000      -0.384086       -10.4515
 234   2.0000      -0.381864       -10.3910
 235   2.0000      -0.378174       -10.2906
 236   2.0000      -0.375970       -10.2307
 237   2.0000      -0.374739       -10.1972
 238   2.0000      -0.373646       -10.1674
 239   2.0000      -0.372917       -10.1476
 240   2.0000      -0.363758        -9.8984
 241   2.0000      -0.347569        -9.4578
 242   2.0000      -0.341559        -9.2943
 243   2.0000      -0.330133        -8.9834
 244   2.0000      -0.329784        -8.9739
 245   2.0000      -0.329127        -8.9560
 246   2.0000      -0.320859        -8.7310
 247   2.0000      -0.315735        -8.5916
 248   2.0000      -0.312774        -8.5110
 249   2.0000      -0.310444        -8.4476
 250   2.0000      -0.306323        -8.3355
 251   2.0000      -0.305144        -8.3034
 252   2.0000      -0.304066        -8.2740
 253   2.0000      -0.293098        -7.9756
 254   2.0000      -0.273677        -7.4471
 255   2.0000      -0.257995        -7.0204
 256   2.0000      -0.224179        -6.1002
 257   2.0000      -0.209183        -5.6922
 258   2.0000      -0.204317        -5.5597
 259   0.0000      -0.063217        -1.7202
 260   0.0000      -0.056774        -1.5449
 261   0.0000      -0.033965        -0.9242
 262   0.0000      -0.010452        -0.2844
 263   0.0000       0.005676         0.1545

MULLIKEN ATOMIC CHARGES
-----------------------
   0 C :   -0.032549
   1 C :   -0.062172
   2 C :    0.046866
   3 C :    0.034030
   4 C :   -0.071530
   5 S :    0.075075
   6 C :   -0.038894
   7 C :    0.028675
   8 C :    0.031785
   9 C :   -0.003937
  10 S :    0.056389
  11 C :   -0.046081
  12 C :    0.119857
  13 C :   -0.116478
  14 C :    0.023365
  15 C :    0.108013
  16 C :   -0.051112
  17 C :   -0.020605
  18 C :    0.105129
  19 C :    0.015875
  20 C :   -0.139340
  21 C :    0.071277
  22 C :    0.024686
  23 C :    0.074530
  24 C :    0.025470
  25 C :   -0.095659
  26 C :    0.121091
  27 C :   -0.015510
  28 C :   -0.052556
  29 C :   -0.012645
  30 C :   -0.033746
  31 C :    0.125073
  32 O :   -0.203331
  33 C :    0.188080
  34 C :   -0.107953
  35 C :   -0.100479
  36 C :    0.118246
  37 C :    0.031796
  38 C :   -0.017311
  39 C :    0.132870
  40 C :   -0.110489
  41 C :    0.019078
  42 C :    0.102664
  43 C :   -0.041883
  44 C :   -0.017726
  45 C :    0.105849
  46 C :    0.009977
  47 C :   -0.138921
  48 C :    0.072285
  49 C :    0.027138
  50 C :    0.067531
  51 C :    0.027635
  52 C :   -0.087277
  53 C :    0.128006
  54 C :   -0.017957
  55 C :   -0.049793
  56 C :   -0.013471
  57 C :    0.016628
  58 C :   -0.012257
  59 C :   -0.020557
  60 C :    0.039374
  61 C :    0.025897
  62 C :   -0.042325
  63 S :    0.055420
  64 C :   -0.069092
  65 C :    0.026836
  66 C :    0.050872
  67 C :   -0.063002
  68 S :    0.073567
  69 C :   -0.034138
  70 H :    0.017506
  71 H :    0.019173
  72 H :   -0.014092
  73 H :   -0.014139
  74 H :   -0.017001
  75 H :   -0.015816
  76 H :   -0.026248
  77 H :   -0.045183
  78 H :   -0.037642
  79 H :   -0.019770
  80 H :   -0.006278
  81 H :   -0.008575
  82 H :    0.023654
  83 H :    0.006381
  84 H :    0.021234
  85 H :   -0.005651
  86 H :   -0.006510
  87 H :    0.023074
  88 H :    0.004963
  89 H :    0.021473
  90 H :   -0.047199
  91 H :   -0.032751
  92 H :   -0.037218
  93 H :   -0.014486
  94 H :   -0.018829
  95 H :   -0.029190
  96 H :    0.009643
  97 H :    0.029576
  98 H :    0.027754
  99 H :   -0.013921
 100 H :   -0.030937
 101 H :   -0.045715
 102 H :   -0.039369
 103 H :   -0.032543
 104 H :   -0.005808
 105 H :   -0.002227
 106 H :    0.021245
 107 H :    0.006115
 108 H :    0.022051
 109 H :   -0.002868
 110 H :   -0.005778
 111 H :    0.021788
 112 H :    0.006803
 113 H :    0.019894
 114 H :   -0.046375
 115 H :   -0.032758
 116 H :   -0.037700
 117 H :   -0.030651
 118 H :   -0.000016
 119 H :   -0.021380
 120 H :   -0.015981
 121 H :   -0.017058
 122 H :   -0.012954
 123 H :   -0.014601
 124 H :    0.017399
 125 H :    0.019330
Sum of atomic charges:   -0.0000000

LOEWDIN ATOMIC CHARGES
----------------------
   0 C :   -0.082557
   1 C :   -0.138670
   2 C :   -0.034558
   3 C :   -0.026144
   4 C :   -0.180076
   5 S :    0.344995
   6 C :   -0.179644
   7 C :   -0.038768
   8 C :   -0.029608
   9 C :   -0.145697
  10 S :    0.370217
  11 C :   -0.051992
  12 C :   -0.028878
  13 C :   -0.020904
  14 C :    0.000449
  15 C :   -0.016809
  16 C :   -0.017343
  17 C :   -0.024581
  18 C :   -0.021539
  19 C :    0.004511
  20 C :   -0.035602
  21 C :   -0.012165
  22 C :   -0.058006
  23 C :   -0.011424
  24 C :   -0.057446
  25 C :   -0.023223
  26 C :   -0.021958
  27 C :   -0.020787
  28 C :   -0.019552
  29 C :   -0.019210
  30 C :   -0.041463
  31 C :    0.013803
  32 O :    0.010541
  33 C :    0.030578
  34 C :   -0.068399
  35 C :   -0.060151
  36 C :   -0.047594
  37 C :   -0.034994
  38 C :   -0.015511
  39 C :   -0.024012
  40 C :   -0.023257
  41 C :    0.002844
  42 C :   -0.019816
  43 C :   -0.017538
  44 C :   -0.015899
  45 C :   -0.017533
  46 C :    0.004700
  47 C :   -0.035737
  48 C :   -0.010933
  49 C :   -0.057440
  50 C :   -0.012118
  51 C :   -0.057671
  52 C :   -0.017034
  53 C :   -0.026320
  54 C :   -0.019041
  55 C :   -0.021608
  56 C :   -0.015209
  57 C :   -0.033361
  58 C :   -0.054498
  59 C :   -0.145964
  60 C :   -0.033906
  61 C :   -0.033949
  62 C :   -0.178627
  63 S :    0.356334
  64 C :   -0.181282
  65 C :   -0.026841
  66 C :   -0.035479
  67 C :   -0.138794
  68 S :    0.345489
  69 C :   -0.083025
  70 H :    0.027476
  71 H :    0.025262
  72 H :    0.032316
  73 H :    0.031451
  74 H :    0.030187
  75 H :    0.031732
  76 H :    0.031443
  77 H :    0.021895
  78 H :    0.026787
  79 H :    0.012194
  80 H :    0.018418
  81 H :    0.017628
  82 H :    0.026480
  83 H :    0.022581
  84 H :    0.025555
  85 H :    0.018652
  86 H :    0.018274
  87 H :    0.026297
  88 H :    0.022484
  89 H :    0.025592
  90 H :    0.020776
  91 H :    0.025204
  92 H :    0.026009
  93 H :    0.028465
  94 H :    0.030370
  95 H :    0.024356
  96 H :    0.033658
  97 H :    0.036787
  98 H :    0.035808
  99 H :    0.032135
 100 H :    0.025236
 101 H :    0.022061
 102 H :    0.025885
 103 H :    0.024732
 104 H :    0.018828
 105 H :    0.019807
 106 H :    0.025474
 107 H :    0.023108
 108 H :    0.025739
 109 H :    0.019801
 110 H :    0.018608
 111 H :    0.025813
 112 H :    0.023085
 113 H :    0.025117
 114 H :    0.023113
 115 H :    0.024615
 116 H :    0.025876
 117 H :    0.025606
 118 H :    0.019014
 119 H :    0.031100
 120 H :    0.032399
 121 H :    0.030218
 122 H :    0.031493
 123 H :    0.032106
 124 H :    0.027438
 125 H :    0.025132

  Mayer bond orders larger than 0.100000
B(  0-C ,  1-C ) :   1.8677 B(  0-C , 70-H ) :   0.9504 B(  0-C , 71-H ) :   0.9408
B(  1-C ,  2-C ) :   1.0780 B(  1-C ,  5-S ) :   1.0077 B(  2-C ,  3-C ) :   1.6664
B(  2-C , 72-H ) :   0.9929 B(  3-C ,  4-C ) :   1.1483 B(  3-C , 73-H ) :   0.9903
B(  4-C ,  5-S ) :   1.0373 B(  4-C ,  6-C ) :   1.5769 B(  6-C ,  7-C ) :   1.1555
B(  6-C , 10-S ) :   1.0276 B(  7-C ,  8-C ) :   1.6280 B(  7-C , 74-H ) :   0.9915
B(  8-C ,  9-C ) :   1.1155 B(  8-C , 75-H ) :   0.9981 B(  9-C , 10-S ) :   1.0206
B(  9-C , 11-C ) :   1.6200 B( 11-C , 12-C ) :   1.0943 B( 11-C , 76-H ) :   0.9692
B( 12-C , 13-C ) :   1.2648 B( 12-C , 17-C ) :   1.3305 B( 13-C , 14-C ) :   1.3925
B( 13-C , 77-H ) :   1.0124 B( 14-C , 15-C ) :   1.3572 B( 14-C , 20-C ) :   0.9141
B( 15-C , 16-C ) :   1.3364 B( 15-C , 18-C ) :   0.9955 B( 16-C , 17-C ) :   1.4084
B( 16-C , 78-H ) :   0.9898 B( 17-C , 79-H ) :   0.9694 B( 18-C , 19-C ) :   1.3552
B( 18-C , 28-C ) :   1.3439 B( 19-C , 20-C ) :   0.9163 B( 19-C , 25-C ) :   1.4045
B( 20-C , 21-C ) :   1.0402 B( 20-C , 23-C ) :   1.0367 B( 21-C , 22-C ) :   1.1011
B( 21-C , 80-H ) :   0.9388 B( 21-C , 81-H ) :   0.9381 B( 22-C , 82-H ) :   0.9646
B( 22-C , 83-H ) :   0.9639 B( 22-C , 84-H ) :   0.9641 B( 23-C , 24-C ) :   1.1007
B( 23-C , 85-H ) :   0.9389 B( 23-C , 86-H ) :   0.9389 B( 24-C , 87-H ) :   0.9648
B( 24-C , 88-H ) :   0.9638 B( 24-C , 89-H ) :   0.9644 B( 25-C , 26-C ) :   1.2993
B( 25-C , 90-H ) :   0.9978 B( 26-C , 27-C ) :   1.3424 B( 26-C , 29-C ) :   1.0391
B( 27-C , 28-C ) :   1.3736 B( 27-C , 91-H ) :   0.9924 B( 28-C , 92-H ) :   0.9913
B( 29-C , 30-C ) :   1.6787 B( 29-C , 93-H ) :   0.9915 B( 30-C , 31-C ) :   1.1597
B( 30-C , 94-H ) :   0.9482 B( 31-C , 32-O ) :   1.1407 B( 31-C , 35-C ) :   1.4354
B( 32-O , 33-C ) :   1.1379 B( 33-C , 34-C ) :   1.4491 B( 33-C , 37-C ) :   1.1078
B( 34-C , 35-C ) :   1.2662 B( 34-C , 95-H ) :   1.0074 B( 35-C , 36-C ) :   1.0927
B( 36-C , 96-H ) :   0.9506 B( 36-C , 97-H ) :   0.9469 B( 36-C , 98-H ) :   0.9460
B( 37-C , 38-C ) :   1.6747 B( 37-C , 99-H ) :   0.9613 B( 38-C , 39-C ) :   1.0809
B( 38-C ,100-H ) :   0.9822 B( 39-C , 40-C ) :   1.2815 B( 39-C , 44-C ) :   1.3412
B( 40-C , 41-C ) :   1.3815 B( 40-C ,101-H ) :   1.0120 B( 41-C , 42-C ) :   1.3687
B( 41-C , 47-C ) :   0.9139 B( 42-C , 43-C ) :   1.3288 B( 42-C , 45-C ) :   0.9967
B( 43-C , 44-C ) :   1.4010 B( 43-C ,102-H ) :   0.9887 B( 44-C ,103-H ) :   0.9849
B( 45-C , 46-C ) :   1.3493 B( 45-C , 55-C ) :   1.3433 B( 46-C , 47-C ) :   0.9154
B( 46-C , 52-C ) :   1.4245 B( 47-C , 48-C ) :   1.0349 B( 47-C , 50-C ) :   1.0416
B( 48-C , 49-C ) :   1.1016 B( 48-C ,104-H ) :   0.9392 B( 48-C ,105-H ) :   0.9394
B( 49-C ,106-H ) :   0.9646 B( 49-C ,107-H ) :   0.9635 B( 49-C ,108-H ) :   0.9641
B( 50-C , 51-C ) :   1.1014 B( 50-C ,109-H ) :   0.9387 B( 50-C ,110-H ) :   0.9383
B( 51-C ,111-H ) :   0.9642 B( 51-C ,112-H ) :   0.9640 B( 51-C ,113-H ) :   0.9642
B( 52-C , 53-C ) :   1.2892 B( 52-C ,114-H ) :   0.9977 B( 53-C , 54-C ) :   1.3307
B( 53-C , 56-C ) :   1.0689 B( 54-C , 55-C ) :   1.3779 B( 54-C ,115-H ) :   0.9917
B( 55-C ,116-H ) :   0.9896 B( 56-C , 57-C ) :   1.6570 B( 56-C ,117-H ) :   0.9884
B( 57-C , 58-C ) :   1.1411 B( 57-C ,118-H ) :   0.9616 B( 58-C , 59-C ) :   1.5837
B( 58-C ,119-H ) :   0.9846 B( 59-C , 60-C ) :   1.1283 B( 59-C , 63-S ) :   1.0228
B( 60-C , 61-C ) :   1.6125 B( 60-C ,120-H ) :   0.9980 B( 61-C , 62-C ) :   1.1680
B( 61-C ,121-H ) :   0.9924 B( 62-C , 63-S ) :   1.0369 B( 62-C , 64-C ) :   1.5621
B( 64-C , 65-C ) :   1.1531 B( 64-C , 68-S ) :   1.0384 B( 65-C , 66-C ) :   1.6617
B( 65-C ,122-H ) :   0.9915 B( 66-C , 67-C ) :   1.0793 B( 66-C ,123-H ) :   0.9931
B( 67-C , 68-S ) :   1.0087 B( 67-C , 69-C ) :   1.8643 B( 69-C ,124-H ) :   0.9503
B( 69-C ,125-H ) :   0.9417

-----------------------------------------------------------------------------
         ABSORPTION SPECTRUM VIA TRANSITION ELECTRIC DIPOLE MOMENTS
-----------------------------------------------------------------------------
State   Energy  Wavelength   fosc         T2         TX        TY        TZ
        (cm-1)    (nm)                  (au**2)     (au)      (au)      (au)
-----------------------------------------------------------------------------
   0   17985.0    556.0   2.816135199  51.54876   2.27837   6.08305  -3.05847
   1   19780.2    505.6   1.533946200  25.53021  -0.82664  -4.98455   0.03364
   2   23650.8    422.8   0.902397251  12.56111   2.84523   1.13993   1.77943
   3   25117.3    398.1   0.075909839   0.99495  -0.90911  -0.30049  -0.27959
   4   26379.8    379.1   0.034904127   0.43559   0.12578   0.30048   0.57400
   5   27794.8    359.8   0.165257515   1.95737   0.65083   0.81816  -0.92974
   6   28132.9    355.5   0.199975456   2.34012  -0.56725  -1.00285  -1.00629
   7   28514.9    350.7   0.003457841   0.03992  -0.12075   0.07415   0.14087
   8   30239.0    330.7   0.059018702   0.64254  -0.27775  -0.71136  -0.24362
   9   30643.0    326.3   0.094245062   1.01252  -0.68693   0.03727  -0.73434
  10   31771.7    314.7   0.147741022   1.53086  -0.98808   0.02617  -0.74422
  11   32557.9    307.1   0.182568213   1.84605  -0.67043  -0.84386  -0.82733
  12   33325.9    300.1   0.143043181   1.41306  -0.56381  -0.97763   0.37339
  13   34408.5    290.6   0.000350467   0.00335  -0.03365  -0.03759  -0.02843
  14   34441.0    290.4   0.218727854   2.09076  -1.24874  -0.61493  -0.39149
  15   34944.2    286.2   0.031741301   0.29904  -0.41530  -0.22219  -0.27785
  16   35494.5    281.7   0.021251458   0.19711   0.43800  -0.02657   0.06750
  17   35917.0    278.4   0.023455380   0.21499   0.06552  -0.22323   0.40108
  18   36293.7    275.5   0.097810831   0.88722  -0.46600   0.49726  -0.65023
  19   36641.8    272.9   0.076352756   0.68600  -0.62551  -0.48886  -0.23612
  20   37028.1    270.1   0.030599353   0.27205   0.40065  -0.02311   0.33316
  21   37716.1    265.1   0.012944854   0.11299   0.23700   0.17387   0.16307
  22   38021.8    263.0   0.008285004   0.07174  -0.18544  -0.19125   0.02778
  23   38325.0    260.9   0.048381627   0.41560  -0.32636  -0.55327   0.05463
  24   38847.9    257.4   0.013005829   0.11022   0.24509   0.22043  -0.03950
  25   39459.8    253.4   0.028605465   0.23865   0.02962  -0.30885   0.37734
  26   39728.4    251.7   0.001943782   0.01611  -0.06245  -0.04827   0.09939
  27   39893.2    250.7   0.022798439   0.18814  -0.14476  -0.40280   0.07027
  28   40322.0    248.0   0.068542615   0.55962  -0.25567   0.20841  -0.67143

FINAL SINGLE POINT ENERGY     -4174.715383861637

DIPOLE MOMENT
-------------
                                X             Y             Z
Electronic contribution:    -15.27606      14.31854     -15.09461
Nuclear contribution   :     15.64887     -14.95566      15.58040
                        -----------------------------------------
Total Dipole Moment    :      0.37281      -0.63712       0.48579
                        -----------------------------------------
Magnitude (a.u.)       :      0.88368
Magnitude (Debye)      :      2.24614

Rotational constants in cm-1:     0.003060     0.000119     0.000117
Rotational constants in MHz :    91.742641     3.568118     3.495663

                             ****ORCA TERMINATED NORMALLY****
TOTAL RUN TIME: 0 days 0 hours 16 minutes 27 seconds 780 msec
