                         Program Version 4.2.0 -  RELEASE  -
|  1> # ORCA input file
|  2> # SCF done       -209.697928951645          0.000840507067
|  3> ! CAM-B3LYP def2-SVP def2/J RIJCOSX Grid4 TightSCF
|  4> %maxcore 5000
|  5> %tddft
|  6>     Mode sTDDFT
|  7>     Ethresh 5.0
|  8>     maxcore 5000
|  9> end
| 10>
| 11> %pal
| 12>   nprocs 6
| 13>   end
| 14> * xyz 0 1
| 15>    C       -7.94084        -0.84327        -7.47987
| 16>    C       -8.81212        -1.30431        -8.42620
| 17>    F       -8.94926        -0.65509        -9.58894
| 18>    C       -9.57677        -2.46576        -8.19271
| 19>    F      -10.42212        -2.89483        -9.13856
| 20>    C       -9.46063        -3.14864        -7.01461
| 21>    C       -8.57460        -2.69634        -6.01750
| 22>    C       -7.79803        -1.52436        -6.25357
| 23>    C       -6.90182        -1.05175        -5.26884
| 24>    C       -6.78697        -1.72853        -4.08142
| 25>    C       -7.57183        -2.89256        -3.85302
| 26>    C       -8.44581        -3.37259        -4.78465
| 27>    C       -7.30403        -3.41221        -2.49934
| 28>    O       -7.95652        -4.23358        -1.90230
| 29>    C       -6.18527        -2.56944        -1.96790
| 30>    C       -5.95834        -1.48015        -2.90545
| 31>    C       -5.10665        -0.42010        -2.74424
| 32>    C       -4.92216         0.60056        -3.70279
| 33>    N       -4.72920         1.46255        -4.43508
| 34>    C       -4.30639        -0.17634        -1.60763
| 35>    N       -3.62898         0.08862        -0.71926
| 36>    C       -5.55148        -2.76592        -0.78146
| 37>    C       -5.64543        -3.95138        -0.00410
| 38>    O       -6.01850        -5.12712        -0.53861
| 39>    C       -5.99743        -6.01321         0.46176
| 40>    N       -5.62611        -5.47948         1.61268
| 41>    C       -5.38426        -4.19112         1.34319
| 42>    C       -6.35699        -7.35550         0.16871
| 43>    N       -6.55636        -8.34488         1.08747
| 44>    C       -6.38674        -8.24336         2.51716
| 45>    C       -4.91866        -8.34477         2.91694
| 46>    C       -6.94399        -9.54781         0.46534
| 47>    O       -7.19547       -10.56546         1.07861
| 48>    C       -6.96538        -9.23457        -0.94887
| 49>    C       -6.60197        -7.87773        -1.09803
| 50>    C       -6.58555        -7.55887        -2.51516
| 51>    O       -6.31158        -6.55427        -3.12895
| 52>    N       -6.95512        -8.77312        -3.13352
| 53>    C       -7.11436        -8.85754        -4.56616
| 54>    C       -8.58241        -8.78005        -4.97653
| 55>    C       -7.18461        -9.77577        -2.22395
| 56>    C       -7.53476       -11.09731        -2.57300
| 57>    C       -7.79250       -12.05361        -1.63292
| 58>    C       -8.10068       -13.40238        -1.91777
| 59>    C       -8.13038       -14.06881        -3.12829
| 60>    C       -8.44957       -15.43547        -2.90360
| 61>    C       -8.64405       -15.57843        -1.44433
| 62>    C       -8.42478       -14.36943        -0.87254
| 63>    C       -8.97536       -16.74844        -0.74997
| 64>    N       -9.24102       -17.68930        -0.14759
| 65>    C       -8.52424       -16.44486        -3.83765
| 66>    C       -8.84655       -17.81426        -3.60921
| 67>    C       -8.82207       -18.49474        -4.80761
| 68>    C       -8.42841       -17.55175        -5.84546
| 69>    C       -8.24783       -16.32938        -5.27848
| 70>    C       -7.84206       -15.17779        -5.96104
| 71>    N       -7.50370       -14.24410        -6.53921
| 72>    C       -9.06119       -19.88520        -4.95595
| 73>    C       -9.36081       -20.59584        -6.07630
| 74>    C       -9.13933       -22.07137        -6.08846
| 75>    O       -8.92707       -22.77765        -5.13235
| 76>    C       -9.17508       -22.45347        -7.51429
| 77>    C       -8.90813       -23.66605        -8.08158
| 78>    C       -8.97852       -23.79702        -9.48635
| 79>    C       -9.32182       -22.66262       -10.27857
| 80>    C       -9.38189       -22.79937       -11.68008
| 81>    C       -9.11608       -24.00487       -12.26659
| 82>    C       -8.77826       -25.12628       -11.48180
| 83>    C       -8.71121       -25.02601       -10.12047
| 84>    F       -8.52144       -26.29419       -12.08424
| 85>    F       -9.17338       -24.13284       -13.59786
| 86>    C       -9.60109       -21.42104        -9.66248
| 87>    C       -9.53411       -21.31946        -8.29849
| 88>    C       -9.79757       -20.19949        -7.39802
| 89>    C      -10.54466       -19.09159        -7.70004
| 90>    C      -11.01427       -18.17974        -6.73020
| 91>    N      -11.47240       -17.44745        -5.97465
| 92>    C      -11.01122       -18.79498        -8.99735
| 93>    N      -11.39094       -18.50750       -10.04142
| 94>    H       -7.36335         0.04688        -7.67490
| 95>    H      -10.05399        -4.03444        -6.85048
| 96>    H       -6.32960        -0.16302        -5.47985
| 97>    H       -9.02698        -4.25872        -4.58155
| 98>    H       -4.90159        -2.00633        -0.37030
| 99>    H       -5.06177        -3.50670         2.10072
|100>    H       -6.95176        -9.07310         2.94976
|101>    H       -6.80014        -7.29110         2.85446
|102>    H       -4.49148        -9.27727         2.55566
|103>    H       -4.83609        -8.31937         3.99929
|104>    H       -4.36088        -7.50809         2.50559
|105>    H       -6.65515        -9.77857        -4.93457
|106>    H       -6.57057        -8.00361        -4.97989
|107>    H       -9.14982        -9.60761        -4.55679
|108>    H       -8.66329        -8.81569        -6.05921
|109>    H       -9.01698        -7.84817        -4.62292
|110>    H       -7.59213       -11.34840        -3.62209
|111>    H       -7.75636       -11.78099        -0.58606
|112>    H       -7.93437       -13.64826        -4.09423
|113>    H       -8.47448       -14.13128         0.17382
|114>    H       -9.11032       -18.23387        -2.65829
|115>    H       -8.25218       -17.79841        -6.87647
|116>    H       -8.91741       -20.48321        -4.06057
|117>    H       -8.64609       -24.51344        -7.46657
|118>    H       -9.64237       -21.95265       -12.29574
|119>    H       -8.45147       -25.89300        -9.53347
|120>    H       -9.85181       -20.57747       -10.28599
|121> *
|122>
|123>                          ****END OF INPUT****

CARTESIAN COORDINATES (ANGSTROEM)
---------------------------------
  C     -7.940840   -0.843270   -7.479870
  C     -8.812120   -1.304310   -8.426200
  F     -8.949260   -0.655090   -9.588940
  C     -9.576770   -2.465760   -8.192710
  F    -10.422120   -2.894830   -9.138560
  C     -9.460630   -3.148640   -7.014610
  C     -8.574600   -2.696340   -6.017500
  C     -7.798030   -1.524360   -6.253570
  C     -6.901820   -1.051750   -5.268840
  C     -6.786970   -1.728530   -4.081420
  C     -7.571830   -2.892560   -3.853020
  C     -8.445810   -3.372590   -4.784650
  C     -7.304030   -3.412210   -2.499340
  O     -7.956520   -4.233580   -1.902300
  C     -6.185270   -2.569440   -1.967900
  C     -5.958340   -1.480150   -2.905450
  C     -5.106650   -0.420100   -2.744240
  C     -4.922160    0.600560   -3.702790
  N     -4.729200    1.462550   -4.435080
  C     -4.306390   -0.176340   -1.607630
  N     -3.628980    0.088620   -0.719260
  C     -5.551480   -2.765920   -0.781460
  C     -5.645430   -3.951380   -0.004100
  O     -6.018500   -5.127120   -0.538610
  C     -5.997430   -6.013210    0.461760
  N     -5.626110   -5.479480    1.612680
  C     -5.384260   -4.191120    1.343190
  C     -6.356990   -7.355500    0.168710
  N     -6.556360   -8.344880    1.087470
  C     -6.386740   -8.243360    2.517160
  C     -4.918660   -8.344770    2.916940
  C     -6.943990   -9.547810    0.465340
  O     -7.195470  -10.565460    1.078610
  C     -6.965380   -9.234570   -0.948870
  C     -6.601970   -7.877730   -1.098030
  C     -6.585550   -7.558870   -2.515160
  O     -6.311580   -6.554270   -3.128950
  N     -6.955120   -8.773120   -3.133520
  C     -7.114360   -8.857540   -4.566160
  C     -8.582410   -8.780050   -4.976530
  C     -7.184610   -9.775770   -2.223950
  C     -7.534760  -11.097310   -2.573000
  C     -7.792500  -12.053610   -1.632920
  C     -8.100680  -13.402380   -1.917770
  C     -8.130380  -14.068810   -3.128290
  C     -8.449570  -15.435470   -2.903600
  C     -8.644050  -15.578430   -1.444330
  C     -8.424780  -14.369430   -0.872540
  C     -8.975360  -16.748440   -0.749970
  N     -9.241020  -17.689300   -0.147590
  C     -8.524240  -16.444860   -3.837650
  C     -8.846550  -17.814260   -3.609210
  C     -8.822070  -18.494740   -4.807610
  C     -8.428410  -17.551750   -5.845460
  C     -8.247830  -16.329380   -5.278480
  C     -7.842060  -15.177790   -5.961040
  N     -7.503700  -14.244100   -6.539210
  C     -9.061190  -19.885200   -4.955950
  C     -9.360810  -20.595840   -6.076300
  C     -9.139330  -22.071370   -6.088460
  O     -8.927070  -22.777650   -5.132350
  C     -9.175080  -22.453470   -7.514290
  C     -8.908130  -23.666050   -8.081580
  C     -8.978520  -23.797020   -9.486350
  C     -9.321820  -22.662620  -10.278570
  C     -9.381890  -22.799370  -11.680080
  C     -9.116080  -24.004870  -12.266590
  C     -8.778260  -25.126280  -11.481800
  C     -8.711210  -25.026010  -10.120470
  F     -8.521440  -26.294190  -12.084240
  F     -9.173380  -24.132840  -13.597860
  C     -9.601090  -21.421040   -9.662480
  C     -9.534110  -21.319460   -8.298490
  C     -9.797570  -20.199490   -7.398020
  C    -10.544660  -19.091590   -7.700040
  C    -11.014270  -18.179740   -6.730200
  N    -11.472400  -17.447450   -5.974650
  C    -11.011220  -18.794980   -8.997350
  N    -11.390940  -18.507500  -10.041420
  H     -7.363350    0.046880   -7.674900
  H    -10.053990   -4.034440   -6.850480
  H     -6.329600   -0.163020   -5.479850
  H     -9.026980   -4.258720   -4.581550
  H     -4.901590   -2.006330   -0.370300
  H     -5.061770   -3.506700    2.100720
  H     -6.951760   -9.073100    2.949760
  H     -6.800140   -7.291100    2.854460
  H     -4.491480   -9.277270    2.555660
  H     -4.836090   -8.319370    3.999290
  H     -4.360880   -7.508090    2.505590
  H     -6.655150   -9.778570   -4.934570
  H     -6.570570   -8.003610   -4.979890
  H     -9.149820   -9.607610   -4.556790
  H     -8.663290   -8.815690   -6.059210
  H     -9.016980   -7.848170   -4.622920
  H     -7.592130  -11.348400   -3.622090
  H     -7.756360  -11.780990   -0.586060
  H     -7.934370  -13.648260   -4.094230
  H     -8.474480  -14.131280    0.173820
  H     -9.110320  -18.233870   -2.658290
  H     -8.252180  -17.798410   -6.876470
  H     -8.917410  -20.483210   -4.060570
  H     -8.646090  -24.513440   -7.466570
  H     -9.642370  -21.952650  -12.295740
  H     -8.451470  -25.893000   -9.533470
  H     -9.851810  -20.577470  -10.285990

 Total Charge           Charge          ....    0
 Multiplicity           Mult            ....    1
 Number of Electrons    NEL             ....  532
 Basis Dimension        Dim             .... 1241

ORBITAL ENERGIES
----------------

  NO   OCC          E(Eh)            E(eV)
   0   2.0000     -24.805060      -674.9800
   1   2.0000     -24.804555      -674.9663
   2   2.0000     -24.801021      -674.8701
   3   2.0000     -24.799557      -674.8303
   4   2.0000     -19.322652      -525.7961
   5   2.0000     -19.227879      -523.2172
   6   2.0000     -19.218541      -522.9631
   7   2.0000     -19.205742      -522.6148
   8   2.0000     -19.205512      -522.6085
   9   2.0000     -14.469230      -393.7278
  10   2.0000     -14.467657      -393.6850
  11   2.0000     -14.438197      -392.8833
  12   2.0000     -14.429371      -392.6432
  13   2.0000     -14.427543      -392.5934
  14   2.0000     -14.425622      -392.5411
  15   2.0000     -14.422112      -392.4456
  16   2.0000     -14.419244      -392.3676
  17   2.0000     -14.417422      -392.3180
  18   2.0000     -10.396062      -282.8912
  19   2.0000     -10.389811      -282.7211
  20   2.0000     -10.389079      -282.7012
  21   2.0000     -10.388817      -282.6941
  22   2.0000     -10.388647      -282.6895
  23   2.0000     -10.384135      -282.5667
  24   2.0000     -10.383018      -282.5363
  25   2.0000     -10.378882      -282.4237
  26   2.0000     -10.370428      -282.1937
  27   2.0000     -10.363469      -282.0043
  28   2.0000     -10.359945      -281.9084
  29   2.0000     -10.359503      -281.8964
  30   2.0000     -10.357839      -281.8511
  31   2.0000     -10.356212      -281.8069
  32   2.0000     -10.351444      -281.6771
  33   2.0000     -10.349517      -281.6247
  34   2.0000     -10.339323      -281.3473
  35   2.0000     -10.335189      -281.2348
  36   2.0000     -10.333586      -281.1912
  37   2.0000     -10.331217      -281.1267
  38   2.0000     -10.330996      -281.1207
  39   2.0000     -10.330785      -281.1150
  40   2.0000     -10.328896      -281.0636
  41   2.0000     -10.327842      -281.0349
  42   2.0000     -10.327188      -281.0171
  43   2.0000     -10.325319      -280.9662
  44   2.0000     -10.324637      -280.9477
  45   2.0000     -10.321499      -280.8623
  46   2.0000     -10.321450      -280.8609
  47   2.0000     -10.319604      -280.8107
  48   2.0000     -10.319180      -280.7992
  49   2.0000     -10.319124      -280.7976
  50   2.0000     -10.319096      -280.7969
  51   2.0000     -10.319090      -280.7967
  52   2.0000     -10.318923      -280.7922
  53   2.0000     -10.317655      -280.7577
  54   2.0000     -10.316120      -280.7159
  55   2.0000     -10.314811      -280.6803
  56   2.0000     -10.313409      -280.6421
  57   2.0000     -10.313066      -280.6328
  58   2.0000     -10.312876      -280.6276
  59   2.0000     -10.312754      -280.6243
  60   2.0000     -10.312703      -280.6229
  61   2.0000     -10.312198      -280.6092
  62   2.0000     -10.311159      -280.5809
  63   2.0000     -10.309755      -280.5427
  64   2.0000     -10.308646      -280.5125
  65   2.0000     -10.308040      -280.4960
  66   2.0000     -10.307578      -280.4835
  67   2.0000     -10.306760      -280.4612
  68   2.0000     -10.305690      -280.4321
  69   2.0000     -10.303968      -280.3852
  70   2.0000     -10.303566      -280.3743
  71   2.0000     -10.303328      -280.3678
  72   2.0000     -10.302776      -280.3528
  73   2.0000     -10.298717      -280.2423
  74   2.0000     -10.295004      -280.1413
  75   2.0000     -10.284763      -279.8626
  76   2.0000     -10.280411      -279.7442
  77   2.0000     -10.273916      -279.5675
  78   2.0000     -10.258394      -279.1451
  79   2.0000      -1.327982       -36.1362
  80   2.0000      -1.323467       -36.0134
  81   2.0000      -1.313070       -35.7304
  82   2.0000      -1.308549       -35.6074
  83   2.0000      -1.262466       -34.3534
  84   2.0000      -1.148562       -31.2540
  85   2.0000      -1.143522       -31.1168
  86   2.0000      -1.141873       -31.0719
  87   2.0000      -1.134548       -30.8726
  88   2.0000      -1.080609       -29.4049
  89   2.0000      -1.071728       -29.1632
  90   2.0000      -1.042551       -28.3692
  91   2.0000      -1.034046       -28.1378
  92   2.0000      -1.027543       -27.9609
  93   2.0000      -1.026520       -27.9330
  94   2.0000      -1.014580       -27.6081
  95   2.0000      -1.011689       -27.5295
  96   2.0000      -1.008916       -27.4540
  97   2.0000      -1.006316       -27.3833
  98   2.0000      -1.002120       -27.2691
  99   2.0000      -0.996459       -27.1150
 100   2.0000      -0.993784       -27.0422
 101   2.0000      -0.990344       -26.9486
 102   2.0000      -0.985930       -26.8285
 103   2.0000      -0.945630       -25.7319
 104   2.0000      -0.943189       -25.6655
 105   2.0000      -0.940897       -25.6031
 106   2.0000      -0.930250       -25.3134
 107   2.0000      -0.926787       -25.2191
 108   2.0000      -0.918660       -24.9980
 109   2.0000      -0.902589       -24.5607
 110   2.0000      -0.901904       -24.5420
 111   2.0000      -0.896338       -24.3906
 112   2.0000      -0.894726       -24.3467
 113   2.0000      -0.884584       -24.0708
 114   2.0000      -0.874120       -23.7860
 115   2.0000      -0.871176       -23.7059
 116   2.0000      -0.861758       -23.4496
 117   2.0000      -0.854171       -23.2432
 118   2.0000      -0.849700       -23.1215
 119   2.0000      -0.843287       -22.9470
 120   2.0000      -0.829171       -22.5629
 121   2.0000      -0.828582       -22.5469
 122   2.0000      -0.821863       -22.3640
 123   2.0000      -0.803788       -21.8722
 124   2.0000      -0.791139       -21.5280
 125   2.0000      -0.779078       -21.1998
 126   2.0000      -0.774726       -21.0814
 127   2.0000      -0.771721       -20.9996
 128   2.0000      -0.768780       -20.9196
 129   2.0000      -0.751990       -20.4627
 130   2.0000      -0.751665       -20.4539
 131   2.0000      -0.743315       -20.2266
 132   2.0000      -0.734649       -19.9908
 133   2.0000      -0.728529       -19.8243
 134   2.0000      -0.725719       -19.7478
 135   2.0000      -0.722593       -19.6627
 136   2.0000      -0.721391       -19.6301
 137   2.0000      -0.716950       -19.5092
 138   2.0000      -0.713301       -19.4099
 139   2.0000      -0.700108       -19.0509
 140   2.0000      -0.695337       -18.9211
 141   2.0000      -0.691971       -18.8295
 142   2.0000      -0.688605       -18.7379
 143   2.0000      -0.684009       -18.6128
 144   2.0000      -0.680749       -18.5241
 145   2.0000      -0.663539       -18.0558
 146   2.0000      -0.662866       -18.0375
 147   2.0000      -0.660714       -17.9790
 148   2.0000      -0.656193       -17.8559
 149   2.0000      -0.653982       -17.7958
 150   2.0000      -0.651706       -17.7338
 151   2.0000      -0.647064       -17.6075
 152   2.0000      -0.642525       -17.4840
 153   2.0000      -0.640008       -17.4155
 154   2.0000      -0.627997       -17.0887
 155   2.0000      -0.624184       -16.9849
 156   2.0000      -0.619078       -16.8460
 157   2.0000      -0.615743       -16.7552
 158   2.0000      -0.607986       -16.5441
 159   2.0000      -0.605361       -16.4727
 160   2.0000      -0.599045       -16.3008
 161   2.0000      -0.597174       -16.2499
 162   2.0000      -0.595250       -16.1976
 163   2.0000      -0.592407       -16.1202
 164   2.0000      -0.589537       -16.0421
 165   2.0000      -0.587788       -15.9945
 166   2.0000      -0.584578       -15.9072
 167   2.0000      -0.579826       -15.7779
 168   2.0000      -0.578776       -15.7493
 169   2.0000      -0.576289       -15.6816
 170   2.0000      -0.573565       -15.6075
 171   2.0000      -0.564421       -15.3587
 172   2.0000      -0.562466       -15.3055
 173   2.0000      -0.556645       -15.1471
 174   2.0000      -0.553816       -15.0701
 175   2.0000      -0.550243       -14.9729
 176   2.0000      -0.549405       -14.9501
 177   2.0000      -0.548206       -14.9175
 178   2.0000      -0.546946       -14.8832
 179   2.0000      -0.546561       -14.8727
 180   2.0000      -0.543246       -14.7825
 181   2.0000      -0.541843       -14.7443
 182   2.0000      -0.541027       -14.7221
 183   2.0000      -0.538957       -14.6658
 184   2.0000      -0.538467       -14.6524
 185   2.0000      -0.537350       -14.6220
 186   2.0000      -0.535497       -14.5716
 187   2.0000      -0.534379       -14.5412
 188   2.0000      -0.529446       -14.4069
 189   2.0000      -0.529277       -14.4024
 190   2.0000      -0.525741       -14.3061
 191   2.0000      -0.525165       -14.2905
 192   2.0000      -0.523563       -14.2469
 193   2.0000      -0.520704       -14.1691
 194   2.0000      -0.519406       -14.1338
 195   2.0000      -0.516916       -14.0660
 196   2.0000      -0.515050       -14.0152
 197   2.0000      -0.513507       -13.9732
 198   2.0000      -0.513244       -13.9661
 199   2.0000      -0.509375       -13.8608
 200   2.0000      -0.503630       -13.7045
 201   2.0000      -0.503438       -13.6992
 202   2.0000      -0.499641       -13.5959
 203   2.0000      -0.497535       -13.5386
 204   2.0000      -0.495947       -13.4954
 205   2.0000      -0.491913       -13.3856
 206   2.0000      -0.491380       -13.3711
 207   2.0000      -0.484669       -13.1885
 208   2.0000      -0.484132       -13.1739
 209   2.0000      -0.480881       -13.0854
 210   2.0000      -0.475410       -12.9366
 211   2.0000      -0.474099       -12.9009
 212   2.0000      -0.473925       -12.8962
 213   2.0000      -0.472934       -12.8692
 214   2.0000      -0.470606       -12.8058
 215   2.0000      -0.468999       -12.7621
 216   2.0000      -0.466234       -12.6869
 217   2.0000      -0.462343       -12.5810
 218   2.0000      -0.461595       -12.5606
 219   2.0000      -0.457620       -12.4525
 220   2.0000      -0.457248       -12.4423
 221   2.0000      -0.456560       -12.4236
 222   2.0000      -0.455049       -12.3825
 223   2.0000      -0.452041       -12.3007
 224   2.0000      -0.451428       -12.2840
 225   2.0000      -0.450969       -12.2715
 226   2.0000      -0.449970       -12.2443
 227   2.0000      -0.449215       -12.2238
 228   2.0000      -0.447069       -12.1654
 229   2.0000      -0.446215       -12.1421
 230   2.0000      -0.441964       -12.0265
 231   2.0000      -0.439964       -11.9720
 232   2.0000      -0.437900       -11.9159
 233   2.0000      -0.436141       -11.8680
 234   2.0000      -0.435219       -11.8429
 235   2.0000      -0.431997       -11.7552
 236   2.0000      -0.431499       -11.7417
 237   2.0000      -0.431106       -11.7310
 238   2.0000      -0.427773       -11.6403
 239   2.0000      -0.426164       -11.5965
 240   2.0000      -0.422501       -11.4968
 241   2.0000      -0.422027       -11.4839
 242   2.0000      -0.416008       -11.3201
 243   2.0000      -0.410482       -11.1698
 244   2.0000      -0.408718       -11.1218
 245   2.0000      -0.407302       -11.0832
 246   2.0000      -0.395189       -10.7536
 247   2.0000      -0.391824       -10.6621
 248   2.0000      -0.389096       -10.5878
 249   2.0000      -0.382573       -10.4103
 250   2.0000      -0.369102       -10.0438
 251   2.0000      -0.364528        -9.9193
 252   2.0000      -0.361254        -9.8302
 253   2.0000      -0.347818        -9.4646
 254   2.0000      -0.346365        -9.4251
 255   2.0000      -0.339668        -9.2428
 256   2.0000      -0.336136        -9.1467
 257   2.0000      -0.330408        -8.9908
 258   2.0000      -0.326679        -8.8894
 259   2.0000      -0.321206        -8.7405
 260   2.0000      -0.315446        -8.5837
 261   2.0000      -0.313943        -8.5428
 262   2.0000      -0.311009        -8.4630
 263   2.0000      -0.301994        -8.2177
 264   2.0000      -0.299918        -8.1612
 265   2.0000      -0.252423        -6.8688
 266   0.0000      -0.147874        -4.0239
 267   0.0000      -0.108762        -2.9596
 268   0.0000      -0.095751        -2.6055
 269   0.0000      -0.077835        -2.1180
 270   0.0000      -0.064935        -1.7670

MULLIKEN ATOMIC CHARGES
-----------------------
   0 C :   -0.109253
   1 C :    0.243002
   2 F :   -0.169849
   3 C :    0.240708
   4 F :   -0.170796
   5 C :   -0.108218
   6 C :    0.121127
   7 C :    0.114742
   8 C :   -0.087075
   9 C :    0.057642
  10 C :    0.003465
  11 C :   -0.076377
  12 C :    0.162851
  13 O :   -0.130644
  14 C :   -0.069936
  15 C :    0.314734
  16 C :   -0.352412
  17 C :   -0.178381
  18 N :    0.152500
  19 C :   -0.180322
  20 N :    0.149980
  21 C :   -0.033395
  22 C :    0.154599
  23 O :   -0.121338
  24 C :    0.040398
  25 N :   -0.080967
  26 C :    0.015470
  27 C :    0.093512
  28 N :   -0.245091
  29 C :    0.123522
  30 C :    0.002221
  31 C :    0.173781
  32 O :   -0.204857
  33 C :   -0.080396
  34 C :   -0.023382
  35 C :    0.158512
  36 O :   -0.169450
  37 N :   -0.267226
  38 C :    0.096207
  39 C :    0.001528
  40 C :    0.155484
  41 C :   -0.008813
  42 C :    0.008279
  43 C :    0.112175
  44 C :   -0.114413
  45 C :    0.116746
  46 C :   -0.084087
  47 C :    0.004969
  48 C :   -0.177401
  49 N :    0.140193
  50 C :    0.121069
  51 C :   -0.062141
  52 C :    0.073108
  53 C :    0.004203
  54 C :   -0.097752
  55 C :   -0.170166
  56 N :    0.136325
  57 C :    0.032366
  58 C :   -0.115690
  59 C :    0.140694
  60 O :   -0.130728
  61 C :    0.012921
  62 C :   -0.077558
  63 C :    0.111288
  64 C :    0.111086
  65 C :   -0.104571
  66 C :    0.242426
  67 C :    0.240344
  68 C :   -0.101269
  69 F :   -0.169039
  70 F :   -0.168647
  71 C :   -0.080471
  72 C :    0.038730
  73 C :    0.261826
  74 C :   -0.331901
  75 C :   -0.203077
  76 N :    0.178007
  77 C :   -0.171552
  78 N :    0.162862
  79 H :    0.007363
  80 H :   -0.001841
  81 H :   -0.006862
  82 H :   -0.013492
  83 H :    0.029120
  84 H :    0.019632
  85 H :    0.036896
  86 H :    0.031475
  87 H :    0.018256
  88 H :    0.021924
  89 H :    0.022010
  90 H :    0.033493
  91 H :    0.043731
  92 H :    0.019177
  93 H :    0.032119
  94 H :    0.025812
  95 H :   -0.009407
  96 H :    0.009726
  97 H :    0.004016
  98 H :    0.017325
  99 H :    0.014931
 100 H :    0.012039
 101 H :    0.033265
 102 H :   -0.005445
 103 H :    0.007002
 104 H :    0.002934
 105 H :   -0.002155
Sum of atomic charges:    0.0000000

LOEWDIN ATOMIC CHARGES
----------------------
   0 C :   -0.028761
   1 C :    0.066052
   2 F :   -0.047916
   3 C :    0.068456
   4 F :   -0.048328
   5 C :   -0.034228
   6 C :   -0.006601
   7 C :   -0.006734
   8 C :    0.018213
   9 C :   -0.023755
  10 C :   -0.046179
  11 C :    0.031396
  12 C :    0.082460
  13 O :   -0.123463
  14 C :   -0.068145
  15 C :    0.074922
  16 C :   -0.133124
  17 C :   -0.017164
  18 N :   -0.047936
  19 C :   -0.019217
  20 N :   -0.047885
  21 C :    0.040262
  22 C :    0.008909
  23 O :    0.072918
  24 C :    0.049966
  25 N :   -0.083918
  26 C :    0.010423
  27 C :    0.042838
  28 N :    0.016699
  29 C :    0.038901
  30 C :   -0.060509
  31 C :    0.080907
  32 O :   -0.194755
  33 C :   -0.116146
  34 C :   -0.094152
  35 C :    0.086112
  36 O :   -0.173910
  37 N :   -0.002279
  38 C :    0.036884
  39 C :   -0.060194
  40 C :    0.084465
  41 C :   -0.017192
  42 C :    0.029743
  43 C :   -0.011582
  44 C :   -0.016931
  45 C :    0.052213
  46 C :   -0.079383
  47 C :    0.066757
  48 C :   -0.031203
  49 N :   -0.055528
  50 C :    0.034469
  51 C :    0.026038
  52 C :   -0.032980
  53 C :    0.056816
  54 C :   -0.078588
  55 C :   -0.025943
  56 N :   -0.066096
  57 C :    0.074186
  58 C :   -0.078780
  59 C :    0.083851
  60 O :   -0.131208
  61 C :   -0.055055
  62 C :    0.034093
  63 C :   -0.008226
  64 C :   -0.004956
  65 C :   -0.029316
  66 C :    0.068965
  67 C :    0.069069
  68 C :   -0.031668
  69 F :   -0.046869
  70 F :   -0.046370
  71 C :    0.016062
  72 C :   -0.022095
  73 C :    0.064580
  74 C :   -0.130481
  75 C :   -0.022176
  76 N :   -0.035131
  77 C :   -0.019465
  78 N :   -0.041289
  79 H :    0.047769
  80 H :    0.044317
  81 H :    0.039717
  82 H :    0.039824
  83 H :    0.053161
  84 H :    0.034802
  85 H :    0.033468
  86 H :    0.027747
  87 H :    0.025846
  88 H :    0.031376
  89 H :    0.021704
  90 H :    0.026723
  91 H :    0.038041
  92 H :    0.023653
  93 H :    0.034014
  94 H :    0.030202
  95 H :    0.036157
  96 H :    0.039475
  97 H :    0.033116
  98 H :    0.045033
  99 H :    0.041062
 100 H :    0.037409
 101 H :    0.054982
 102 H :    0.042301
 103 H :    0.047916
 104 H :    0.046093
 105 H :    0.040277

  Mayer bond orders larger than 0.100000
B(  0-C ,  1-C ) :   1.4439 B(  0-C ,  5-C ) :   0.1087 B(  0-C ,  7-C ) :   1.1835
B(  0-C , 79-H ) :   1.0076 B(  1-C ,  2-F ) :   1.1362 B(  1-C ,  3-C ) :   1.1886
B(  3-C ,  4-F ) :   1.1343 B(  3-C ,  5-C ) :   1.4435 B(  5-C ,  6-C ) :   1.1902
B(  5-C , 80-H ) :   1.0081 B(  6-C ,  7-C ) :   1.2540 B(  6-C , 11-C ) :   1.1892
B(  7-C ,  8-C ) :   1.2257 B(  8-C ,  9-C ) :   1.4366 B(  8-C , 81-H ) :   0.9899
B(  9-C , 10-C ) :   1.2226 B(  9-C , 15-C ) :   0.9956 B( 10-C , 11-C ) :   1.4774
B( 10-C , 12-C ) :   0.9325 B( 11-C , 82-H ) :   1.0159 B( 12-C , 13-O ) :   2.2533
B( 12-C , 14-C ) :   0.9156 B( 14-C , 15-C ) :   1.0694 B( 14-C , 21-C ) :   1.6239
B( 15-C , 16-C ) :   1.6396 B( 16-C , 17-C ) :   1.1428 B( 16-C , 19-C ) :   1.1419
B( 17-C , 18-N ) :   2.9624 B( 19-C , 20-N ) :   2.9596 B( 21-C , 22-C ) :   1.1392
B( 21-C , 83-H ) :   0.9318 B( 22-C , 23-O ) :   1.1366 B( 22-C , 24-C ) :   0.1077
B( 22-C , 26-C ) :   1.3805 B( 23-O , 24-C ) :   1.2902 B( 24-C , 25-N ) :   1.5751
B( 24-C , 27-C ) :   1.0526 B( 25-N , 26-C ) :   1.4124 B( 26-C , 84-H ) :   0.9925
B( 27-C , 28-N ) :   1.2226 B( 27-C , 34-C ) :   1.3704 B( 28-N , 29-C ) :   0.9343
B( 28-N , 31-C ) :   1.0552 B( 29-C , 30-C ) :   1.1226 B( 29-C , 85-H ) :   0.9305
B( 29-C , 86-H ) :   0.9404 B( 30-C , 87-H ) :   0.9657 B( 30-C , 88-H ) :   0.9674
B( 30-C , 89-H ) :   0.9645 B( 31-C , 32-O ) :   2.0222 B( 31-C , 33-C ) :   0.9898
B( 32-O , 96-H ) :   0.1171 B( 33-C , 34-C ) :   1.2634 B( 33-C , 40-C ) :   1.3072
B( 34-C , 35-C ) :   0.9438 B( 35-C , 36-O ) :   2.1556 B( 35-C , 37-N ) :   1.0269
B( 37-N , 38-C ) :   0.9418 B( 37-N , 40-C ) :   1.1739 B( 38-C , 39-C ) :   1.1207
B( 38-C , 90-H ) :   0.9499 B( 38-C , 91-H ) :   0.9270 B( 39-C , 92-H ) :   0.9680
B( 39-C , 93-H ) :   0.9680 B( 39-C , 94-H ) :   0.9643 B( 40-C , 41-C ) :   1.1689
B( 41-C , 42-C ) :   1.5563 B( 41-C , 95-H ) :   0.9698 B( 42-C , 43-C ) :   1.1214
B( 42-C , 96-H ) :   0.9526 B( 43-C , 44-C ) :   1.5199 B( 43-C , 47-C ) :   1.0233
B( 44-C , 45-C ) :   1.1407 B( 44-C , 97-H ) :   0.9954 B( 45-C , 46-C ) :   1.0938
B( 45-C , 50-C ) :   1.4008 B( 46-C , 47-C ) :   1.6761 B( 46-C , 48-C ) :   1.0878
B( 47-C , 98-H ) :   1.0284 B( 48-C , 49-N ) :   2.9665 B( 50-C , 51-C ) :   1.1078
B( 50-C , 54-C ) :   1.1219 B( 51-C , 52-C ) :   1.5224 B( 51-C , 99-H ) :   1.0057
B( 52-C , 53-C ) :   1.0400 B( 52-C , 57-C ) :   1.0675 B( 53-C , 54-C ) :   1.6794
B( 53-C ,100-H ) :   1.0097 B( 54-C , 55-C ) :   1.0989 B( 55-C , 56-N ) :   2.9628
B( 57-C , 58-C ) :   1.6586 B( 57-C ,101-H ) :   0.9530 B( 58-C , 59-C ) :   0.9281
B( 58-C , 73-C ) :   1.0305 B( 59-C , 60-O ) :   2.2803 B( 59-C , 61-C ) :   0.9191
B( 61-C , 62-C ) :   1.4725 B( 61-C , 72-C ) :   1.2204 B( 62-C , 63-C ) :   1.1978
B( 62-C ,102-H ) :   1.0157 B( 63-C , 64-C ) :   1.2547 B( 63-C , 68-C ) :   1.1923
B( 64-C , 65-C ) :   1.1907 B( 64-C , 71-C ) :   1.2158 B( 65-C , 66-C ) :   1.4421
B( 65-C , 68-C ) :   0.1082 B( 65-C ,103-H ) :   1.0063 B( 66-C , 67-C ) :   1.1902
B( 66-C , 70-F ) :   1.1373 B( 67-C , 68-C ) :   1.4444 B( 67-C , 69-F ) :   1.1363
B( 68-C ,104-H ) :   1.0065 B( 71-C , 72-C ) :   1.4546 B( 71-C ,105-H ) :   0.9940
B( 72-C , 73-C ) :   0.9999 B( 73-C , 74-C ) :   1.6600 B( 74-C , 75-C ) :   1.1571
B( 74-C , 77-C ) :   1.1317 B( 75-C , 76-N ) :   2.9960 B( 77-C , 78-N ) :   2.9861

-----------------------------------------------------------------------------
         ABSORPTION SPECTRUM VIA TRANSITION ELECTRIC DIPOLE MOMENTS
-----------------------------------------------------------------------------
State   Energy  Wavelength   fosc         T2         TX        TY        TZ
        (cm-1)    (nm)                  (au**2)     (au)      (au)      (au)
-----------------------------------------------------------------------------
   0    9157.8   1092.0   0.693889586  24.94457   0.86586   4.50180   1.98209
   1   16098.5    621.2   0.124202371   2.53991  -0.00802   1.30233  -0.91858
   2   16438.0    608.3   0.132454538   2.65274   0.22799   1.46274   0.67908
   3   17837.5    560.6   0.013026054   0.24041   0.10237  -0.33955   0.33858
   4   22092.2    452.6   0.021889386   0.32619  -0.31106  -0.27193  -0.39432
   5   22591.4    442.6   0.091992683   1.34056  -0.12185  -0.47667  -1.04809
   6   23239.0    430.3   0.455605314   6.45426  -0.66119  -2.35628  -0.68193
   7   23509.2    425.4   0.123996992   1.73639  -0.22135  -0.59292  -1.15579
   8   23600.9    423.7   0.204456366   2.85199   0.21094   0.37238   1.63365
   9   24208.2    413.1   0.049280271   0.67017  -0.05863   0.49323  -0.65074
  10   24565.9    407.1   0.266039411   3.56525  -0.11866  -1.75190  -0.69426
  11   25335.2    394.7   0.045332155   0.58906  -0.01639   0.76553  -0.05252
  12   25403.7    393.6   0.207030291   2.68295   0.01741  -1.61275  -0.28580
  13   25601.7    390.6   0.116556002   1.49879  -0.10937  -0.21805  -1.19970
  14   26557.0    376.5   0.031811190   0.39434  -0.22736  -0.24122  -0.53335
  15   26629.8    375.5   0.005184208   0.06409  -0.14833   0.20461  -0.01497
  16   27179.1    367.9   0.069226922   0.83852  -0.62463  -0.35541  -0.56749
  17   27259.3    366.8   0.093956882   1.13472  -0.35831   0.38558  -0.92610
  18   27498.6    363.7   0.098068175   1.17407  -0.72343  -0.53614  -0.60272
  19   28577.1    349.9   0.004377002   0.05042   0.07905   0.14146  -0.15545
  20   29253.8    341.8   0.279929113   3.15023   0.28011  -0.86604   1.52373
  21   30140.8    331.8   0.070368487   0.76860  -0.31756  -0.60437   0.54999
  22   30305.8    330.0   0.159767209   1.73555   0.24115   1.28099   0.19093
  23   30489.5    328.0   0.133770031   1.44439   0.47056  -0.83371  -0.72655
  24   30492.8    327.9   0.133782064   1.44436  -0.28234   0.27169  -1.13615
  25   31165.3    320.9   0.015133559   0.15986  -0.00998   0.29092  -0.27410
  26   31538.1    317.1   0.057605412   0.60132  -0.13075  -0.59708  -0.47720
  27   31897.2    313.5   0.040058317   0.41344  -0.08494  -0.27334  -0.57577
  28   32040.4    312.1   0.107897267   1.10863  -0.31820   0.94475   0.33887
  29   32694.8    305.9   0.004082794   0.04111  -0.11959   0.09275  -0.13493
  30   32978.2    303.2   0.026285301   0.26240   0.24904   0.42517   0.14004
  31   33284.6    300.4   0.088971332   0.88000   0.43453   0.31474   0.76949
  32   33441.9    299.0   0.120919320   1.19037   0.00532   0.97283   0.49390
  33   33579.2    297.8   0.100525247   0.98555  -0.67280   0.12810  -0.71867
  34   33777.8    296.1   0.342167844   3.33490  -1.17633  -0.06511  -1.39532
  35   34096.6    293.3   0.049649749   0.47938  -0.16575  -0.42843  -0.51803
  36   34469.1    290.1   0.010572852   0.10098  -0.17738  -0.25890   0.04988
  37   34985.7    285.8   0.218734021   2.05827  -0.38622  -0.65305  -1.21763
  38   35054.4    285.3   0.071511478   0.67160   0.46418  -0.64165   0.21076
  39   35270.0    283.5   0.034454780   0.32160  -0.06779   0.48578   0.28464
  40   35474.2    281.9   0.372200693   3.45414   0.29687  -1.68138  -0.73414
  41   35769.9    279.6   0.414040014   3.81066  -0.27639   1.92418   0.17832
  42   35829.2    279.1   0.100231359   0.92096  -0.66812   0.31626   0.61201
  43   36110.3    276.9   0.016506076   0.15048   0.22106   0.15952  -0.27599
  44   36528.8    273.8   0.019580931   0.17647  -0.34906  -0.20233   0.11701
  45   36617.7    273.1   0.005002385   0.04497  -0.09411  -0.18942   0.01540
  46   36649.2    272.9   0.010932697   0.09821   0.24473   0.18439   0.06568
  47   36913.7    270.9   0.137093546   1.22266  -0.27249  -0.81959   0.69042
  48   37607.3    265.9   0.248233957   2.17302  -0.78547  -0.90942  -0.85382
  49   38046.2    262.8   0.036763701   0.31811  -0.01003   0.35321  -0.43961
  50   38242.0    261.5   0.008110229   0.06982   0.20175  -0.17031  -0.01049
  51   38418.8    260.3   0.014496153   0.12422  -0.29495  -0.19007   0.03309
  52   38440.7    260.1   0.102881372   0.88109  -0.62839  -0.67330  -0.18135
  53   38931.5    256.9   0.009004171   0.07614  -0.04793  -0.24310  -0.12143
  54   38954.4    256.7   0.090844411   0.76775   0.26732   0.07718  -0.83086
  55   38985.9    256.5   0.064189636   0.54204  -0.34357  -0.48512  -0.43436
  56   39306.7    254.4   0.031848338   0.26674  -0.27886  -0.43308  -0.03780
  57   39365.7    254.0   0.014295555   0.11955   0.20732   0.25685  -0.10297
  58   39773.0    251.4   0.035178902   0.29119  -0.00431  -0.30803  -0.44304
  59   39928.4    250.4   0.064764866   0.53399  -0.22316  -0.27010  -0.64128
  60   40084.7    249.5   0.028685123   0.23559  -0.11893  -0.29739  -0.36469

FINAL SINGLE POINT ENERGY     -3604.407697653518

DIPOLE MOMENT
-------------
                                X             Y             Z
Electronic contribution:    -12.99786     -18.76664     -52.87879
Nuclear contribution   :     13.38183      17.35019      52.86991
                        -----------------------------------------
Total Dipole Moment    :      0.38397      -1.41646      -0.00889
                        -----------------------------------------
Magnitude (a.u.)       :      1.46760
Magnitude (Debye)      :      3.73035

Rotational constants in cm-1:     0.001277     0.000215     0.000189
Rotational constants in MHz :    38.273961     6.453699     5.677417

                             ****ORCA TERMINATED NORMALLY****
TOTAL RUN TIME: 0 days 0 hours 12 minutes 5 seconds 814 msec
