                         Program Version 4.2.0 -  RELEASE  -
|  1> # ORCA input file
|  2> # SCF done       -200.985919887401          0.000952100254
|  3> ! CAM-B3LYP def2-SVP def2/J RIJCOSX Grid4 TightSCF
|  4> %maxcore 5000
|  5> %tddft
|  6>     Mode sTDDFT
|  7>     Ethresh 5.0
|  8>     maxcore 5000
|  9> end
| 10>
| 11> %pal
| 12>   nprocs 6
| 13>   end
| 14> * xyz 0 1
| 15>    C       -4.88674        -2.17772         0.06399
| 16>    C       -3.97130        -2.57230        -0.87608
| 17>    C       -3.35783        -3.84180        -0.89816
| 18>    N       -2.82767        -4.85794        -0.96518
| 19>    C       -3.48515        -1.75017        -1.91494
| 20>    N       -3.01848        -1.13610        -2.76523
| 21>    C       -5.31755        -2.95069         1.22039
| 22>    C       -6.14548        -2.13351         2.03073
| 23>    C       -6.70465        -2.58189         3.20315
| 24>    C       -6.43024        -3.89428         3.59899
| 25>    C       -5.60525        -4.70362         2.78147
| 26>    C       -5.04272        -4.25300         1.59314
| 27>    S       -5.41058        -6.28907         3.46031
| 28>    C       -6.41081        -5.86282         4.80567
| 29>    C       -6.87422        -4.59495         4.75588
| 30>    C       -6.30524        -0.81001         1.40241
| 31>    O       -7.02974         0.08377         1.78552
| 32>    C       -5.50990        -0.87016         0.14562
| 33>    C       -5.54696         0.07448        -0.83152
| 34>    C       -6.00432         1.41409        -0.63969
| 35>    C       -6.71183         2.09192        -1.65227
| 36>    C       -7.23575         3.42214        -1.45773
| 37>    N       -8.02428         3.95958        -2.40183
| 38>    C       -8.24833         3.30175        -3.51214
| 39>    C       -7.65142         2.01732        -3.73872
| 40>    N       -6.93290         1.44144        -2.80950
| 41>    C       -7.85664         1.35586        -4.97572
| 42>    N       -8.05371         0.85925        -5.98897
| 43>    C       -9.08791         3.89186        -4.48876
| 44>    N       -9.74812         4.37223        -5.29267
| 45>    C       -7.00590         4.15286        -0.26646
| 46>    C       -6.23204         3.49700         0.71016
| 47>    C       -5.72998         2.15426         0.52519
| 48>    N       -4.95208         1.76971         1.53736
| 49>    S       -4.89416         2.94527         2.62259
| 50>    N       -5.81544         4.01603         1.87117
| 51>    C       -7.54611         5.47954        -0.05755
| 52>    C       -7.69578         6.37596        -1.12901
| 53>    C       -8.25569         7.60626        -0.90483
| 54>    C       -8.67127         7.98612         0.38556
| 55>    C       -8.50758         7.11398         1.45585
| 56>    C       -7.94595         5.87680         1.22879
| 57>    C       -9.22268         9.31661         0.31648
| 58>    C       -9.16193         9.75954        -1.01928
| 59>    C       -8.52725         8.70886        -1.89965
| 60>    C       -7.22234         9.22890        -2.53220
| 61>    C       -6.21279         9.71230        -1.49770
| 62>    C       -9.48475         8.23509        -3.00925
| 63>    C      -10.79334         7.67621        -2.46509
| 64>    C       -9.63121        11.00117        -1.36214
| 65>    C      -10.15473        11.85157        -0.37091
| 66>    C      -10.20844        11.39216         0.95588
| 67>    C       -9.75467        10.13878         1.30336
| 68>    C      -10.59752        13.16024        -0.76378
| 69>    C      -10.92854        14.18114         0.06290
| 70>    C      -11.31247        15.45028        -0.42602
| 71>    S      -11.62762        16.79536         0.64952
| 72>    C      -11.96170        17.94289        -0.63464
| 73>    C      -11.83857        17.26292        -1.83131
| 74>    C      -11.48002        15.89702        -1.72937
| 75>    N      -11.39435        15.38753        -3.00525
| 76>    C      -11.68209        16.38120        -3.76756
| 77>    O      -11.96341        17.55495        -3.15259
| 78>    C      -12.25274        19.30032        -0.36177
| 79>    C      -12.47666        20.21970        -1.33254
| 80>    C      -12.72251        21.60500        -1.11453
| 81>    C      -12.91507        22.55075        -2.11500
| 82>    C      -13.09505        23.82775        -1.51274
| 83>    C      -13.29924        25.07531        -2.05147
| 84>    C      -13.42271        26.15798        -1.16250
| 85>    C      -13.61876        27.51349        -1.38505
| 86>    C      -13.66664        28.19175        -0.12627
| 87>    C      -13.50202        27.24935         0.87217
| 88>    C      -13.34337        25.96070         0.27156
| 89>    C      -13.14297        24.71814         0.81158
| 90>    C      -13.01208        23.63140        -0.07850
| 91>    C      -12.78846        22.28471         0.14757
| 92>    C      -13.84948        29.60722         0.08797
| 93>    C      -13.98754        30.52353        -0.86648
| 94>    H       -7.33352        -1.93719         3.79753
| 95>    H       -4.42806        -4.90936         0.99981
| 96>    H       -6.59366        -6.60104         5.56221
| 97>    H       -7.51038        -4.15650         5.50341
| 98>    H       -5.26248        -0.17969        -1.84473
| 99>    H       -7.35351         6.10015        -2.11280
|100>    H       -8.82577         7.39442         2.44867
|101>    H       -7.83469         5.18128         2.04489
|102>    H       -7.46675        10.04863        -3.21067
|103>    H       -6.77916         8.42611        -3.12476
|104>    H       -6.62441        10.53066        -0.91088
|105>    H       -5.31055        10.06434        -1.99251
|106>    H       -5.94084         8.90675        -0.81900
|107>    H       -8.98539         7.46385        -3.59869
|108>    H       -9.69654         9.07769        -3.67045
|109>    H      -10.60667         6.81284        -1.83048
|110>    H      -11.43158         7.36304        -3.28748
|111>    H      -11.32207         8.42726        -1.88159
|112>    H       -9.59182        11.34819        -2.38449
|113>    H      -10.62581        12.02976         1.71963
|114>    H       -9.80994         9.80110         2.32759
|115>    H      -10.63669        13.35213        -1.82813
|116>    H      -10.88572        14.08067         1.13784
|117>    H      -11.71682        16.35437        -4.83897
|118>    H      -12.27059        19.57881         0.68141
|119>    H      -12.45321        19.89818        -2.36560
|120>    H      -12.92135        22.35631        -3.17183
|121>    H      -13.35988        25.23010        -3.11965
|122>    H      -13.71851        27.98171        -2.34720
|123>    H      -13.49078        27.44217         1.92954
|124>    H      -13.08035        24.56267         1.87962
|125>    H      -12.67848        21.82032         1.11047
|126>    H      -13.86714        29.91093         1.12753
|127>    H      -13.97403        30.27120        -1.91297
|128>    H      -14.11810        31.56549        -0.63133
|129> *
|130>
|131>                          ****END OF INPUT****

CARTESIAN COORDINATES (ANGSTROEM)
---------------------------------
  C     -4.886740   -2.177720    0.063990
  C     -3.971300   -2.572300   -0.876080
  C     -3.357830   -3.841800   -0.898160
  N     -2.827670   -4.857940   -0.965180
  C     -3.485150   -1.750170   -1.914940
  N     -3.018480   -1.136100   -2.765230
  C     -5.317550   -2.950690    1.220390
  C     -6.145480   -2.133510    2.030730
  C     -6.704650   -2.581890    3.203150
  C     -6.430240   -3.894280    3.598990
  C     -5.605250   -4.703620    2.781470
  C     -5.042720   -4.253000    1.593140
  S     -5.410580   -6.289070    3.460310
  C     -6.410810   -5.862820    4.805670
  C     -6.874220   -4.594950    4.755880
  C     -6.305240   -0.810010    1.402410
  O     -7.029740    0.083770    1.785520
  C     -5.509900   -0.870160    0.145620
  C     -5.546960    0.074480   -0.831520
  C     -6.004320    1.414090   -0.639690
  C     -6.711830    2.091920   -1.652270
  C     -7.235750    3.422140   -1.457730
  N     -8.024280    3.959580   -2.401830
  C     -8.248330    3.301750   -3.512140
  C     -7.651420    2.017320   -3.738720
  N     -6.932900    1.441440   -2.809500
  C     -7.856640    1.355860   -4.975720
  N     -8.053710    0.859250   -5.988970
  C     -9.087910    3.891860   -4.488760
  N     -9.748120    4.372230   -5.292670
  C     -7.005900    4.152860   -0.266460
  C     -6.232040    3.497000    0.710160
  C     -5.729980    2.154260    0.525190
  N     -4.952080    1.769710    1.537360
  S     -4.894160    2.945270    2.622590
  N     -5.815440    4.016030    1.871170
  C     -7.546110    5.479540   -0.057550
  C     -7.695780    6.375960   -1.129010
  C     -8.255690    7.606260   -0.904830
  C     -8.671270    7.986120    0.385560
  C     -8.507580    7.113980    1.455850
  C     -7.945950    5.876800    1.228790
  C     -9.222680    9.316610    0.316480
  C     -9.161930    9.759540   -1.019280
  C     -8.527250    8.708860   -1.899650
  C     -7.222340    9.228900   -2.532200
  C     -6.212790    9.712300   -1.497700
  C     -9.484750    8.235090   -3.009250
  C    -10.793340    7.676210   -2.465090
  C     -9.631210   11.001170   -1.362140
  C    -10.154730   11.851570   -0.370910
  C    -10.208440   11.392160    0.955880
  C     -9.754670   10.138780    1.303360
  C    -10.597520   13.160240   -0.763780
  C    -10.928540   14.181140    0.062900
  C    -11.312470   15.450280   -0.426020
  S    -11.627620   16.795360    0.649520
  C    -11.961700   17.942890   -0.634640
  C    -11.838570   17.262920   -1.831310
  C    -11.480020   15.897020   -1.729370
  N    -11.394350   15.387530   -3.005250
  C    -11.682090   16.381200   -3.767560
  O    -11.963410   17.554950   -3.152590
  C    -12.252740   19.300320   -0.361770
  C    -12.476660   20.219700   -1.332540
  C    -12.722510   21.605000   -1.114530
  C    -12.915070   22.550750   -2.115000
  C    -13.095050   23.827750   -1.512740
  C    -13.299240   25.075310   -2.051470
  C    -13.422710   26.157980   -1.162500
  C    -13.618760   27.513490   -1.385050
  C    -13.666640   28.191750   -0.126270
  C    -13.502020   27.249350    0.872170
  C    -13.343370   25.960700    0.271560
  C    -13.142970   24.718140    0.811580
  C    -13.012080   23.631400   -0.078500
  C    -12.788460   22.284710    0.147570
  C    -13.849480   29.607220    0.087970
  C    -13.987540   30.523530   -0.866480
  H     -7.333520   -1.937190    3.797530
  H     -4.428060   -4.909360    0.999810
  H     -6.593660   -6.601040    5.562210
  H     -7.510380   -4.156500    5.503410
  H     -5.262480   -0.179690   -1.844730
  H     -7.353510    6.100150   -2.112800
  H     -8.825770    7.394420    2.448670
  H     -7.834690    5.181280    2.044890
  H     -7.466750   10.048630   -3.210670
  H     -6.779160    8.426110   -3.124760
  H     -6.624410   10.530660   -0.910880
  H     -5.310550   10.064340   -1.992510
  H     -5.940840    8.906750   -0.819000
  H     -8.985390    7.463850   -3.598690
  H     -9.696540    9.077690   -3.670450
  H    -10.606670    6.812840   -1.830480
  H    -11.431580    7.363040   -3.287480
  H    -11.322070    8.427260   -1.881590
  H     -9.591820   11.348190   -2.384490
  H    -10.625810   12.029760    1.719630
  H     -9.809940    9.801100    2.327590
  H    -10.636690   13.352130   -1.828130
  H    -10.885720   14.080670    1.137840
  H    -11.716820   16.354370   -4.838970
  H    -12.270590   19.578810    0.681410
  H    -12.453210   19.898180   -2.365600
  H    -12.921350   22.356310   -3.171830
  H    -13.359880   25.230100   -3.119650
  H    -13.718510   27.981710   -2.347200
  H    -13.490780   27.442170    1.929540
  H    -13.080350   24.562670    1.879620
  H    -12.678480   21.820320    1.110470
  H    -13.867140   29.910930    1.127530
  H    -13.974030   30.271200   -1.912970
  H    -14.118100   31.565490   -0.631330

 Total Charge           Charge          ....    0
 Multiplicity           Mult            ....    1
 Number of Electrons    NEL             ....  552
 Basis Dimension        Dim             .... 1293

ORBITAL ENERGIES
----------------

  NO   OCC          E(Eh)            E(eV)
   0   2.0000     -89.048251     -2423.1261
   1   2.0000     -88.967384     -2420.9256
   2   2.0000     -88.960173     -2420.7294
   3   2.0000     -19.302186      -525.2392
   4   2.0000     -19.215970      -522.8931
   5   2.0000     -14.465223      -393.6187
   6   2.0000     -14.464625      -393.6025
   7   2.0000     -14.455746      -393.3609
   8   2.0000     -14.449864      -393.2008
   9   2.0000     -14.431797      -392.7092
  10   2.0000     -14.430213      -392.6661
  11   2.0000     -14.415852      -392.2753
  12   2.0000     -14.415151      -392.2562
  13   2.0000     -14.413261      -392.2048
  14   2.0000     -10.386863      -282.6409
  15   2.0000     -10.381445      -282.4935
  16   2.0000     -10.371563      -282.2246
  17   2.0000     -10.367235      -282.1068
  18   2.0000     -10.354236      -281.7531
  19   2.0000     -10.350898      -281.6622
  20   2.0000     -10.343915      -281.4722
  21   2.0000     -10.343670      -281.4656
  22   2.0000     -10.342982      -281.4468
  23   2.0000     -10.339798      -281.3602
  24   2.0000     -10.330099      -281.0963
  25   2.0000     -10.329629      -281.0835
  26   2.0000     -10.324226      -280.9365
  27   2.0000     -10.323947      -280.9289
  28   2.0000     -10.321464      -280.8613
  29   2.0000     -10.317536      -280.7544
  30   2.0000     -10.316768      -280.7335
  31   2.0000     -10.315646      -280.7030
  32   2.0000     -10.315415      -280.6967
  33   2.0000     -10.312798      -280.6255
  34   2.0000     -10.307479      -280.4808
  35   2.0000     -10.306790      -280.4620
  36   2.0000     -10.303971      -280.3853
  37   2.0000     -10.303875      -280.3827
  38   2.0000     -10.302827      -280.3542
  39   2.0000     -10.301043      -280.3056
  40   2.0000     -10.300393      -280.2880
  41   2.0000     -10.299783      -280.2713
  42   2.0000     -10.297203      -280.2011
  43   2.0000     -10.296724      -280.1881
  44   2.0000     -10.291445      -280.0445
  45   2.0000     -10.290938      -280.0307
  46   2.0000     -10.290292      -280.0131
  47   2.0000     -10.282446      -279.7996
  48   2.0000     -10.282110      -279.7904
  49   2.0000     -10.279765      -279.7266
  50   2.0000     -10.279281      -279.7135
  51   2.0000     -10.278308      -279.6870
  52   2.0000     -10.278281      -279.6862
  53   2.0000     -10.277909      -279.6761
  54   2.0000     -10.276545      -279.6390
  55   2.0000     -10.276072      -279.6261
  56   2.0000     -10.274381      -279.5801
  57   2.0000     -10.273382      -279.5529
  58   2.0000     -10.272467      -279.5280
  59   2.0000     -10.270616      -279.4777
  60   2.0000     -10.270416      -279.4722
  61   2.0000     -10.269272      -279.4411
  62   2.0000     -10.269271      -279.4411
  63   2.0000     -10.269011      -279.4340
  64   2.0000     -10.268477      -279.4195
  65   2.0000     -10.267656      -279.3971
  66   2.0000     -10.267587      -279.3952
  67   2.0000     -10.267364      -279.3892
  68   2.0000     -10.266832      -279.3747
  69   2.0000     -10.266076      -279.3541
  70   2.0000     -10.263889      -279.2946
  71   2.0000     -10.263495      -279.2839
  72   2.0000     -10.263302      -279.2786
  73   2.0000     -10.262839      -279.2661
  74   2.0000     -10.261365      -279.2259
  75   2.0000     -10.257727      -279.1269
  76   2.0000     -10.256425      -279.0915
  77   2.0000     -10.245053      -278.7821
  78   2.0000     -10.239964      -278.6436
  79   2.0000      -8.139291      -221.4814
  80   2.0000      -8.063695      -219.4243
  81   2.0000      -8.055072      -219.1897
  82   2.0000      -6.110178      -166.2664
  83   2.0000      -6.102548      -166.0588
  84   2.0000      -6.102400      -166.0547
  85   2.0000      -6.033200      -164.1717
  86   2.0000      -6.028910      -164.0550
  87   2.0000      -6.025345      -163.9580
  88   2.0000      -6.024446      -163.9335
  89   2.0000      -6.020517      -163.8266
  90   2.0000      -6.016961      -163.7298
  91   2.0000      -1.229147       -33.4468
  92   2.0000      -1.144133       -31.1334
  93   2.0000      -1.130142       -30.7527
  94   2.0000      -1.123509       -30.5722
  95   2.0000      -1.050366       -28.5819
  96   2.0000      -1.024702       -27.8836
  97   2.0000      -1.019815       -27.7506
  98   2.0000      -1.015349       -27.6290
  99   2.0000      -1.008129       -27.4326
 100   2.0000      -1.005377       -27.3577
 101   2.0000      -0.998046       -27.1582
 102   2.0000      -0.992591       -27.0098
 103   2.0000      -0.990453       -26.9516
 104   2.0000      -0.985629       -26.8203
 105   2.0000      -0.984827       -26.7985
 106   2.0000      -0.980305       -26.6755
 107   2.0000      -0.978026       -26.6134
 108   2.0000      -0.958750       -26.0889
 109   2.0000      -0.946882       -25.7660
 110   2.0000      -0.931926       -25.3590
 111   2.0000      -0.922503       -25.1026
 112   2.0000      -0.911365       -24.7995
 113   2.0000      -0.905668       -24.6445
 114   2.0000      -0.903674       -24.5902
 115   2.0000      -0.892892       -24.2968
 116   2.0000      -0.889233       -24.1973
 117   2.0000      -0.881843       -23.9962
 118   2.0000      -0.876829       -23.8597
 119   2.0000      -0.864208       -23.5163
 120   2.0000      -0.861025       -23.4297
 121   2.0000      -0.850694       -23.1486
 122   2.0000      -0.843437       -22.9511
 123   2.0000      -0.837801       -22.7977
 124   2.0000      -0.836037       -22.7497
 125   2.0000      -0.833747       -22.6874
 126   2.0000      -0.833257       -22.6741
 127   2.0000      -0.830253       -22.5923
 128   2.0000      -0.823663       -22.4130
 129   2.0000      -0.818877       -22.2828
 130   2.0000      -0.801808       -21.8183
 131   2.0000      -0.795181       -21.6380
 132   2.0000      -0.793551       -21.5936
 133   2.0000      -0.777084       -21.1455
 134   2.0000      -0.761579       -20.7236
 135   2.0000      -0.760053       -20.6821
 136   2.0000      -0.756810       -20.5939
 137   2.0000      -0.745480       -20.2855
 138   2.0000      -0.740948       -20.1622
 139   2.0000      -0.733913       -19.9708
 140   2.0000      -0.727869       -19.8063
 141   2.0000      -0.722251       -19.6535
 142   2.0000      -0.720470       -19.6050
 143   2.0000      -0.712989       -19.4014
 144   2.0000      -0.706939       -19.2368
 145   2.0000      -0.697071       -18.9683
 146   2.0000      -0.690856       -18.7991
 147   2.0000      -0.688481       -18.7345
 148   2.0000      -0.682309       -18.5666
 149   2.0000      -0.676268       -18.4022
 150   2.0000      -0.674053       -18.3419
 151   2.0000      -0.670542       -18.2464
 152   2.0000      -0.667122       -18.1533
 153   2.0000      -0.665272       -18.1030
 154   2.0000      -0.661666       -18.0048
 155   2.0000      -0.657442       -17.8899
 156   2.0000      -0.655398       -17.8343
 157   2.0000      -0.649926       -17.6854
 158   2.0000      -0.641436       -17.4544
 159   2.0000      -0.636390       -17.3171
 160   2.0000      -0.630676       -17.1616
 161   2.0000      -0.621098       -16.9009
 162   2.0000      -0.620115       -16.8742
 163   2.0000      -0.619407       -16.8549
 164   2.0000      -0.617514       -16.8034
 165   2.0000      -0.610127       -16.6024
 166   2.0000      -0.596444       -16.2301
 167   2.0000      -0.595007       -16.1910
 168   2.0000      -0.593017       -16.1368
 169   2.0000      -0.584427       -15.9031
 170   2.0000      -0.584168       -15.8960
 171   2.0000      -0.578434       -15.7400
 172   2.0000      -0.576825       -15.6962
 173   2.0000      -0.575453       -15.6589
 174   2.0000      -0.574670       -15.6376
 175   2.0000      -0.569000       -15.4833
 176   2.0000      -0.562551       -15.3078
 177   2.0000      -0.560247       -15.2451
 178   2.0000      -0.555396       -15.1131
 179   2.0000      -0.546779       -14.8786
 180   2.0000      -0.543892       -14.8001
 181   2.0000      -0.541496       -14.7348
 182   2.0000      -0.540761       -14.7149
 183   2.0000      -0.539524       -14.6812
 184   2.0000      -0.539171       -14.6716
 185   2.0000      -0.535932       -14.5834
 186   2.0000      -0.533673       -14.5220
 187   2.0000      -0.532997       -14.5036
 188   2.0000      -0.530113       -14.4251
 189   2.0000      -0.522493       -14.2178
 190   2.0000      -0.520896       -14.1743
 191   2.0000      -0.516808       -14.0631
 192   2.0000      -0.516495       -14.0546
 193   2.0000      -0.514587       -14.0026
 194   2.0000      -0.511072       -13.9070
 195   2.0000      -0.507908       -13.8209
 196   2.0000      -0.506861       -13.7924
 197   2.0000      -0.501155       -13.6371
 198   2.0000      -0.500513       -13.6196
 199   2.0000      -0.492283       -13.3957
 200   2.0000      -0.492080       -13.3902
 201   2.0000      -0.491123       -13.3641
 202   2.0000      -0.489261       -13.3135
 203   2.0000      -0.488078       -13.2813
 204   2.0000      -0.484652       -13.1880
 205   2.0000      -0.484352       -13.1799
 206   2.0000      -0.483120       -13.1464
 207   2.0000      -0.478971       -13.0335
 208   2.0000      -0.477466       -12.9925
 209   2.0000      -0.474027       -12.8989
 210   2.0000      -0.471059       -12.8182
 211   2.0000      -0.468896       -12.7593
 212   2.0000      -0.466919       -12.7055
 213   2.0000      -0.465426       -12.6649
 214   2.0000      -0.464491       -12.6394
 215   2.0000      -0.460325       -12.5261
 216   2.0000      -0.457058       -12.4372
 217   2.0000      -0.456620       -12.4253
 218   2.0000      -0.454693       -12.3728
 219   2.0000      -0.454471       -12.3668
 220   2.0000      -0.454284       -12.3617
 221   2.0000      -0.450966       -12.2714
 222   2.0000      -0.447390       -12.1741
 223   2.0000      -0.447088       -12.1659
 224   2.0000      -0.444555       -12.0969
 225   2.0000      -0.444008       -12.0821
 226   2.0000      -0.442838       -12.0502
 227   2.0000      -0.442173       -12.0321
 228   2.0000      -0.442070       -12.0293
 229   2.0000      -0.439206       -11.9514
 230   2.0000      -0.437424       -11.9029
 231   2.0000      -0.434655       -11.8276
 232   2.0000      -0.432976       -11.7819
 233   2.0000      -0.428727       -11.6662
 234   2.0000      -0.427649       -11.6369
 235   2.0000      -0.426104       -11.5949
 236   2.0000      -0.425380       -11.5752
 237   2.0000      -0.423297       -11.5185
 238   2.0000      -0.421312       -11.4645
 239   2.0000      -0.420631       -11.4460
 240   2.0000      -0.418947       -11.4001
 241   2.0000      -0.418165       -11.3789
 242   2.0000      -0.418023       -11.3750
 243   2.0000      -0.415255       -11.2997
 244   2.0000      -0.412366       -11.2211
 245   2.0000      -0.411450       -11.1961
 246   2.0000      -0.407970       -11.1014
 247   2.0000      -0.403301       -10.9744
 248   2.0000      -0.402493       -10.9524
 249   2.0000      -0.398969       -10.8565
 250   2.0000      -0.396581       -10.7915
 251   2.0000      -0.392468       -10.6796
 252   2.0000      -0.386866       -10.5272
 253   2.0000      -0.384921       -10.4742
 254   2.0000      -0.381282       -10.3752
 255   2.0000      -0.380445       -10.3524
 256   2.0000      -0.376191       -10.2367
 257   2.0000      -0.368001       -10.0138
 258   2.0000      -0.366891        -9.9836
 259   2.0000      -0.364127        -9.9084
 260   2.0000      -0.361985        -9.8501
 261   2.0000      -0.352554        -9.5935
 262   2.0000      -0.349204        -9.5023
 263   2.0000      -0.340939        -9.2774
 264   2.0000      -0.334132        -9.0922
 265   2.0000      -0.322513        -8.7760
 266   2.0000      -0.316149        -8.6028
 267   2.0000      -0.314514        -8.5584
 268   2.0000      -0.313462        -8.5297
 269   2.0000      -0.310491        -8.4489
 270   2.0000      -0.297848        -8.1048
 271   2.0000      -0.292410        -7.9569
 272   2.0000      -0.271353        -7.3839
 273   2.0000      -0.266030        -7.2390
 274   2.0000      -0.250359        -6.8126
 275   2.0000      -0.217341        -5.9141
 276   0.0000      -0.126917        -3.4536
 277   0.0000      -0.093139        -2.5344
 278   0.0000      -0.081351        -2.2137
 279   0.0000      -0.057309        -1.5595
 280   0.0000      -0.055726        -1.5164

MULLIKEN ATOMIC CHARGES
-----------------------
   0 C :    0.293289
   1 C :   -0.332202
   2 C :   -0.186929
   3 N :    0.153777
   4 C :   -0.200461
   5 N :    0.165539
   6 C :    0.022669
   7 C :   -0.019901
   8 C :   -0.070422
   9 C :    0.116279
  10 C :   -0.092148
  11 C :   -0.026562
  12 S :    0.141827
  13 C :   -0.048850
  14 C :    0.023312
  15 C :    0.159705
  16 O :   -0.158598
  17 C :   -0.058017
  18 C :   -0.067668
  19 C :    0.062242
  20 C :   -0.033971
  21 C :   -0.072081
  22 N :    0.045199
  23 C :   -0.145961
  24 C :   -0.125083
  25 N :    0.061914
  26 C :   -0.204852
  27 N :    0.241555
  28 C :   -0.203519
  29 N :    0.235897
  30 C :    0.123681
  31 C :    0.002496
  32 C :    0.031235
  33 N :   -0.274215
  34 S :    0.555384
  35 N :   -0.277215
  36 C :   -0.007577
  37 C :   -0.031005
  38 C :   -0.011846
  39 C :    0.126968
  40 C :   -0.064304
  41 C :    0.029420
  42 C :    0.101514
  43 C :    0.030358
  44 C :   -0.137768
  45 C :    0.069356
  46 C :    0.025757
  47 C :    0.066204
  48 C :    0.025364
  49 C :   -0.114981
  50 C :    0.132216
  51 C :   -0.009780
  52 C :   -0.040475
  53 C :   -0.034214
  54 C :    0.071122
  55 C :   -0.201508
  56 S :    0.136559
  57 C :   -0.191568
  58 C :    0.184532
  59 C :    0.054927
  60 N :   -0.073361
  61 C :    0.188920
  62 O :   -0.208155
  63 C :    0.065493
  64 C :   -0.010183
  65 C :    0.083370
  66 C :   -0.042286
  67 C :    0.064861
  68 C :   -0.005187
  69 C :    0.044480
  70 C :   -0.022025
  71 C :    0.062312
  72 C :   -0.033476
  73 C :    0.062158
  74 C :   -0.005060
  75 C :    0.052511
  76 C :   -0.030595
  77 C :    0.013947
  78 C :   -0.029823
  79 H :   -0.014372
  80 H :   -0.005675
  81 H :    0.039799
  82 H :   -0.007006
  83 H :    0.047103
  84 H :   -0.030680
  85 H :   -0.034011
  86 H :   -0.013979
  87 H :    0.000986
  88 H :   -0.002492
  89 H :    0.022361
  90 H :    0.008875
  91 H :    0.017680
  92 H :    0.004082
  93 H :    0.000047
  94 H :    0.018432
  95 H :    0.017141
  96 H :    0.018902
  97 H :   -0.033640
  98 H :   -0.029530
  99 H :   -0.037101
 100 H :   -0.003819
 101 H :   -0.034985
 102 H :    0.033705
 103 H :   -0.036658
 104 H :   -0.014767
 105 H :   -0.030567
 106 H :   -0.026310
 107 H :   -0.025690
 108 H :   -0.029497
 109 H :   -0.026578
 110 H :   -0.025175
 111 H :   -0.019729
 112 H :    0.008417
 113 H :    0.020215
Sum of atomic charges:    0.0000000

LOEWDIN ATOMIC CHARGES
----------------------
   0 C :    0.074006
   1 C :   -0.131373
   2 C :   -0.017710
   3 N :   -0.049720
   4 C :   -0.023450
   5 N :   -0.045158
   6 C :   -0.021596
   7 C :   -0.051449
   8 C :    0.021989
   9 C :   -0.034716
  10 C :   -0.144815
  11 C :   -0.008471
  12 S :    0.430418
  13 C :   -0.148709
  14 C :   -0.058416
  15 C :    0.085906
  16 O :   -0.148785
  17 C :   -0.071262
  18 C :    0.078977
  19 C :   -0.043173
  20 C :    0.011889
  21 C :   -0.016253
  22 N :    0.016259
  23 C :   -0.037712
  24 C :   -0.016976
  25 N :   -0.001989
  26 C :   -0.034740
  27 N :    0.003184
  28 C :   -0.036796
  29 N :   -0.008603
  30 C :    0.029070
  31 C :   -0.044435
  32 C :   -0.023482
  33 N :   -0.276613
  34 S :    0.694945
  35 N :   -0.273695
  36 C :   -0.031354
  37 C :    0.007360
  38 C :   -0.002512
  39 C :    0.006966
  40 C :   -0.026794
  41 C :    0.009907
  42 C :   -0.026277
  43 C :    0.009491
  44 C :   -0.035713
  45 C :   -0.010636
  46 C :   -0.057999
  47 C :   -0.010479
  48 C :   -0.057387
  49 C :   -0.019567
  50 C :   -0.014859
  51 C :   -0.016660
  52 C :   -0.012584
  53 C :   -0.011834
  54 C :   -0.040466
  55 C :   -0.182917
  56 S :    0.443180
  57 C :   -0.195207
  58 C :   -0.006509
  59 C :   -0.063825
  60 N :   -0.098592
  61 C :    0.096139
  62 O :   -0.012453
  63 C :   -0.057291
  64 C :   -0.012537
  65 C :   -0.059388
  66 C :    0.005337
  67 C :   -0.057949
  68 C :    0.066649
  69 C :   -0.062754
  70 C :    0.043749
  71 C :   -0.058789
  72 C :    0.009459
  73 C :   -0.056709
  74 C :    0.066511
  75 C :   -0.060275
  76 C :    0.036911
  77 C :   -0.020516
  78 C :   -0.056061
  79 H :    0.039223
  80 H :    0.040935
  81 H :    0.029772
  82 H :    0.035108
  83 H :    0.049224
  84 H :    0.024105
  85 H :    0.027862
  86 H :    0.028370
  87 H :    0.021499
  88 H :    0.019814
  89 H :    0.025817
  90 H :    0.024178
  91 H :    0.023816
  92 H :    0.022383
  93 H :    0.021184
  94 H :    0.024186
  95 H :    0.027721
  96 H :    0.024184
  97 H :    0.027247
  98 H :    0.024978
  99 H :    0.026790
 100 H :    0.032935
 101 H :    0.024158
 102 H :    0.027164
 103 H :    0.024101
 104 H :    0.029866
 105 H :    0.022914
 106 H :    0.034119
 107 H :    0.024268
 108 H :    0.023102
 109 H :    0.033964
 110 H :    0.022902
 111 H :    0.029041
 112 H :    0.017652
 113 H :    0.024109

  Mayer bond orders larger than 0.100000
B(  0-C ,  1-C ) :   1.6532 B(  0-C ,  6-C ) :   1.0099 B(  0-C , 17-C ) :   1.0527
B(  1-C ,  2-C ) :   1.1390 B(  1-C ,  4-C ) :   1.1434 B(  2-C ,  3-N ) :   2.9737
B(  4-C ,  5-N ) :   2.9910 B(  6-C ,  7-C ) :   1.2666 B(  6-C , 11-C ) :   1.4075
B(  7-C ,  8-C ) :   1.4239 B(  7-C , 15-C ) :   0.9539 B(  8-C ,  9-C ) :   1.2469
B(  8-C , 79-H ) :   1.0171 B(  9-C , 10-C ) :   1.2990 B(  9-C , 14-C ) :   1.1716
B( 10-C , 11-C ) :   1.3244 B( 10-C , 12-S ) :   1.0993 B( 11-C , 80-H ) :   0.9838
B( 12-S , 13-C ) :   1.1266 B( 13-C , 14-C ) :   1.6289 B( 13-C , 81-H ) :   0.9684
B( 14-C , 82-H ) :   0.9996 B( 15-C , 16-O ) :   2.2116 B( 15-C , 17-C ) :   0.9365
B( 17-C , 18-C ) :   1.6336 B( 18-C , 19-C ) :   1.1392 B( 18-C , 83-H ) :   0.9305
B( 19-C , 20-C ) :   1.2782 B( 19-C , 30-C ) :   0.1269 B( 19-C , 32-C ) :   1.2159
B( 20-C , 21-C ) :   1.1090 B( 20-C , 25-N ) :   1.4462 B( 21-C , 22-N ) :   1.4328
B( 21-C , 30-C ) :   1.2659 B( 22-N , 23-C ) :   1.7303 B( 23-C , 24-C ) :   1.1979
B( 23-C , 28-C ) :   1.1574 B( 24-C , 25-N ) :   1.7550 B( 24-C , 26-C ) :   1.1505
B( 26-C , 27-N ) :   3.0449 B( 28-C , 29-N ) :   3.0327 B( 30-C , 31-C ) :   1.2352
B( 30-C , 36-C ) :   1.0551 B( 31-C , 32-C ) :   1.1052 B( 31-C , 35-N ) :   1.4834
B( 32-C , 33-N ) :   1.4982 B( 33-N , 34-S ) :   1.2916 B( 33-N , 35-N ) :   0.1553
B( 34-S , 35-N ) :   1.3107 B( 36-C , 37-C ) :   1.2798 B( 36-C , 41-C ) :   1.3384
B( 37-C , 38-C ) :   1.4247 B( 37-C , 84-H ) :   0.9909 B( 38-C , 39-C ) :   1.3474
B( 38-C , 44-C ) :   0.9095 B( 39-C , 40-C ) :   1.3226 B( 39-C , 42-C ) :   1.0075
B( 40-C , 41-C ) :   1.4012 B( 40-C , 85-H ) :   0.9929 B( 41-C , 86-H ) :   0.9784
B( 42-C , 43-C ) :   1.3621 B( 42-C , 52-C ) :   1.3157 B( 43-C , 44-C ) :   0.9139
B( 43-C , 49-C ) :   1.3745 B( 44-C , 45-C ) :   1.0369 B( 44-C , 47-C ) :   1.0397
B( 45-C , 46-C ) :   1.1008 B( 45-C , 87-H ) :   0.9398 B( 45-C , 88-H ) :   0.9396
B( 46-C , 89-H ) :   0.9644 B( 46-C , 90-H ) :   0.9638 B( 46-C , 91-H ) :   0.9643
B( 47-C , 48-C ) :   1.1035 B( 47-C , 92-H ) :   0.9382 B( 47-C , 93-H ) :   0.9391
B( 48-C , 94-H ) :   0.9630 B( 48-C , 95-H ) :   0.9632 B( 48-C , 96-H ) :   0.9647
B( 49-C , 50-C ) :   1.2808 B( 49-C , 97-H ) :   1.0183 B( 50-C , 51-C ) :   1.3347
B( 50-C , 53-C ) :   1.0694 B( 51-C , 52-C ) :   1.4088 B( 51-C , 98-H ) :   0.9827
B( 52-C , 99-H ) :   0.9903 B( 53-C , 54-C ) :   1.6575 B( 53-C ,100-H ) :   0.9796
B( 54-C , 55-C ) :   1.1493 B( 54-C ,101-H ) :   0.9525 B( 55-C , 56-S ) :   1.1109
B( 55-C , 57-C ) :   0.1179 B( 55-C , 59-C ) :   1.4102 B( 56-S , 57-C ) :   1.1026
B( 57-C , 58-C ) :   1.4538 B( 57-C , 63-C ) :   1.1295 B( 58-C , 59-C ) :   1.2702
B( 58-C , 62-O ) :   1.0892 B( 59-C , 60-N ) :   1.2641 B( 60-N , 61-C ) :   1.7818
B( 61-C , 62-O ) :   1.1208 B( 61-C ,102-H ) :   0.9845 B( 63-C , 64-C ) :   1.6517
B( 63-C ,103-H ) :   0.9576 B( 64-C , 65-C ) :   1.1037 B( 64-C ,104-H ) :   0.9794
B( 65-C , 66-C ) :   1.4703 B( 65-C , 76-C ) :   1.1373 B( 66-C , 67-C ) :   1.0939
B( 66-C ,105-H ) :   1.0206 B( 67-C , 68-C ) :   1.4496 B( 67-C , 75-C ) :   1.1314
B( 68-C , 69-C ) :   1.1309 B( 68-C ,106-H ) :   1.0056 B( 69-C , 70-C ) :   1.4396
B( 69-C , 73-C ) :   1.1296 B( 70-C , 71-C ) :   1.1433 B( 70-C ,107-H ) :   1.0083
B( 71-C , 72-C ) :   1.5093 B( 71-C , 77-C ) :   1.0855 B( 72-C , 73-C ) :   1.0817
B( 72-C ,108-H ) :   1.0174 B( 73-C , 74-C ) :   1.4717 B( 74-C , 75-C ) :   1.1184
B( 74-C ,109-H ) :   1.0051 B( 75-C , 76-C ) :   1.4476 B( 76-C ,110-H ) :   1.0074
B( 77-C , 78-C ) :   1.9297 B( 77-C ,111-H ) :   0.9669 B( 78-C ,112-H ) :   0.9535
B( 78-C ,113-H ) :   0.9501

-----------------------------------------------------------------------------
         ABSORPTION SPECTRUM VIA TRANSITION ELECTRIC DIPOLE MOMENTS
-----------------------------------------------------------------------------
State   Energy  Wavelength   fosc         T2         TX        TY        TZ
        (cm-1)    (nm)                  (au**2)     (au)      (au)      (au)
-----------------------------------------------------------------------------
   0    8329.0   1200.6   0.022223767   0.87842   0.23374  -0.90405   0.08041
   1   10775.0    928.1   0.781542848  23.87874  -1.53869   4.63801   0.00808
   2   15435.9    647.8   0.142348862   3.03596  -0.57884   1.64220   0.06396
   3   19171.8    521.6   0.124324172   2.13485   0.33331  -1.33541   0.49034
   4   20404.0    490.1   0.002310102   0.03727  -0.04698   0.09768   0.15976
   5   21385.5    467.6   2.633331101  40.53785   1.55508  -6.15648   0.46617
   6   22166.7    451.1   0.023699706   0.35198   0.26062  -0.31215   0.43200
   7   22732.2    439.9   0.030228912   0.43778   0.40533  -0.40689  -0.32852
   8   22788.3    438.8   0.013362913   0.19305   0.15009   0.40928  -0.05487
   9   22918.6    436.3   0.154034912   2.21262   0.12092  -1.47106  -0.18433
  10   23672.8    422.4   0.006830977   0.09500  -0.19081   0.11763  -0.21154
  11   25116.8    398.1   0.017836709   0.23379  -0.15939   0.33165   0.31368
  12   25346.9    394.5   0.060846438   0.79029   0.27682  -0.72267   0.43751
  13   25484.6    392.4   0.072983746   0.94281   0.27493  -0.70422   0.60934
  14   25999.9    384.6   0.036268460   0.45923  -0.48481   0.47179   0.04012
  15   26720.5    374.2   0.012001923   0.14787   0.18231   0.23930  -0.23952
  16   27196.4    367.7   0.000364822   0.00442  -0.06427  -0.00736  -0.01520
  17   27562.6    362.8   0.033397373   0.39890  -0.08685   0.12018  -0.61394
  18   28206.5    354.5   0.017479312   0.20401   0.08062  -0.29066  -0.33619
  19   28689.3    348.6   0.035598692   0.40850  -0.00315   0.10705  -0.63010
  20   29247.4    341.9   0.134894403   1.51839   0.60017  -0.36831   1.01120
  21   29285.6    341.5   0.004457213   0.05011  -0.20110   0.02990  -0.09364
  22   30005.9    333.3   0.075491773   0.82826  -0.26009   0.84206  -0.22706
  23   30271.8    330.3   0.054161023   0.58901  -0.25570   0.58036  -0.43222
  24   30365.9    329.3   0.315216328   3.41741   0.57576   0.93091  -1.48974
  25   30722.6    325.5   0.090991577   0.97503   0.13072  -0.97313   0.10471
  26   30954.0    323.1   0.180067339   1.91511  -0.18403  -1.14965   0.74804
  27   31199.9    320.5   0.102057017   1.07687   0.11758   0.57996   0.85246
  28   31529.4    317.2   0.022994927   0.24010   0.04970  -0.44037   0.20906
  29   31882.4    313.7   0.070583629   0.72883   0.02609   0.84887   0.08705
  30   32204.2    310.5   0.079560559   0.81332  -0.48550  -0.67787   0.34365
  31   32562.5    307.1   0.034274446   0.34652  -0.52865   0.09055   0.24259
  32   32704.3    305.8   0.030206216   0.30407  -0.14855  -0.41476  -0.33163
  33   32936.8    303.6   0.033517395   0.33502   0.28762  -0.25748   0.43127
  34   33069.5    302.4   0.044808892   0.44608  -0.02569  -0.40239  -0.53245
  35   33369.8    299.7   0.470189331   4.63868   0.85140   0.15969   1.97188
  36   33549.7    298.1   0.073218000   0.71846  -0.33878   0.18946  -0.75352
  37   34507.9    289.8   0.053527784   0.51067   0.70582  -0.02114   0.10972
  38   34511.1    289.8   0.339387256   3.23751   0.11101   1.78873   0.16014
  39   34831.4    287.1   0.051876587   0.49032   0.00975  -0.65541  -0.24628
  40   35188.0    284.2   0.538688754   5.03987   1.02257  -0.26510  -1.98089
  41   35720.6    280.0   0.122178533   1.12603   0.41446  -0.95011  -0.22704
  42   36204.4    276.2   0.010248665   0.09319  -0.15317   0.17167  -0.20065
  43   36620.4    273.1   0.182903350   1.64427  -0.58849   0.43494  -1.05299
  44   36867.6    271.2   0.094023378   0.83959  -0.39693  -0.00794  -0.82581
  45   37026.5    270.1   0.006353176   0.05649  -0.01953  -0.23320  -0.04150
  46   37068.0    269.8   0.011418131   0.10141  -0.12953   0.28227  -0.07037
  47   37283.3    268.2   0.009537280   0.08421  -0.10483   0.17445  -0.20686
  48   37684.1    265.4   0.050959198   0.44518   0.42528  -0.31197   0.40865
  49   37742.4    265.0   0.156789693   1.36762  -0.67384   0.69122  -0.66013
  50   38393.9    260.5   0.152455696   1.30724  -0.20560   1.04114   0.42545
  51   38521.7    259.6   0.036535848   0.31224   0.24949  -0.45113   0.21559
  52   38828.4    257.5   0.021020597   0.17823   0.06625  -0.08138  -0.40892
  53   38948.4    256.8   0.166965136   1.41128  -0.37448   1.11273  -0.18130
  54   39569.1    252.7   0.008523112   0.07091  -0.05530   0.06328  -0.25268
  55   39791.7    251.3   0.000859272   0.00711  -0.06302   0.05596  -0.00240
  56   40000.1    250.0   0.038394727   0.31600  -0.11289   0.39859   0.37997
  57   40074.8    249.5   0.075450366   0.61982   0.37081  -0.66285  -0.20725
  58   40172.5    248.9   0.028960689   0.23733  -0.19805  -0.12283   0.42781
  59   40315.6    248.0   0.159006876   1.29843  -0.23341   1.04389  -0.39275

FINAL SINGLE POINT ENERGY     -4331.236067369559

DIPOLE MOMENT
-------------
                                X             Y             Z
Electronic contribution:     39.56744    -132.77658       8.26527
Nuclear contribution   :    -40.59731     135.32259      -4.32174
                        -----------------------------------------
Total Dipole Moment    :     -1.02987       2.54601       3.94352
                        -----------------------------------------
Magnitude (a.u.)       :      4.80564
Magnitude (Debye)      :     12.21497

Rotational constants in cm-1:     0.002710     0.000138     0.000134
Rotational constants in MHz :    81.255146     4.145247     4.022440

                             ****ORCA TERMINATED NORMALLY****
TOTAL RUN TIME: 0 days 0 hours 13 minutes 54 seconds 90 msec
