                         Program Version 4.2.0 -  RELEASE  -
|  1> # ORCA input file
|  2> # SCF done       -179.413118243445          0.000619348793
|  3> ! CAM-B3LYP def2-SVP def2/J RIJCOSX Grid4 TightSCF
|  4> %maxcore 5000
|  5> %tddft
|  6>     Mode sTDDFT
|  7>     Ethresh 5.0
|  8>     maxcore 5000
|  9> end
| 10>
| 11> %pal
| 12>   nprocs 6
| 13>   end
| 14> * xyz 0 1
| 15>    C       -5.77986        -1.46428         7.52319
| 16>    C       -5.84055        -2.66214         6.84349
| 17>    C       -5.45441        -3.89542         7.39105
| 18>    N       -5.19472        -4.94671         7.77935
| 19>    C       -6.27092        -2.83674         5.51314
| 20>    N       -6.55034        -3.06888         4.42209
| 21>    C       -5.16442        -1.26821         8.83353
| 22>    C       -5.25837         0.10296         9.17721
| 23>    C       -4.75146         0.60720        10.34839
| 24>    C       -4.12004        -0.28382        11.22469
| 25>    C       -4.02403        -1.64868        10.86911
| 26>    C       -4.53576        -2.15880         9.68160
| 27>    S       -3.19991        -2.57112        12.09034
| 28>    C       -3.00251        -1.12924        13.05067
| 29>    C       -3.52303        -0.01389        12.48672
| 30>   Br       -2.12740        -1.23351        14.70669
| 31>    C       -5.95725         0.82933         8.09256
| 32>    O       -6.20783         2.01825         8.06337
| 33>    C       -6.28253        -0.19289         7.08229
| 34>    C       -7.03050         0.02524         5.94311
| 35>    C       -7.56030         1.23811         5.52134
| 36>    C       -8.34418         1.31911         4.38344
| 37>    C       -8.96781         2.45854         3.82904
| 38>    C       -9.69741         2.20547         2.70113
| 39>    C       -9.67976         0.85143         2.31322
| 40>    S       -8.70590        -0.09192         3.41914
| 41>    C      -10.30118         0.22277         1.24799
| 42>    C      -11.14266         0.75069         0.24458
| 43>    C      -11.59570        -0.17546        -0.64780
| 44>    C      -11.13180        -1.48952        -0.39803
| 45>    S      -10.08843        -1.49380         1.02756
| 46>    C      -11.39716        -2.64346        -1.08151
| 47>    N      -10.85811        -3.82139        -0.69808
| 48>    C      -11.02049        -5.04433        -1.25588
| 49>    S      -11.90916        -5.27056        -2.72879
| 50>    C      -11.48015        -6.95259        -2.70392
| 51>    N      -11.96595        -7.74656        -3.74327
| 52>    O      -11.67014        -8.92767        -3.74680
| 53>    O      -12.65586        -7.18384        -4.58028
| 54>    C      -10.69888        -7.30132        -1.63230
| 55>    C      -10.43701        -6.22262        -0.77125
| 56>    C       -9.64733        -6.34504         0.43603
| 57>    C       -9.79563        -5.62297         1.55844
| 58>    C       -8.99239        -5.74519         2.75951
| 59>    C       -7.78350        -6.43508         2.82402
| 60>    C       -7.07775        -6.51007         4.02541
| 61>    C       -7.66506        -5.89158         5.13977
| 62>    N       -8.79852        -5.22173         5.09206
| 63>    C       -9.43296        -5.13341         3.94005
| 64>    C       -5.81696        -7.21279         4.07591
| 65>    C       -4.93153        -7.16650         5.08786
| 66>    C       -3.69571        -7.87658         5.11407
| 67>    S       -3.22550        -8.96761         3.84309
| 68>    C       -1.73793        -9.36611         4.65500
| 69>    C       -1.61863        -8.66234         5.83578
| 70>    C       -2.72413        -7.82863         6.09582
| 71>    C       -2.81843        -6.94923         7.29797
| 72>    C       -1.72760        -7.21455         8.34440
| 73>    O       -1.56024        -6.09030         9.18438
| 74>    C       -2.59668        -5.90373        10.11498
| 75>    C       -0.37391        -7.47521         7.66946
| 76>    O        0.58758        -7.68292         8.68627
| 77>    C        1.87366        -7.21096         8.38563
| 78>    C       -0.45064        -8.71310         6.76391
| 79>    C       -0.87344       -10.32077         4.01321
| 80>    C        0.10075       -11.03090         4.57836
| 81>    H       -4.83616         1.65659        10.58354
| 82>    H       -4.43234        -3.20651         9.45506
| 83>    H       -3.48892         0.95974        12.94045
| 84>    H       -7.24899        -0.83562         5.32160
| 85>    H       -7.37045         2.13461         6.09258
| 86>    H       -8.86180         3.42901         4.28020
| 87>    H      -10.23977         2.95203         2.14877
| 88>    H      -11.39125         1.79596         0.21145
| 89>    H      -12.24628         0.04254        -1.47555
| 90>    H      -12.05466        -2.65245        -1.93805
| 91>    H      -10.21095        -3.79007         0.08724
| 92>    H      -10.35188        -8.30653        -1.47456
| 93>    H       -8.90939        -7.13439         0.40330
| 94>    H      -10.61777        -4.92268         1.65152
| 95>    H       -7.36866        -6.90094         1.94141
| 96>    H       -7.20198        -5.94522         6.11506
| 97>    H      -10.35194        -4.56048         3.95541
| 98>    H       -5.57456        -7.80744         3.20242
| 99>    H       -5.12437        -6.55077         5.95443
|100>    H       -3.80088        -7.05939         7.75929
|101>    H       -2.72534        -5.90333         6.98501
|102>    H       -1.98197        -8.09639         8.95352
|103>    H       -2.28310        -5.08354        10.75922
|104>    H       -2.74918        -6.80252        10.72440
|105>    H       -3.54220        -5.64184         9.62674
|106>    H       -0.11312        -6.58419         7.08076
|107>    H        2.48533        -7.41585         9.26233
|108>    H        1.86638        -6.13146         8.19340
|109>    H        2.30732        -7.72309         7.51733
|110>    H       -0.52789        -9.58880         7.41660
|111>    H        0.47596        -8.80219         6.19198
|112>    H       -1.08905       -10.47012         2.96201
|113>    H        0.33672       -10.97381         5.62476
|114>    H        0.68603       -11.71944         3.99378
|115> *
|116>
|117>                          ****END OF INPUT****

CARTESIAN COORDINATES (ANGSTROEM)
---------------------------------
  C     -5.779860   -1.464280    7.523190
  C     -5.840550   -2.662140    6.843490
  C     -5.454410   -3.895420    7.391050
  N     -5.194720   -4.946710    7.779350
  C     -6.270920   -2.836740    5.513140
  N     -6.550340   -3.068880    4.422090
  C     -5.164420   -1.268210    8.833530
  C     -5.258370    0.102960    9.177210
  C     -4.751460    0.607200   10.348390
  C     -4.120040   -0.283820   11.224690
  C     -4.024030   -1.648680   10.869110
  C     -4.535760   -2.158800    9.681600
  S     -3.199910   -2.571120   12.090340
  C     -3.002510   -1.129240   13.050670
  C     -3.523030   -0.013890   12.486720
  Br    -2.127400   -1.233510   14.706690
  C     -5.957250    0.829330    8.092560
  O     -6.207830    2.018250    8.063370
  C     -6.282530   -0.192890    7.082290
  C     -7.030500    0.025240    5.943110
  C     -7.560300    1.238110    5.521340
  C     -8.344180    1.319110    4.383440
  C     -8.967810    2.458540    3.829040
  C     -9.697410    2.205470    2.701130
  C     -9.679760    0.851430    2.313220
  S     -8.705900   -0.091920    3.419140
  C    -10.301180    0.222770    1.247990
  C    -11.142660    0.750690    0.244580
  C    -11.595700   -0.175460   -0.647800
  C    -11.131800   -1.489520   -0.398030
  S    -10.088430   -1.493800    1.027560
  C    -11.397160   -2.643460   -1.081510
  N    -10.858110   -3.821390   -0.698080
  C    -11.020490   -5.044330   -1.255880
  S    -11.909160   -5.270560   -2.728790
  C    -11.480150   -6.952590   -2.703920
  N    -11.965950   -7.746560   -3.743270
  O    -11.670140   -8.927670   -3.746800
  O    -12.655860   -7.183840   -4.580280
  C    -10.698880   -7.301320   -1.632300
  C    -10.437010   -6.222620   -0.771250
  C     -9.647330   -6.345040    0.436030
  C     -9.795630   -5.622970    1.558440
  C     -8.992390   -5.745190    2.759510
  C     -7.783500   -6.435080    2.824020
  C     -7.077750   -6.510070    4.025410
  C     -7.665060   -5.891580    5.139770
  N     -8.798520   -5.221730    5.092060
  C     -9.432960   -5.133410    3.940050
  C     -5.816960   -7.212790    4.075910
  C     -4.931530   -7.166500    5.087860
  C     -3.695710   -7.876580    5.114070
  S     -3.225500   -8.967610    3.843090
  C     -1.737930   -9.366110    4.655000
  C     -1.618630   -8.662340    5.835780
  C     -2.724130   -7.828630    6.095820
  C     -2.818430   -6.949230    7.297970
  C     -1.727600   -7.214550    8.344400
  O     -1.560240   -6.090300    9.184380
  C     -2.596680   -5.903730   10.114980
  C     -0.373910   -7.475210    7.669460
  O      0.587580   -7.682920    8.686270
  C      1.873660   -7.210960    8.385630
  C     -0.450640   -8.713100    6.763910
  C     -0.873440  -10.320770    4.013210
  C      0.100750  -11.030900    4.578360
  H     -4.836160    1.656590   10.583540
  H     -4.432340   -3.206510    9.455060
  H     -3.488920    0.959740   12.940450
  H     -7.248990   -0.835620    5.321600
  H     -7.370450    2.134610    6.092580
  H     -8.861800    3.429010    4.280200
  H    -10.239770    2.952030    2.148770
  H    -11.391250    1.795960    0.211450
  H    -12.246280    0.042540   -1.475550
  H    -12.054660   -2.652450   -1.938050
  H    -10.210950   -3.790070    0.087240
  H    -10.351880   -8.306530   -1.474560
  H     -8.909390   -7.134390    0.403300
  H    -10.617770   -4.922680    1.651520
  H     -7.368660   -6.900940    1.941410
  H     -7.201980   -5.945220    6.115060
  H    -10.351940   -4.560480    3.955410
  H     -5.574560   -7.807440    3.202420
  H     -5.124370   -6.550770    5.954430
  H     -3.800880   -7.059390    7.759290
  H     -2.725340   -5.903330    6.985010
  H     -1.981970   -8.096390    8.953520
  H     -2.283100   -5.083540   10.759220
  H     -2.749180   -6.802520   10.724400
  H     -3.542200   -5.641840    9.626740
  H     -0.113120   -6.584190    7.080760
  H      2.485330   -7.415850    9.262330
  H      1.866380   -6.131460    8.193400
  H      2.307320   -7.723090    7.517330
  H     -0.527890   -9.588800    7.416600
  H      0.475960   -8.802190    6.191980
  H     -1.089050  -10.470120    2.962010
  H      0.336720  -10.973810    5.624760
  H      0.686030  -11.719440    3.993780

 Total Charge           Charge          ....    0
 Multiplicity           Mult            ....    1
 Number of Electrons    NEL             ....  524
 Basis Dimension        Dim             .... 1132

ORBITAL ENERGIES
----------------

  NO   OCC          E(Eh)            E(eV)
   0   2.0000    -482.878983    -13139.8051
   1   2.0000     -88.994458     -2421.6623
   2   2.0000     -88.976261     -2421.1672
   3   2.0000     -88.968510     -2420.9562
   4   2.0000     -88.961016     -2420.7523
   5   2.0000     -88.933223     -2419.9960
   6   2.0000     -62.556680     -1702.2538
   7   2.0000     -56.390611     -1534.4665
   8   2.0000     -56.387915     -1534.3932
   9   2.0000     -56.387893     -1534.3926
  10   2.0000     -19.239108      -523.5227
  11   2.0000     -19.239011      -523.5201
  12   2.0000     -19.201718      -522.5053
  13   2.0000     -19.191448      -522.2258
  14   2.0000     -19.189721      -522.1789
  15   2.0000     -14.651114      -398.6771
  16   2.0000     -14.506691      -394.7471
  17   2.0000     -14.410807      -392.1380
  18   2.0000     -14.403127      -391.9290
  19   2.0000     -14.389093      -391.5471
  20   2.0000     -10.378528      -282.4141
  21   2.0000     -10.367902      -282.1250
  22   2.0000     -10.351909      -281.6898
  23   2.0000     -10.350905      -281.6625
  24   2.0000     -10.347896      -281.5806
  25   2.0000     -10.346325      -281.5378
  26   2.0000     -10.332515      -281.1620
  27   2.0000     -10.329892      -281.0907
  28   2.0000     -10.327698      -281.0310
  29   2.0000     -10.323875      -280.9269
  30   2.0000     -10.323460      -280.9156
  31   2.0000     -10.320225      -280.8276
  32   2.0000     -10.317857      -280.7632
  33   2.0000     -10.316079      -280.7148
  34   2.0000     -10.315317      -280.6940
  35   2.0000     -10.310313      -280.5579
  36   2.0000     -10.309574      -280.5378
  37   2.0000     -10.308730      -280.5148
  38   2.0000     -10.307259      -280.4748
  39   2.0000     -10.299386      -280.2606
  40   2.0000     -10.298440      -280.2348
  41   2.0000     -10.297899      -280.2201
  42   2.0000     -10.297470      -280.2084
  43   2.0000     -10.296843      -280.1913
  44   2.0000     -10.296206      -280.1740
  45   2.0000     -10.295716      -280.1607
  46   2.0000     -10.294858      -280.1373
  47   2.0000     -10.294787      -280.1354
  48   2.0000     -10.292736      -280.0796
  49   2.0000     -10.292445      -280.0717
  50   2.0000     -10.290385      -280.0156
  51   2.0000     -10.289237      -279.9844
  52   2.0000     -10.288922      -279.9758
  53   2.0000     -10.287479      -279.9365
  54   2.0000     -10.281505      -279.7740
  55   2.0000     -10.280587      -279.7490
  56   2.0000     -10.280031      -279.7339
  57   2.0000     -10.278002      -279.6786
  58   2.0000     -10.277655      -279.6692
  59   2.0000     -10.276247      -279.6309
  60   2.0000     -10.275243      -279.6036
  61   2.0000     -10.274518      -279.5839
  62   2.0000     -10.270340      -279.4702
  63   2.0000     -10.265695      -279.3438
  64   2.0000     -10.261640      -279.2334
  65   2.0000     -10.260569      -279.2043
  66   2.0000     -10.260073      -279.1908
  67   2.0000     -10.255467      -279.0655
  68   2.0000     -10.255146      -279.0567
  69   2.0000     -10.246954      -278.8338
  70   2.0000      -8.786121      -239.0825
  71   2.0000      -8.089833      -220.1356
  72   2.0000      -8.072610      -219.6669
  73   2.0000      -8.064138      -219.4363
  74   2.0000      -8.057124      -219.2455
  75   2.0000      -8.029017      -218.4806
  76   2.0000      -6.622410      -180.2049
  77   2.0000      -6.607848      -179.8087
  78   2.0000      -6.607683      -179.8042
  79   2.0000      -6.059532      -164.8882
  80   2.0000      -6.055127      -164.7684
  81   2.0000      -6.051248      -164.6628
  82   2.0000      -6.042344      -164.4205
  83   2.0000      -6.038317      -164.3110
  84   2.0000      -6.033852      -164.1895
  85   2.0000      -6.033498      -164.1798
  86   2.0000      -6.029566      -164.0728
  87   2.0000      -6.026690      -163.9946
  88   2.0000      -6.025400      -163.9595
  89   2.0000      -6.022695      -163.8859
  90   2.0000      -6.018304      -163.7664
  91   2.0000      -5.998114      -163.2170
  92   2.0000      -5.994296      -163.1131
  93   2.0000      -5.991208      -163.0291
  94   2.0000      -2.738244       -74.5114
  95   2.0000      -2.734226       -74.4021
  96   2.0000      -2.734065       -74.3977
  97   2.0000      -2.722508       -74.0832
  98   2.0000      -2.722491       -74.0827
  99   2.0000      -1.319567       -35.9072
 100   2.0000      -1.138798       -30.9883
 101   2.0000      -1.114878       -30.3374
 102   2.0000      -1.114498       -30.3270
 103   2.0000      -1.103740       -30.0343
 104   2.0000      -1.084009       -29.4974
 105   2.0000      -1.024575       -27.8801
 106   2.0000      -1.022284       -27.8178
 107   2.0000      -1.013353       -27.5747
 108   2.0000      -1.011615       -27.5275
 109   2.0000      -1.005752       -27.3679
 110   2.0000      -0.992845       -27.0167
 111   2.0000      -0.986370       -26.8405
 112   2.0000      -0.978202       -26.6182
 113   2.0000      -0.970962       -26.4212
 114   2.0000      -0.934206       -25.4210
 115   2.0000      -0.932775       -25.3821
 116   2.0000      -0.917429       -24.9645
 117   2.0000      -0.907502       -24.6944
 118   2.0000      -0.902259       -24.5517
 119   2.0000      -0.898452       -24.4481
 120   2.0000      -0.889774       -24.2120
 121   2.0000      -0.887965       -24.1628
 122   2.0000      -0.880584       -23.9619
 123   2.0000      -0.876296       -23.8452
 124   2.0000      -0.871985       -23.7279
 125   2.0000      -0.868909       -23.6442
 126   2.0000      -0.867868       -23.6159
 127   2.0000      -0.841955       -22.9108
 128   2.0000      -0.840011       -22.8579
 129   2.0000      -0.836738       -22.7688
 130   2.0000      -0.826203       -22.4821
 131   2.0000      -0.820021       -22.3139
 132   2.0000      -0.817466       -22.2444
 133   2.0000      -0.810005       -22.0414
 134   2.0000      -0.807555       -21.9747
 135   2.0000      -0.779871       -21.2214
 136   2.0000      -0.766968       -20.8703
 137   2.0000      -0.761144       -20.7118
 138   2.0000      -0.748081       -20.3563
 139   2.0000      -0.743406       -20.2291
 140   2.0000      -0.740780       -20.1576
 141   2.0000      -0.740324       -20.1452
 142   2.0000      -0.734437       -19.9850
 143   2.0000      -0.719313       -19.5735
 144   2.0000      -0.713797       -19.4234
 145   2.0000      -0.707404       -19.2494
 146   2.0000      -0.691419       -18.8145
 147   2.0000      -0.685938       -18.6653
 148   2.0000      -0.681737       -18.5510
 149   2.0000      -0.679392       -18.4872
 150   2.0000      -0.676348       -18.4044
 151   2.0000      -0.668820       -18.1995
 152   2.0000      -0.659966       -17.9586
 153   2.0000      -0.652882       -17.7658
 154   2.0000      -0.648768       -17.6539
 155   2.0000      -0.641961       -17.4687
 156   2.0000      -0.638945       -17.3866
 157   2.0000      -0.634267       -17.2593
 158   2.0000      -0.632390       -17.2082
 159   2.0000      -0.631389       -17.1810
 160   2.0000      -0.623966       -16.9790
 161   2.0000      -0.622667       -16.9436
 162   2.0000      -0.613582       -16.6964
 163   2.0000      -0.612264       -16.6605
 164   2.0000      -0.606488       -16.5034
 165   2.0000      -0.601151       -16.3582
 166   2.0000      -0.591004       -16.0820
 167   2.0000      -0.589107       -16.0304
 168   2.0000      -0.587341       -15.9824
 169   2.0000      -0.584683       -15.9100
 170   2.0000      -0.580314       -15.7912
 171   2.0000      -0.569468       -15.4960
 172   2.0000      -0.565660       -15.3924
 173   2.0000      -0.560272       -15.2458
 174   2.0000      -0.556814       -15.1517
 175   2.0000      -0.555867       -15.1259
 176   2.0000      -0.551669       -15.0117
 177   2.0000      -0.546555       -14.8725
 178   2.0000      -0.541543       -14.7361
 179   2.0000      -0.539471       -14.6798
 180   2.0000      -0.537224       -14.6186
 181   2.0000      -0.534417       -14.5422
 182   2.0000      -0.527764       -14.3612
 183   2.0000      -0.527332       -14.3494
 184   2.0000      -0.524371       -14.2689
 185   2.0000      -0.523075       -14.2336
 186   2.0000      -0.521195       -14.1824
 187   2.0000      -0.518499       -14.1091
 188   2.0000      -0.515880       -14.0378
 189   2.0000      -0.514013       -13.9870
 190   2.0000      -0.511279       -13.9126
 191   2.0000      -0.508818       -13.8457
 192   2.0000      -0.507401       -13.8071
 193   2.0000      -0.501979       -13.6596
 194   2.0000      -0.500038       -13.6067
 195   2.0000      -0.498097       -13.5539
 196   2.0000      -0.494420       -13.4539
 197   2.0000      -0.490861       -13.3570
 198   2.0000      -0.490362       -13.3434
 199   2.0000      -0.487139       -13.2557
 200   2.0000      -0.485858       -13.2209
 201   2.0000      -0.484096       -13.1729
 202   2.0000      -0.483282       -13.1508
 203   2.0000      -0.480513       -13.0754
 204   2.0000      -0.478844       -13.0300
 205   2.0000      -0.478425       -13.0186
 206   2.0000      -0.473314       -12.8795
 207   2.0000      -0.470084       -12.7916
 208   2.0000      -0.465744       -12.6735
 209   2.0000      -0.464467       -12.6388
 210   2.0000      -0.461711       -12.5638
 211   2.0000      -0.459760       -12.5107
 212   2.0000      -0.456154       -12.4126
 213   2.0000      -0.450808       -12.2671
 214   2.0000      -0.449274       -12.2254
 215   2.0000      -0.447798       -12.1852
 216   2.0000      -0.446528       -12.1506
 217   2.0000      -0.441471       -12.0130
 218   2.0000      -0.437922       -11.9165
 219   2.0000      -0.436407       -11.8752
 220   2.0000      -0.433703       -11.8017
 221   2.0000      -0.431252       -11.7350
 222   2.0000      -0.428513       -11.6604
 223   2.0000      -0.426011       -11.5923
 224   2.0000      -0.422752       -11.5037
 225   2.0000      -0.418015       -11.3748
 226   2.0000      -0.417579       -11.3629
 227   2.0000      -0.415335       -11.3018
 228   2.0000      -0.414145       -11.2695
 229   2.0000      -0.413051       -11.2397
 230   2.0000      -0.410019       -11.1572
 231   2.0000      -0.401040       -10.9128
 232   2.0000      -0.400136       -10.8883
 233   2.0000      -0.397554       -10.8180
 234   2.0000      -0.391002       -10.6397
 235   2.0000      -0.387240       -10.5373
 236   2.0000      -0.384672       -10.4675
 237   2.0000      -0.380369       -10.3504
 238   2.0000      -0.379742       -10.3333
 239   2.0000      -0.372559       -10.1379
 240   2.0000      -0.370391       -10.0789
 241   2.0000      -0.368426       -10.0254
 242   2.0000      -0.367871       -10.0103
 243   2.0000      -0.362745        -9.8708
 244   2.0000      -0.361822        -9.8457
 245   2.0000      -0.358901        -9.7662
 246   2.0000      -0.354233        -9.6392
 247   2.0000      -0.351042        -9.5524
 248   2.0000      -0.339019        -9.2252
 249   2.0000      -0.327103        -8.9009
 250   2.0000      -0.322369        -8.7721
 251   2.0000      -0.314039        -8.5454
 252   2.0000      -0.312010        -8.4902
 253   2.0000      -0.308718        -8.4006
 254   2.0000      -0.306431        -8.3384
 255   2.0000      -0.305363        -8.3094
 256   2.0000      -0.298860        -8.1324
 257   2.0000      -0.291360        -7.9283
 258   2.0000      -0.284902        -7.7526
 259   2.0000      -0.275769        -7.5041
 260   2.0000      -0.236131        -6.4254
 261   2.0000      -0.229623        -6.2484
 262   0.0000      -0.110682        -3.0118
 263   0.0000      -0.066188        -1.8011
 264   0.0000      -0.053224        -1.4483
 265   0.0000      -0.036600        -0.9959
 266   0.0000      -0.028505        -0.7757

MULLIKEN ATOMIC CHARGES
-----------------------
   0 C :    0.327358
   1 C :   -0.362477
   2 C :   -0.130094
   3 N :    0.093745
   4 C :   -0.188500
   5 N :    0.126839
   6 C :    0.019680
   7 C :   -0.011010
   8 C :   -0.079007
   9 C :    0.111990
  10 C :   -0.079775
  11 C :   -0.019372
  12 S :    0.173778
  13 C :   -0.116851
  14 C :    0.035220
  15 Br:    0.017295
  16 C :    0.137847
  17 O :   -0.161777
  18 C :   -0.084567
  19 C :   -0.049139
  20 C :   -0.020578
  21 C :    0.011170
  22 C :    0.020319
  23 C :    0.049162
  24 C :   -0.053308
  25 S :    0.090517
  26 C :   -0.021457
  27 C :    0.021540
  28 C :    0.062202
  29 C :   -0.063497
  30 S :    0.067017
  31 C :    0.063321
  32 N :   -0.029902
  33 C :   -0.123258
  34 S :    0.158127
  35 C :   -0.007377
  36 N :    0.278993
  37 O :   -0.249193
  38 O :   -0.270726
  39 C :    0.015869
  40 C :    0.112822
  41 C :   -0.013500
  42 C :   -0.025772
  43 C :    0.076410
  44 C :   -0.032635
  45 C :    0.099263
  46 C :   -0.009677
  47 N :   -0.051077
  48 C :   -0.023659
  49 C :   -0.016613
  50 C :    0.017545
  51 C :   -0.103671
  52 S :    0.091114
  53 C :   -0.152507
  54 C :   -0.054691
  55 C :   -0.085617
  56 C :    0.148785
  57 C :    0.132347
  58 O :   -0.374512
  59 C :    0.181511
  60 C :    0.114387
  61 O :   -0.373379
  62 C :    0.196516
  63 C :    0.165596
  64 C :    0.021952
  65 C :   -0.031234
  66 H :   -0.014381
  67 H :   -0.028647
  68 H :   -0.005620
  69 H :    0.024234
  70 H :    0.013854
  71 H :   -0.001371
  72 H :   -0.005247
  73 H :   -0.004143
  74 H :    0.001920
  75 H :    0.034957
  76 H :    0.156272
  77 H :    0.013617
  78 H :    0.004101
  79 H :   -0.014148
  80 H :   -0.025117
  81 H :   -0.000937
  82 H :   -0.015796
  83 H :   -0.025521
  84 H :   -0.007950
  85 H :    0.039391
  86 H :    0.016808
  87 H :   -0.020129
  88 H :    0.011801
  89 H :   -0.007489
  90 H :    0.024098
  91 H :   -0.016045
  92 H :    0.022754
  93 H :    0.006452
  94 H :   -0.008259
  95 H :    0.021115
  96 H :    0.008817
  97 H :   -0.009778
  98 H :    0.019994
  99 H :    0.020567
Sum of atomic charges:   -0.0000000

LOEWDIN ATOMIC CHARGES
----------------------
   0 C :    0.079352
   1 C :   -0.165730
   2 C :    0.007764
   3 N :   -0.080536
   4 C :   -0.019338
   5 N :   -0.067791
   6 C :   -0.018436
   7 C :   -0.047153
   8 C :    0.017463
   9 C :   -0.035102
  10 C :   -0.144771
  11 C :   -0.014645
  12 S :    0.432790
  13 C :   -0.274201
  14 C :   -0.069902
  15 Br:    0.131891
  16 C :    0.081485
  17 O :   -0.157553
  18 C :   -0.113695
  19 C :    0.051289
  20 C :   -0.077461
  21 C :   -0.097816
  22 C :   -0.048085
  23 C :   -0.003907
  24 C :   -0.203231
  25 S :    0.412711
  26 C :   -0.137867
  27 C :   -0.049214
  28 C :   -0.004043
  29 C :   -0.196516
  30 S :    0.379971
  31 C :    0.027919
  32 N :    0.060323
  33 C :   -0.107661
  34 S :    0.454241
  35 C :   -0.209997
  36 N :    0.273984
  37 O :   -0.215396
  38 O :   -0.236679
  39 C :    0.006632
  40 C :   -0.094021
  41 C :   -0.027104
  42 C :   -0.023628
  43 C :   -0.054589
  44 C :    0.012550
  45 C :   -0.032667
  46 C :    0.034644
  47 N :   -0.062072
  48 C :    0.016101
  49 C :   -0.039254
  50 C :   -0.020908
  51 C :   -0.179272
  52 S :    0.419426
  53 C :   -0.174340
  54 C :   -0.058159
  55 C :   -0.048910
  56 C :   -0.038841
  57 C :    0.063884
  58 O :   -0.166274
  59 C :    0.060063
  60 C :    0.065321
  61 O :   -0.165857
  62 C :    0.068319
  63 C :   -0.034308
  64 C :   -0.041220
  65 C :   -0.051123
  66 H :    0.039238
  67 H :    0.038484
  68 H :    0.037973
  69 H :    0.030077
  70 H :    0.038762
  71 H :    0.038255
  72 H :    0.035619
  73 H :    0.036356
  74 H :    0.039541
  75 H :    0.037147
  76 H :    0.085013
  77 H :    0.048587
  78 H :    0.034033
  79 H :    0.022475
  80 H :    0.024689
  81 H :    0.019355
  82 H :    0.015326
  83 H :    0.017109
  84 H :    0.034089
  85 H :    0.034935
  86 H :    0.036639
  87 H :    0.007749
  88 H :    0.009586
  89 H :    0.006895
  90 H :    0.003171
  91 H :    0.010649
  92 H :    0.021554
  93 H :    0.007859
  94 H :    0.000326
  95 H :    0.034292
  96 H :    0.031178
  97 H :    0.027341
  98 H :    0.022051
  99 H :    0.024794

  Mayer bond orders larger than 0.100000
B(  0-C ,  1-C ) :   1.5485 B(  0-C ,  6-C ) :   0.9888 B(  0-C , 18-C ) :   1.1397
B(  1-C ,  2-C ) :   1.1792 B(  1-C ,  4-C ) :   1.1543 B(  2-C ,  3-N ) :   2.8208
B(  4-C ,  5-N ) :   2.9211 B(  6-C ,  7-C ) :   1.2784 B(  6-C , 11-C ) :   1.4161
B(  7-C ,  8-C ) :   1.4326 B(  7-C , 16-C ) :   0.9298 B(  8-C ,  9-C ) :   1.2353
B(  8-C , 66-H ) :   1.0171 B(  9-C , 10-C ) :   1.3183 B(  9-C , 14-C ) :   1.1611
B( 10-C , 11-C ) :   1.3260 B( 10-C , 12-S ) :   1.0840 B( 11-C , 67-H ) :   0.9825
B( 12-S , 13-C ) :   1.0870 B( 13-C , 14-C ) :   1.6187 B( 13-C , 15-Br) :   1.0142
B( 14-C , 68-H ) :   1.0007 B( 16-C , 17-O ) :   2.2017 B( 16-C , 18-C ) :   0.9644
B( 18-C , 19-C ) :   1.4580 B( 19-C , 20-C ) :   1.2864 B( 19-C , 69-H ) :   0.9376
B( 20-C , 21-C ) :   1.3937 B( 20-C , 70-H ) :   0.9842 B( 21-C , 22-C ) :   1.1907
B( 21-C , 25-S ) :   1.0971 B( 22-C , 23-C ) :   1.5268 B( 22-C , 71-H ) :   1.0017
B( 23-C , 24-C ) :   1.2303 B( 23-C , 72-H ) :   0.9956 B( 24-C , 25-S ) :   1.0442
B( 24-C , 26-C ) :   1.4546 B( 26-C , 27-C ) :   1.2079 B( 26-C , 30-S ) :   1.0905
B( 27-C , 28-C ) :   1.5814 B( 27-C , 73-H ) :   0.9934 B( 28-C , 29-C ) :   1.1744
B( 28-C , 74-H ) :   0.9947 B( 29-C , 30-S ) :   1.0107 B( 29-C , 31-C ) :   1.5555
B( 31-C , 32-N ) :   1.1948 B( 31-C , 75-H ) :   0.9637 B( 32-N , 33-C ) :   1.2082
B( 32-N , 76-H ) :   0.8861 B( 33-C , 34-S ) :   1.1308 B( 33-C , 40-C ) :   1.3806
B( 34-S , 35-C ) :   1.0743 B( 35-C , 36-N ) :   0.9784 B( 35-C , 39-C ) :   1.4791
B( 36-N , 37-O ) :   1.5339 B( 36-N , 38-O ) :   1.5031 B( 37-O , 38-O ) :   0.2562
B( 39-C , 40-C ) :   1.2367 B( 39-C , 77-H ) :   1.0078 B( 40-C , 41-C ) :   1.0556
B( 41-C , 42-C ) :   1.7229 B( 41-C , 78-H ) :   0.9615 B( 42-C , 43-C ) :   1.0684
B( 42-C , 79-H ) :   0.9656 B( 43-C , 44-C ) :   1.3531 B( 43-C , 48-C ) :   1.3173
B( 44-C , 45-C ) :   1.3787 B( 44-C , 80-H ) :   0.9881 B( 45-C , 46-C ) :   1.3069
B( 45-C , 49-C ) :   1.0568 B( 46-C , 47-N ) :   1.5633 B( 46-C , 81-H ) :   0.9786
B( 47-N , 48-C ) :   1.5567 B( 48-C , 82-H ) :   0.9876 B( 49-C , 50-C ) :   1.6929
B( 49-C , 83-H ) :   0.9787 B( 50-C , 51-C ) :   1.1530 B( 50-C , 84-H ) :   0.9599
B( 51-C , 52-S ) :   1.0996 B( 51-C , 55-C ) :   1.5010 B( 52-S , 53-C ) :   1.1172
B( 53-C , 54-C ) :   1.5348 B( 53-C , 64-C ) :   1.0919 B( 54-C , 55-C ) :   1.3017
B( 54-C , 63-C ) :   1.0331 B( 55-C , 56-C ) :   1.0404 B( 56-C , 57-C ) :   1.0334
B( 56-C , 85-H ) :   0.9008 B( 56-C , 86-H ) :   0.8910 B( 57-C , 58-O ) :   1.0440
B( 57-C , 60-C ) :   0.9963 B( 57-C , 87-H ) :   0.9150 B( 58-O , 59-C ) :   0.9924
B( 59-C , 88-H ) :   0.9801 B( 59-C , 89-H ) :   0.9533 B( 59-C , 90-H ) :   0.9536
B( 60-C , 61-O ) :   1.0255 B( 60-C , 63-C ) :   1.0391 B( 60-C , 91-H ) :   0.9195
B( 61-O , 62-C ) :   0.9980 B( 62-C , 92-H ) :   0.9827 B( 62-C , 93-H ) :   0.9678
B( 62-C , 94-H ) :   0.9618 B( 63-C , 95-H ) :   0.8896 B( 63-C , 96-H ) :   0.9023
B( 64-C , 65-C ) :   1.9356 B( 64-C , 97-H ) :   0.9475 B( 65-C , 98-H ) :   0.9569
B( 65-C , 99-H ) :   0.9457

-----------------------------------------------------------------------------
         ABSORPTION SPECTRUM VIA TRANSITION ELECTRIC DIPOLE MOMENTS
-----------------------------------------------------------------------------
State   Energy  Wavelength   fosc         T2         TX        TY        TZ
        (cm-1)    (nm)                  (au**2)     (au)      (au)      (au)
-----------------------------------------------------------------------------
   0   11406.0    876.7   0.944250892  27.25399   2.60290   1.49071   4.27278
   1   15854.7    630.7   0.043918510   0.91194   0.50266  -0.04577   0.81067
   2   21227.1    471.1   0.238527382   3.69932  -0.05651   1.87368   0.43063
   3   21716.6    460.5   0.516918400   7.83620   0.97791  -2.53482   0.67424
   4   23811.3    420.0   0.120710602   1.66893  -0.36144   1.21733  -0.23748
   5   24846.1    402.5   0.022217645   0.29438   0.06415  -0.48388  -0.23692
   6   25022.3    399.6   0.328165454   4.31759  -0.67705  -0.97764  -1.70394
   7   26845.6    372.5   0.084918402   1.04137   0.25621   0.95294   0.26007
   8   27358.8    365.5   0.005086794   0.06121  -0.12381  -0.00795  -0.21405
   9   27518.4    363.4   0.401363577   4.80164   1.22910  -0.98389   1.52411
  10   28730.8    348.1   0.040251481   0.46122   0.57910  -0.18227   0.30437
  11   28761.9    347.7   0.006789964   0.07772  -0.21106  -0.01132  -0.18178
  12   28815.7    347.0   0.000877008   0.01002  -0.05560   0.03293  -0.07645
  13   29366.8    340.5   0.108577724   1.21719   1.04578  -0.32296   0.13870
  14   29414.9    340.0   0.374339811   4.18961   1.87802  -0.80648   0.11075
  15   29710.8    336.6   0.151383474   1.67741   0.08814  -1.05325  -0.74854
  16   30089.7    332.3   0.684566470   7.48985  -2.31099   1.27123  -0.73019
  17   30744.8    325.3   0.116120545   1.24341  -0.65312   0.41391  -0.80344
  18   31252.8    320.0   0.003993312   0.04206   0.00914  -0.20480  -0.00627
  19   31357.4    318.9   0.025637886   0.26916   0.27483   0.02778   0.43916
  20   31684.9    315.6   0.026406056   0.27436  -0.19305  -0.11076  -0.47416
  21   31823.6    314.2   0.009478585   0.09805   0.11169  -0.19254   0.22025
  22   31941.5    313.1   0.055445515   0.57146   0.24912  -0.15841   0.69592
  23   32077.6    311.7   0.190747258   1.95764  -0.42804  -0.59744  -1.19058
  24   32365.6    309.0   0.444058012   4.51680   1.10539   0.24405   1.79871
  25   33002.3    303.0   0.022069962   0.22016   0.23942  -0.06252   0.39866
  26   33782.2    296.0   0.033206917   0.32361  -0.41132   0.39205   0.02670
  27   34170.8    292.6   0.001328025   0.01279   0.01058   0.05827   0.09637
  28   34231.4    292.1   0.210548597   2.02490  -0.45736  -0.54417  -1.23272
  29   35111.0    284.8   0.043488090   0.40776   0.21757   0.35255   0.48593
  30   35992.6    277.8   0.040412558   0.36964  -0.04437   0.56765   0.21318
  31   36294.7    275.5   0.071811688   0.65137   0.14861  -0.73599  -0.29598
  32   36980.8    270.4   0.228532244   2.03445  -0.48624   0.13986  -1.33359
  33   37203.3    268.8   0.022739113   0.20122  -0.11943  -0.16337  -0.40033
  34   37260.0    268.4   0.101873778   0.90011  -0.25889  -0.68606  -0.60200
  35   38072.9    262.7   0.003593152   0.03107   0.02281   0.14268   0.10096
  36   38478.8    259.9   0.244553645   2.09232  -0.07282  -1.21884  -0.77553
  37   39043.8    256.1   0.004197465   0.03539   0.05016   0.03579   0.17775
  38   39371.0    254.0   0.005269589   0.04406   0.09902  -0.03704   0.18135
  39   39398.1    253.8   0.126652081   1.05831  -0.44066  -0.00498  -0.92957
  40   39775.5    251.4   0.004472807   0.03702   0.05651   0.05390   0.17584
  41   39845.0    251.0   0.013506634   0.11160   0.26851   0.12603   0.15367
  42   40011.6    249.9   0.103374235   0.85055   0.50045  -0.46200   0.62181
  43   40300.5    248.1   0.013890562   0.11347   0.26609  -0.08281   0.18923

FINAL SINGLE POINT ENERGY     -7136.522417370827

DIPOLE MOMENT
-------------
                                X             Y             Z
Electronic contribution:     -2.84325      61.85811      84.38428
Nuclear contribution   :      1.68763     -58.88104     -85.36886
                        -----------------------------------------
Total Dipole Moment    :     -1.15562       2.97708      -0.98457
                        -----------------------------------------
Magnitude (a.u.)       :      3.34183
Magnitude (Debye)      :      8.49425

Rotational constants in cm-1:     0.001033     0.000436     0.000319
Rotational constants in MHz :    30.959416    13.066267     9.564656

                             ****ORCA TERMINATED NORMALLY****
TOTAL RUN TIME: 0 days 0 hours 12 minutes 55 seconds 637 msec
