                         Program Version 4.2.0 -  RELEASE  -
|  1> # ORCA input file
|  2> # SCF done       -147.954192974448          0.000449126194
|  3> ! CAM-B3LYP def2-SVP def2/J RIJCOSX Grid4 TightSCF
|  4> %maxcore 5000
|  5> %tddft
|  6>     Mode sTDDFT
|  7>     Ethresh 5.0
|  8>     maxcore 5000
|  9> end
| 10>
| 11> %pal
| 12>   nprocs 6
| 13>   end
| 14> * xyz 0 1
| 15>    C        6.32775       -11.26341         3.42061
| 16>    C        6.82419       -11.66756         2.24419
| 17>    C        7.55640       -12.87001         1.96372
| 18>    C        7.92990       -13.01285         0.67376
| 19>    C        7.52986       -11.94526        -0.17750
| 20>    S        6.64872       -10.73552         0.74942
| 21>    C        7.75575       -11.81555        -1.52145
| 22>    C        8.43781       -12.70850        -2.39136
| 23>    C        8.48984       -12.30595        -3.68435
| 24>    C        7.84863       -11.06251        -3.93779
| 25>    S        7.18125       -10.42240        -2.42279
| 26>    C        7.72059       -10.42123        -5.12672
| 27>    N        7.08445        -9.22636        -5.25740
| 28>    C        6.79452        -8.57726        -6.43608
| 29>    C        7.11410        -8.99587        -7.69560
| 30>    S        6.50600        -7.93625        -8.90658
| 31>    C        5.82613        -6.89780        -7.71970
| 32>    C        6.05689        -7.34143        -6.45020
| 33>    N        5.63864        -6.70941        -5.29148
| 34>    C        4.55850        -5.87607        -5.22608
| 35>    C        4.34279        -4.99624        -4.22038
| 36>    C        3.17075        -4.22134        -4.03229
| 37>    C        1.92847        -4.42184        -4.56990
| 38>    C        0.76614        -3.65133        -4.30045
| 39>    C       -0.38502        -4.14139        -4.83817
| 40>    C       -0.21189        -5.33056        -5.57748
| 41>    S        1.48544        -5.77569        -5.60585
| 42>    C       -1.15417        -6.13168        -6.18769
| 43>    C       -2.55247        -5.98493        -6.28486
| 44>    C       -3.18201        -7.02272        -6.90959
| 45>    C       -2.32828        -8.06134        -7.34882
| 46>    S       -0.66530        -7.63060        -6.95272
| 47>    C       -2.70812        -9.24117        -7.94617
| 48>    C       -1.88406       -10.29411        -8.35608
| 49>    N       -0.51733       -10.32090        -8.30812
| 50>    C        0.02331       -11.49182        -8.74805
| 51>    C       -1.06764       -12.31051        -9.11816
| 52>    C       -2.26752       -11.55634        -8.87894
| 53>    N       -3.48005       -12.05585        -9.12846
| 54>    C       -3.48586       -13.28152        -9.60685
| 55>    C       -2.31169       -14.02218        -9.84196
| 56>    N       -1.10503       -13.55733        -9.60571
| 57>    C        1.42235       -11.69260        -8.77843
| 58>    C        2.01875       -12.85440        -9.13988
| 59>    C        3.42645       -13.08644        -9.19357
| 60>    C        4.48018       -12.18432        -9.35405
| 61>    C        4.34718       -10.72575        -9.60939
| 62>    C        5.74053       -12.87192        -9.30346
| 63>    C        5.45294       -14.21162        -9.12379
| 64>    C        4.00539       -14.38954        -9.07864
| 65>    C        3.50436       -15.65194        -8.93496
| 66>    C        4.42516       -16.72078        -8.84621
| 67>    C        5.76386       -16.46911        -8.89373
| 68>    O        6.28975       -15.25720        -9.02406
| 69>    C        7.04122       -12.25978        -9.43435
| 70>    C        8.20196       -12.84342        -9.14801
| 71>    H        6.45557       -11.86230         4.30484
| 72>    H        5.78832       -10.33946         3.51961
| 73>    H        7.76880       -13.57528         2.74782
| 74>    H        8.48342       -13.85300         0.29203
| 75>    H        8.86532       -13.62470        -2.02531
| 76>    H        8.96088       -12.85687        -4.47932
| 77>    H        8.13806       -10.85340        -6.02206
| 78>    H        6.64934        -8.86715        -4.41747
| 79>    H        7.64441        -9.87713        -7.98898
| 80>    H        5.30585        -6.01330        -8.02415
| 81>    H        6.26258        -6.72268        -4.49620
| 82>    H        3.87205        -5.97922        -6.05060
| 83>    H        5.12484        -4.85856        -3.48317
| 84>    H        3.24840        -3.40260        -3.32819
| 85>    H        0.81997        -2.76452        -3.69290
| 86>    H       -1.35497        -3.69563        -4.70497
| 87>    H       -3.05709        -5.12373        -5.88407
| 88>    H       -4.24569        -7.08031        -7.06148
| 89>    H       -3.76556        -9.40099        -8.10148
| 90>    H        0.04538        -9.55178        -7.97969
| 91>    H       -4.45760       -13.70785        -9.81602
| 92>    H       -2.36642       -15.02836       -10.23586
| 93>    H        2.01427       -10.85165        -8.44705
| 94>    H        1.37792       -13.69314        -9.37439
| 95>    H        3.41612       -10.51861       -10.13208
| 96>    H        5.17324       -10.35838       -10.21402
| 97>    H        4.34980       -10.16727        -8.67193
| 98>    H        2.44371       -15.84508        -8.89525
| 99>    H        4.07975       -17.73476        -8.73945
|100>    H        6.51744       -17.24016        -8.82748
|101>    H        7.03855       -11.24110        -9.80004
|102>    H        8.25916       -13.85216        -8.77807
|103>    H        9.13835       -12.32785        -9.28138
|104> *
|105>
|106>                          ****END OF INPUT****

CARTESIAN COORDINATES (ANGSTROEM)
---------------------------------
  C      6.327750  -11.263410    3.420610
  C      6.824190  -11.667560    2.244190
  C      7.556400  -12.870010    1.963720
  C      7.929900  -13.012850    0.673760
  C      7.529860  -11.945260   -0.177500
  S      6.648720  -10.735520    0.749420
  C      7.755750  -11.815550   -1.521450
  C      8.437810  -12.708500   -2.391360
  C      8.489840  -12.305950   -3.684350
  C      7.848630  -11.062510   -3.937790
  S      7.181250  -10.422400   -2.422790
  C      7.720590  -10.421230   -5.126720
  N      7.084450   -9.226360   -5.257400
  C      6.794520   -8.577260   -6.436080
  C      7.114100   -8.995870   -7.695600
  S      6.506000   -7.936250   -8.906580
  C      5.826130   -6.897800   -7.719700
  C      6.056890   -7.341430   -6.450200
  N      5.638640   -6.709410   -5.291480
  C      4.558500   -5.876070   -5.226080
  C      4.342790   -4.996240   -4.220380
  C      3.170750   -4.221340   -4.032290
  C      1.928470   -4.421840   -4.569900
  C      0.766140   -3.651330   -4.300450
  C     -0.385020   -4.141390   -4.838170
  C     -0.211890   -5.330560   -5.577480
  S      1.485440   -5.775690   -5.605850
  C     -1.154170   -6.131680   -6.187690
  C     -2.552470   -5.984930   -6.284860
  C     -3.182010   -7.022720   -6.909590
  C     -2.328280   -8.061340   -7.348820
  S     -0.665300   -7.630600   -6.952720
  C     -2.708120   -9.241170   -7.946170
  C     -1.884060  -10.294110   -8.356080
  N     -0.517330  -10.320900   -8.308120
  C      0.023310  -11.491820   -8.748050
  C     -1.067640  -12.310510   -9.118160
  C     -2.267520  -11.556340   -8.878940
  N     -3.480050  -12.055850   -9.128460
  C     -3.485860  -13.281520   -9.606850
  C     -2.311690  -14.022180   -9.841960
  N     -1.105030  -13.557330   -9.605710
  C      1.422350  -11.692600   -8.778430
  C      2.018750  -12.854400   -9.139880
  C      3.426450  -13.086440   -9.193570
  C      4.480180  -12.184320   -9.354050
  C      4.347180  -10.725750   -9.609390
  C      5.740530  -12.871920   -9.303460
  C      5.452940  -14.211620   -9.123790
  C      4.005390  -14.389540   -9.078640
  C      3.504360  -15.651940   -8.934960
  C      4.425160  -16.720780   -8.846210
  C      5.763860  -16.469110   -8.893730
  O      6.289750  -15.257200   -9.024060
  C      7.041220  -12.259780   -9.434350
  C      8.201960  -12.843420   -9.148010
  H      6.455570  -11.862300    4.304840
  H      5.788320  -10.339460    3.519610
  H      7.768800  -13.575280    2.747820
  H      8.483420  -13.853000    0.292030
  H      8.865320  -13.624700   -2.025310
  H      8.960880  -12.856870   -4.479320
  H      8.138060  -10.853400   -6.022060
  H      6.649340   -8.867150   -4.417470
  H      7.644410   -9.877130   -7.988980
  H      5.305850   -6.013300   -8.024150
  H      6.262580   -6.722680   -4.496200
  H      3.872050   -5.979220   -6.050600
  H      5.124840   -4.858560   -3.483170
  H      3.248400   -3.402600   -3.328190
  H      0.819970   -2.764520   -3.692900
  H     -1.354970   -3.695630   -4.704970
  H     -3.057090   -5.123730   -5.884070
  H     -4.245690   -7.080310   -7.061480
  H     -3.765560   -9.400990   -8.101480
  H      0.045380   -9.551780   -7.979690
  H     -4.457600  -13.707850   -9.816020
  H     -2.366420  -15.028360  -10.235860
  H      2.014270  -10.851650   -8.447050
  H      1.377920  -13.693140   -9.374390
  H      3.416120  -10.518610  -10.132080
  H      5.173240  -10.358380  -10.214020
  H      4.349800  -10.167270   -8.671930
  H      2.443710  -15.845080   -8.895250
  H      4.079750  -17.734760   -8.739450
  H      6.517440  -17.240160   -8.827480
  H      7.038550  -11.241100   -9.800040
  H      8.259160  -13.852160   -8.778070
  H      9.138350  -12.327850   -9.281380

 Total Charge           Charge          ....    0
 Multiplicity           Mult            ....    1
 Number of Electrons    NEL             ....  426
 Basis Dimension        Dim             ....  969

ORBITAL ENERGIES
----------------

  NO   OCC          E(Eh)            E(eV)
   0   2.0000     -88.949537     -2420.4400
   1   2.0000     -88.934689     -2420.0359
   2   2.0000     -88.933088     -2419.9924
   3   2.0000     -88.929223     -2419.8872
   4   2.0000     -88.921501     -2419.6771
   5   2.0000     -19.314089      -525.5631
   6   2.0000     -14.464787      -393.6069
   7   2.0000     -14.454254      -393.3203
   8   2.0000     -14.449020      -393.1778
   9   2.0000     -14.409998      -392.1160
  10   2.0000     -14.408119      -392.0648
  11   2.0000     -10.355930      -281.7992
  12   2.0000     -10.330297      -281.1017
  13   2.0000     -10.318381      -280.7774
  14   2.0000     -10.317849      -280.7629
  15   2.0000     -10.316028      -280.7134
  16   2.0000     -10.308443      -280.5070
  17   2.0000     -10.300421      -280.2887
  18   2.0000     -10.299390      -280.2607
  19   2.0000     -10.298620      -280.2397
  20   2.0000     -10.297120      -280.1989
  21   2.0000     -10.296657      -280.1863
  22   2.0000     -10.295551      -280.1562
  23   2.0000     -10.294529      -280.1284
  24   2.0000     -10.291958      -280.0584
  25   2.0000     -10.291005      -280.0325
  26   2.0000     -10.290484      -280.0183
  27   2.0000     -10.289360      -279.9877
  28   2.0000     -10.289063      -279.9796
  29   2.0000     -10.288386      -279.9612
  30   2.0000     -10.287776      -279.9446
  31   2.0000     -10.286559      -279.9115
  32   2.0000     -10.286291      -279.9042
  33   2.0000     -10.286250      -279.9031
  34   2.0000     -10.281546      -279.7751
  35   2.0000     -10.277573      -279.6670
  36   2.0000     -10.277313      -279.6599
  37   2.0000     -10.275184      -279.6020
  38   2.0000     -10.271312      -279.4966
  39   2.0000     -10.270843      -279.4838
  40   2.0000     -10.270310      -279.4693
  41   2.0000     -10.269725      -279.4534
  42   2.0000     -10.269552      -279.4487
  43   2.0000     -10.269264      -279.4409
  44   2.0000     -10.268661      -279.4245
  45   2.0000     -10.267344      -279.3886
  46   2.0000     -10.267312      -279.3878
  47   2.0000     -10.266610      -279.3686
  48   2.0000     -10.259381      -279.1720
  49   2.0000     -10.258415      -279.1457
  50   2.0000     -10.257360      -279.1170
  51   2.0000     -10.253312      -279.0068
  52   2.0000     -10.253158      -279.0026
  53   2.0000     -10.251782      -278.9652
  54   2.0000     -10.249730      -278.9093
  55   2.0000     -10.247137      -278.8388
  56   2.0000      -8.044965      -218.9146
  57   2.0000      -8.030942      -218.5331
  58   2.0000      -8.029316      -218.4888
  59   2.0000      -8.025153      -218.3755
  60   2.0000      -8.018191      -218.1861
  61   2.0000      -6.014536      -163.6639
  62   2.0000      -6.010181      -163.5453
  63   2.0000      -6.006817      -163.4538
  64   2.0000      -6.000694      -163.2872
  65   2.0000      -5.999211      -163.2468
  66   2.0000      -5.996824      -163.1819
  67   2.0000      -5.995355      -163.1419
  68   2.0000      -5.994942      -163.1307
  69   2.0000      -5.991809      -163.0454
  70   2.0000      -5.990904      -163.0208
  71   2.0000      -5.989849      -162.9921
  72   2.0000      -5.988068      -162.9436
  73   2.0000      -5.986056      -162.8889
  74   2.0000      -5.984220      -162.8389
  75   2.0000      -5.978589      -162.6857
  76   2.0000      -1.221866       -33.2487
  77   2.0000      -1.085869       -29.5480
  78   2.0000      -1.067791       -29.0561
  79   2.0000      -1.046420       -28.4745
  80   2.0000      -1.040063       -28.3015
  81   2.0000      -0.984373       -26.7862
  82   2.0000      -0.978769       -26.6337
  83   2.0000      -0.976807       -26.5803
  84   2.0000      -0.967585       -26.3293
  85   2.0000      -0.964579       -26.2475
  86   2.0000      -0.955785       -26.0082
  87   2.0000      -0.950608       -25.8674
  88   2.0000      -0.918928       -25.0053
  89   2.0000      -0.892913       -24.2974
  90   2.0000      -0.885144       -24.0860
  91   2.0000      -0.872655       -23.7462
  92   2.0000      -0.868554       -23.6345
  93   2.0000      -0.862488       -23.4695
  94   2.0000      -0.859546       -23.3894
  95   2.0000      -0.850010       -23.1299
  96   2.0000      -0.843847       -22.9622
  97   2.0000      -0.835774       -22.7426
  98   2.0000      -0.830773       -22.6065
  99   2.0000      -0.825905       -22.4740
 100   2.0000      -0.811647       -22.0860
 101   2.0000      -0.806917       -21.9573
 102   2.0000      -0.805341       -21.9145
 103   2.0000      -0.799968       -21.7682
 104   2.0000      -0.796109       -21.6632
 105   2.0000      -0.792106       -21.5543
 106   2.0000      -0.778092       -21.1729
 107   2.0000      -0.765929       -20.8420
 108   2.0000      -0.764192       -20.7947
 109   2.0000      -0.757920       -20.6240
 110   2.0000      -0.734252       -19.9800
 111   2.0000      -0.723713       -19.6932
 112   2.0000      -0.716230       -19.4896
 113   2.0000      -0.714990       -19.4559
 114   2.0000      -0.700885       -19.0720
 115   2.0000      -0.688658       -18.7393
 116   2.0000      -0.677252       -18.4290
 117   2.0000      -0.673153       -18.3174
 118   2.0000      -0.667898       -18.1744
 119   2.0000      -0.662719       -18.0335
 120   2.0000      -0.655491       -17.8368
 121   2.0000      -0.649452       -17.6725
 122   2.0000      -0.647818       -17.6280
 123   2.0000      -0.642952       -17.4956
 124   2.0000      -0.636870       -17.3301
 125   2.0000      -0.627753       -17.0820
 126   2.0000      -0.617414       -16.8007
 127   2.0000      -0.609106       -16.5746
 128   2.0000      -0.608405       -16.5555
 129   2.0000      -0.607683       -16.5359
 130   2.0000      -0.600682       -16.3454
 131   2.0000      -0.598989       -16.2993
 132   2.0000      -0.597699       -16.2642
 133   2.0000      -0.595842       -16.2137
 134   2.0000      -0.583975       -15.8908
 135   2.0000      -0.573517       -15.6062
 136   2.0000      -0.570227       -15.5167
 137   2.0000      -0.567438       -15.4408
 138   2.0000      -0.566047       -15.4029
 139   2.0000      -0.565472       -15.3873
 140   2.0000      -0.560935       -15.2638
 141   2.0000      -0.557973       -15.1832
 142   2.0000      -0.549687       -14.9578
 143   2.0000      -0.541319       -14.7300
 144   2.0000      -0.536971       -14.6117
 145   2.0000      -0.531460       -14.4618
 146   2.0000      -0.529872       -14.4185
 147   2.0000      -0.526921       -14.3383
 148   2.0000      -0.518976       -14.1221
 149   2.0000      -0.516689       -14.0598
 150   2.0000      -0.513552       -13.9745
 151   2.0000      -0.507917       -13.8211
 152   2.0000      -0.504695       -13.7334
 153   2.0000      -0.499351       -13.5880
 154   2.0000      -0.496981       -13.5235
 155   2.0000      -0.495184       -13.4746
 156   2.0000      -0.493220       -13.4212
 157   2.0000      -0.492026       -13.3887
 158   2.0000      -0.488405       -13.2902
 159   2.0000      -0.483650       -13.1608
 160   2.0000      -0.481677       -13.1071
 161   2.0000      -0.479465       -13.0469
 162   2.0000      -0.476591       -12.9687
 163   2.0000      -0.476307       -12.9610
 164   2.0000      -0.475371       -12.9355
 165   2.0000      -0.471755       -12.8371
 166   2.0000      -0.469712       -12.7815
 167   2.0000      -0.469333       -12.7712
 168   2.0000      -0.467715       -12.7272
 169   2.0000      -0.459385       -12.5005
 170   2.0000      -0.458644       -12.4803
 171   2.0000      -0.452652       -12.3173
 172   2.0000      -0.450626       -12.2622
 173   2.0000      -0.447187       -12.1686
 174   2.0000      -0.446118       -12.1395
 175   2.0000      -0.445157       -12.1133
 176   2.0000      -0.440865       -11.9965
 177   2.0000      -0.438345       -11.9280
 178   2.0000      -0.435851       -11.8601
 179   2.0000      -0.431043       -11.7293
 180   2.0000      -0.422731       -11.5031
 181   2.0000      -0.421864       -11.4795
 182   2.0000      -0.416261       -11.3270
 183   2.0000      -0.414388       -11.2761
 184   2.0000      -0.412672       -11.2294
 185   2.0000      -0.412070       -11.2130
 186   2.0000      -0.408803       -11.1241
 187   2.0000      -0.407458       -11.0875
 188   2.0000      -0.403726       -10.9859
 189   2.0000      -0.396662       -10.7937
 190   2.0000      -0.384971       -10.4756
 191   2.0000      -0.384454       -10.4615
 192   2.0000      -0.382876       -10.4186
 193   2.0000      -0.375519       -10.2184
 194   2.0000      -0.367959       -10.0127
 195   2.0000      -0.367296        -9.9946
 196   2.0000      -0.351848        -9.5743
 197   2.0000      -0.339253        -9.2316
 198   2.0000      -0.326068        -8.8727
 199   2.0000      -0.324850        -8.8396
 200   2.0000      -0.321111        -8.7379
 201   2.0000      -0.317440        -8.6380
 202   2.0000      -0.312074        -8.4920
 203   2.0000      -0.306791        -8.3482
 204   2.0000      -0.304977        -8.2989
 205   2.0000      -0.302027        -8.2186
 206   2.0000      -0.285455        -7.7676
 207   2.0000      -0.273043        -7.4299
 208   2.0000      -0.267688        -7.2841
 209   2.0000      -0.252440        -6.8692
 210   2.0000      -0.223811        -6.0902
 211   2.0000      -0.201971        -5.4959
 212   2.0000      -0.180272        -4.9054
 213   0.0000      -0.061779        -1.6811
 214   0.0000      -0.038967        -1.0603
 215   0.0000      -0.037829        -1.0294
 216   0.0000      -0.019055        -0.5185
 217   0.0000       0.012044         0.3277

MULLIKEN ATOMIC CHARGES
-----------------------
   0 C :   -0.040619
   1 C :   -0.057191
   2 C :    0.041419
   3 C :    0.031781
   4 C :   -0.076217
   5 S :    0.057236
   6 C :   -0.040240
   7 C :    0.014153
   8 C :    0.049687
   9 C :   -0.055621
  10 S :    0.022174
  11 C :    0.039285
  12 N :   -0.050233
  13 C :    0.137062
  14 C :   -0.231415
  15 S :    0.110596
  16 C :   -0.192048
  17 C :    0.123609
  18 N :   -0.082801
  19 C :    0.047125
  20 C :   -0.031680
  21 C :   -0.006109
  22 C :   -0.035488
  23 C :    0.036575
  24 C :    0.018737
  25 C :   -0.038713
  26 S :    0.025395
  27 C :   -0.028157
  28 C :    0.020092
  29 C :    0.029631
  30 C :   -0.017699
  31 S :   -0.012687
  32 C :   -0.037441
  33 C :   -0.027807
  34 N :   -0.027746
  35 C :    0.026994
  36 C :   -0.030448
  37 C :   -0.009842
  38 N :   -0.003065
  39 C :    0.014158
  40 C :    0.018496
  41 N :   -0.002725
  42 C :   -0.048682
  43 C :   -0.040691
  44 C :    0.062849
  45 C :   -0.165087
  46 C :    0.108802
  47 C :    0.006154
  48 C :    0.067222
  49 C :    0.035778
  50 C :    0.021089
  51 C :   -0.041969
  52 C :    0.173131
  53 O :   -0.153242
  54 C :   -0.031555
  55 C :   -0.039321
  56 H :    0.012292
  57 H :    0.014143
  58 H :   -0.018953
  59 H :   -0.018196
  60 H :   -0.022015
  61 H :   -0.016380
  62 H :    0.008746
  63 H :    0.116702
  64 H :    0.008196
  65 H :    0.017869
  66 H :    0.125601
  67 H :    0.031277
  68 H :   -0.022568
  69 H :   -0.017083
  70 H :   -0.019591
  71 H :   -0.020246
  72 H :   -0.019752
  73 H :   -0.014669
  74 H :   -0.010501
  75 H :    0.132758
  76 H :    0.001088
  77 H :   -0.003236
  78 H :   -0.049549
  79 H :   -0.010510
  80 H :    0.022425
  81 H :    0.012183
  82 H :    0.045129
  83 H :    0.001812
  84 H :    0.008628
  85 H :    0.027600
  86 H :   -0.025964
  87 H :    0.010527
  88 H :    0.009545
Sum of atomic charges:   -0.0000000

LOEWDIN ATOMIC CHARGES
----------------------
   0 C :   -0.095528
   1 C :   -0.137077
   2 C :   -0.044347
   3 C :   -0.025791
   4 C :   -0.195244
   5 S :    0.331862
   6 C :   -0.168700
   7 C :   -0.054795
   8 C :   -0.024560
   9 C :   -0.200031
  10 S :    0.322237
  11 C :    0.015034
  12 N :    0.027874
  13 C :   -0.024482
  14 C :   -0.240333
  15 S :    0.440619
  16 C :   -0.221397
  17 C :   -0.036054
  18 N :    0.018970
  19 C :    0.029752
  20 C :   -0.109158
  21 C :   -0.054282
  22 C :   -0.161009
  23 C :   -0.034638
  24 C :   -0.047323
  25 C :   -0.185207
  26 S :    0.355920
  27 C :   -0.179774
  28 C :   -0.049975
  29 C :   -0.033522
  30 C :   -0.165809
  31 S :    0.345419
  32 C :   -0.054536
  33 C :   -0.039648
  34 N :    0.121862
  35 C :   -0.005704
  36 C :   -0.051137
  37 C :   -0.037369
  38 N :   -0.041921
  39 C :   -0.011005
  40 C :   -0.014907
  41 N :   -0.041682
  42 C :   -0.067762
  43 C :   -0.000296
  44 C :   -0.092144
  45 C :    0.016648
  46 C :   -0.054411
  47 C :   -0.104684
  48 C :    0.055253
  49 C :   -0.018910
  50 C :    0.034438
  51 C :   -0.084173
  52 C :    0.081844
  53 O :    0.050618
  54 C :   -0.020631
  55 C :   -0.076894
  56 H :    0.025153
  57 H :    0.022886
  58 H :    0.030144
  59 H :    0.029890
  60 H :    0.028648
  61 H :    0.031985
  62 H :    0.036231
  63 H :    0.069443
  64 H :    0.017509
  65 H :    0.024502
  66 H :    0.081360
  67 H :    0.014781
  68 H :    0.024120
  69 H :    0.032098
  70 H :    0.030173
  71 H :    0.029298
  72 H :    0.030206
  73 H :    0.032486
  74 H :    0.045132
  75 H :    0.062658
  76 H :    0.021862
  77 H :    0.020833
  78 H :    0.024260
  79 H :    0.027715
  80 H :    0.036123
  81 H :    0.023561
  82 H :    0.038338
  83 H :    0.039325
  84 H :    0.039894
  85 H :    0.032352
  86 H :    0.021550
  87 H :    0.015766
  88 H :    0.018219

  Mayer bond orders larger than 0.100000
B(  0-C ,  1-C ) :   1.8648 B(  0-C , 56-H ) :   0.9500 B(  0-C , 57-H ) :   0.9409
B(  1-C ,  2-C ) :   1.0820 B(  1-C ,  5-S ) :   1.0096 B(  2-C ,  3-C ) :   1.6615
B(  2-C , 58-H ) :   0.9921 B(  3-C ,  4-C ) :   1.1548 B(  3-C , 59-H ) :   0.9904
B(  4-C ,  5-S ) :   1.0242 B(  4-C ,  6-C ) :   1.5818 B(  6-C ,  7-C ) :   1.1599
B(  6-C , 10-S ) :   1.0386 B(  7-C ,  8-C ) :   1.6348 B(  7-C , 60-H ) :   0.9908
B(  8-C ,  9-C ) :   1.1423 B(  8-C , 61-H ) :   0.9928 B(  9-C , 10-S ) :   0.9887
B(  9-C , 11-C ) :   1.6161 B( 11-C , 12-N ) :   1.1685 B( 11-C , 62-H ) :   0.9672
B( 12-N , 13-C ) :   1.1404 B( 12-N , 63-H ) :   0.9053 B( 13-C , 14-C ) :   1.5139
B( 13-C , 17-C ) :   1.2408 B( 14-C , 15-S ) :   1.1329 B( 14-C , 64-H ) :   0.9681
B( 15-S , 16-C ) :   1.1525 B( 16-C , 17-C ) :   1.5315 B( 16-C , 65-H ) :   0.9766
B( 17-C , 18-N ) :   1.0755 B( 18-N , 19-C ) :   1.1595 B( 18-N , 66-H ) :   0.9237
B( 19-C , 20-C ) :   1.6310 B( 19-C , 67-H ) :   0.9454 B( 20-C , 21-C ) :   1.1873
B( 20-C , 68-H ) :   0.9609 B( 21-C , 22-C ) :   1.6085 B( 21-C , 69-H ) :   0.9606
B( 22-C , 23-C ) :   1.1476 B( 22-C , 26-S ) :   1.0171 B( 23-C , 24-C ) :   1.5900
B( 23-C , 70-H ) :   0.9961 B( 24-C , 25-C ) :   1.1925 B( 24-C , 71-H ) :   0.9935
B( 25-C , 26-S ) :   1.0303 B( 25-C , 27-C ) :   1.5076 B( 27-C , 28-C ) :   1.2008
B( 27-C , 31-S ) :   1.0387 B( 28-C , 29-C ) :   1.5698 B( 28-C , 72-H ) :   0.9922
B( 29-C , 30-C ) :   1.1687 B( 29-C , 73-H ) :   0.9990 B( 30-C , 31-S ) :   1.0048
B( 30-C , 32-C ) :   1.5035 B( 32-C , 33-C ) :   1.2453 B( 32-C , 74-H ) :   0.9652
B( 33-C , 34-N ) :   1.2177 B( 33-C , 35-C ) :   0.1227 B( 33-C , 37-C ) :   1.1829
B( 34-N , 35-C ) :   1.2590 B( 34-N , 75-H ) :   0.9043 B( 35-C , 36-C ) :   1.2060
B( 35-C , 42-C ) :   1.1484 B( 36-C , 37-C ) :   1.2571 B( 36-C , 41-N ) :   1.4482
B( 37-C , 38-N ) :   1.4885 B( 38-N , 39-C ) :   1.6399 B( 39-C , 40-C ) :   1.2360
B( 39-C , 76-H ) :   0.9743 B( 40-C , 41-N ) :   1.6432 B( 40-C , 77-H ) :   0.9739
B( 42-C , 43-C ) :   1.6459 B( 42-C , 78-H ) :   0.9439 B( 43-C , 44-C ) :   1.0961
B( 43-C , 79-H ) :   0.9582 B( 44-C , 45-C ) :   1.4766 B( 44-C , 49-C ) :   1.1055
B( 45-C , 46-C ) :   1.1171 B( 45-C , 47-C ) :   1.1893 B( 46-C , 80-H ) :   0.9356
B( 46-C , 81-H ) :   0.9360 B( 46-C , 82-H ) :   0.9278 B( 47-C , 48-C ) :   1.4619
B( 47-C , 54-C ) :   1.0932 B( 48-C , 49-C ) :   1.0820 B( 48-C , 53-O ) :   1.1222
B( 49-C , 50-C ) :   1.5319 B( 50-C , 51-C ) :   1.2006 B( 50-C , 83-H ) :   0.9823
B( 51-C , 52-C ) :   1.5906 B( 51-C , 84-H ) :   0.9681 B( 52-C , 53-O ) :   1.1759
B( 52-C , 85-H ) :   0.9813 B( 54-C , 55-C ) :   1.9262 B( 54-C , 86-H ) :   0.9435
B( 55-C , 87-H ) :   0.9510 B( 55-C , 88-H ) :   0.9445

-----------------------------------------------------------------------------
         ABSORPTION SPECTRUM VIA TRANSITION ELECTRIC DIPOLE MOMENTS
-----------------------------------------------------------------------------
State   Energy  Wavelength   fosc         T2         TX        TY        TZ
        (cm-1)    (nm)                  (au**2)     (au)      (au)      (au)
-----------------------------------------------------------------------------
   0   11836.3    844.9   0.640837577  17.82414  -0.76644  -3.63218  -2.01097
   1   16402.4    609.7   0.084099504   1.68795   1.14141   0.41541   0.46106
   2   18685.4    535.2   0.070642789   1.24463   0.86995   0.48836   0.49932
   3   19548.7    511.5   0.191873917   3.23128   1.47965  -0.82644   0.59910
   4   20046.3    498.8   0.093215996   1.53085  -0.10818   0.38058  -1.17231
   5   20925.1    477.9   0.648450876  10.20198  -2.64084   0.70295  -1.65341
   6   21743.4    459.9   0.993422064  15.04115   1.05625   1.03975  -3.58391
   7   23459.6    426.3   0.062296449   0.87422   0.56588   0.02092  -0.74401
   8   24129.1    414.4   0.033614527   0.45863   0.67700  -0.00912  -0.01452
   9   25722.1    388.8   0.526197961   6.73471   2.33781  -1.00929  -0.50068
  10   27928.4    358.1   0.588639897   6.93872   1.45440  -1.85636  -1.17362
  11   28509.7    350.8   0.028027747   0.32365  -0.25617  -0.23003  -0.45289
  12   28556.7    350.2   0.198343209   2.28658  -1.44113  -0.16355  -0.42776
  13   29382.0    340.3   0.073526915   0.82384  -0.87084  -0.12847  -0.22131
  14   29839.2    335.1   0.040200746   0.44353   0.52506  -0.20980  -0.35189
  15   30086.4    332.4   0.024096166   0.26367   0.07902   0.21133   0.46126
  16   30234.5    330.7   0.082426373   0.89751   0.47209   0.68052   0.45993
  17   30693.5    325.8   0.010858679   0.11647  -0.32306   0.08652   0.06794
  18   30932.3    323.3   0.002531438   0.02694   0.01432  -0.16201  -0.02211
  19   31274.6    319.7   0.103043726   1.08469  -0.13980  -0.99677  -0.26756
  20   31994.3    312.6   0.031529379   0.32443   0.31915   0.16288   0.44277
  21   32119.3    311.3   0.055048939   0.56423   0.65228  -0.37127   0.03029
  22   32847.4    304.4   0.057375847   0.57505   0.56064   0.46654   0.20753
  23   33324.8    300.1   0.014597209   0.14420  -0.15307  -0.33161  -0.10397
  24   33873.2    295.2   0.015311611   0.14881  -0.27868  -0.26621   0.01686
  25   33948.6    294.6   0.049067327   0.47582  -0.30991   0.61623  -0.00606
  26   34534.5    289.6   0.018380158   0.17522   0.07863  -0.41048  -0.02319
  27   35121.6    284.7   0.048370431   0.45340   0.48691  -0.29712   0.35781
  28   35592.6    281.0   0.026955852   0.24933   0.33967  -0.18164  -0.31774
  29   35801.8    279.3   0.069071198   0.63514  -0.03583  -0.79601  -0.01513
  30   36274.9    275.7   0.078418962   0.71169   0.20442   0.81049  -0.11407
  31   36408.0    274.7   0.099177905   0.89680   0.84662  -0.31848   0.28035
  32   36538.0    273.7   0.056172693   0.50612  -0.00849   0.64567  -0.29861
  33   36636.7    273.0   0.079799682   0.71707   0.00575  -0.73361  -0.42292
  34   37333.8    267.9   0.047763888   0.42119  -0.04487  -0.64725   0.01537
  35   37548.9    266.3   0.014498512   0.12712   0.02019   0.29259   0.20274
  36   37641.3    265.7   0.013521926   0.11826   0.13735  -0.02585  -0.31422
  37   37775.9    264.7   0.012866792   0.11213  -0.11636   0.24229  -0.19972
  38   37963.0    263.4   0.020651393   0.17909  -0.28270   0.11389  -0.29360
  39   38218.0    261.7   0.017669418   0.15221  -0.27237   0.27398  -0.05433
  40   38466.2    260.0   0.076548189   0.65514  -0.72853   0.35266   0.00127
  41   38560.3    259.3   0.004031278   0.03442   0.10740  -0.03623   0.14687
  42   38802.2    257.7   0.021744971   0.18449  -0.25049   0.11578   0.32915
  43   39039.4    256.2   0.001769755   0.01492  -0.11339  -0.04437   0.00994
  44   39544.0    252.9   0.128032530   1.06590   0.69548   0.69036   0.32496
  45   39708.1    251.8   0.009102350   0.07547  -0.25816  -0.06448  -0.06828
  46   40098.9    249.4   0.068920253   0.56583  -0.21697  -0.69100  -0.20318

FINAL SINGLE POINT ENERGY     -4071.156576918274

DIPOLE MOMENT
-------------
                                X             Y             Z
Electronic contribution:    -11.09780       7.14527      -0.79326
Nuclear contribution   :     12.14671      -8.25268       0.64495
                        -----------------------------------------
Total Dipole Moment    :      1.04890      -1.10741      -0.14831
                        -----------------------------------------
Magnitude (a.u.)       :      1.53250
Magnitude (Debye)      :      3.89530

Rotational constants in cm-1:     0.001144     0.000835     0.000640
Rotational constants in MHz :    34.297856    25.037006    19.172051

                             ****ORCA TERMINATED NORMALLY****
TOTAL RUN TIME: 0 days 0 hours 7 minutes 31 seconds 933 msec
