                         Program Version 4.2.0 -  RELEASE  -
|  1> # ORCA input file
|  2> # SCF done       -158.142588825077          0.000946595020
|  3> ! CAM-B3LYP def2-SVP def2/J RIJCOSX Grid4 TightSCF
|  4> %maxcore 5000
|  5> %tddft
|  6>     Mode sTDDFT
|  7>     Ethresh 5.0
|  8>     maxcore 5000
|  9> end
| 10>
| 11> %pal
| 12>   nprocs 6
| 13>   end
| 14> * xyz 0 1
| 15>    O       -0.72737         1.93471         3.70226
| 16>    C       -1.08143         1.99111         2.39084
| 17>    N       -1.61728         0.88800         1.95741
| 18>    C       -1.62600         0.04248         3.03377
| 19>    C       -1.07214         0.70624         4.10290
| 20>    C       -2.15952        -1.31257         2.95986
| 21>    O       -2.19109        -2.08598         3.88126
| 22>    C       -0.86615         3.18038         1.63675
| 23>    C       -1.17543         3.37900         0.30807
| 24>    C       -0.85051         4.67420        -0.10127
| 25>    C       -0.29225         5.44776         0.93203
| 26>    S       -0.16283         4.58887         2.39958
| 27>    C       -0.01811         6.74669         0.42821
| 28>    C       -0.40715         6.79460        -0.91914
| 29>    C       -0.93097         5.49000        -1.30149
| 30>    C       -1.38773         5.11868        -2.53089
| 31>    C       -1.40499         6.01439        -3.62162
| 32>    N       -1.41404         6.74112        -4.50834
| 33>    C       -1.86639         3.81848        -2.80138
| 34>    N       -2.26072         2.76802        -3.03516
| 35>    C       -0.19948         8.04521        -1.50078
| 36>    C        0.34964         8.94540        -0.60602
| 37>    S        0.61588         8.23481         0.97815
| 38>    C        0.67863        10.30464        -0.84413
| 39>    C        1.30825        11.18639         0.01460
| 40>    C        1.46089        12.44994        -0.55668
| 41>    C        0.93391        12.52901        -1.85655
| 42>    S        0.26371        11.04967        -2.38161
| 43>    C        1.13318        13.84487        -2.34654
| 44>    C        1.79641        14.59501        -1.36107
| 45>    C        2.02012        13.74536        -0.20133
| 46>    C        2.62122        14.09115         0.97259
| 47>    C        3.12644        15.38871         1.20139
| 48>    N        3.53656        16.44319         1.38625
| 49>    C        2.77486        13.17339         2.03337
| 50>    N        2.89441        12.42859         2.89667
| 51>    C        2.04412        15.91018        -1.75552
| 52>    C        1.56445        16.16653        -3.02641
| 53>    S        0.79943        14.75820        -3.74923
| 54>    C        1.63774        17.38199        -3.75484
| 55>    C        1.04613        17.66698        -4.97192
| 56>    C        1.34053        18.96072        -5.40198
| 57>    C        2.16819        19.65969        -4.51027
| 58>    S        2.57220        18.73337        -3.13337
| 59>    C        2.42813        20.94973        -5.04696
| 60>    C        1.75395        21.06275        -6.27622
| 61>    C        1.04053        19.82449        -6.53604
| 62>    C        0.24703        19.53094        -7.60536
| 63>    C        0.01541        20.45511        -8.64645
| 64>    N       -0.17434        21.19979        -9.49703
| 65>    C       -0.40031        18.28397        -7.73767
| 66>    N       -0.93011        17.27212        -7.83695
| 67>    C        1.96440        22.29796        -6.89396
| 68>    C        2.79067        23.10152        -6.13804
| 69>    S        3.31641        22.35236        -4.65107
| 70>    C        3.24765        24.41558        -6.44807
| 71>    N        4.05107        25.14184        -5.72793
| 72>    C        4.21200        26.30794        -6.42650
| 73>    C        3.46541        26.21895        -7.57769
| 74>    O        2.85620        25.02856        -7.59565
| 75>    C        5.05634        27.39579        -5.94920
| 76>    O        5.22929        28.43462        -6.53146
| 77>    H       -0.88952         0.41961         5.11786
| 78>    H       -2.54210        -1.56695         1.95656
| 79>    H       -1.61425         2.60950        -0.29925
| 80>    H       -0.42961         8.30278        -2.51899
| 81>    H        1.63568        10.90642         0.99979
| 82>    H        2.54112        16.65451        -1.15963
| 83>    H        0.43418        16.95987        -5.50263
| 84>    H        1.55205        22.60616        -7.83749
| 85>    H        3.30905        26.89522        -8.39259
| 86>    H        5.53471        27.17158        -4.97996
| 87> *
| 88>
| 89>                          ****END OF INPUT****

CARTESIAN COORDINATES (ANGSTROEM)
---------------------------------
  O     -0.727370    1.934710    3.702260
  C     -1.081430    1.991110    2.390840
  N     -1.617280    0.888000    1.957410
  C     -1.626000    0.042480    3.033770
  C     -1.072140    0.706240    4.102900
  C     -2.159520   -1.312570    2.959860
  O     -2.191090   -2.085980    3.881260
  C     -0.866150    3.180380    1.636750
  C     -1.175430    3.379000    0.308070
  C     -0.850510    4.674200   -0.101270
  C     -0.292250    5.447760    0.932030
  S     -0.162830    4.588870    2.399580
  C     -0.018110    6.746690    0.428210
  C     -0.407150    6.794600   -0.919140
  C     -0.930970    5.490000   -1.301490
  C     -1.387730    5.118680   -2.530890
  C     -1.404990    6.014390   -3.621620
  N     -1.414040    6.741120   -4.508340
  C     -1.866390    3.818480   -2.801380
  N     -2.260720    2.768020   -3.035160
  C     -0.199480    8.045210   -1.500780
  C      0.349640    8.945400   -0.606020
  S      0.615880    8.234810    0.978150
  C      0.678630   10.304640   -0.844130
  C      1.308250   11.186390    0.014600
  C      1.460890   12.449940   -0.556680
  C      0.933910   12.529010   -1.856550
  S      0.263710   11.049670   -2.381610
  C      1.133180   13.844870   -2.346540
  C      1.796410   14.595010   -1.361070
  C      2.020120   13.745360   -0.201330
  C      2.621220   14.091150    0.972590
  C      3.126440   15.388710    1.201390
  N      3.536560   16.443190    1.386250
  C      2.774860   13.173390    2.033370
  N      2.894410   12.428590    2.896670
  C      2.044120   15.910180   -1.755520
  C      1.564450   16.166530   -3.026410
  S      0.799430   14.758200   -3.749230
  C      1.637740   17.381990   -3.754840
  C      1.046130   17.666980   -4.971920
  C      1.340530   18.960720   -5.401980
  C      2.168190   19.659690   -4.510270
  S      2.572200   18.733370   -3.133370
  C      2.428130   20.949730   -5.046960
  C      1.753950   21.062750   -6.276220
  C      1.040530   19.824490   -6.536040
  C      0.247030   19.530940   -7.605360
  C      0.015410   20.455110   -8.646450
  N     -0.174340   21.199790   -9.497030
  C     -0.400310   18.283970   -7.737670
  N     -0.930110   17.272120   -7.836950
  C      1.964400   22.297960   -6.893960
  C      2.790670   23.101520   -6.138040
  S      3.316410   22.352360   -4.651070
  C      3.247650   24.415580   -6.448070
  N      4.051070   25.141840   -5.727930
  C      4.212000   26.307940   -6.426500
  C      3.465410   26.218950   -7.577690
  O      2.856200   25.028560   -7.595650
  C      5.056340   27.395790   -5.949200
  O      5.229290   28.434620   -6.531460
  H     -0.889520    0.419610    5.117860
  H     -2.542100   -1.566950    1.956560
  H     -1.614250    2.609500   -0.299250
  H     -0.429610    8.302780   -2.518990
  H      1.635680   10.906420    0.999790
  H      2.541120   16.654510   -1.159630
  H      0.434180   16.959870   -5.502630
  H      1.552050   22.606160   -7.837490
  H      3.309050   26.895220   -8.392590
  H      5.534710   27.171580   -4.979960

 Total Charge           Charge          ....    0
 Multiplicity           Mult            ....    1
 Number of Electrons    NEL             ....  458
 Basis Dimension        Dim             ....  942

ORBITAL ENERGIES
----------------

  NO   OCC          E(Eh)            E(eV)
   0   2.0000     -89.002013     -2421.8679
   1   2.0000     -89.000929     -2421.8384
   2   2.0000     -89.000838     -2421.8359
   3   2.0000     -89.000667     -2421.8313
   4   2.0000     -89.000554     -2421.8282
   5   2.0000     -89.000465     -2421.8258
   6   2.0000     -19.329243      -525.9754
   7   2.0000     -19.327898      -525.9389
   8   2.0000     -19.217601      -522.9375
   9   2.0000     -19.217006      -522.9213
  10   2.0000     -14.439855      -392.9284
  11   2.0000     -14.439736      -392.9252
  12   2.0000     -14.438126      -392.8814
  13   2.0000     -14.437804      -392.8726
  14   2.0000     -14.437111      -392.8538
  15   2.0000     -14.435540      -392.8110
  16   2.0000     -14.427429      -392.5903
  17   2.0000     -14.425772      -392.5452
  18   2.0000     -10.388620      -282.6887
  19   2.0000     -10.388208      -282.6775
  20   2.0000     -10.374695      -282.3098
  21   2.0000     -10.372998      -282.2636
  22   2.0000     -10.372805      -282.2584
  23   2.0000     -10.362740      -281.9845
  24   2.0000     -10.361733      -281.9571
  25   2.0000     -10.361618      -281.9540
  26   2.0000     -10.359991      -281.9097
  27   2.0000     -10.359503      -281.8964
  28   2.0000     -10.357474      -281.8412
  29   2.0000     -10.357065      -281.8301
  30   2.0000     -10.343408      -281.4584
  31   2.0000     -10.342912      -281.4449
  32   2.0000     -10.342177      -281.4249
  33   2.0000     -10.341970      -281.4193
  34   2.0000     -10.340569      -281.3812
  35   2.0000     -10.340473      -281.3786
  36   2.0000     -10.340141      -281.3696
  37   2.0000     -10.340088      -281.3681
  38   2.0000     -10.340030      -281.3665
  39   2.0000     -10.339934      -281.3639
  40   2.0000     -10.339405      -281.3495
  41   2.0000     -10.339374      -281.3487
  42   2.0000     -10.338386      -281.3218
  43   2.0000     -10.337920      -281.3091
  44   2.0000     -10.337031      -281.2849
  45   2.0000     -10.335156      -281.2339
  46   2.0000     -10.334291      -281.2103
  47   2.0000     -10.333965      -281.2015
  48   2.0000     -10.314309      -280.6666
  49   2.0000     -10.313791      -280.6525
  50   2.0000     -10.313593      -280.6471
  51   2.0000     -10.313585      -280.6469
  52   2.0000     -10.313550      -280.6460
  53   2.0000     -10.313399      -280.6419
  54   2.0000     -10.313323      -280.6398
  55   2.0000     -10.312367      -280.6138
  56   2.0000     -10.312344      -280.6131
  57   2.0000     -10.312080      -280.6060
  58   2.0000     -10.311468      -280.5893
  59   2.0000     -10.311426      -280.5882
  60   2.0000     -10.311379      -280.5869
  61   2.0000     -10.310952      -280.5753
  62   2.0000      -8.096414      -220.3146
  63   2.0000      -8.095298      -220.2843
  64   2.0000      -8.095234      -220.2825
  65   2.0000      -8.095020      -220.2767
  66   2.0000      -8.094982      -220.2756
  67   2.0000      -8.094726      -220.2687
  68   2.0000      -6.065622      -165.0540
  69   2.0000      -6.064571      -165.0254
  70   2.0000      -6.064550      -165.0248
  71   2.0000      -6.064333      -165.0189
  72   2.0000      -6.064271      -165.0172
  73   2.0000      -6.064064      -165.0116
  74   2.0000      -6.061427      -164.9398
  75   2.0000      -6.060386      -164.9115
  76   2.0000      -6.060370      -164.9111
  77   2.0000      -6.060159      -164.9053
  78   2.0000      -6.060106      -164.9039
  79   2.0000      -6.059716      -164.8933
  80   2.0000      -6.058874      -164.8704
  81   2.0000      -6.057569      -164.8348
  82   2.0000      -6.057548      -164.8343
  83   2.0000      -6.057297      -164.8274
  84   2.0000      -6.057239      -164.8259
  85   2.0000      -6.057073      -164.8213
  86   2.0000      -1.257421       -34.2162
  87   2.0000      -1.256411       -34.1887
  88   2.0000      -1.131320       -30.7848
  89   2.0000      -1.130544       -30.7637
  90   2.0000      -1.056597       -28.7515
  91   2.0000      -1.054227       -28.6870
  92   2.0000      -1.052401       -28.6373
  93   2.0000      -1.037538       -28.2328
  94   2.0000      -1.035707       -28.1830
  95   2.0000      -1.031907       -28.0796
  96   2.0000      -1.029563       -28.0158
  97   2.0000      -1.028788       -27.9947
  98   2.0000      -1.018469       -27.7140
  99   2.0000      -1.016770       -27.6677
 100   2.0000      -1.015096       -27.6222
 101   2.0000      -1.013881       -27.5891
 102   2.0000      -1.008509       -27.4429
 103   2.0000      -0.998565       -27.1723
 104   2.0000      -0.974344       -26.5132
 105   2.0000      -0.966603       -26.3026
 106   2.0000      -0.962528       -26.1917
 107   2.0000      -0.932422       -25.3725
 108   2.0000      -0.926938       -25.2233
 109   2.0000      -0.916236       -24.9320
 110   2.0000      -0.894654       -24.3448
 111   2.0000      -0.893274       -24.3072
 112   2.0000      -0.880469       -23.9588
 113   2.0000      -0.880299       -23.9541
 114   2.0000      -0.873835       -23.7783
 115   2.0000      -0.870276       -23.6814
 116   2.0000      -0.864114       -23.5138
 117   2.0000      -0.859372       -23.3847
 118   2.0000      -0.845438       -23.0055
 119   2.0000      -0.820931       -22.3387
 120   2.0000      -0.797261       -21.6946
 121   2.0000      -0.790811       -21.5191
 122   2.0000      -0.787704       -21.4345
 123   2.0000      -0.784823       -21.3561
 124   2.0000      -0.775662       -21.1068
 125   2.0000      -0.773827       -21.0569
 126   2.0000      -0.762419       -20.7465
 127   2.0000      -0.739492       -20.1226
 128   2.0000      -0.721000       -19.6194
 129   2.0000      -0.714823       -19.4513
 130   2.0000      -0.708766       -19.2865
 131   2.0000      -0.706479       -19.2243
 132   2.0000      -0.704970       -19.1832
 133   2.0000      -0.697441       -18.9783
 134   2.0000      -0.695856       -18.9352
 135   2.0000      -0.689035       -18.7496
 136   2.0000      -0.684347       -18.6220
 137   2.0000      -0.679201       -18.4820
 138   2.0000      -0.646465       -17.5912
 139   2.0000      -0.643617       -17.5137
 140   2.0000      -0.640885       -17.4394
 141   2.0000      -0.637355       -17.3433
 142   2.0000      -0.635296       -17.2873
 143   2.0000      -0.630104       -17.1460
 144   2.0000      -0.628622       -17.1057
 145   2.0000      -0.626444       -17.0464
 146   2.0000      -0.621854       -16.9215
 147   2.0000      -0.616740       -16.7824
 148   2.0000      -0.614001       -16.7078
 149   2.0000      -0.609724       -16.5914
 150   2.0000      -0.598833       -16.2951
 151   2.0000      -0.598096       -16.2750
 152   2.0000      -0.584298       -15.8996
 153   2.0000      -0.580533       -15.7971
 154   2.0000      -0.574257       -15.6263
 155   2.0000      -0.569962       -15.5095
 156   2.0000      -0.563532       -15.3345
 157   2.0000      -0.559295       -15.2192
 158   2.0000      -0.555530       -15.1167
 159   2.0000      -0.553255       -15.0548
 160   2.0000      -0.548967       -14.9382
 161   2.0000      -0.545491       -14.8436
 162   2.0000      -0.532914       -14.5013
 163   2.0000      -0.527335       -14.3495
 164   2.0000      -0.521033       -14.1780
 165   2.0000      -0.517833       -14.0910
 166   2.0000      -0.516939       -14.0666
 167   2.0000      -0.516594       -14.0572
 168   2.0000      -0.515630       -14.0310
 169   2.0000      -0.510679       -13.8963
 170   2.0000      -0.509205       -13.8562
 171   2.0000      -0.507974       -13.8227
 172   2.0000      -0.506944       -13.7946
 173   2.0000      -0.503285       -13.6951
 174   2.0000      -0.502616       -13.6769
 175   2.0000      -0.499313       -13.5870
 176   2.0000      -0.497067       -13.5259
 177   2.0000      -0.495538       -13.4843
 178   2.0000      -0.494060       -13.4441
 179   2.0000      -0.490380       -13.3439
 180   2.0000      -0.488955       -13.3052
 181   2.0000      -0.486650       -13.2424
 182   2.0000      -0.485559       -13.2127
 183   2.0000      -0.482113       -13.1190
 184   2.0000      -0.477617       -12.9966
 185   2.0000      -0.470697       -12.8083
 186   2.0000      -0.469231       -12.7684
 187   2.0000      -0.468353       -12.7445
 188   2.0000      -0.467717       -12.7272
 189   2.0000      -0.467229       -12.7140
 190   2.0000      -0.464981       -12.6528
 191   2.0000      -0.463416       -12.6102
 192   2.0000      -0.460234       -12.5236
 193   2.0000      -0.453744       -12.3470
 194   2.0000      -0.451193       -12.2776
 195   2.0000      -0.450396       -12.2559
 196   2.0000      -0.449985       -12.2447
 197   2.0000      -0.448905       -12.2153
 198   2.0000      -0.447678       -12.1819
 199   2.0000      -0.446562       -12.1516
 200   2.0000      -0.446532       -12.1508
 201   2.0000      -0.445390       -12.1197
 202   2.0000      -0.444437       -12.0938
 203   2.0000      -0.443841       -12.0775
 204   2.0000      -0.435711       -11.8563
 205   2.0000      -0.433277       -11.7901
 206   2.0000      -0.432237       -11.7618
 207   2.0000      -0.431034       -11.7290
 208   2.0000      -0.421051       -11.4574
 209   2.0000      -0.415571       -11.3083
 210   2.0000      -0.413698       -11.2573
 211   2.0000      -0.400650       -10.9022
 212   2.0000      -0.392602       -10.6833
 213   2.0000      -0.391780       -10.6609
 214   2.0000      -0.389517       -10.5993
 215   2.0000      -0.376133       -10.2351
 216   2.0000      -0.362049        -9.8519
 217   2.0000      -0.358734        -9.7616
 218   2.0000      -0.357650        -9.7321
 219   2.0000      -0.351322        -9.5600
 220   2.0000      -0.338830        -9.2200
 221   2.0000      -0.337937        -9.1957
 222   2.0000      -0.336891        -9.1673
 223   2.0000      -0.331305        -9.0153
 224   2.0000      -0.330724        -8.9995
 225   2.0000      -0.325939        -8.8693
 226   2.0000      -0.302401        -8.2287
 227   2.0000      -0.274033        -7.4568
 228   2.0000      -0.247776        -6.7423
 229   0.0000      -0.117873        -3.2075
 230   0.0000      -0.111680        -3.0390
 231   0.0000      -0.110549        -3.0082
 232   0.0000      -0.059702        -1.6246
 233   0.0000      -0.045238        -1.2310

MULLIKEN ATOMIC CHARGES
-----------------------
   0 O :   -0.174335
   1 C :    0.092837
   2 N :   -0.071159
   3 C :   -0.046301
   4 C :    0.132566
   5 C :    0.170619
   6 O :   -0.173567
   7 C :   -0.102716
   8 C :   -0.033031
   9 C :    0.010604
  10 C :   -0.092830
  11 S :    0.227454
  12 C :   -0.101518
  13 C :    0.020701
  14 C :    0.297259
  15 C :   -0.295858
  16 C :   -0.187078
  17 N :    0.174886
  18 C :   -0.195559
  19 N :    0.191628
  20 C :   -0.067847
  21 C :   -0.048450
  22 S :    0.198726
  23 C :   -0.052510
  24 C :   -0.063796
  25 C :    0.014719
  26 C :   -0.097938
  27 S :    0.200786
  28 C :   -0.097669
  29 C :    0.018603
  30 C :    0.298363
  31 C :   -0.297057
  32 C :   -0.189848
  33 N :    0.178607
  34 C :   -0.184513
  35 N :    0.174244
  36 C :   -0.066187
  37 C :   -0.052264
  38 S :    0.200627
  39 C :   -0.047995
  40 C :   -0.071159
  41 C :    0.023405
  42 C :   -0.102316
  43 S :    0.201045
  44 C :   -0.095728
  45 C :    0.006287
  46 C :    0.298475
  47 C :   -0.294458
  48 C :   -0.188038
  49 N :    0.178589
  50 C :   -0.188216
  51 N :    0.175017
  52 C :   -0.030671
  53 C :   -0.109862
  54 S :    0.254991
  55 C :    0.093183
  56 N :   -0.086778
  57 C :   -0.048173
  58 C :    0.138763
  59 O :   -0.167821
  60 C :    0.168803
  61 O :   -0.172814
  62 H :    0.036981
  63 H :   -0.006643
  64 H :    0.026168
  65 H :    0.012995
  66 H :    0.011323
  67 H :    0.011664
  68 H :    0.013256
  69 H :    0.019125
  70 H :    0.039457
  71 H :   -0.010052
Sum of atomic charges:    0.0000000

LOEWDIN ATOMIC CHARGES
----------------------
   0 O :    0.019110
   1 C :    0.025587
   2 N :   -0.095041
   3 C :   -0.103612
   4 C :    0.072230
   5 C :    0.105434
   6 O :   -0.129044
   7 C :   -0.198350
   8 C :    0.002727
   9 C :   -0.072441
  10 C :   -0.173792
  11 S :    0.498053
  12 C :   -0.184137
  13 C :   -0.063185
  14 C :    0.079929
  15 C :   -0.096356
  16 C :   -0.015394
  17 N :   -0.030855
  18 C :   -0.019837
  19 N :   -0.022079
  20 C :   -0.039637
  21 C :   -0.177420
  22 S :    0.485822
  23 C :   -0.179754
  24 C :   -0.037484
  25 C :   -0.068200
  26 C :   -0.179303
  27 S :    0.489408
  28 C :   -0.179127
  29 C :   -0.068324
  30 C :    0.082513
  31 C :   -0.099576
  32 C :   -0.016521
  33 N :   -0.030152
  34 C :   -0.016032
  35 N :   -0.031003
  36 C :   -0.037299
  37 C :   -0.179750
  38 S :    0.489292
  39 C :   -0.177414
  40 C :   -0.039912
  41 C :   -0.063244
  42 C :   -0.184181
  43 S :    0.487946
  44 C :   -0.171868
  45 C :   -0.075121
  46 C :    0.081129
  47 C :   -0.098829
  48 C :   -0.017866
  49 N :   -0.027489
  50 C :   -0.016063
  51 N :   -0.030926
  52 C :   -0.010860
  53 C :   -0.198254
  54 S :    0.521181
  55 C :    0.025921
  56 N :   -0.108278
  57 C :   -0.105575
  58 C :    0.076558
  59 O :    0.029664
  60 C :    0.104333
  61 O :   -0.129089
  62 H :    0.037132
  63 H :    0.004034
  64 H :    0.050171
  65 H :    0.035798
  66 H :    0.035998
  67 H :    0.036274
  68 H :    0.035918
  69 H :    0.045624
  70 H :    0.038270
  71 H :    0.002617

  Mayer bond orders larger than 0.100000
B(  0-O ,  1-C ) :   1.2058 B(  0-O ,  4-C ) :   1.1554 B(  1-C ,  2-N ) :   1.7785
B(  1-C ,  7-C ) :   1.0446 B(  2-N ,  3-C ) :   1.2968 B(  3-C ,  4-C ) :   1.5171
B(  3-C ,  5-C ) :   0.9663 B(  4-C , 62-H ) :   0.9906 B(  5-C ,  6-O ) :   2.2069
B(  5-C , 63-H ) :   0.9523 B(  7-C ,  8-C ) :   1.5010 B(  7-C , 11-S ) :   1.0995
B(  8-C ,  9-C ) :   1.2660 B(  8-C , 64-H ) :   1.0071 B(  9-C , 10-C ) :   1.4380
B(  9-C , 14-C ) :   0.9909 B( 10-C , 11-S ) :   1.1341 B( 10-C , 12-C ) :   1.1849
B( 12-C , 13-C ) :   1.4560 B( 12-C , 22-S ) :   1.1159 B( 13-C , 14-C ) :   0.9928
B( 13-C , 20-C ) :   1.2992 B( 14-C , 15-C ) :   1.7220 B( 15-C , 16-C ) :   1.1333
B( 15-C , 18-C ) :   1.1356 B( 16-C , 17-N ) :   2.9907 B( 18-C , 19-N ) :   3.0023
B( 20-C , 21-C ) :   1.4605 B( 20-C , 65-H ) :   0.9857 B( 21-C , 22-S ) :   1.1127
B( 21-C , 23-C ) :   1.1642 B( 23-C , 24-C ) :   1.4616 B( 23-C , 27-S ) :   1.1094
B( 24-C , 25-C ) :   1.2992 B( 24-C , 66-H ) :   0.9867 B( 25-C , 26-C ) :   1.4496
B( 25-C , 30-C ) :   0.9933 B( 26-C , 27-S ) :   1.1222 B( 26-C , 28-C ) :   1.1839
B( 28-C , 29-C ) :   1.4465 B( 28-C , 38-S ) :   1.1225 B( 29-C , 30-C ) :   0.9923
B( 29-C , 36-C ) :   1.2999 B( 30-C , 31-C ) :   1.7187 B( 31-C , 32-C ) :   1.1346
B( 31-C , 34-C ) :   1.1307 B( 32-C , 33-N ) :   2.9934 B( 34-C , 35-N ) :   2.9926
B( 36-C , 37-C ) :   1.4622 B( 36-C , 67-H ) :   0.9873 B( 37-C , 38-S ) :   1.1092
B( 37-C , 39-C ) :   1.1616 B( 39-C , 40-C ) :   1.4583 B( 39-C , 43-S ) :   1.1141
B( 40-C , 41-C ) :   1.3007 B( 40-C , 68-H ) :   0.9867 B( 41-C , 42-C ) :   1.4539
B( 41-C , 46-C ) :   0.9917 B( 42-C , 43-S ) :   1.1175 B( 42-C , 44-C ) :   1.1832
B( 44-C , 45-C ) :   1.4428 B( 44-C , 54-S ) :   1.1328 B( 45-C , 46-C ) :   0.9941
B( 45-C , 52-C ) :   1.2706 B( 46-C , 47-C ) :   1.7203 B( 47-C , 48-C ) :   1.1302
B( 47-C , 50-C ) :   1.1340 B( 48-C , 49-N ) :   2.9966 B( 50-C , 51-N ) :   2.9899
B( 52-C , 53-C ) :   1.4703 B( 52-C , 69-H ) :   1.0041 B( 53-C , 54-S ) :   1.1144
B( 53-C , 55-C ) :   1.0725 B( 55-C , 56-N ) :   1.7819 B( 55-C , 59-O ) :   1.2023
B( 56-N , 57-C ) :   1.2932 B( 57-C , 58-C ) :   1.5189 B( 57-C , 60-C ) :   0.9668
B( 58-C , 59-O ) :   1.1576 B( 58-C , 70-H ) :   0.9905 B( 60-C , 61-O ) :   2.2081
B( 60-C , 71-H ) :   0.9526

-----------------------------------------------------------------------------
         ABSORPTION SPECTRUM VIA TRANSITION ELECTRIC DIPOLE MOMENTS
-----------------------------------------------------------------------------
State   Energy  Wavelength   fosc         T2         TX        TY        TZ
        (cm-1)    (nm)                  (au**2)     (au)      (au)      (au)
-----------------------------------------------------------------------------
   0   11156.3    896.4   0.299192423   8.82888  -0.46354  -2.74230   1.04584
   1   12679.5    788.7   0.168600389   4.37757  -0.36775  -1.90711   0.77799
   2   12920.8    773.9   0.002429134   0.06189   0.10133   0.22057   0.05452
   3   20595.8    485.5   0.000440677   0.00704   0.04141   0.05954   0.04223
   4   21893.0    456.8   0.384601149   5.78337  -0.37024  -2.23320   0.81186
   5   22499.5    444.5   0.001344450   0.01967  -0.03542  -0.13569   0.00238
   6   25037.1    399.4   2.089979608  27.48103   0.86707   4.82751  -1.85051
   7   27486.4    363.8   0.321318169   3.84851  -0.30572  -1.81786   0.67113
   8   28753.7    347.8   0.009763153   0.11178   0.12857   0.02296   0.30777
   9   28790.3    347.3   0.001494373   0.01709   0.03193   0.10920   0.06437
  10   29349.5    340.7   0.095688327   1.07333   0.46024   0.25672   0.89197
  11   31580.2    316.7   0.012204409   0.12723   0.21567   0.10624   0.26349
  12   32022.2    312.3   0.121329288   1.24735   0.67585   0.72201  -0.51893
  13   32215.0    310.4   2.096862488  21.42828  -2.10582  -1.14006  -3.96158
  14   32715.3    305.7   0.065877637   0.66292  -0.33366  -0.17613  -0.72151
  15   32762.7    305.2   0.068814924   0.69148  -0.20100  -0.75364   0.28828
  16   33147.1    301.7   0.318287548   3.16118   0.16516   1.67890  -0.56143
  17   33442.6    299.0   0.002736566   0.02694   0.05805   0.15110  -0.02715
  18   34106.8    293.2   0.011428524   0.11031   0.00631  -0.20096   0.26437
  19   34174.4    292.6   0.500481811   4.82128  -0.53545  -1.94928   0.85726
  20   34485.6    290.0   0.004920727   0.04698   0.02953   0.16249  -0.14035
  21   34683.3    288.3   0.056112050   0.53261   0.38263   0.43685   0.44201
  22   34747.3    287.8   0.057234599   0.54227  -0.13062  -0.59369   0.41562
  23   35139.3    284.6   0.024230619   0.22701   0.08705   0.44763  -0.13805
  24   36145.7    276.7   0.094953258   0.86483   0.12387   0.77961  -0.49162
  25   36375.3    274.9   0.004044155   0.03660   0.03934   0.17389  -0.06941
  26   36482.3    274.1   0.013097973   0.11819  -0.13239  -0.05986  -0.31158
  27   37679.8    265.4   0.275782967   2.40954  -0.52779  -1.41348   0.36479
  28   37978.6    263.3   0.018475117   0.16015   0.27500   0.13222   0.25892
  29   38406.2    260.4   0.041507571   0.35580   0.27125   0.06310   0.52748
  30   39118.7    255.6   0.027162701   0.22859   0.12866   0.44074  -0.13336
  31   39596.4    252.5   0.026103348   0.21703   0.22069   0.13292   0.38815
  32   39724.6    251.7   0.000739999   0.00613   0.04823   0.06153  -0.00454
  33   39943.9    250.4   0.068366242   0.56346   0.30002   0.68771   0.02253
  34   39992.6    250.0   0.040464690   0.33310  -0.00601  -0.39623   0.41960
  35   40267.2    248.3   0.015443919   0.12626   0.13843   0.30463   0.11960
  36   40321.4    248.0   0.019320366   0.15774   0.15067  -0.07681   0.35936

FINAL SINGLE POINT ENERGY     -4806.815611581936

DIPOLE MOMENT
-------------
                                X             Y             Z
Electronic contribution:      0.52209       0.80704       1.05700
Nuclear contribution   :      0.10873      -0.25792       0.11351
                        -----------------------------------------
Total Dipole Moment    :      0.63082       0.54912       1.17051
                        -----------------------------------------
Magnitude (a.u.)       :      1.43860
Magnitude (Debye)      :      3.65664

Rotational constants in cm-1:     0.003557     0.000242     0.000227
Rotational constants in MHz :   106.649744     7.259088     6.813339

                             ****ORCA TERMINATED NORMALLY****
TOTAL RUN TIME: 0 days 0 hours 6 minutes 7 seconds 55 msec
