                         Program Version 4.2.0 -  RELEASE  -
|  1> # ORCA input file
|  2> # SCF done       -184.108894832643          0.000713883628
|  3> ! CAM-B3LYP def2-SVP def2/J RIJCOSX Grid4 TightSCF
|  4> %maxcore 5000
|  5> %tddft
|  6>     Mode sTDDFT
|  7>     Ethresh 5.0
|  8>     maxcore 5000
|  9> end
| 10>
| 11> %pal
| 12>   nprocs 6
| 13>   end
| 14> * xyz 0 1
| 15>    C      -13.64714        -3.97347        -1.95051
| 16>    C      -13.28529        -4.93202        -2.89219
| 17>    C      -11.90403        -5.21991        -3.16262
| 18>    N      -11.57676        -6.15291        -4.07602
| 19>    C      -12.52934        -6.78158        -4.70308
| 20>    C      -13.88979        -6.49651        -4.43623
| 21>    N      -14.25340        -5.60521        -3.56327
| 22>    C      -10.84867        -4.55469        -2.49933
| 23>    C      -11.22891        -3.58469        -1.54990
| 24>    C      -12.62742        -3.30556        -1.28505
| 25>    N      -12.76905        -2.35574        -0.34832
| 26>    S      -11.32237        -1.87888         0.13334
| 27>    N      -10.42672        -2.82813        -0.79645
| 28>    C       -9.49529        -4.87693        -2.79332
| 29>    C       -8.36010        -4.30654        -2.23776
| 30>    C       -7.19463        -4.87134        -2.74317
| 31>    C       -7.44834        -5.88260        -3.69200
| 32>    S       -9.12135        -6.12848        -3.96525
| 33>    C       -6.20327        -6.39971        -4.12488
| 34>    C       -5.16698        -5.72133        -3.45774
| 35>    C       -5.75944        -4.73261        -2.56872
| 36>    C       -5.10135        -3.86523        -1.74686
| 37>    C       -3.69324        -3.83143        -1.67059
| 38>    N       -2.54846        -3.80633        -1.60803
| 39>    C       -5.77873        -2.94393        -0.92028
| 40>    N       -6.31326        -2.18917        -0.24230
| 41>    C       -3.89982        -6.18140        -3.80848
| 42>    C       -3.96063        -7.20762        -4.73535
| 43>    S       -5.61453        -7.60186        -5.18616
| 44>    C       -2.87995        -7.93522        -5.29080
| 45>    C       -2.94265        -8.98498        -6.18998
| 46>    C       -1.67861        -9.48971        -6.49115
| 47>    C       -0.64458        -8.81567        -5.81806
| 48>    S       -1.22773        -7.55944        -4.81813
| 49>    C        0.58960        -9.41692        -6.16728
| 50>    C        0.33773       -10.47282        -7.06075
| 51>    C       -1.09513       -10.54954        -7.29855
| 52>    C       -1.75348       -11.43402        -8.10135
| 53>    C       -1.07456       -12.42752        -8.83773
| 54>    N       -0.52374       -13.23554        -9.43643
| 55>    C       -3.15657       -11.41443        -8.24696
| 56>    N       -4.29705       -11.40266        -8.36461
| 57>    C        1.49533       -11.14879        -7.44340
| 58>    C        2.62566       -10.61705        -6.84848
| 59>    S        2.25059        -9.25175        -5.80449
| 60>    C        3.96291       -11.06542        -6.97741
| 61>    C        5.09247       -10.53389        -6.37949
| 62>    C        6.24033       -11.25318        -6.70405
| 63>    C        5.98481       -12.34258        -7.55672
| 64>    S        4.33081       -12.47499        -7.96305
| 65>    C        7.19953       -13.02319        -7.81414
| 66>    C        8.22899       -12.35643        -7.11915
| 67>    C        7.66492       -11.22376        -6.40626
| 68>    C        8.32345       -10.32222        -5.62235
| 69>    C        9.71561       -10.38473        -5.40185
| 70>    N       10.84590       -10.42093        -5.21279
| 71>    C        7.65153        -9.26191        -4.97880
| 72>    N        7.10316        -8.40186        -4.45459
| 73>    C        9.46971       -12.95934        -7.29208
| 74>    C        9.39320       -14.07678        -8.10944
| 75>    S        7.76347       -14.38882        -8.68079
| 76>    C       10.46018       -14.93695        -8.48833
| 77>    C       10.22236       -16.04460        -9.33260
| 78>    C       11.26862       -16.94213        -9.73717
| 79>    N       10.97634       -17.98786       -10.55066
| 80>    C        9.74504       -18.14061       -10.93697
| 81>    C        8.71297       -17.25835       -10.53734
| 82>    N        8.96118       -16.24488        -9.75818
| 83>    C       12.57897       -16.75660        -9.30701
| 84>    C       12.83794       -15.67525        -8.47490
| 85>    C       11.79144       -14.76062        -8.05989
| 86>    N       12.26739       -13.80021        -7.26321
| 87>    S       13.84147       -14.01957        -7.05993
| 88>    N       14.02564       -15.32974        -7.95572
| 89>    H      -14.68382        -3.76457        -1.75069
| 90>    H      -12.23282        -7.52390        -5.43051
| 91>    H      -14.68030        -7.01872        -4.95804
| 92>    H       -8.41713        -3.52477        -1.50265
| 93>    H       -2.97144        -5.80636        -3.41613
| 94>    H       -3.87058        -9.35377        -6.58883
| 95>    H        1.53204       -11.98844        -8.11406
| 96>    H        5.06010        -9.66950        -5.74055
| 97>    H       10.39763       -12.63253        -6.85966
| 98>    H        9.53815       -18.98145       -11.58509
| 99>    H        7.69022       -17.39131       -10.86039
|100>    H       13.35793       -17.43314        -9.61321
|101> *
|102>
|103>                          ****END OF INPUT****

CARTESIAN COORDINATES (ANGSTROEM)
---------------------------------
  C    -13.647140   -3.973470   -1.950510
  C    -13.285290   -4.932020   -2.892190
  C    -11.904030   -5.219910   -3.162620
  N    -11.576760   -6.152910   -4.076020
  C    -12.529340   -6.781580   -4.703080
  C    -13.889790   -6.496510   -4.436230
  N    -14.253400   -5.605210   -3.563270
  C    -10.848670   -4.554690   -2.499330
  C    -11.228910   -3.584690   -1.549900
  C    -12.627420   -3.305560   -1.285050
  N    -12.769050   -2.355740   -0.348320
  S    -11.322370   -1.878880    0.133340
  N    -10.426720   -2.828130   -0.796450
  C     -9.495290   -4.876930   -2.793320
  C     -8.360100   -4.306540   -2.237760
  C     -7.194630   -4.871340   -2.743170
  C     -7.448340   -5.882600   -3.692000
  S     -9.121350   -6.128480   -3.965250
  C     -6.203270   -6.399710   -4.124880
  C     -5.166980   -5.721330   -3.457740
  C     -5.759440   -4.732610   -2.568720
  C     -5.101350   -3.865230   -1.746860
  C     -3.693240   -3.831430   -1.670590
  N     -2.548460   -3.806330   -1.608030
  C     -5.778730   -2.943930   -0.920280
  N     -6.313260   -2.189170   -0.242300
  C     -3.899820   -6.181400   -3.808480
  C     -3.960630   -7.207620   -4.735350
  S     -5.614530   -7.601860   -5.186160
  C     -2.879950   -7.935220   -5.290800
  C     -2.942650   -8.984980   -6.189980
  C     -1.678610   -9.489710   -6.491150
  C     -0.644580   -8.815670   -5.818060
  S     -1.227730   -7.559440   -4.818130
  C      0.589600   -9.416920   -6.167280
  C      0.337730  -10.472820   -7.060750
  C     -1.095130  -10.549540   -7.298550
  C     -1.753480  -11.434020   -8.101350
  C     -1.074560  -12.427520   -8.837730
  N     -0.523740  -13.235540   -9.436430
  C     -3.156570  -11.414430   -8.246960
  N     -4.297050  -11.402660   -8.364610
  C      1.495330  -11.148790   -7.443400
  C      2.625660  -10.617050   -6.848480
  S      2.250590   -9.251750   -5.804490
  C      3.962910  -11.065420   -6.977410
  C      5.092470  -10.533890   -6.379490
  C      6.240330  -11.253180   -6.704050
  C      5.984810  -12.342580   -7.556720
  S      4.330810  -12.474990   -7.963050
  C      7.199530  -13.023190   -7.814140
  C      8.228990  -12.356430   -7.119150
  C      7.664920  -11.223760   -6.406260
  C      8.323450  -10.322220   -5.622350
  C      9.715610  -10.384730   -5.401850
  N     10.845900  -10.420930   -5.212790
  C      7.651530   -9.261910   -4.978800
  N      7.103160   -8.401860   -4.454590
  C      9.469710  -12.959340   -7.292080
  C      9.393200  -14.076780   -8.109440
  S      7.763470  -14.388820   -8.680790
  C     10.460180  -14.936950   -8.488330
  C     10.222360  -16.044600   -9.332600
  C     11.268620  -16.942130   -9.737170
  N     10.976340  -17.987860  -10.550660
  C      9.745040  -18.140610  -10.936970
  C      8.712970  -17.258350  -10.537340
  N      8.961180  -16.244880   -9.758180
  C     12.578970  -16.756600   -9.307010
  C     12.837940  -15.675250   -8.474900
  C     11.791440  -14.760620   -8.059890
  N     12.267390  -13.800210   -7.263210
  S     13.841470  -14.019570   -7.059930
  N     14.025640  -15.329740   -7.955720
  H    -14.683820   -3.764570   -1.750690
  H    -12.232820   -7.523900   -5.430510
  H    -14.680300   -7.018720   -4.958040
  H     -8.417130   -3.524770   -1.502650
  H     -2.971440   -5.806360   -3.416130
  H     -3.870580   -9.353770   -6.588830
  H      1.532040  -11.988440   -8.114060
  H      5.060100   -9.669500   -5.740550
  H     10.397630  -12.632530   -6.859660
  H      9.538150  -18.981450  -11.585090
  H      7.690220  -17.391310  -10.860390
  H     13.357930  -17.433140   -9.613210

 Total Charge           Charge          ....    0
 Multiplicity           Mult            ....    1
 Number of Electrons    NEL             ....  550
 Basis Dimension        Dim             .... 1128

ORBITAL ENERGIES
----------------

  NO   OCC          E(Eh)            E(eV)
   0   2.0000     -89.037266     -2422.8272
   1   2.0000     -89.036976     -2422.8193
   2   2.0000     -88.991409     -2421.5794
   3   2.0000     -88.991325     -2421.5771
   4   2.0000     -88.987761     -2421.4801
   5   2.0000     -88.987712     -2421.4788
   6   2.0000     -88.975909     -2421.1576
   7   2.0000     -88.975762     -2421.1536
   8   2.0000     -14.444625      -393.0582
   9   2.0000     -14.444557      -393.0564
  10   2.0000     -14.443861      -393.0374
  11   2.0000     -14.443848      -393.0371
  12   2.0000     -14.441946      -392.9853
  13   2.0000     -14.441927      -392.9848
  14   2.0000     -14.434995      -392.7962
  15   2.0000     -14.434980      -392.7958
  16   2.0000     -14.432677      -392.7331
  17   2.0000     -14.432617      -392.7315
  18   2.0000     -14.425200      -392.5296
  19   2.0000     -14.425144      -392.5281
  20   2.0000     -14.422999      -392.4697
  21   2.0000     -14.422998      -392.4697
  22   2.0000     -10.366478      -282.0862
  23   2.0000     -10.357281      -281.8360
  24   2.0000     -10.357241      -281.8348
  25   2.0000     -10.353806      -281.7414
  26   2.0000     -10.345101      -281.5045
  27   2.0000     -10.345059      -281.5034
  28   2.0000     -10.337480      -281.2971
  29   2.0000     -10.337427      -281.2957
  30   2.0000     -10.333433      -281.1870
  31   2.0000     -10.333414      -281.1865
  32   2.0000     -10.333128      -281.1787
  33   2.0000     -10.333097      -281.1779
  34   2.0000     -10.332647      -281.1656
  35   2.0000     -10.332440      -281.1600
  36   2.0000     -10.331862      -281.1443
  37   2.0000     -10.331855      -281.1441
  38   2.0000     -10.330251      -281.1004
  39   2.0000     -10.330171      -281.0982
  40   2.0000     -10.329942      -281.0920
  41   2.0000     -10.329932      -281.0917
  42   2.0000     -10.329835      -281.0891
  43   2.0000     -10.329817      -281.0886
  44   2.0000     -10.329042      -281.0675
  45   2.0000     -10.329033      -281.0673
  46   2.0000     -10.327871      -281.0357
  47   2.0000     -10.327834      -281.0347
  48   2.0000     -10.327117      -281.0151
  49   2.0000     -10.327025      -281.0126
  50   2.0000     -10.326017      -280.9852
  51   2.0000     -10.325931      -280.9829
  52   2.0000     -10.323428      -280.9147
  53   2.0000     -10.323416      -280.9144
  54   2.0000     -10.314600      -280.6745
  55   2.0000     -10.314596      -280.6744
  56   2.0000     -10.314125      -280.6616
  57   2.0000     -10.314118      -280.6614
  58   2.0000     -10.312865      -280.6273
  59   2.0000     -10.312860      -280.6272
  60   2.0000     -10.304084      -280.3884
  61   2.0000     -10.304047      -280.3874
  62   2.0000     -10.302613      -280.3484
  63   2.0000     -10.302559      -280.3469
  64   2.0000     -10.300229      -280.2835
  65   2.0000     -10.300172      -280.2819
  66   2.0000     -10.299794      -280.2717
  67   2.0000     -10.299739      -280.2701
  68   2.0000     -10.289957      -280.0040
  69   2.0000     -10.289921      -280.0030
  70   2.0000     -10.289031      -279.9788
  71   2.0000     -10.288940      -279.9763
  72   2.0000     -10.287917      -279.9485
  73   2.0000     -10.287876      -279.9473
  74   2.0000      -8.128423      -221.1856
  75   2.0000      -8.128266      -221.1813
  76   2.0000      -8.085768      -220.0249
  77   2.0000      -8.085702      -220.0231
  78   2.0000      -8.082179      -219.9273
  79   2.0000      -8.082165      -219.9269
  80   2.0000      -8.067886      -219.5383
  81   2.0000      -8.067803      -219.5361
  82   2.0000      -6.099353      -165.9718
  83   2.0000      -6.099183      -165.9672
  84   2.0000      -6.091616      -165.7613
  85   2.0000      -6.091522      -165.7587
  86   2.0000      -6.091403      -165.7555
  87   2.0000      -6.091379      -165.7548
  88   2.0000      -6.055040      -164.7660
  89   2.0000      -6.055006      -164.7651
  90   2.0000      -6.051439      -164.6680
  91   2.0000      -6.051422      -164.6676
  92   2.0000      -6.050880      -164.6528
  93   2.0000      -6.050864      -164.6524
  94   2.0000      -6.048020      -164.5750
  95   2.0000      -6.047999      -164.5744
  96   2.0000      -6.047313      -164.5558
  97   2.0000      -6.047304      -164.5555
  98   2.0000      -6.044496      -164.4791
  99   2.0000      -6.044464      -164.4782
 100   2.0000      -6.037525      -164.2894
 101   2.0000      -6.037460      -164.2876
 102   2.0000      -6.032565      -164.1544
 103   2.0000      -6.032471      -164.1519
 104   2.0000      -6.030448      -164.0968
 105   2.0000      -6.030343      -164.0940
 106   2.0000      -1.132164       -30.8077
 107   2.0000      -1.132087       -30.8057
 108   2.0000      -1.095577       -29.8122
 109   2.0000      -1.095550       -29.8114
 110   2.0000      -1.046333       -28.4722
 111   2.0000      -1.037394       -28.2289
 112   2.0000      -1.036567       -28.2064
 113   2.0000      -1.024241       -27.8710
 114   2.0000      -1.021191       -27.7880
 115   2.0000      -1.021094       -27.7854
 116   2.0000      -1.016180       -27.6517
 117   2.0000      -1.015232       -27.6259
 118   2.0000      -1.010389       -27.4941
 119   2.0000      -1.003850       -27.3162
 120   2.0000      -1.001701       -27.2577
 121   2.0000      -1.001314       -27.2471
 122   2.0000      -0.992622       -27.0106
 123   2.0000      -0.987948       -26.8834
 124   2.0000      -0.982859       -26.7450
 125   2.0000      -0.979675       -26.6583
 126   2.0000      -0.965996       -26.2861
 127   2.0000      -0.961779       -26.1713
 128   2.0000      -0.956551       -26.0291
 129   2.0000      -0.946276       -25.7495
 130   2.0000      -0.946246       -25.7487
 131   2.0000      -0.919199       -25.0127
 132   2.0000      -0.906578       -24.6693
 133   2.0000      -0.898407       -24.4469
 134   2.0000      -0.875979       -23.8366
 135   2.0000      -0.875933       -23.8353
 136   2.0000      -0.873725       -23.7753
 137   2.0000      -0.869817       -23.6689
 138   2.0000      -0.865937       -23.5634
 139   2.0000      -0.865539       -23.5525
 140   2.0000      -0.856961       -23.3191
 141   2.0000      -0.854822       -23.2609
 142   2.0000      -0.843935       -22.9646
 143   2.0000      -0.843915       -22.9641
 144   2.0000      -0.829508       -22.5721
 145   2.0000      -0.805811       -21.9272
 146   2.0000      -0.796941       -21.6859
 147   2.0000      -0.794405       -21.6169
 148   2.0000      -0.778746       -21.1908
 149   2.0000      -0.776230       -21.1223
 150   2.0000      -0.771565       -20.9954
 151   2.0000      -0.767803       -20.8930
 152   2.0000      -0.755549       -20.5595
 153   2.0000      -0.748090       -20.3566
 154   2.0000      -0.744420       -20.2567
 155   2.0000      -0.729674       -19.8555
 156   2.0000      -0.715216       -19.4620
 157   2.0000      -0.709325       -19.3017
 158   2.0000      -0.702274       -19.1098
 159   2.0000      -0.702192       -19.1076
 160   2.0000      -0.693990       -18.8844
 161   2.0000      -0.687111       -18.6973
 162   2.0000      -0.684437       -18.6245
 163   2.0000      -0.677891       -18.4464
 164   2.0000      -0.671962       -18.2850
 165   2.0000      -0.671840       -18.2817
 166   2.0000      -0.661846       -18.0098
 167   2.0000      -0.661171       -17.9914
 168   2.0000      -0.643245       -17.5036
 169   2.0000      -0.642303       -17.4780
 170   2.0000      -0.637895       -17.3580
 171   2.0000      -0.637361       -17.3435
 172   2.0000      -0.628277       -17.0963
 173   2.0000      -0.627447       -17.0737
 174   2.0000      -0.620186       -16.8761
 175   2.0000      -0.619634       -16.8611
 176   2.0000      -0.614335       -16.7169
 177   2.0000      -0.614311       -16.7163
 178   2.0000      -0.611185       -16.6312
 179   2.0000      -0.606593       -16.5062
 180   2.0000      -0.602565       -16.3966
 181   2.0000      -0.599676       -16.3180
 182   2.0000      -0.571640       -15.5551
 183   2.0000      -0.570737       -15.5305
 184   2.0000      -0.564202       -15.3527
 185   2.0000      -0.562586       -15.3088
 186   2.0000      -0.561534       -15.2801
 187   2.0000      -0.561452       -15.2779
 188   2.0000      -0.559267       -15.2184
 189   2.0000      -0.557206       -15.1624
 190   2.0000      -0.549581       -14.9549
 191   2.0000      -0.548694       -14.9307
 192   2.0000      -0.540182       -14.6991
 193   2.0000      -0.538934       -14.6652
 194   2.0000      -0.533766       -14.5245
 195   2.0000      -0.532962       -14.5026
 196   2.0000      -0.532374       -14.4866
 197   2.0000      -0.532274       -14.4839
 198   2.0000      -0.521771       -14.1981
 199   2.0000      -0.518850       -14.1186
 200   2.0000      -0.515733       -14.0338
 201   2.0000      -0.512655       -13.9501
 202   2.0000      -0.508934       -13.8488
 203   2.0000      -0.505117       -13.7449
 204   2.0000      -0.503338       -13.6965
 205   2.0000      -0.497629       -13.5412
 206   2.0000      -0.497238       -13.5305
 207   2.0000      -0.494016       -13.4429
 208   2.0000      -0.492555       -13.4031
 209   2.0000      -0.491409       -13.3719
 210   2.0000      -0.489827       -13.3289
 211   2.0000      -0.488457       -13.2916
 212   2.0000      -0.487546       -13.2668
 213   2.0000      -0.482812       -13.1380
 214   2.0000      -0.482102       -13.1187
 215   2.0000      -0.477924       -13.0050
 216   2.0000      -0.476601       -12.9690
 217   2.0000      -0.474043       -12.8994
 218   2.0000      -0.472144       -12.8477
 219   2.0000      -0.470178       -12.7942
 220   2.0000      -0.466393       -12.6912
 221   2.0000      -0.464037       -12.6271
 222   2.0000      -0.459924       -12.5152
 223   2.0000      -0.456423       -12.4199
 224   2.0000      -0.456374       -12.4186
 225   2.0000      -0.455005       -12.3813
 226   2.0000      -0.452992       -12.3266
 227   2.0000      -0.452939       -12.3251
 228   2.0000      -0.449950       -12.2438
 229   2.0000      -0.449679       -12.2364
 230   2.0000      -0.447742       -12.1837
 231   2.0000      -0.443813       -12.0768
 232   2.0000      -0.443504       -12.0684
 233   2.0000      -0.442157       -12.0317
 234   2.0000      -0.442041       -12.0285
 235   2.0000      -0.438344       -11.9279
 236   2.0000      -0.435486       -11.8502
 237   2.0000      -0.434719       -11.8293
 238   2.0000      -0.434623       -11.8267
 239   2.0000      -0.434274       -11.8172
 240   2.0000      -0.432576       -11.7710
 241   2.0000      -0.432233       -11.7617
 242   2.0000      -0.431327       -11.7370
 243   2.0000      -0.427152       -11.6234
 244   2.0000      -0.420999       -11.4560
 245   2.0000      -0.420848       -11.4519
 246   2.0000      -0.417497       -11.3607
 247   2.0000      -0.410076       -11.1587
 248   2.0000      -0.409589       -11.1455
 249   2.0000      -0.404150       -10.9975
 250   2.0000      -0.404130       -10.9969
 251   2.0000      -0.401868       -10.9354
 252   2.0000      -0.401261       -10.9189
 253   2.0000      -0.388190       -10.5632
 254   2.0000      -0.382339       -10.4040
 255   2.0000      -0.382335       -10.4039
 256   2.0000      -0.373854       -10.1731
 257   2.0000      -0.372639       -10.1400
 258   2.0000      -0.372611       -10.1393
 259   2.0000      -0.352614        -9.5951
 260   2.0000      -0.351545        -9.5660
 261   2.0000      -0.342070        -9.3082
 262   2.0000      -0.341290        -9.2870
 263   2.0000      -0.339732        -9.2446
 264   2.0000      -0.339388        -9.2352
 265   2.0000      -0.329835        -8.9753
 266   2.0000      -0.329833        -8.9752
 267   2.0000      -0.326251        -8.8778
 268   2.0000      -0.324447        -8.8287
 269   2.0000      -0.314352        -8.5540
 270   2.0000      -0.314312        -8.5529
 271   2.0000      -0.302449        -8.2301
 272   2.0000      -0.277152        -7.5417
 273   2.0000      -0.249666        -6.7937
 274   2.0000      -0.230146        -6.2626
 275   0.0000      -0.112484        -3.0608
 276   0.0000      -0.106522        -2.8986
 277   0.0000      -0.102890        -2.7998
 278   0.0000      -0.089597        -2.4381
 279   0.0000      -0.089454        -2.4342

MULLIKEN ATOMIC CHARGES
-----------------------
   0 C :   -0.088593
   1 C :    0.013540
   2 C :   -0.049496
   3 N :   -0.087234
   4 C :    0.046009
   5 C :    0.019297
   6 N :   -0.012477
   7 C :    0.199176
   8 C :   -0.049345
   9 C :    0.102403
  10 N :   -0.270906
  11 S :    0.548823
  12 N :   -0.283551
  13 C :   -0.171585
  14 C :   -0.059810
  15 C :    0.030421
  16 C :   -0.063318
  17 S :    0.198526
  18 C :   -0.106487
  19 C :    0.017644
  20 C :    0.305928
  21 C :   -0.305838
  22 C :   -0.192162
  23 N :    0.166763
  24 C :   -0.186728
  25 N :    0.174726
  26 C :   -0.068478
  27 C :   -0.050659
  28 S :    0.188878
  29 C :   -0.050476
  30 C :   -0.067337
  31 C :    0.015381
  32 C :   -0.098316
  33 S :    0.197688
  34 C :   -0.099040
  35 C :    0.016726
  36 C :    0.301166
  37 C :   -0.296570
  38 C :   -0.187982
  39 N :    0.172588
  40 C :   -0.188808
  41 N :    0.170545
  42 C :   -0.069875
  43 C :   -0.051572
  44 S :    0.198323
  45 C :   -0.050511
  46 C :   -0.070991
  47 C :    0.018367
  48 C :   -0.107064
  49 S :    0.189984
  50 C :   -0.063353
  51 C :    0.028651
  52 C :    0.309431
  53 C :   -0.303423
  54 C :   -0.187957
  55 N :    0.172092
  56 C :   -0.192198
  57 N :    0.168032
  58 C :   -0.057032
  59 C :   -0.174012
  60 S :    0.197714
  61 C :    0.201021
  62 C :   -0.050331
  63 C :    0.022031
  64 N :   -0.015741
  65 C :    0.018042
  66 C :    0.048160
  67 N :   -0.088449
  68 C :   -0.091537
  69 C :    0.101349
  70 C :   -0.043947
  71 N :   -0.285840
  72 S :    0.549777
  73 N :   -0.272391
  74 H :   -0.027579
  75 H :    0.017758
  76 H :    0.021113
  77 H :    0.020581
  78 H :    0.010311
  79 H :    0.010134
  80 H :    0.011079
  81 H :    0.011260
  82 H :    0.017927
  83 H :    0.021280
  84 H :    0.016796
  85 H :   -0.028438
Sum of atomic charges:   -0.0000000

LOEWDIN ATOMIC CHARGES
----------------------
   0 C :   -0.018663
   1 C :   -0.012705
   2 C :   -0.024420
   3 N :   -0.053590
   4 C :    0.017888
   5 C :    0.008434
   6 N :   -0.028665
   7 C :   -0.029831
   8 C :   -0.045127
   9 C :   -0.048975
  10 N :   -0.288841
  11 S :    0.686073
  12 N :   -0.284028
  13 C :   -0.168452
  14 C :   -0.010665
  15 C :   -0.079450
  16 C :   -0.185029
  17 S :    0.509188
  18 C :   -0.178020
  19 C :   -0.065472
  20 C :    0.083535
  21 C :   -0.106223
  22 C :   -0.016019
  23 N :   -0.039331
  24 C :   -0.017061
  25 N :   -0.033570
  26 C :   -0.039645
  27 C :   -0.180949
  28 S :    0.480019
  29 C :   -0.178450
  30 C :   -0.040016
  31 C :   -0.069776
  32 C :   -0.180366
  33 S :    0.486352
  34 C :   -0.180404
  35 C :   -0.069616
  36 C :    0.084496
  37 C :   -0.102764
  38 C :   -0.015952
  39 N :   -0.034231
  40 C :   -0.015944
  41 N :   -0.034226
  42 C :   -0.040228
  43 C :   -0.178453
  44 S :    0.486521
  45 C :   -0.181163
  46 C :   -0.039767
  47 C :   -0.065354
  48 C :   -0.177971
  49 S :    0.480112
  50 C :   -0.184997
  51 C :   -0.079596
  52 C :    0.083557
  53 C :   -0.106256
  54 C :   -0.017160
  55 N :   -0.033463
  56 C :   -0.016079
  57 N :   -0.039328
  58 C :   -0.010237
  59 C :   -0.168284
  60 S :    0.508929
  61 C :   -0.029718
  62 C :   -0.024324
  63 C :   -0.012293
  64 N :   -0.028983
  65 C :    0.008379
  66 C :    0.018289
  67 N :   -0.053715
  68 C :   -0.018733
  69 C :   -0.048805
  70 C :   -0.044860
  71 N :   -0.284383
  72 S :    0.686168
  73 N :   -0.289176
  74 H :    0.044018
  75 H :    0.029384
  76 H :    0.029340
  77 H :    0.038163
  78 H :    0.035082
  79 H :    0.035044
  80 H :    0.035207
  81 H :    0.035165
  82 H :    0.037890
  83 H :    0.029364
  84 H :    0.029184
  85 H :    0.044027

  Mayer bond orders larger than 0.100000
B(  0-C ,  1-C ) :   1.3168 B(  0-C ,  7-C ) :   0.1392 B(  0-C ,  9-C ) :   1.1822
B(  0-C , 74-H ) :   1.0612 B(  1-C ,  2-C ) :   1.1443 B(  1-C ,  6-N ) :   1.3608
B(  2-C ,  3-N ) :   1.3728 B(  2-C ,  7-C ) :   1.2900 B(  3-N ,  4-C ) :   1.6718
B(  4-C ,  5-C ) :   1.1746 B(  4-C , 75-H ) :   0.9726 B(  5-C ,  6-N ) :   1.7326
B(  5-C , 76-H ) :   0.9747 B(  7-C ,  8-C ) :   1.2273 B(  7-C , 13-C ) :   1.1701
B(  8-C ,  9-C ) :   1.1204 B(  8-C , 12-N ) :   1.5003 B(  9-C , 10-N ) :   1.4505
B( 10-N , 11-S ) :   1.3137 B( 10-N , 12-N ) :   0.1609 B( 11-S , 12-N ) :   1.2826
B( 13-C , 14-C ) :   1.4379 B( 13-C , 17-S ) :   1.0882 B( 14-C , 15-C ) :   1.2656
B( 14-C , 77-H ) :   0.9843 B( 15-C , 16-C ) :   1.4105 B( 15-C , 20-C ) :   0.9959
B( 16-C , 17-S ) :   1.0762 B( 16-C , 18-C ) :   1.1953 B( 18-C , 19-C ) :   1.4396
B( 18-C , 28-S ) :   1.1150 B( 19-C , 20-C ) :   0.9898 B( 19-C , 26-C ) :   1.3035
B( 20-C , 21-C ) :   1.7078 B( 21-C , 22-C ) :   1.1333 B( 21-C , 24-C ) :   1.1391
B( 22-C , 23-N ) :   2.9903 B( 24-C , 25-N ) :   2.9899 B( 26-C , 27-C ) :   1.4515
B( 26-C , 78-H ) :   0.9867 B( 27-C , 28-S ) :   1.1077 B( 27-C , 29-C ) :   1.1717
B( 29-C , 30-C ) :   1.4560 B( 29-C , 33-S ) :   1.1078 B( 30-C , 31-C ) :   1.3001
B( 30-C , 79-H ) :   0.9875 B( 31-C , 32-C ) :   1.4431 B( 31-C , 36-C ) :   0.9950
B( 32-C , 33-S ) :   1.1193 B( 32-C , 34-C ) :   1.1892 B( 34-C , 35-C ) :   1.4437
B( 34-C , 44-S ) :   1.1198 B( 35-C , 36-C ) :   0.9954 B( 35-C , 42-C ) :   1.3000
B( 36-C , 37-C ) :   1.7129 B( 37-C , 38-C ) :   1.1331 B( 37-C , 40-C ) :   1.1329
B( 38-C , 39-N ) :   2.9929 B( 40-C , 41-N ) :   2.9917 B( 42-C , 43-C ) :   1.4555
B( 42-C , 80-H ) :   0.9879 B( 43-C , 44-S ) :   1.1076 B( 43-C , 45-C ) :   1.1730
B( 45-C , 46-C ) :   1.4506 B( 45-C , 49-S ) :   1.1073 B( 46-C , 47-C ) :   1.3045
B( 46-C , 81-H ) :   0.9865 B( 47-C , 48-C ) :   1.4402 B( 47-C , 52-C ) :   0.9888
B( 48-C , 49-S ) :   1.1157 B( 48-C , 50-C ) :   1.1949 B( 50-C , 51-C ) :   1.4095
B( 50-C , 60-S ) :   1.0760 B( 51-C , 52-C ) :   0.9932 B( 51-C , 58-C ) :   1.2657
B( 52-C , 53-C ) :   1.7073 B( 53-C , 54-C ) :   1.1382 B( 53-C , 56-C ) :   1.1325
B( 54-C , 55-N ) :   2.9898 B( 56-C , 57-N ) :   2.9918 B( 58-C , 59-C ) :   1.4374
B( 58-C , 82-H ) :   0.9843 B( 59-C , 60-S ) :   1.0889 B( 59-C , 61-C ) :   1.1686
B( 61-C , 62-C ) :   1.2890 B( 61-C , 68-C ) :   0.1406 B( 61-C , 70-C ) :   1.2233
B( 62-C , 63-C ) :   1.1444 B( 62-C , 67-N ) :   1.3725 B( 63-C , 64-N ) :   1.3582
B( 63-C , 68-C ) :   1.3138 B( 64-N , 65-C ) :   1.7341 B( 65-C , 66-C ) :   1.1732
B( 65-C , 83-H ) :   0.9750 B( 66-C , 67-N ) :   1.6729 B( 66-C , 84-H ) :   0.9726
B( 68-C , 69-C ) :   1.1832 B( 68-C , 85-H ) :   1.0610 B( 69-C , 70-C ) :   1.1206
B( 69-C , 73-N ) :   1.4505 B( 70-C , 71-N ) :   1.4983 B( 71-N , 72-S ) :   1.2824
B( 71-N , 73-N ) :   0.1608 B( 72-S , 73-N ) :   1.3129

-----------------------------------------------------------------------------
         ABSORPTION SPECTRUM VIA TRANSITION ELECTRIC DIPOLE MOMENTS
-----------------------------------------------------------------------------
State   Energy  Wavelength   fosc         T2         TX        TY        TZ
        (cm-1)    (nm)                  (au**2)     (au)      (au)      (au)
-----------------------------------------------------------------------------
   0    9858.5   1014.3   0.527626699  17.61934  -3.65812   1.78243   1.02979
   1   11492.7    870.1   0.338348134   9.69210  -2.71162   1.32976   0.75562
   2   11767.9    849.8   0.004178547   0.11690   0.16368   0.27776  -0.11382
   3   15572.8    642.1   0.728718341  15.40525   3.41405  -1.68494  -0.95420
   4   15758.1    634.6   0.027964084   0.58421   0.42762   0.62713   0.08982
   5   18134.8    551.4   0.000537217   0.00975   0.00623   0.05455  -0.08208
   6   20247.1    493.9   0.034803582   0.56590  -0.65562   0.31553   0.19107
   7   20583.2    485.8   0.005186710   0.08296   0.14063   0.21702   0.12681
   8   23220.9    430.6   0.473560408   6.71386   2.25903  -1.09655  -0.63891
   9   24311.0    411.3   0.002335659   0.03163   0.11316  -0.11054  -0.08127
  10   24327.8    411.1   0.004412069   0.05971  -0.16361  -0.13996  -0.11553
  11   24817.6    402.9   0.003476761   0.04612   0.02741   0.14748  -0.15368
  12   24943.8    400.9   0.000124567   0.00164  -0.01701   0.02590   0.02615
  13   25394.9    393.8   0.011146595   0.14450  -0.16744  -0.28487  -0.18793
  14   25495.8    392.2   0.031856690   0.41135   0.56154  -0.26950  -0.15293
  15   25974.6    385.0   1.262125105  15.99667   3.48741  -1.68949  -0.99010
  16   28329.8    353.0   0.039429347   0.45820  -0.38923   0.47827   0.27919
  17   28350.0    352.7   0.080898083   0.93942   0.62136   0.59159   0.45095
  18   28909.0    345.9   0.125679828   1.43122  -0.54847  -0.63652  -0.85161
  19   29571.9    338.2   0.047135732   0.52474  -0.35318  -0.44271  -0.45169
  20   29717.1    336.5   0.022749394   0.25202   0.43381  -0.21784  -0.12798
  21   30424.7    328.7   0.001892380   0.02048  -0.13878  -0.01014  -0.03339
  22   30462.6    328.3   0.182592511   1.97329  -0.65256  -0.80058  -0.95212
  23   30865.7    324.0   0.000044273   0.00047   0.00833   0.01880   0.00704
  24   31224.2    320.3   0.004402568   0.04642   0.18186  -0.09358  -0.06773
  25   31343.5    319.0   0.013350546   0.14023   0.17909   0.22139   0.24318
  26   31983.1    312.7   0.037624846   0.38728   0.31848   0.45663   0.27811
  27   32087.3    311.7   0.168922643   1.73313   1.13667  -0.57923  -0.32497
  28   32561.7    307.1   0.035068455   0.35456   0.57971  -0.12979  -0.04050
  29   32597.1    306.8   0.011307476   0.11420   0.31504   0.11458   0.04267
  30   32644.7    306.3   0.234270076   2.36254  -0.78271  -1.04022  -0.81722
  31   32756.2    305.3   1.457518928  14.64859   1.81107   2.49365   2.26944
  32   33054.5    302.5   0.051841308   0.51632  -0.32346  -0.54379  -0.34057
  33   33284.9    300.4   0.452886681   4.47938  -1.83507   0.91334   0.52699
  34   33486.7    298.6   0.017898628   0.17596  -0.18262  -0.20822  -0.31505
  35   33705.4    296.7   0.178423308   1.74272   0.59117   0.84660   0.82250
  36   33718.6    296.6   0.014468451   0.14126  -0.31048  -0.11734  -0.17635
  37   34360.2    291.0   0.006376107   0.06109  -0.09107  -0.17094   0.15355
  38   34406.7    290.6   0.000438932   0.00420  -0.05193  -0.00215  -0.03871
  39   34620.3    288.8   0.050971182   0.48470   0.60641  -0.30690  -0.15093
  40   34811.1    287.3   0.026395750   0.24963   0.21682   0.34756   0.28604
  41   34974.4    285.9   0.093587619   0.88094   0.83183  -0.38352  -0.20472
  42   35175.3    284.3   0.004118968   0.03855  -0.08117  -0.08762  -0.15583
  43   35887.7    278.6   0.030160083   0.27667   0.45934  -0.22123  -0.12938
  44   36248.2    275.9   0.036106727   0.32793   0.28224   0.43235   0.24766
  45   36469.0    274.2   0.002930601   0.02646  -0.14088   0.06694   0.04613
  46   37113.1    269.4   0.013840318   0.12277  -0.30419   0.16122   0.06517
  47   37523.1    266.5   0.038327606   0.33627  -0.28523  -0.33472  -0.37799
  48   37687.1    265.3   0.038019989   0.33212  -0.48903   0.26625   0.14860
  49   37935.5    263.6   0.359633184   3.12097   0.84834   1.16178   1.02545
  50   38101.0    262.5   0.121810829   1.05251  -0.94185   0.34878   0.20923
  51   38142.3    262.2   0.036283991   0.31317   0.19875  -0.48093  -0.20585
  52   38152.1    262.1   0.007109108   0.06134  -0.11976   0.14799   0.15843
  53   38197.6    261.8   0.106422147   0.91722  -0.55289  -0.61016  -0.48911
  54   38326.3    260.9   0.006046663   0.05194   0.19155  -0.08910  -0.08548
  55   38669.9    258.6   0.009289737   0.07909   0.13639   0.13399   0.20623
  56   38760.3    258.0   0.011993472   0.10187  -0.27376   0.13992   0.08570
  57   39001.2    256.4   0.051447893   0.43428   0.27508   0.51823   0.30008
  58   39179.6    255.2   0.153609139   1.29072   1.01154  -0.45661  -0.24293
  59   39742.4    251.6   0.000053880   0.00045   0.00928   0.00234   0.01883
  60   39749.0    251.6   0.000195965   0.00162   0.01077   0.02643   0.02843
  61   39777.4    251.4   0.011685440   0.09671   0.27180  -0.13164  -0.07423
  62   39952.3    250.3   0.155484484   1.28121  -0.56696  -0.69632  -0.68913
  63   40131.1    249.2   0.677450955   5.55741  -1.20356  -1.42148  -1.44508
  64   40167.3    249.0   0.065859127   0.53978  -0.45892   0.43342   0.37592

FINAL SINGLE POINT ENERGY     -5936.152807091703

DIPOLE MOMENT
-------------
                                X             Y             Z
Electronic contribution:      7.02557       9.99261       7.54464
Nuclear contribution   :     -8.44087     -11.97514      -9.13889
                        -----------------------------------------
Total Dipole Moment    :     -1.41530      -1.98252      -1.59425
                        -----------------------------------------
Magnitude (a.u.)       :      2.91121
Magnitude (Debye)      :      7.39970

Rotational constants in cm-1:     0.002479     0.000166     0.000156
Rotational constants in MHz :    74.306962     4.973119     4.675681

                             ****ORCA TERMINATED NORMALLY****
TOTAL RUN TIME: 0 days 0 hours 8 minutes 29 seconds 954 msec
