                         Program Version 4.2.0 -  RELEASE  -
|  1> # ORCA input file
|  2> # SCF done       -164.990034716920          0.001904498376
|  3> ! CAM-B3LYP def2-SVP def2/J RIJCOSX Grid4 TightSCF
|  4> %maxcore 5000
|  5> %tddft
|  6>     Mode sTDDFT
|  7>     Ethresh 5.0
|  8>     maxcore 5000
|  9> end
| 10>
| 11> %pal
| 12>   nprocs 6
| 13>   end
| 14> * xyz 0 1
| 15>    C       -3.41410        12.96781         6.48948
| 16>    C       -3.95459        11.76027         6.80946
| 17>    C       -3.55264        10.76203         5.90059
| 18>    C       -2.70579        11.25573         4.90455
| 19>    S       -2.40579        12.92561         5.07997
| 20>    C       -2.34837        10.17918         4.03586
| 21>    C       -2.97819         9.01870         4.49089
| 22>    C       -3.75974         9.34124         5.67534
| 23>    C       -4.52537         8.48374         6.40971
| 24>    C       -4.67457         7.12176         6.07080
| 25>    N       -4.82393         6.01692         5.80141
| 26>    C       -5.23639         8.90168         7.55371
| 27>    N       -5.81671         9.23439         8.48543
| 28>    C       -2.67963         7.89291         3.71225
| 29>    C       -1.82814         8.19633         2.67953
| 30>    S       -1.39416         9.89457         2.64925
| 31>    C       -1.29866         7.30562         1.68477
| 32>    C       -0.82574         7.62400         0.43842
| 33>    O       -0.43762         6.52340        -0.22230
| 34>    C       -0.66232         5.47607         0.58068
| 35>    C       -1.19363         5.87497         1.77496
| 36>    C       -1.44698         5.03735         2.97044
| 37>    O       -1.04189         5.36104         4.07117
| 38>    C       -2.18592         3.80776         2.74048
| 39>    C       -2.82703         3.35897         1.60295
| 40>    C       -3.43661         2.11774         1.78224
| 41>    C       -3.26875         1.62751         3.05831
| 42>    S       -2.36687         2.69544         4.05842
| 43>    C       -3.73228         0.36856         3.59746
| 44>    N       -4.31466        -0.49175         2.76107
| 45>    C       -4.68695        -1.65057         3.27959
| 46>    C       -4.49462        -1.96964         4.61205
| 47>    C       -3.89819        -0.99041         5.41999
| 48>    N       -3.52177         0.17300         4.89122
| 49>    C       -3.67710        -1.20802         6.83537
| 50>    C       -3.21546        -0.23063         7.62803
| 51>    C       -2.96373        -0.29744         9.04265
| 52>    C       -2.60701         0.79710         9.79288
| 53>    O       -2.44015         0.47650        11.08244
| 54>    C       -2.70094        -0.82804        11.19993
| 55>    C       -3.03644        -1.38218         9.99058
| 56>    C       -3.28307        -2.82060         9.78486
| 57>    O       -2.95336        -3.42863         8.78399
| 58>    C       -3.92398        -3.50151        10.90773
| 59>    C       -4.73635        -3.00801        11.90348
| 60>    C       -5.19732        -3.99546        12.77364
| 61>    C       -4.73900        -5.25755        12.45090
| 62>    S       -3.74869        -5.22372        11.02797
| 63>    C       -4.99353        -6.47132        13.14882
| 64>    C       -4.53085        -7.73710        12.85314
| 65>    C       -4.97790        -8.68647        13.77692
| 66>    C       -5.78602        -8.13356        14.77799
| 67>    S       -5.99959        -6.45242        14.59047
| 68>    C       -6.18466        -9.17464        15.66631
| 69>    C       -5.62458       -10.37737        15.22297
| 70>    C       -4.84992       -10.11831        14.02173
| 71>    C       -4.15509       -11.02276        13.27485
| 72>    C       -4.10180       -12.39257        13.60985
| 73>    N       -4.05424       -13.50607        13.87873
| 74>    C       -3.44223       -10.65375        12.11444
| 75>    N       -2.86260       -10.36691        11.16796
| 76>    C       -5.96760       -11.46583        16.04771
| 77>    C       -6.76575       -11.07296        17.07914
| 78>    S       -7.12211        -9.37726        17.07802
| 79>    H       -3.54236        13.90193         6.99854
| 80>    H       -4.60319        11.60039         7.65122
| 81>    H       -3.06487         6.90751         3.89220
| 82>    H       -0.72868         8.56854        -0.05945
| 83>    H       -0.37425         4.50653         0.22482
| 84>    H       -2.86051         3.91659         0.68427
| 85>    H       -3.98327         1.58222         1.02802
| 86>    H       -5.15372        -2.34270         2.58959
| 87>    H       -4.79157        -2.92238         5.01832
| 88>    H       -3.89637        -2.19665         7.20754
| 89>    H       -3.01482         0.73354         7.17708
| 90>    H       -2.45120         1.81935         9.50858
| 91>    H       -2.57535        -1.27113        12.16863
| 92>    H       -5.00901        -1.97120        11.98187
| 93>    H       -5.84151        -3.80608        13.61431
| 94>    H       -3.89970        -7.94081        12.00682
| 95>    H       -5.64569       -12.47972        15.89422
| 96>    H       -7.17828       -11.68087        17.85910
| 97> *
| 98>
| 99>                          ****END OF INPUT****

CARTESIAN COORDINATES (ANGSTROEM)
---------------------------------
  C     -3.414100   12.967810    6.489480
  C     -3.954590   11.760270    6.809460
  C     -3.552640   10.762030    5.900590
  C     -2.705790   11.255730    4.904550
  S     -2.405790   12.925610    5.079970
  C     -2.348370   10.179180    4.035860
  C     -2.978190    9.018700    4.490890
  C     -3.759740    9.341240    5.675340
  C     -4.525370    8.483740    6.409710
  C     -4.674570    7.121760    6.070800
  N     -4.823930    6.016920    5.801410
  C     -5.236390    8.901680    7.553710
  N     -5.816710    9.234390    8.485430
  C     -2.679630    7.892910    3.712250
  C     -1.828140    8.196330    2.679530
  S     -1.394160    9.894570    2.649250
  C     -1.298660    7.305620    1.684770
  C     -0.825740    7.624000    0.438420
  O     -0.437620    6.523400   -0.222300
  C     -0.662320    5.476070    0.580680
  C     -1.193630    5.874970    1.774960
  C     -1.446980    5.037350    2.970440
  O     -1.041890    5.361040    4.071170
  C     -2.185920    3.807760    2.740480
  C     -2.827030    3.358970    1.602950
  C     -3.436610    2.117740    1.782240
  C     -3.268750    1.627510    3.058310
  S     -2.366870    2.695440    4.058420
  C     -3.732280    0.368560    3.597460
  N     -4.314660   -0.491750    2.761070
  C     -4.686950   -1.650570    3.279590
  C     -4.494620   -1.969640    4.612050
  C     -3.898190   -0.990410    5.419990
  N     -3.521770    0.173000    4.891220
  C     -3.677100   -1.208020    6.835370
  C     -3.215460   -0.230630    7.628030
  C     -2.963730   -0.297440    9.042650
  C     -2.607010    0.797100    9.792880
  O     -2.440150    0.476500   11.082440
  C     -2.700940   -0.828040   11.199930
  C     -3.036440   -1.382180    9.990580
  C     -3.283070   -2.820600    9.784860
  O     -2.953360   -3.428630    8.783990
  C     -3.923980   -3.501510   10.907730
  C     -4.736350   -3.008010   11.903480
  C     -5.197320   -3.995460   12.773640
  C     -4.739000   -5.257550   12.450900
  S     -3.748690   -5.223720   11.027970
  C     -4.993530   -6.471320   13.148820
  C     -4.530850   -7.737100   12.853140
  C     -4.977900   -8.686470   13.776920
  C     -5.786020   -8.133560   14.777990
  S     -5.999590   -6.452420   14.590470
  C     -6.184660   -9.174640   15.666310
  C     -5.624580  -10.377370   15.222970
  C     -4.849920  -10.118310   14.021730
  C     -4.155090  -11.022760   13.274850
  C     -4.101800  -12.392570   13.609850
  N     -4.054240  -13.506070   13.878730
  C     -3.442230  -10.653750   12.114440
  N     -2.862600  -10.366910   11.167960
  C     -5.967600  -11.465830   16.047710
  C     -6.765750  -11.072960   17.079140
  S     -7.122110   -9.377260   17.078020
  H     -3.542360   13.901930    6.998540
  H     -4.603190   11.600390    7.651220
  H     -3.064870    6.907510    3.892200
  H     -0.728680    8.568540   -0.059450
  H     -0.374250    4.506530    0.224820
  H     -2.860510    3.916590    0.684270
  H     -3.983270    1.582220    1.028020
  H     -5.153720   -2.342700    2.589590
  H     -4.791570   -2.922380    5.018320
  H     -3.896370   -2.196650    7.207540
  H     -3.014820    0.733540    7.177080
  H     -2.451200    1.819350    9.508580
  H     -2.575350   -1.271130   12.168630
  H     -5.009010   -1.971200   11.981870
  H     -5.841510   -3.806080   13.614310
  H     -3.899700   -7.940810   12.006820
  H     -5.645690  -12.479720   15.894220
  H     -7.178280  -11.680870   17.859100

 Total Charge           Charge          ....    0
 Multiplicity           Mult            ....    1
 Number of Electrons    NEL             ....  476
 Basis Dimension        Dim             .... 1010

ORBITAL ENERGIES
----------------

  NO   OCC          E(Eh)            E(eV)
   0   2.0000     -88.991519     -2421.5823
   1   2.0000     -88.988526     -2421.5009
   2   2.0000     -88.977560     -2421.2025
   3   2.0000     -88.976440     -2421.1720
   4   2.0000     -88.968894     -2420.9667
   5   2.0000     -88.951052     -2420.4812
   6   2.0000     -19.304780      -525.3098
   7   2.0000     -19.300323      -525.1885
   8   2.0000     -19.205162      -522.5990
   9   2.0000     -19.197456      -522.3893
  10   2.0000     -14.428869      -392.6295
  11   2.0000     -14.428576      -392.6215
  12   2.0000     -14.419104      -392.3638
  13   2.0000     -14.417172      -392.3112
  14   2.0000     -14.401979      -391.8978
  15   2.0000     -14.401426      -391.8827
  16   2.0000     -10.370126      -282.1855
  17   2.0000     -10.363334      -282.0006
  18   2.0000     -10.360859      -281.9333
  19   2.0000     -10.350978      -281.6644
  20   2.0000     -10.350773      -281.6589
  21   2.0000     -10.341010      -281.3932
  22   2.0000     -10.340068      -281.3676
  23   2.0000     -10.338749      -281.3317
  24   2.0000     -10.334626      -281.2195
  25   2.0000     -10.333020      -281.1758
  26   2.0000     -10.330127      -281.0970
  27   2.0000     -10.329910      -281.0911
  28   2.0000     -10.329251      -281.0732
  29   2.0000     -10.329173      -281.0711
  30   2.0000     -10.328754      -281.0597
  31   2.0000     -10.327815      -281.0341
  32   2.0000     -10.325562      -280.9728
  33   2.0000     -10.319932      -280.8196
  34   2.0000     -10.319651      -280.8120
  35   2.0000     -10.319011      -280.7946
  36   2.0000     -10.317705      -280.7590
  37   2.0000     -10.316715      -280.7321
  38   2.0000     -10.313552      -280.6460
  39   2.0000     -10.312804      -280.6257
  40   2.0000     -10.310666      -280.5675
  41   2.0000     -10.304716      -280.4056
  42   2.0000     -10.303048      -280.3602
  43   2.0000     -10.302624      -280.3486
  44   2.0000     -10.301410      -280.3156
  45   2.0000     -10.300210      -280.2830
  46   2.0000     -10.298178      -280.2277
  47   2.0000     -10.294580      -280.1298
  48   2.0000     -10.294266      -280.1212
  49   2.0000     -10.291262      -280.0395
  50   2.0000     -10.289789      -279.9994
  51   2.0000     -10.288236      -279.9571
  52   2.0000     -10.287837      -279.9463
  53   2.0000     -10.287462      -279.9361
  54   2.0000     -10.286739      -279.9164
  55   2.0000     -10.285005      -279.8692
  56   2.0000     -10.284318      -279.8505
  57   2.0000     -10.282696      -279.8064
  58   2.0000     -10.280426      -279.7446
  59   2.0000     -10.279030      -279.7066
  60   2.0000     -10.277210      -279.6571
  61   2.0000     -10.275081      -279.5992
  62   2.0000     -10.269007      -279.4339
  63   2.0000     -10.261205      -279.2216
  64   2.0000      -8.086130      -220.0348
  65   2.0000      -8.083583      -219.9655
  66   2.0000      -8.072619      -219.6671
  67   2.0000      -8.071208      -219.6287
  68   2.0000      -8.064075      -219.4346
  69   2.0000      -8.045678      -218.9340
  70   2.0000      -6.055389      -164.7755
  71   2.0000      -6.052828      -164.7058
  72   2.0000      -6.051239      -164.6626
  73   2.0000      -6.048455      -164.5868
  74   2.0000      -6.048393      -164.5851
  75   2.0000      -6.046186      -164.5251
  76   2.0000      -6.041876      -164.4078
  77   2.0000      -6.040440      -164.3687
  78   2.0000      -6.037449      -164.2873
  79   2.0000      -6.036290      -164.2558
  80   2.0000      -6.035214      -164.2265
  81   2.0000      -6.033603      -164.1827
  82   2.0000      -6.033380      -164.1766
  83   2.0000      -6.029081      -164.0596
  84   2.0000      -6.026306      -163.9841
  85   2.0000      -6.014770      -163.6702
  86   2.0000      -6.010487      -163.5537
  87   2.0000      -6.008403      -163.4970
  88   2.0000      -1.225751       -33.3544
  89   2.0000      -1.220358       -33.2076
  90   2.0000      -1.124860       -30.6090
  91   2.0000      -1.116438       -30.3798
  92   2.0000      -1.077383       -29.3171
  93   2.0000      -1.043670       -28.3997
  94   2.0000      -1.030424       -28.0393
  95   2.0000      -1.020852       -27.7788
  96   2.0000      -1.009563       -27.4716
  97   2.0000      -1.006625       -27.3917
  98   2.0000      -1.004516       -27.3343
  99   2.0000      -0.995573       -27.0909
 100   2.0000      -0.986584       -26.8463
 101   2.0000      -0.983448       -26.7610
 102   2.0000      -0.977282       -26.5932
 103   2.0000      -0.974971       -26.5303
 104   2.0000      -0.955489       -26.0002
 105   2.0000      -0.946078       -25.7441
 106   2.0000      -0.925121       -25.1738
 107   2.0000      -0.918871       -25.0037
 108   2.0000      -0.910532       -24.7768
 109   2.0000      -0.897638       -24.4260
 110   2.0000      -0.889851       -24.2141
 111   2.0000      -0.877956       -23.8904
 112   2.0000      -0.868224       -23.6256
 113   2.0000      -0.859559       -23.3898
 114   2.0000      -0.855717       -23.2852
 115   2.0000      -0.849988       -23.1294
 116   2.0000      -0.847486       -23.0613
 117   2.0000      -0.841734       -22.9047
 118   2.0000      -0.839296       -22.8384
 119   2.0000      -0.837748       -22.7963
 120   2.0000      -0.825803       -22.4712
 121   2.0000      -0.822641       -22.3852
 122   2.0000      -0.794950       -21.6317
 123   2.0000      -0.788561       -21.4578
 124   2.0000      -0.777027       -21.1440
 125   2.0000      -0.764975       -20.8160
 126   2.0000      -0.760828       -20.7032
 127   2.0000      -0.758387       -20.6368
 128   2.0000      -0.744282       -20.2529
 129   2.0000      -0.724596       -19.7173
 130   2.0000      -0.712666       -19.3926
 131   2.0000      -0.708527       -19.2800
 132   2.0000      -0.702709       -19.1217
 133   2.0000      -0.693271       -18.8649
 134   2.0000      -0.690713       -18.7953
 135   2.0000      -0.681715       -18.5504
 136   2.0000      -0.676863       -18.4184
 137   2.0000      -0.672547       -18.3009
 138   2.0000      -0.666046       -18.1240
 139   2.0000      -0.663906       -18.0658
 140   2.0000      -0.657305       -17.8862
 141   2.0000      -0.654594       -17.8124
 142   2.0000      -0.643437       -17.5088
 143   2.0000      -0.631417       -17.1817
 144   2.0000      -0.628968       -17.1151
 145   2.0000      -0.624595       -16.9961
 146   2.0000      -0.620839       -16.8939
 147   2.0000      -0.616728       -16.7820
 148   2.0000      -0.616187       -16.7673
 149   2.0000      -0.607604       -16.5337
 150   2.0000      -0.605270       -16.4702
 151   2.0000      -0.603900       -16.4330
 152   2.0000      -0.598921       -16.2975
 153   2.0000      -0.588684       -16.0189
 154   2.0000      -0.574262       -15.6265
 155   2.0000      -0.570225       -15.5166
 156   2.0000      -0.564321       -15.3560
 157   2.0000      -0.563553       -15.3351
 158   2.0000      -0.557355       -15.1664
 159   2.0000      -0.556589       -15.1456
 160   2.0000      -0.545959       -14.8563
 161   2.0000      -0.542988       -14.7755
 162   2.0000      -0.538293       -14.6477
 163   2.0000      -0.534360       -14.5407
 164   2.0000      -0.532071       -14.4784
 165   2.0000      -0.530319       -14.4307
 166   2.0000      -0.526918       -14.3382
 167   2.0000      -0.523922       -14.2566
 168   2.0000      -0.522294       -14.2123
 169   2.0000      -0.519318       -14.1314
 170   2.0000      -0.515579       -14.0296
 171   2.0000      -0.512990       -13.9592
 172   2.0000      -0.510924       -13.9030
 173   2.0000      -0.506960       -13.7951
 174   2.0000      -0.505210       -13.7475
 175   2.0000      -0.502105       -13.6630
 176   2.0000      -0.501682       -13.6515
 177   2.0000      -0.497302       -13.5323
 178   2.0000      -0.493788       -13.4367
 179   2.0000      -0.491418       -13.3722
 180   2.0000      -0.489177       -13.3112
 181   2.0000      -0.488161       -13.2835
 182   2.0000      -0.484595       -13.1865
 183   2.0000      -0.481702       -13.1078
 184   2.0000      -0.480897       -13.0859
 185   2.0000      -0.478830       -13.0296
 186   2.0000      -0.478132       -13.0106
 187   2.0000      -0.475563       -12.9407
 188   2.0000      -0.469926       -12.7873
 189   2.0000      -0.468060       -12.7366
 190   2.0000      -0.459812       -12.5121
 191   2.0000      -0.459657       -12.5079
 192   2.0000      -0.458955       -12.4888
 193   2.0000      -0.456094       -12.4109
 194   2.0000      -0.455937       -12.4067
 195   2.0000      -0.452976       -12.3261
 196   2.0000      -0.450631       -12.2623
 197   2.0000      -0.450269       -12.2524
 198   2.0000      -0.449096       -12.2205
 199   2.0000      -0.445437       -12.1210
 200   2.0000      -0.442011       -12.0277
 201   2.0000      -0.441637       -12.0176
 202   2.0000      -0.438867       -11.9422
 203   2.0000      -0.437938       -11.9169
 204   2.0000      -0.432555       -11.7704
 205   2.0000      -0.429529       -11.6881
 206   2.0000      -0.428848       -11.6695
 207   2.0000      -0.427912       -11.6441
 208   2.0000      -0.426228       -11.5983
 209   2.0000      -0.425657       -11.5827
 210   2.0000      -0.422975       -11.5097
 211   2.0000      -0.417862       -11.3706
 212   2.0000      -0.415169       -11.2973
 213   2.0000      -0.413575       -11.2539
 214   2.0000      -0.410850       -11.1798
 215   2.0000      -0.405686       -11.0393
 216   2.0000      -0.383677       -10.4404
 217   2.0000      -0.381562       -10.3828
 218   2.0000      -0.380498       -10.3539
 219   2.0000      -0.372419       -10.1340
 220   2.0000      -0.367064        -9.9883
 221   2.0000      -0.348604        -9.4860
 222   2.0000      -0.342194        -9.3116
 223   2.0000      -0.340896        -9.2763
 224   2.0000      -0.333655        -9.0792
 225   2.0000      -0.333499        -9.0750
 226   2.0000      -0.329548        -8.9674
 227   2.0000      -0.329263        -8.9597
 228   2.0000      -0.327203        -8.9036
 229   2.0000      -0.319597        -8.6967
 230   2.0000      -0.318204        -8.6588
 231   2.0000      -0.316682        -8.6174
 232   2.0000      -0.314858        -8.5677
 233   2.0000      -0.307956        -8.3799
 234   2.0000      -0.291812        -7.9406
 235   2.0000      -0.277046        -7.5388
 236   2.0000      -0.263066        -7.1584
 237   2.0000      -0.256606        -6.9826
 238   0.0000      -0.102145        -2.7795
 239   0.0000      -0.089205        -2.4274
 240   0.0000      -0.054365        -1.4793
 241   0.0000      -0.044568        -1.2127
 242   0.0000      -0.028594        -0.7781

MULLIKEN ATOMIC CHARGES
-----------------------
   0 C :   -0.084890
   1 C :    0.033709
   2 C :   -0.032967
   3 C :   -0.117153
   4 S :    0.173606
   5 C :   -0.103634
   6 C :   -0.004681
   7 C :    0.304931
   8 C :   -0.301912
   9 C :   -0.184604
  10 N :    0.170023
  11 C :   -0.194864
  12 N :    0.167709
  13 C :   -0.014200
  14 C :   -0.095267
  15 S :    0.173965
  16 C :    0.099112
  17 C :    0.042890
  18 O :   -0.168496
  19 C :    0.084728
  20 C :   -0.064422
  21 C :    0.161372
  22 O :   -0.173963
  23 C :   -0.168634
  24 C :    0.037652
  25 C :    0.001735
  26 C :   -0.037430
  27 S :    0.230080
  28 C :   -0.049983
  29 N :   -0.073210
  30 C :    0.086400
  31 C :   -0.044546
  32 C :    0.053432
  33 N :   -0.065734
  34 C :   -0.013051
  35 C :    0.027465
  36 C :    0.080616
  37 C :    0.080041
  38 O :   -0.159513
  39 C :    0.084456
  40 C :   -0.058683
  41 C :    0.193311
  42 O :   -0.187049
  43 C :   -0.177567
  44 C :    0.042592
  45 C :   -0.035623
  46 C :   -0.048364
  47 S :    0.189564
  48 C :   -0.034810
  49 C :   -0.055173
  50 C :    0.008698
  51 C :   -0.099792
  52 S :    0.182783
  53 C :   -0.119110
  54 C :   -0.028994
  55 C :    0.298346
  56 C :   -0.294680
  57 C :   -0.191489
  58 N :    0.173391
  59 C :   -0.189791
  60 N :    0.177206
  61 C :    0.036340
  62 C :   -0.081727
  63 S :    0.181908
  64 H :    0.032055
  65 H :    0.009534
  66 H :    0.014716
  67 H :    0.009642
  68 H :    0.018859
  69 H :   -0.007928
  70 H :   -0.004527
  71 H :    0.004345
  72 H :   -0.001778
  73 H :   -0.008319
  74 H :    0.004506
  75 H :    0.022475
  76 H :    0.023401
  77 H :    0.003231
  78 H :   -0.008752
  79 H :    0.016629
  80 H :    0.012854
  81 H :    0.037003
Sum of atomic charges:   -0.0000000

LOEWDIN ATOMIC CHARGES
----------------------
   0 C :   -0.183340
   1 C :   -0.035041
   2 C :   -0.079892
   3 C :   -0.181795
   4 S :    0.471726
   5 C :   -0.185382
   6 C :   -0.070827
   7 C :    0.085625
   8 C :   -0.106462
   9 C :   -0.016874
  10 N :   -0.034084
  11 C :   -0.016090
  12 N :   -0.040540
  13 C :   -0.020615
  14 C :   -0.158873
  15 S :    0.468340
  16 C :   -0.071762
  17 C :    0.026356
  18 O :    0.034481
  19 C :    0.051849
  20 C :   -0.091444
  21 C :    0.054289
  22 O :   -0.156169
  23 C :   -0.223125
  24 C :   -0.033908
  25 C :   -0.041227
  26 C :   -0.172155
  27 S :    0.519466
  28 C :    0.012587
  29 N :   -0.096345
  30 C :    0.051594
  31 C :   -0.064078
  32 C :    0.044347
  33 N :   -0.095830
  34 C :   -0.041130
  35 C :    0.021776
  36 C :   -0.056282
  37 C :    0.050870
  38 O :    0.040453
  39 C :    0.057345
  40 C :   -0.098609
  41 C :    0.060764
  42 O :   -0.159463
  43 C :   -0.216695
  44 C :   -0.029965
  45 C :   -0.075736
  46 C :   -0.171560
  47 S :    0.487471
  48 C :   -0.181610
  49 C :   -0.028332
  50 C :   -0.070973
  51 C :   -0.177029
  52 S :    0.478575
  53 C :   -0.186281
  54 C :   -0.074751
  55 C :    0.082117
  56 C :   -0.101535
  57 C :   -0.016589
  58 N :   -0.032270
  59 C :   -0.018279
  60 N :   -0.030102
  61 C :   -0.033864
  62 C :   -0.176683
  63 S :    0.477581
  64 H :    0.025777
  65 H :    0.041466
  66 H :    0.039586
  67 H :    0.022020
  68 H :    0.027814
  69 H :    0.030202
  70 H :    0.035015
  71 H :    0.026187
  72 H :    0.035580
  73 H :    0.027771
  74 H :    0.036328
  75 H :    0.030083
  76 H :    0.027603
  77 H :    0.035197
  78 H :    0.025466
  79 H :    0.039013
  80 H :    0.042897
  81 H :    0.027982

  Mayer bond orders larger than 0.100000
B(  0-C ,  1-C ) :   1.5519 B(  0-C ,  4-S ) :   1.1459 B(  0-C , 64-H ) :   0.9644
B(  1-C ,  2-C ) :   1.2750 B(  1-C , 65-H ) :   0.9966 B(  2-C ,  3-C ) :   1.4674
B(  2-C ,  7-C ) :   1.0104 B(  3-C ,  4-S ) :   1.1377 B(  3-C ,  5-C ) :   1.1702
B(  5-C ,  6-C ) :   1.4726 B(  5-C , 15-S ) :   1.1203 B(  6-C ,  7-C ) :   0.9955
B(  6-C , 13-C ) :   1.2721 B(  7-C ,  8-C ) :   1.7073 B(  8-C ,  9-C ) :   1.1342
B(  8-C , 11-C ) :   1.1311 B(  9-C , 10-N ) :   2.9859 B( 11-C , 12-N ) :   3.0037
B( 13-C , 14-C ) :   1.5226 B( 13-C , 66-H ) :   0.9830 B( 14-C , 15-S ) :   1.1101
B( 14-C , 16-C ) :   1.0506 B( 16-C , 17-C ) :   1.5117 B( 16-C , 20-C ) :   1.2697
B( 17-C , 18-O ) :   1.1495 B( 17-C , 67-H ) :   1.0062 B( 18-O , 19-C ) :   1.1731
B( 19-C , 20-C ) :   1.5443 B( 19-C , 68-H ) :   1.0061 B( 20-C , 21-C ) :   0.9051
B( 21-C , 22-O ) :   2.2255 B( 21-C , 23-C ) :   0.9931 B( 23-C , 24-C ) :   1.4911
B( 23-C , 26-C ) :   0.1193 B( 23-C , 27-S ) :   1.1330 B( 24-C , 25-C ) :   1.2607
B( 24-C , 69-H ) :   0.9879 B( 25-C , 26-C ) :   1.5219 B( 25-C , 70-H ) :   1.0024
B( 26-C , 27-S ) :   1.1799 B( 26-C , 28-C ) :   0.9896 B( 28-C , 29-N ) :   1.5963
B( 28-C , 33-N ) :   1.6062 B( 29-N , 30-C ) :   1.5292 B( 30-C , 31-C ) :   1.3806
B( 30-C , 71-H ) :   0.9789 B( 31-C , 32-C ) :   1.3300 B( 31-C , 72-H ) :   0.9750
B( 32-C , 33-N ) :   1.5062 B( 32-C , 34-C ) :   1.0694 B( 34-C , 35-C ) :   1.7437
B( 34-C , 73-H ) :   0.9641 B( 35-C , 36-C ) :   1.0776 B( 35-C , 74-H ) :   0.9624
B( 36-C , 37-C ) :   1.5065 B( 36-C , 40-C ) :   1.2059 B( 37-C , 38-O ) :   1.1474
B( 37-C , 75-H ) :   1.0029 B( 38-O , 39-C ) :   1.1857 B( 39-C , 40-C ) :   1.5260
B( 39-C , 76-H ) :   1.0019 B( 40-C , 41-C ) :   0.9312 B( 41-C , 42-O ) :   2.1769
B( 41-C , 43-C ) :   0.9735 B( 43-C , 44-C ) :   1.5153 B( 43-C , 46-C ) :   0.1079
B( 43-C , 47-S ) :   1.1197 B( 44-C , 45-C ) :   1.2770 B( 44-C , 77-H ) :   0.9929
B( 45-C , 46-C ) :   1.4863 B( 45-C , 78-H ) :   0.9940 B( 46-C , 47-S ) :   1.1616
B( 46-C , 48-C ) :   1.1454 B( 48-C , 49-C ) :   1.4760 B( 48-C , 52-S ) :   1.1052
B( 49-C , 50-C ) :   1.2878 B( 49-C , 79-H ) :   0.9918 B( 50-C , 51-C ) :   1.4638
B( 50-C , 55-C ) :   0.9933 B( 51-C , 52-S ) :   1.1301 B( 51-C , 53-C ) :   1.1792
B( 53-C , 54-C ) :   1.4598 B( 53-C , 63-S ) :   1.1357 B( 54-C , 55-C ) :   1.0141
B( 54-C , 61-C ) :   1.2775 B( 55-C , 56-C ) :   1.7134 B( 56-C , 57-C ) :   1.1310
B( 56-C , 59-C ) :   1.1303 B( 57-C , 58-N ) :   3.0019 B( 59-C , 60-N ) :   2.9961
B( 61-C , 62-C ) :   1.5488 B( 61-C , 80-H ) :   0.9961 B( 62-C , 63-S ) :   1.1513
B( 62-C , 81-H ) :   0.9642

-----------------------------------------------------------------------------
         ABSORPTION SPECTRUM VIA TRANSITION ELECTRIC DIPOLE MOMENTS
-----------------------------------------------------------------------------
State   Energy  Wavelength   fosc         T2         TX        TY        TZ
        (cm-1)    (nm)                  (au**2)     (au)      (au)      (au)
-----------------------------------------------------------------------------
   0   14993.1    667.0   0.057946576   1.27236  -0.29849  -0.85164   0.67674
   1   15425.5    648.3   0.036645449   0.78209   0.22682  -0.65823  -0.54532
   2   28371.0    352.5   1.218751805  14.14220   0.73435   3.07336  -2.03897
   3   28629.6    349.3   0.024633744   0.28326  -0.16366  -0.49337   0.11432
   4   28726.0    348.1   0.004113129   0.04714  -0.07520  -0.20350   0.00848
   5   29279.6    341.5   0.003529429   0.03968   0.12655  -0.02466  -0.15186
   6   29891.9    334.5   0.018598446   0.20483   0.21257  -0.21841  -0.33458
   7   30160.1    331.6   0.059184370   0.64603   0.25993   0.55569  -0.51930
   8   31158.9    320.9   0.048967388   0.51737  -0.38553   0.23481   0.56000
   9   31840.8    314.1   0.015641386   0.16172  -0.24655  -0.25746   0.18614
  10   31912.0    313.4   0.244245105   2.51969   0.90067   1.16840  -0.58595
  11   32000.5    312.5   0.703566570   7.23808   1.56749  -1.12906  -1.87251
  12   32098.1    311.5   0.074559066   0.76471  -0.80409  -0.25081   0.23505
  13   32149.5    311.0   0.222755117   2.28102  -0.54527  -0.83799   1.13203
  14   33064.3    302.4   0.129225017   1.28666  -0.27963  -1.00201   0.45215
  15   33252.9    300.7   0.195698095   1.93746  -0.42997  -1.15424   0.64832
  16   33696.9    296.8   0.193411877   1.88959   0.16467   1.19292  -0.66289
  17   33809.8    295.8   0.104771978   1.02018  -0.06006   0.90056   0.45340
  18   34043.8    293.7   0.003744074   0.03621   0.15246   0.11370  -0.00590
  19   34196.2    292.4   0.021806211   0.20993   0.08702  -0.38601  -0.23099
  20   34730.8    287.9   0.005728790   0.05430   0.00949  -0.03764  -0.22977
  21   35130.1    284.7   0.054071162   0.50671   0.35991  -0.33351  -0.51570
  22   35339.6    283.0   0.607279172   5.65721   0.59377   2.07651  -0.99637
  23   35688.7    280.2   0.006224080   0.05741   0.03106   0.18223   0.15246
  24   35837.8    279.0   0.045960754   0.42220   0.44190  -0.33737  -0.33632
  25   35975.0    278.0   0.003804293   0.03481  -0.11484  -0.04890   0.13869
  26   36539.0    273.7   0.194817475   1.75528   0.81296   0.53050  -0.90163
  27   36868.6    271.2   0.482200088   4.30572  -0.74153  -1.17257  -1.54303
  28   37307.2    268.0   0.010667755   0.09414  -0.12908  -0.19296  -0.20060
  29   38200.5    261.8   0.022890529   0.19727  -0.12427   0.25784  -0.33962
  30   38557.1    259.4   0.028236987   0.24110  -0.08339  -0.46567   0.13151
  31   39091.8    255.8   0.964757573   8.12472   0.79999  -1.71527  -2.13133
  32   39197.9    255.1   0.002370626   0.01991  -0.00676  -0.07781  -0.11752
  33   39423.0    253.7   0.049313229   0.41180  -0.07849   0.43790   0.46248
  34   39733.7    251.7   0.004486199   0.03717   0.18663   0.04239   0.02326
  35   39745.5    251.6   0.032420786   0.26854  -0.44039  -0.24493  -0.12085
  36   39789.5    251.3   0.074795875   0.61885   0.72219  -0.03239   0.31024
  37   39971.9    250.2   0.002200935   0.01813   0.00118   0.00615   0.13449
  38   40101.7    249.4   0.004244659   0.03485  -0.18325   0.03403   0.01045
  39   40306.9    248.1   0.000107345   0.00088   0.02956  -0.00144  -0.00091

FINAL SINGLE POINT ENERGY     -4854.517817650238

DIPOLE MOMENT
-------------
                                X             Y             Z
Electronic contribution:      1.80543       0.98961      10.12259
Nuclear contribution   :     -2.83557       0.23486      -8.89171
                        -----------------------------------------
Total Dipole Moment    :     -1.03013       1.22446       1.23088
                        -----------------------------------------
Magnitude (a.u.)       :      2.01880
Magnitude (Debye)      :      5.13139

Rotational constants in cm-1:     0.002206     0.000235     0.000218
Rotational constants in MHz :    66.137202     7.055542     6.521521

                             ****ORCA TERMINATED NORMALLY****
TOTAL RUN TIME: 0 days 0 hours 6 minutes 8 seconds 879 msec
