                         Program Version 4.2.0 -  RELEASE  -
|  1> # ORCA input file
|  2> # SCF done       -167.311853700405          0.000495066491
|  3> ! CAM-B3LYP def2-SVP def2/J RIJCOSX Grid4 TightSCF
|  4> %maxcore 5000
|  5> %tddft
|  6>     Mode sTDDFT
|  7>     Ethresh 5.0
|  8>     maxcore 5000
|  9> end
| 10>
| 11> %pal
| 12>   nprocs 6
| 13>   end
| 14> * xyz 0 1
| 15>    C       -0.63882        -3.00547         1.79456
| 16>    C       -0.87136        -2.72581         0.48281
| 17>    C       -0.97910        -1.33898         0.26468
| 18>    C       -0.82104        -0.59637         1.44441
| 19>    S       -0.54414        -1.59538         2.80165
| 20>    C       -0.94271         0.78563         1.14026
| 21>    C       -1.17944         0.90785        -0.24054
| 22>    C       -1.20959        -0.42339        -0.83405
| 23>    C       -1.41202        -0.73255        -2.14885
| 24>    C       -1.62824         0.25221        -3.13460
| 25>    N       -1.80691         1.03664        -3.95236
| 26>    C       -1.41891        -2.06348        -2.61359
| 27>    N       -1.42602        -3.14426        -2.99833
| 28>    C       -1.31491         2.22638        -0.65384
| 29>    C       -1.18105         3.12225         0.39957
| 30>    S       -0.88611         2.30055         1.92876
| 31>    C       -1.25203         4.54109         0.37273
| 32>    C       -1.47056         5.31448        -0.79969
| 33>    C       -1.57134         6.75004        -0.76516
| 34>    N       -1.68473         7.41917        -1.92985
| 35>    C       -1.76006         6.75665        -3.05324
| 36>    C       -1.74431         5.35361        -3.07505
| 37>    N       -1.58541         4.66986        -1.97626
| 38>    C       -1.50280         7.48854         0.45407
| 39>    C       -1.20629         6.71651         1.59858
| 40>    C       -1.09738         5.28181         1.55983
| 41>    N       -0.84692         4.76905         2.76480
| 42>    S       -0.74815         5.96190         3.83983
| 43>    N       -1.02431         7.18623         2.83251
| 44>    C       -1.69619         8.90142         0.55766
| 45>    C       -2.30287         9.65172        -0.43406
| 46>    C       -2.47868        11.02636        -0.42266
| 47>    C       -2.09575        11.82490         0.74308
| 48>    C       -1.51228        11.30199         1.84469
| 49>    S       -1.14394         9.64117         2.05591
| 50>    C       -2.50711        13.15485         0.45356
| 51>    C       -3.11272        13.19321        -0.80329
| 52>    C       -3.54696        14.49459        -1.14579
| 53>    C       -3.26928        15.38723        -0.16182
| 54>    S       -2.47088        14.69402         1.21363
| 55>    C       -3.08715        11.87921        -1.38469
| 56>    C       -3.59254        11.61518        -2.67341
| 57>    C       -3.37275        10.50981        -3.44346
| 58>    C       -3.96040        10.29646        -4.70850
| 59>    C       -4.88702        11.06680        -5.40269
| 60>    C       -5.24628        10.49666        -6.61761
| 61>    C       -4.59642         9.27391        -6.87229
| 62>    S       -3.53841         8.83685        -5.60568
| 63>    C       -5.04267         8.77480        -8.11717
| 64>    C       -5.97776         9.67769        -8.65466
| 65>    C       -6.13467        10.78831        -7.73661
| 66>    C       -6.94246        11.87944        -7.88230
| 67>    C       -7.77193        12.06133        -9.00793
| 68>    N       -8.45334        12.22265        -9.91666
| 69>    C       -6.99931        12.90184        -6.91354
| 70>    N       -7.04459        13.73608        -6.12711
| 71>    C       -6.48816         9.26696        -9.88864
| 72>    C       -5.95090         8.06149       -10.29440
| 73>    S       -4.79320         7.42322        -9.13433
| 74>    C       -6.23773         7.33955       -11.48513
| 75>    C       -7.13453         7.67741       -12.49151
| 76>    O       -7.86270         8.81489       -12.40947
| 77>    C       -8.76459         9.09561       -13.45663
| 78>    C       -7.16628         6.72031       -13.53222
| 79>    C       -6.31356         5.68270       -13.31868
| 80>    S       -5.44635         5.83350       -11.85038
| 81>    H       -0.51349        -3.96749         2.24960
| 82>    H       -0.95940        -3.47643        -0.28133
| 83>    H       -1.49942         2.55952        -1.65755
| 84>    H       -1.82266         7.34271        -3.96017
| 85>    H       -1.83834         4.78704        -3.99072
| 86>    H       -2.67403         9.08830        -1.27309
| 87>    H       -1.25089        11.90927         2.69746
| 88>    H       -4.03842        14.76058        -2.06399
| 89>    H       -3.48372        16.43789        -0.14694
| 90>    H       -4.19378        12.41197        -3.09236
| 91>    H       -2.69147         9.74337        -3.10819
| 92>    H       -5.27778        11.99385        -5.02653
| 93>    H       -7.21182         9.80263       -10.47200
| 94>    H       -9.23811        10.03797       -13.18688
| 95>    H       -9.52759         8.31635       -13.54575
| 96>    H       -8.24376         9.20970       -14.41215
| 97>    H       -7.79190         6.79325       -14.40265
| 98>    H       -6.14507         4.83137       -13.94695
| 99> *
|100>
|101>                          ****END OF INPUT****

CARTESIAN COORDINATES (ANGSTROEM)
---------------------------------
  C     -0.638820   -3.005470    1.794560
  C     -0.871360   -2.725810    0.482810
  C     -0.979100   -1.338980    0.264680
  C     -0.821040   -0.596370    1.444410
  S     -0.544140   -1.595380    2.801650
  C     -0.942710    0.785630    1.140260
  C     -1.179440    0.907850   -0.240540
  C     -1.209590   -0.423390   -0.834050
  C     -1.412020   -0.732550   -2.148850
  C     -1.628240    0.252210   -3.134600
  N     -1.806910    1.036640   -3.952360
  C     -1.418910   -2.063480   -2.613590
  N     -1.426020   -3.144260   -2.998330
  C     -1.314910    2.226380   -0.653840
  C     -1.181050    3.122250    0.399570
  S     -0.886110    2.300550    1.928760
  C     -1.252030    4.541090    0.372730
  C     -1.470560    5.314480   -0.799690
  C     -1.571340    6.750040   -0.765160
  N     -1.684730    7.419170   -1.929850
  C     -1.760060    6.756650   -3.053240
  C     -1.744310    5.353610   -3.075050
  N     -1.585410    4.669860   -1.976260
  C     -1.502800    7.488540    0.454070
  C     -1.206290    6.716510    1.598580
  C     -1.097380    5.281810    1.559830
  N     -0.846920    4.769050    2.764800
  S     -0.748150    5.961900    3.839830
  N     -1.024310    7.186230    2.832510
  C     -1.696190    8.901420    0.557660
  C     -2.302870    9.651720   -0.434060
  C     -2.478680   11.026360   -0.422660
  C     -2.095750   11.824900    0.743080
  C     -1.512280   11.301990    1.844690
  S     -1.143940    9.641170    2.055910
  C     -2.507110   13.154850    0.453560
  C     -3.112720   13.193210   -0.803290
  C     -3.546960   14.494590   -1.145790
  C     -3.269280   15.387230   -0.161820
  S     -2.470880   14.694020    1.213630
  C     -3.087150   11.879210   -1.384690
  C     -3.592540   11.615180   -2.673410
  C     -3.372750   10.509810   -3.443460
  C     -3.960400   10.296460   -4.708500
  C     -4.887020   11.066800   -5.402690
  C     -5.246280   10.496660   -6.617610
  C     -4.596420    9.273910   -6.872290
  S     -3.538410    8.836850   -5.605680
  C     -5.042670    8.774800   -8.117170
  C     -5.977760    9.677690   -8.654660
  C     -6.134670   10.788310   -7.736610
  C     -6.942460   11.879440   -7.882300
  C     -7.771930   12.061330   -9.007930
  N     -8.453340   12.222650   -9.916660
  C     -6.999310   12.901840   -6.913540
  N     -7.044590   13.736080   -6.127110
  C     -6.488160    9.266960   -9.888640
  C     -5.950900    8.061490  -10.294400
  S     -4.793200    7.423220   -9.134330
  C     -6.237730    7.339550  -11.485130
  C     -7.134530    7.677410  -12.491510
  O     -7.862700    8.814890  -12.409470
  C     -8.764590    9.095610  -13.456630
  C     -7.166280    6.720310  -13.532220
  C     -6.313560    5.682700  -13.318680
  S     -5.446350    5.833500  -11.850380
  H     -0.513490   -3.967490    2.249600
  H     -0.959400   -3.476430   -0.281330
  H     -1.499420    2.559520   -1.657550
  H     -1.822660    7.342710   -3.960170
  H     -1.838340    4.787040   -3.990720
  H     -2.674030    9.088300   -1.273090
  H     -1.250890   11.909270    2.697460
  H     -4.038420   14.760580   -2.063990
  H     -3.483720   16.437890   -0.146940
  H     -4.193780   12.411970   -3.092360
  H     -2.691470    9.743370   -3.108190
  H     -5.277780   11.993850   -5.026530
  H     -7.211820    9.802630  -10.472000
  H     -9.238110   10.037970  -13.186880
  H     -9.527590    8.316350  -13.545750
  H     -8.243760    9.209700  -14.412150
  H     -7.791900    6.793250  -14.402650
  H     -6.145070    4.831370  -13.946950

 Total Charge           Charge          ....    0
 Multiplicity           Mult            ....    1
 Number of Electrons    NEL             ....  504
 Basis Dimension        Dim             .... 1046

ORBITAL ENERGIES
----------------

  NO   OCC          E(Eh)            E(eV)
   0   2.0000     -89.038794     -2422.8687
   1   2.0000     -88.977666     -2421.2054
   2   2.0000     -88.975965     -2421.1591
   3   2.0000     -88.973814     -2421.1006
   4   2.0000     -88.970146     -2421.0008
   5   2.0000     -88.961824     -2420.7743
   6   2.0000     -88.958014     -2420.6706
   7   2.0000     -88.950897     -2420.4770
   8   2.0000     -19.253027      -523.9015
   9   2.0000     -14.448442      -393.1621
  10   2.0000     -14.447249      -393.1296
  11   2.0000     -14.433695      -392.7608
  12   2.0000     -14.429611      -392.6497
  13   2.0000     -14.420203      -392.3937
  14   2.0000     -14.419405      -392.3719
  15   2.0000     -14.418708      -392.3530
  16   2.0000     -14.418539      -392.3484
  17   2.0000     -10.351574      -281.6806
  18   2.0000     -10.349859      -281.6340
  19   2.0000     -10.339333      -281.3475
  20   2.0000     -10.338593      -281.3274
  21   2.0000     -10.336029      -281.2577
  22   2.0000     -10.334725      -281.2222
  23   2.0000     -10.332707      -281.1672
  24   2.0000     -10.332308      -281.1564
  25   2.0000     -10.330245      -281.1003
  26   2.0000     -10.326980      -281.0114
  27   2.0000     -10.326033      -280.9857
  28   2.0000     -10.325695      -280.9764
  29   2.0000     -10.321197      -280.8541
  30   2.0000     -10.320220      -280.8275
  31   2.0000     -10.319819      -280.8166
  32   2.0000     -10.319532      -280.8087
  33   2.0000     -10.319191      -280.7995
  34   2.0000     -10.316440      -280.7246
  35   2.0000     -10.316191      -280.7178
  36   2.0000     -10.314708      -280.6775
  37   2.0000     -10.314325      -280.6670
  38   2.0000     -10.311673      -280.5949
  39   2.0000     -10.310130      -280.5529
  40   2.0000     -10.309076      -280.5242
  41   2.0000     -10.308968      -280.5213
  42   2.0000     -10.308420      -280.5064
  43   2.0000     -10.304289      -280.3939
  44   2.0000     -10.302738      -280.3517
  45   2.0000     -10.299272      -280.2574
  46   2.0000     -10.298047      -280.2241
  47   2.0000     -10.291180      -280.0372
  48   2.0000     -10.288847      -279.9738
  49   2.0000     -10.288678      -279.9692
  50   2.0000     -10.288282      -279.9584
  51   2.0000     -10.286928      -279.9215
  52   2.0000     -10.284954      -279.8678
  53   2.0000     -10.284884      -279.8659
  54   2.0000     -10.284236      -279.8483
  55   2.0000     -10.283275      -279.8221
  56   2.0000     -10.282374      -279.7976
  57   2.0000     -10.278099      -279.6813
  58   2.0000     -10.278094      -279.6812
  59   2.0000     -10.277827      -279.6739
  60   2.0000     -10.277676      -279.6698
  61   2.0000     -10.276939      -279.6497
  62   2.0000     -10.275747      -279.6173
  63   2.0000     -10.273754      -279.5630
  64   2.0000     -10.269612      -279.4503
  65   2.0000     -10.266779      -279.3732
  66   2.0000      -8.129680      -221.2198
  67   2.0000      -8.072677      -219.6687
  68   2.0000      -8.070381      -219.6062
  69   2.0000      -8.068528      -219.5558
  70   2.0000      -8.063283      -219.4131
  71   2.0000      -8.056286      -219.2227
  72   2.0000      -8.053893      -219.1576
  73   2.0000      -8.046404      -218.9538
  74   2.0000      -6.100831      -166.0121
  75   2.0000      -6.093220      -165.8049
  76   2.0000      -6.092250      -165.7785
  77   2.0000      -6.041901      -164.4085
  78   2.0000      -6.039602      -164.3459
  79   2.0000      -6.037851      -164.2983
  80   2.0000      -6.037511      -164.2890
  81   2.0000      -6.035538      -164.2353
  82   2.0000      -6.035303      -164.2289
  83   2.0000      -6.033672      -164.1845
  84   2.0000      -6.032798      -164.1608
  85   2.0000      -6.032701      -164.1581
  86   2.0000      -6.030765      -164.1055
  87   2.0000      -6.028118      -164.0334
  88   2.0000      -6.025851      -163.9717
  89   2.0000      -6.025749      -163.9690
  90   2.0000      -6.023324      -163.9030
  91   2.0000      -6.021077      -163.8418
  92   2.0000      -6.019037      -163.7863
  93   2.0000      -6.018256      -163.7651
  94   2.0000      -6.015869      -163.7001
  95   2.0000      -6.015868      -163.7001
  96   2.0000      -6.011627      -163.5847
  97   2.0000      -6.008354      -163.4956
  98   2.0000      -1.156655       -31.4742
  99   2.0000      -1.135603       -30.9013
 100   2.0000      -1.089322       -29.6420
 101   2.0000      -1.029286       -28.0083
 102   2.0000      -1.029097       -28.0032
 103   2.0000      -1.014832       -27.6150
 104   2.0000      -1.010449       -27.4957
 105   2.0000      -1.009254       -27.4632
 106   2.0000      -0.999318       -27.1928
 107   2.0000      -0.997249       -27.1365
 108   2.0000      -0.996143       -27.1064
 109   2.0000      -0.994457       -27.0605
 110   2.0000      -0.989117       -26.9152
 111   2.0000      -0.981388       -26.7049
 112   2.0000      -0.972879       -26.4734
 113   2.0000      -0.967423       -26.3249
 114   2.0000      -0.952071       -25.9072
 115   2.0000      -0.944387       -25.6981
 116   2.0000      -0.940211       -25.5845
 117   2.0000      -0.919965       -25.0335
 118   2.0000      -0.904576       -24.6148
 119   2.0000      -0.898368       -24.4458
 120   2.0000      -0.886293       -24.1173
 121   2.0000      -0.877327       -23.8733
 122   2.0000      -0.871005       -23.7013
 123   2.0000      -0.857876       -23.3440
 124   2.0000      -0.855549       -23.2807
 125   2.0000      -0.845085       -22.9959
 126   2.0000      -0.843339       -22.9484
 127   2.0000      -0.841347       -22.8942
 128   2.0000      -0.836386       -22.7592
 129   2.0000      -0.832946       -22.6656
 130   2.0000      -0.828005       -22.5312
 131   2.0000      -0.808789       -22.0083
 132   2.0000      -0.796229       -21.6665
 133   2.0000      -0.789929       -21.4951
 134   2.0000      -0.780337       -21.2341
 135   2.0000      -0.775126       -21.0922
 136   2.0000      -0.765509       -20.8306
 137   2.0000      -0.762261       -20.7422
 138   2.0000      -0.751085       -20.4381
 139   2.0000      -0.750547       -20.4234
 140   2.0000      -0.733062       -19.9476
 141   2.0000      -0.726310       -19.7639
 142   2.0000      -0.707592       -19.2545
 143   2.0000      -0.697776       -18.9875
 144   2.0000      -0.695340       -18.9212
 145   2.0000      -0.690214       -18.7817
 146   2.0000      -0.685401       -18.6507
 147   2.0000      -0.674571       -18.3560
 148   2.0000      -0.667792       -18.1715
 149   2.0000      -0.665257       -18.1026
 150   2.0000      -0.657962       -17.9041
 151   2.0000      -0.650995       -17.7145
 152   2.0000      -0.649366       -17.6701
 153   2.0000      -0.643747       -17.5173
 154   2.0000      -0.633323       -17.2336
 155   2.0000      -0.629896       -17.1403
 156   2.0000      -0.626771       -17.0553
 157   2.0000      -0.619807       -16.8658
 158   2.0000      -0.616806       -16.7841
 159   2.0000      -0.611596       -16.6424
 160   2.0000      -0.606992       -16.5171
 161   2.0000      -0.602969       -16.4076
 162   2.0000      -0.600164       -16.3313
 163   2.0000      -0.597882       -16.2692
 164   2.0000      -0.588253       -16.0072
 165   2.0000      -0.582408       -15.8481
 166   2.0000      -0.572779       -15.5861
 167   2.0000      -0.565331       -15.3834
 168   2.0000      -0.564941       -15.3728
 169   2.0000      -0.561673       -15.2839
 170   2.0000      -0.558846       -15.2070
 171   2.0000      -0.548033       -14.9127
 172   2.0000      -0.546120       -14.8607
 173   2.0000      -0.542966       -14.7749
 174   2.0000      -0.539281       -14.6746
 175   2.0000      -0.533339       -14.5129
 176   2.0000      -0.532571       -14.4920
 177   2.0000      -0.531698       -14.4683
 178   2.0000      -0.529254       -14.4017
 179   2.0000      -0.528486       -14.3808
 180   2.0000      -0.523300       -14.2397
 181   2.0000      -0.520819       -14.1722
 182   2.0000      -0.508677       -13.8418
 183   2.0000      -0.505952       -13.7677
 184   2.0000      -0.504653       -13.7323
 185   2.0000      -0.502424       -13.6717
 186   2.0000      -0.500789       -13.6272
 187   2.0000      -0.494886       -13.4665
 188   2.0000      -0.491566       -13.3762
 189   2.0000      -0.490698       -13.3526
 190   2.0000      -0.486419       -13.2361
 191   2.0000      -0.486068       -13.2266
 192   2.0000      -0.481725       -13.1084
 193   2.0000      -0.480130       -13.0650
 194   2.0000      -0.476603       -12.9690
 195   2.0000      -0.475094       -12.9280
 196   2.0000      -0.473185       -12.8760
 197   2.0000      -0.468979       -12.7616
 198   2.0000      -0.463542       -12.6136
 199   2.0000      -0.461886       -12.5686
 200   2.0000      -0.460161       -12.5216
 201   2.0000      -0.458421       -12.4743
 202   2.0000      -0.456755       -12.4289
 203   2.0000      -0.452325       -12.3084
 204   2.0000      -0.451432       -12.2841
 205   2.0000      -0.450023       -12.2458
 206   2.0000      -0.448630       -12.2079
 207   2.0000      -0.448015       -12.1911
 208   2.0000      -0.446315       -12.1448
 209   2.0000      -0.440743       -11.9932
 210   2.0000      -0.439936       -11.9713
 211   2.0000      -0.439126       -11.9492
 212   2.0000      -0.435488       -11.8502
 213   2.0000      -0.434682       -11.8283
 214   2.0000      -0.430943       -11.7266
 215   2.0000      -0.430407       -11.7120
 216   2.0000      -0.429550       -11.6887
 217   2.0000      -0.428611       -11.6631
 218   2.0000      -0.427221       -11.6253
 219   2.0000      -0.427032       -11.6201
 220   2.0000      -0.420599       -11.4451
 221   2.0000      -0.418602       -11.3907
 222   2.0000      -0.415884       -11.3168
 223   2.0000      -0.415613       -11.3094
 224   2.0000      -0.413800       -11.2601
 225   2.0000      -0.412239       -11.2176
 226   2.0000      -0.408307       -11.1106
 227   2.0000      -0.407306       -11.0834
 228   2.0000      -0.406479       -11.0608
 229   2.0000      -0.398610       -10.8467
 230   2.0000      -0.393416       -10.7054
 231   2.0000      -0.387266       -10.5380
 232   2.0000      -0.382513       -10.4087
 233   2.0000      -0.377943       -10.2843
 234   2.0000      -0.372988       -10.1495
 235   2.0000      -0.359967        -9.7952
 236   2.0000      -0.355584        -9.6759
 237   2.0000      -0.349907        -9.5215
 238   2.0000      -0.342563        -9.3216
 239   2.0000      -0.334326        -9.0975
 240   2.0000      -0.332061        -9.0358
 241   2.0000      -0.329983        -8.9793
 242   2.0000      -0.323639        -8.8067
 243   2.0000      -0.313513        -8.5311
 244   2.0000      -0.308029        -8.3819
 245   2.0000      -0.307187        -8.3590
 246   2.0000      -0.306193        -8.3319
 247   2.0000      -0.293972        -7.9994
 248   2.0000      -0.276440        -7.5223
 249   2.0000      -0.256978        -6.9927
 250   2.0000      -0.238058        -6.4779
 251   2.0000      -0.205168        -5.5829
 252   0.0000      -0.113601        -3.0912
 253   0.0000      -0.091065        -2.4780
 254   0.0000      -0.085763        -2.3337
 255   0.0000      -0.045986        -1.2513
 256   0.0000      -0.020478        -0.5572

MULLIKEN ATOMIC CHARGES
-----------------------
   0 C :   -0.084376
   1 C :    0.035414
   2 C :   -0.035633
   3 C :   -0.118801
   4 S :    0.174263
   5 C :   -0.074599
   6 C :    0.040240
   7 C :    0.308992
   8 C :   -0.310990
   9 C :   -0.184200
  10 N :    0.165600
  11 C :   -0.195252
  12 N :    0.165436
  13 C :   -0.065521
  14 C :   -0.185270
  15 S :    0.193699
  16 C :    0.189898
  17 C :   -0.064502
  18 C :   -0.063528
  19 N :   -0.063751
  20 C :    0.032375
  21 C :    0.050269
  22 N :   -0.028971
  23 C :    0.135733
  24 C :   -0.004078
  25 C :   -0.012609
  26 N :   -0.339460
  27 S :    0.542695
  28 N :   -0.325149
  29 C :   -0.143248
  30 C :   -0.040516
  31 C :    0.051142
  32 C :    0.058300
  33 C :   -0.117943
  34 S :    0.161228
  35 C :   -0.099140
  36 C :    0.044286
  37 C :    0.011768
  38 C :   -0.070154
  39 S :    0.123456
  40 C :    0.101124
  41 C :   -0.038272
  42 C :    0.022787
  43 C :   -0.064726
  44 C :   -0.040290
  45 C :    0.002648
  46 C :   -0.093234
  47 S :    0.138319
  48 C :   -0.097333
  49 C :    0.015321
  50 C :    0.307573
  51 C :   -0.308833
  52 C :   -0.187062
  53 N :    0.167664
  54 C :   -0.183458
  55 N :    0.162278
  56 C :   -0.071537
  57 C :   -0.050011
  58 S :    0.167993
  59 C :   -0.140711
  60 C :    0.205802
  61 O :   -0.312208
  62 C :    0.177711
  63 C :   -0.043353
  64 C :   -0.052010
  65 S :    0.123097
  66 H :    0.032475
  67 H :    0.011073
  68 H :    0.017275
  69 H :    0.011544
  70 H :    0.026393
  71 H :   -0.003664
  72 H :    0.029352
  73 H :   -0.011094
  74 H :    0.026643
  75 H :   -0.022586
  76 H :   -0.019529
  77 H :    0.003919
  78 H :    0.011665
  79 H :    0.052368
  80 H :    0.025204
  81 H :    0.024352
  82 H :   -0.014390
  83 H :    0.032618
Sum of atomic charges:   -0.0000000

LOEWDIN ATOMIC CHARGES
----------------------
   0 C :   -0.180751
   1 C :   -0.035488
   2 C :   -0.078285
   3 C :   -0.179301
   4 S :    0.470775
   5 C :   -0.188745
   6 C :   -0.077798
   7 C :    0.086444
   8 C :   -0.111902
   9 C :   -0.013570
  10 N :   -0.044346
  11 C :   -0.016770
  12 N :   -0.041993
  13 C :   -0.016194
  14 C :   -0.162477
  15 S :    0.503971
  16 C :   -0.053092
  17 C :   -0.005970
  18 C :   -0.006600
  19 N :   -0.033451
  20 C :    0.003445
  21 C :    0.019791
  22 N :   -0.022643
  23 C :   -0.049700
  24 C :   -0.049053
  25 C :   -0.049380
  26 N :   -0.310565
  27 S :    0.660224
  28 N :   -0.299788
  29 C :   -0.167106
  30 C :    0.006102
  31 C :   -0.025197
  32 C :   -0.057493
  33 C :   -0.146910
  34 S :    0.492317
  35 C :   -0.196255
  36 C :   -0.043996
  37 C :   -0.061250
  38 C :   -0.164470
  39 S :    0.417199
  40 C :   -0.037315
  41 C :   -0.011284
  42 C :   -0.056872
  43 C :   -0.158187
  44 C :   -0.032322
  45 C :   -0.069458
  46 C :   -0.187452
  47 S :    0.460898
  48 C :   -0.185944
  49 C :   -0.074433
  50 C :    0.087729
  51 C :   -0.108609
  52 C :   -0.014414
  53 N :   -0.040340
  54 C :   -0.014296
  55 N :   -0.042855
  56 C :   -0.036353
  57 C :   -0.170230
  58 S :    0.454475
  59 C :   -0.234938
  60 C :    0.022159
  61 O :   -0.091317
  62 C :    0.081551
  63 C :   -0.097679
  64 C :   -0.173930
  65 S :    0.431567
  66 H :    0.025872
  67 H :    0.041830
  68 H :    0.034865
  69 H :    0.012011
  70 H :    0.033257
  71 H :    0.032914
  72 H :    0.033901
  73 H :    0.032116
  74 H :    0.023374
  75 H :    0.030833
  76 H :    0.028551
  77 H :    0.037167
  78 H :    0.037421
  79 H :    0.035071
  80 H :    0.016595
  81 H :    0.016376
  82 H :    0.031399
  83 H :    0.026566

  Mayer bond orders larger than 0.100000
B(  0-C ,  1-C ) :   1.5474 B(  0-C ,  4-S ) :   1.1446 B(  0-C , 66-H ) :   0.9648
B(  1-C ,  2-C ) :   1.2756 B(  1-C , 67-H ) :   0.9958 B(  2-C ,  3-C ) :   1.4455
B(  2-C ,  7-C ) :   1.0165 B(  3-C ,  4-S ) :   1.1340 B(  3-C ,  5-C ) :   1.1919
B(  5-C ,  6-C ) :   1.4174 B(  5-C , 15-S ) :   1.0975 B(  6-C ,  7-C ) :   0.9937
B(  6-C , 13-C ) :   1.2507 B(  7-C ,  8-C ) :   1.6993 B(  8-C ,  9-C ) :   1.1407
B(  8-C , 11-C ) :   1.1304 B(  9-C , 10-N ) :   2.9900 B( 11-C , 12-N ) :   3.0022
B( 13-C , 14-C ) :   1.4165 B( 13-C , 68-H ) :   0.9832 B( 14-C , 15-S ) :   1.0990
B( 14-C , 16-C ) :   1.1875 B( 16-C , 17-C ) :   1.2677 B( 16-C , 23-C ) :   0.1202
B( 16-C , 25-C ) :   1.2051 B( 17-C , 18-C ) :   1.1248 B( 17-C , 22-N ) :   1.4732
B( 18-C , 19-N ) :   1.4424 B( 18-C , 23-C ) :   1.2497 B( 19-N , 20-C ) :   1.6340
B( 20-C , 21-C ) :   1.2035 B( 20-C , 69-H ) :   0.9648 B( 21-C , 22-N ) :   1.6606
B( 21-C , 70-H ) :   0.9758 B( 23-C , 24-C ) :   1.1843 B( 23-C , 29-C ) :   1.2056
B( 24-C , 25-C ) :   1.1209 B( 24-C , 28-N ) :   1.4679 B( 25-C , 26-N ) :   1.4688
B( 26-N , 27-S ) :   1.2568 B( 26-N , 28-N ) :   0.1517 B( 27-S , 28-N ) :   1.2699
B( 29-C , 30-C ) :   1.4495 B( 29-C , 34-S ) :   1.0635 B( 30-C , 31-C ) :   1.2813
B( 30-C , 71-H ) :   0.9558 B( 31-C , 32-C ) :   1.0630 B( 31-C , 40-C ) :   1.3044
B( 32-C , 33-C ) :   1.5791 B( 32-C , 35-C ) :   1.1751 B( 33-C , 34-S ) :   1.1464
B( 33-C , 72-H ) :   0.9416 B( 35-C , 36-C ) :   1.4257 B( 35-C , 39-S ) :   1.0775
B( 36-C , 37-C ) :   1.2085 B( 36-C , 40-C ) :   1.1210 B( 37-C , 38-C ) :   1.5996
B( 37-C , 73-H ) :   0.9971 B( 38-C , 39-S ) :   1.1437 B( 38-C , 74-H ) :   0.9656
B( 40-C , 41-C ) :   1.1947 B( 41-C , 42-C ) :   1.6110 B( 41-C , 75-H ) :   0.9608
B( 42-C , 43-C ) :   1.1424 B( 42-C , 76-H ) :   0.9586 B( 43-C , 44-C ) :   1.4351
B( 43-C , 47-S ) :   1.0941 B( 44-C , 45-C ) :   1.3134 B( 44-C , 77-H ) :   0.9883
B( 45-C , 46-C ) :   1.4338 B( 45-C , 50-C ) :   0.9895 B( 46-C , 47-S ) :   1.1112
B( 46-C , 48-C ) :   1.1941 B( 48-C , 49-C ) :   1.4395 B( 48-C , 58-S ) :   1.1128
B( 49-C , 50-C ) :   1.0059 B( 49-C , 56-C ) :   1.2426 B( 50-C , 51-C ) :   1.7044
B( 51-C , 52-C ) :   1.1369 B( 51-C , 54-C ) :   1.1344 B( 52-C , 53-N ) :   2.9942
B( 54-C , 55-N ) :   2.9864 B( 56-C , 57-C ) :   1.5024 B( 56-C , 78-H ) :   0.9961
B( 57-C , 58-S ) :   1.0898 B( 57-C , 59-C ) :   1.1366 B( 59-C , 60-C ) :   1.4962
B( 59-C , 64-C ) :   0.1109 B( 59-C , 65-S ) :   1.1166 B( 60-C , 61-O ) :   1.1584
B( 60-C , 63-C ) :   1.2133 B( 61-O , 62-C ) :   0.9491 B( 62-C , 79-H ) :   0.9797
B( 62-C , 80-H ) :   0.9703 B( 62-C , 81-H ) :   0.9705 B( 63-C , 64-C ) :   1.5419
B( 63-C , 82-H ) :   0.9988 B( 64-C , 65-S ) :   1.1724 B( 64-C , 83-H ) :   0.9709

-----------------------------------------------------------------------------
         ABSORPTION SPECTRUM VIA TRANSITION ELECTRIC DIPOLE MOMENTS
-----------------------------------------------------------------------------
State   Energy  Wavelength   fosc         T2         TX        TY        TZ
        (cm-1)    (nm)                  (au**2)     (au)      (au)      (au)
-----------------------------------------------------------------------------
   0    6016.1   1662.2   0.346862285  18.98086   1.40115  -3.38075   2.36392
   1    8864.5   1128.1   0.091942830   3.41460  -0.27685  -1.45343  -1.10702
   2   12217.0    818.5   0.037700117   1.01591  -0.10735  -0.96746  -0.26156
   3   13397.9    746.4   0.231106331   5.67871  -0.21348  -2.18160  -0.93474
   4   16639.0    601.0   0.006099003   0.12067  -0.09732  -0.24719  -0.22383
   5   18413.9    543.1   0.311973560   5.57762  -0.82202  -0.24117  -2.20085
   6   18972.1    527.1   0.034896413   0.60554   0.23746  -0.64278   0.36876
   7   19542.9    511.7   0.198715945   3.34748  -0.81086   0.28936  -1.61439
   8   20663.2    484.0   0.014353016   0.22868  -0.23064  -0.11311  -0.40334
   9   23127.7    432.4   0.214832939   3.05804   0.69542   0.09697   1.60157
  10   23227.8    430.5   0.005693906   0.08070   0.05717   0.09927  -0.25996
  11   23667.6    422.5   0.125855075   1.75062  -0.42787  -0.39996  -1.18641
  12   24316.1    411.3   0.018924128   0.25621   0.14393  -0.13059   0.46738
  13   25358.7    394.3   0.006894873   0.08951  -0.07556   0.19172  -0.21690
  14   26497.2    377.4   0.263378334   3.27232  -0.25678  -1.42482  -1.08456
  15   26714.5    374.3   0.131310179   1.61818  -0.23732  -0.63913  -1.07395
  16   27138.9    368.5   0.067685308   0.82107   0.22501   0.34361   0.80769
  17   27353.4    365.6   0.547885524   6.59408  -0.47567  -1.82587  -1.74185
  18   28102.9    355.8   0.040269402   0.47174  -0.22079  -0.24082  -0.60415
  19   28425.6    351.8   0.037986538   0.43994   0.08664  -0.62620   0.20078
  20   28710.1    348.3   0.499544160   5.72816   0.09766   2.09860   1.14652
  21   29191.4    342.6   0.004931020   0.05561  -0.05959   0.09705  -0.20649
  22   29648.5    337.3   0.017344245   0.19259   0.08326  -0.34018   0.26445
  23   29894.8    334.5   0.010177706   0.11208  -0.02575   0.27885  -0.18347
  24   30811.7    324.6   0.108823970   1.16274   0.81490  -0.70614  -0.00765
  25   31133.4    321.2   0.259153293   2.74035   0.82758  -1.20561   0.77586
  26   31505.0    317.4   0.044162957   0.46148   0.15632   0.65760  -0.06792
  27   31758.8    314.9   0.023085612   0.23931   0.08215   0.41352   0.24812
  28   31971.4    312.8   0.105538405   1.08674  -0.02675  -0.46411  -0.93307
  29   32049.0    312.0   0.221273719   2.27296   0.22980  -0.48628   1.40843
  30   32281.6    309.8   0.283720310   2.89342  -0.58003   1.53244   0.45673
  31   32463.6    308.0   0.313699109   3.18121   0.73609  -1.08983   1.20484
  32   32689.5    305.9   0.487266942   4.90721   0.43039   0.58403   2.09305
  33   33303.6    300.3   0.208980327   2.06581  -0.17834  -0.82016  -1.16676
  34   33502.7    298.5   0.185211070   1.81997   0.79762  -1.02918   0.35292
  35   33833.6    295.6   0.206705107   2.01131   0.05495  -1.14408  -0.83628
  36   34012.5    294.0   0.316606620   3.06448  -0.12176   1.73889  -0.16103
  37   34415.4    290.6   0.152419435   1.45802  -0.06260  -0.59048  -1.05140
  38   34648.6    288.6   0.029288013   0.27828  -0.20921  -0.03254  -0.48317
  39   34804.7    287.3   0.057284613   0.54185   0.07619  -0.63831   0.35862
  40   35205.6    284.0   0.001706120   0.01595   0.07257  -0.04633   0.09242
  41   35577.6    281.1   0.097041919   0.89796  -0.14758   0.66329  -0.66048
  42   35748.4    279.7   0.058101816   0.53507   0.15453  -0.53731   0.47168
  43   35863.8    278.8   0.036871174   0.33846  -0.13143   0.55118  -0.13185
  44   36450.3    274.3   0.019484138   0.17598  -0.00573  -0.38134  -0.17470
  45   36755.4    272.1   0.003781174   0.03387  -0.12278   0.11551   0.07383
  46   36837.6    271.5   0.030179226   0.26971  -0.27810   0.39735   0.18570
  47   37038.8    270.0   0.001083460   0.00963   0.03843  -0.01162   0.08955
  48   37551.5    266.3   0.083716704   0.73394  -0.21192   0.29310  -0.77661
  49   37647.6    265.6   0.007948356   0.06950   0.03737   0.06397   0.25301
  50   37793.3    264.6   0.008374292   0.07295  -0.25960   0.07326   0.01362
  51   37992.4    263.2   0.260738792   2.25936  -0.16208   0.34560  -1.45384
  52   38245.0    261.5   0.005511269   0.04744   0.14549   0.00408   0.16204
  53   38338.6    260.8   0.068860718   0.59130  -0.05790   0.74509   0.18109
  54   38833.5    257.5   0.021954016   0.18612  -0.13770   0.40788  -0.02814
  55   38855.9    257.4   0.004985213   0.04224   0.06676  -0.19259  -0.02630
  56   39223.3    255.0   0.001425235   0.01196  -0.03698   0.02676   0.09939
  57   39248.9    254.8   0.000013790   0.00012  -0.00814   0.00554  -0.00433
  58   39582.6    252.6   0.049183642   0.40907  -0.18282   0.61283   0.00870
  59   39782.1    251.4   0.118638293   0.98178   0.17659  -0.28712   0.93175
  60   40024.6    249.8   0.047551709   0.39112  -0.32298   0.11752  -0.52249
  61   40059.0    249.6   0.009875664   0.08116  -0.09509   0.24563  -0.10856

FINAL SINGLE POINT ENERGY     -5572.621103044254

DIPOLE MOMENT
-------------
                                X             Y             Z
Electronic contribution:     21.14725     -17.65141      41.61213
Nuclear contribution   :    -20.47054      17.19901     -40.64264
                        -----------------------------------------
Total Dipole Moment    :      0.67671      -0.45240       0.96949
                        -----------------------------------------
Magnitude (a.u.)       :      1.26590
Magnitude (Debye)      :      3.21767

Rotational constants in cm-1:     0.000890     0.000471     0.000313
Rotational constants in MHz :    26.693831    14.131481     9.374664

                             ****ORCA TERMINATED NORMALLY****
TOTAL RUN TIME: 0 days 0 hours 8 minutes 38 seconds 154 msec
