                         Program Version 4.2.0 -  RELEASE  -
|  1> # ORCA input file
|  2> # SCF done       -194.599194211706          0.000297159322
|  3> ! CAM-B3LYP def2-SVP def2/J RIJCOSX Grid4 TightSCF
|  4> %maxcore 5000
|  5> %tddft
|  6>     Mode sTDDFT
|  7>     Ethresh 5.0
|  8>     maxcore 5000
|  9> end
| 10>
| 11> %pal
| 12>   nprocs 6
| 13>   end
| 14> * xyz 0 1
| 15>    C       -5.75817         3.27300         4.61296
| 16>    C       -5.61930         3.78727         5.87160
| 17>    F       -5.75036         5.10632         6.07922
| 18>    C       -5.33858         2.94346         6.96328
| 19>    F       -5.20812         3.47466         8.18904
| 20>    C       -5.19997         1.59580         6.78185
| 21>    C       -5.33798         1.03577         5.49756
| 22>    C       -5.62215         1.88796         4.39246
| 23>    C       -5.76766         1.34806         3.09319
| 24>    C       -5.63535        -0.00212         2.90661
| 25>    C       -5.35366        -0.84400         4.01564
| 26>    C       -5.20460        -0.35433         5.27971
| 27>    C       -5.27275        -2.24848         3.55777
| 28>    O       -5.03040        -3.20232         4.27260
| 29>    C       -5.54963        -2.21483         2.11226
| 30>    C       -5.73765        -0.83788         1.71140
| 31>    C       -5.95553        -0.34922         0.44285
| 32>    C       -6.03738        -1.10278        -0.74377
| 33>    N       -6.11606        -1.63471        -1.76108
| 34>    C       -6.12135         1.01700         0.13995
| 35>    N       -6.26695         2.10939        -0.18518
| 36>    C       -5.67219        -3.27747         1.24088
| 37>    C       -5.53191        -4.65677         1.40504
| 38>    N       -5.78535        -5.47218         0.30320
| 39>    C       -5.60560        -6.75951         0.66477
| 40>    C       -5.66733        -8.07179         0.21414
| 41>    C       -5.31333        -8.87647         1.30658
| 42>    N       -5.03489        -8.07672         2.39329
| 43>    C       -5.21494        -6.77418         2.03609
| 44>    C       -5.16839        -5.47452         2.49835
| 45>    C       -5.23732       -10.29068         1.40055
| 46>    C       -5.60368       -11.13854         0.40697
| 47>    C       -5.57504       -12.55339         0.46375
| 48>    N       -6.08216       -13.29627        -0.58625
| 49>    C       -5.97025       -14.61349        -0.28201
| 50>    C       -6.24065       -15.89820        -0.74021
| 51>    C       -5.78549       -16.76967         0.25587
| 52>    N       -5.24474       -16.03222         1.29208
| 53>    C       -5.35672       -14.71083         0.99232
| 54>    C       -5.11249       -13.42294         1.45962
| 55>    C       -5.83129       -18.18688         0.30783
| 56>    C       -6.44787       -18.96294        -0.61745
| 57>    C       -6.52875       -20.37880        -0.59755
| 58>    N       -7.27947       -21.03746        -1.54880
| 59>    C       -7.20887       -22.37369        -1.31245
| 60>    C       -7.65181       -23.60984        -1.75103
| 61>    C       -7.07385       -24.56141        -0.88807
| 62>    N       -6.32001       -23.89676         0.06836
| 63>    C       -6.37680       -22.56503        -0.17570
| 64>    C       -5.95587       -21.31682         0.27158
| 65>    C       -7.20578       -25.96148        -0.84474
| 66>    C       -7.78244       -26.76633        -1.79139
| 67>    C       -8.08802       -26.38541        -3.10603
| 68>    C       -8.86805       -27.05940        -4.01377
| 69>    C       -8.74249       -26.77005        -5.45648
| 70>    O       -8.13966       -25.84876        -5.96774
| 71>    C       -9.47859       -27.85596        -6.14105
| 72>    C       -9.60280       -28.10222        -7.47668
| 73>    C      -10.34410       -29.22831        -7.90247
| 74>    C      -10.93947       -30.08053        -6.92873
| 75>    C      -11.67347       -31.20361        -7.35892
| 76>    C      -11.81315       -31.46609        -8.69298
| 77>    C      -11.22559       -30.62189        -9.65463
| 78>    C      -10.50549       -29.52593        -9.26916
| 79>    F      -11.37840       -30.90283       -10.95802
| 80>    F      -12.51449       -32.53486        -9.09972
| 81>    C      -10.79948       -29.79473        -5.55025
| 82>    C      -10.08406       -28.69477        -5.16217
| 83>    C       -9.81047       -28.13186        -3.83930
| 84>    C      -10.49463       -28.44731        -2.68864
| 85>    C      -10.45362       -27.67349        -1.51229
| 86>    N      -10.51300       -27.04572        -0.55201
| 87>    C      -11.41327       -29.50928        -2.58827
| 88>    N      -12.15239       -30.37730        -2.44607
| 89>    H       -5.97301         3.93314         3.78714
| 90>    H       -4.98516         0.96276         7.62855
| 91>    H       -5.98456         2.02178         2.28062
| 92>    H       -4.99050        -1.01840         6.10338
| 93>    H       -5.94416        -3.00643         0.22782
| 94>    H       -6.05518        -5.12770        -0.60285
| 95>    H       -5.92378        -8.41629        -0.76646
| 96>    H       -4.77010        -8.41659         3.30159
| 97>    H       -4.92038        -5.11081         3.47363
| 98>    H       -4.88380       -10.69464         2.33893
| 99>    H       -5.97758       -10.71779        -0.51685
|100>    H       -6.48549       -12.90241        -1.41855
|101>    H       -6.69617       -16.18163        -1.66675
|102>    H       -4.86201       -16.42880         2.13278
|103>    H       -4.65969       -13.13175         2.38545
|104>    H       -5.35371       -18.65490         1.15770
|105>    H       -6.94597       -18.48015        -1.44712
|106>    H       -7.79622       -20.58463        -2.28265
|107>    H       -8.34553       -23.81273        -2.53970
|108>    H       -5.80569       -24.35454         0.80103
|109>    H       -5.31922       -21.09454         1.10337
|110>    H       -6.85555       -26.43435         0.06467
|111>    H       -7.96201       -27.79797        -1.51878
|112>    H       -7.56414       -25.52621        -3.50996
|113>    H       -9.14303       -27.44718        -8.20110
|114>    H      -12.13261       -31.85874        -6.63514
|115>    H      -10.06140       -28.88908       -10.01817
|116>    H      -11.25898       -30.45864        -4.83556
|117> *
|118>
|119>                          ****END OF INPUT****

CARTESIAN COORDINATES (ANGSTROEM)
---------------------------------
  C     -5.758170    3.273000    4.612960
  C     -5.619300    3.787270    5.871600
  F     -5.750360    5.106320    6.079220
  C     -5.338580    2.943460    6.963280
  F     -5.208120    3.474660    8.189040
  C     -5.199970    1.595800    6.781850
  C     -5.337980    1.035770    5.497560
  C     -5.622150    1.887960    4.392460
  C     -5.767660    1.348060    3.093190
  C     -5.635350   -0.002120    2.906610
  C     -5.353660   -0.844000    4.015640
  C     -5.204600   -0.354330    5.279710
  C     -5.272750   -2.248480    3.557770
  O     -5.030400   -3.202320    4.272600
  C     -5.549630   -2.214830    2.112260
  C     -5.737650   -0.837880    1.711400
  C     -5.955530   -0.349220    0.442850
  C     -6.037380   -1.102780   -0.743770
  N     -6.116060   -1.634710   -1.761080
  C     -6.121350    1.017000    0.139950
  N     -6.266950    2.109390   -0.185180
  C     -5.672190   -3.277470    1.240880
  C     -5.531910   -4.656770    1.405040
  N     -5.785350   -5.472180    0.303200
  C     -5.605600   -6.759510    0.664770
  C     -5.667330   -8.071790    0.214140
  C     -5.313330   -8.876470    1.306580
  N     -5.034890   -8.076720    2.393290
  C     -5.214940   -6.774180    2.036090
  C     -5.168390   -5.474520    2.498350
  C     -5.237320  -10.290680    1.400550
  C     -5.603680  -11.138540    0.406970
  C     -5.575040  -12.553390    0.463750
  N     -6.082160  -13.296270   -0.586250
  C     -5.970250  -14.613490   -0.282010
  C     -6.240650  -15.898200   -0.740210
  C     -5.785490  -16.769670    0.255870
  N     -5.244740  -16.032220    1.292080
  C     -5.356720  -14.710830    0.992320
  C     -5.112490  -13.422940    1.459620
  C     -5.831290  -18.186880    0.307830
  C     -6.447870  -18.962940   -0.617450
  C     -6.528750  -20.378800   -0.597550
  N     -7.279470  -21.037460   -1.548800
  C     -7.208870  -22.373690   -1.312450
  C     -7.651810  -23.609840   -1.751030
  C     -7.073850  -24.561410   -0.888070
  N     -6.320010  -23.896760    0.068360
  C     -6.376800  -22.565030   -0.175700
  C     -5.955870  -21.316820    0.271580
  C     -7.205780  -25.961480   -0.844740
  C     -7.782440  -26.766330   -1.791390
  C     -8.088020  -26.385410   -3.106030
  C     -8.868050  -27.059400   -4.013770
  C     -8.742490  -26.770050   -5.456480
  O     -8.139660  -25.848760   -5.967740
  C     -9.478590  -27.855960   -6.141050
  C     -9.602800  -28.102220   -7.476680
  C    -10.344100  -29.228310   -7.902470
  C    -10.939470  -30.080530   -6.928730
  C    -11.673470  -31.203610   -7.358920
  C    -11.813150  -31.466090   -8.692980
  C    -11.225590  -30.621890   -9.654630
  C    -10.505490  -29.525930   -9.269160
  F    -11.378400  -30.902830  -10.958020
  F    -12.514490  -32.534860   -9.099720
  C    -10.799480  -29.794730   -5.550250
  C    -10.084060  -28.694770   -5.162170
  C     -9.810470  -28.131860   -3.839300
  C    -10.494630  -28.447310   -2.688640
  C    -10.453620  -27.673490   -1.512290
  N    -10.513000  -27.045720   -0.552010
  C    -11.413270  -29.509280   -2.588270
  N    -12.152390  -30.377300   -2.446070
  H     -5.973010    3.933140    3.787140
  H     -4.985160    0.962760    7.628550
  H     -5.984560    2.021780    2.280620
  H     -4.990500   -1.018400    6.103380
  H     -5.944160   -3.006430    0.227820
  H     -6.055180   -5.127700   -0.602850
  H     -5.923780   -8.416290   -0.766460
  H     -4.770100   -8.416590    3.301590
  H     -4.920380   -5.110810    3.473630
  H     -4.883800  -10.694640    2.338930
  H     -5.977580  -10.717790   -0.516850
  H     -6.485490  -12.902410   -1.418550
  H     -6.696170  -16.181630   -1.666750
  H     -4.862010  -16.428800    2.132780
  H     -4.659690  -13.131750    2.385450
  H     -5.353710  -18.654900    1.157700
  H     -6.945970  -18.480150   -1.447120
  H     -7.796220  -20.584630   -2.282650
  H     -8.345530  -23.812730   -2.539700
  H     -5.805690  -24.354540    0.801030
  H     -5.319220  -21.094540    1.103370
  H     -6.855550  -26.434350    0.064670
  H     -7.962010  -27.797970   -1.518780
  H     -7.564140  -25.526210   -3.509960
  H     -9.143030  -27.447180   -8.201100
  H    -12.132610  -31.858740   -6.635140
  H    -10.061400  -28.889080  -10.018170
  H    -11.258980  -30.458640   -4.835560

 Total Charge           Charge          ....    0
 Multiplicity           Mult            ....    1
 Number of Electrons    NEL             ....  498
 Basis Dimension        Dim             .... 1176

ORBITAL ENERGIES
----------------

  NO   OCC          E(Eh)            E(eV)
   0   2.0000     -24.790890      -674.5944
   1   2.0000     -24.790137      -674.5739
   2   2.0000     -24.788850      -674.5389
   3   2.0000     -24.787415      -674.4999
   4   2.0000     -19.202493      -522.5264
   5   2.0000     -19.202170      -522.5176
   6   2.0000     -14.469719      -393.7411
   7   2.0000     -14.469015      -393.7219
   8   2.0000     -14.468770      -393.7152
   9   2.0000     -14.467825      -393.6895
  10   2.0000     -14.467663      -393.6851
  11   2.0000     -14.465320      -393.6214
  12   2.0000     -14.405132      -391.9836
  13   2.0000     -14.405099      -391.9827
  14   2.0000     -14.401591      -391.8872
  15   2.0000     -14.398739      -391.8096
  16   2.0000     -10.373217      -282.2696
  17   2.0000     -10.372657      -282.2543
  18   2.0000     -10.370771      -282.2030
  19   2.0000     -10.369677      -282.1733
  20   2.0000     -10.353535      -281.7340
  21   2.0000     -10.353341      -281.7287
  22   2.0000     -10.329643      -281.0839
  23   2.0000     -10.329540      -281.0811
  24   2.0000     -10.328566      -281.0546
  25   2.0000     -10.326483      -280.9979
  26   2.0000     -10.323358      -280.9128
  27   2.0000     -10.322276      -280.8834
  28   2.0000     -10.316349      -280.7221
  29   2.0000     -10.315899      -280.7099
  30   2.0000     -10.315264      -280.6926
  31   2.0000     -10.314584      -280.6741
  32   2.0000     -10.313297      -280.6391
  33   2.0000     -10.310577      -280.5651
  34   2.0000     -10.310130      -280.5529
  35   2.0000     -10.308599      -280.5112
  36   2.0000     -10.306250      -280.4473
  37   2.0000     -10.304870      -280.4098
  38   2.0000     -10.304353      -280.3957
  39   2.0000     -10.304176      -280.3909
  40   2.0000     -10.303635      -280.3762
  41   2.0000     -10.302992      -280.3587
  42   2.0000     -10.302497      -280.3452
  43   2.0000     -10.302331      -280.3407
  44   2.0000     -10.301361      -280.3143
  45   2.0000     -10.301095      -280.3070
  46   2.0000     -10.300725      -280.2970
  47   2.0000     -10.298740      -280.2430
  48   2.0000     -10.298266      -280.2301
  49   2.0000     -10.297669      -280.2138
  50   2.0000     -10.297105      -280.1985
  51   2.0000     -10.294898      -280.1384
  52   2.0000     -10.293423      -280.0983
  53   2.0000     -10.292744      -280.0798
  54   2.0000     -10.292664      -280.0776
  55   2.0000     -10.292383      -280.0700
  56   2.0000     -10.291658      -280.0503
  57   2.0000     -10.290690      -280.0239
  58   2.0000     -10.290434      -280.0169
  59   2.0000     -10.290371      -280.0152
  60   2.0000     -10.289719      -279.9975
  61   2.0000     -10.288507      -279.9645
  62   2.0000     -10.288319      -279.9594
  63   2.0000     -10.283008      -279.8149
  64   2.0000     -10.281058      -279.7618
  65   2.0000     -10.279397      -279.7166
  66   2.0000     -10.279378      -279.7161
  67   2.0000     -10.278696      -279.6975
  68   2.0000     -10.278306      -279.6869
  69   2.0000     -10.275862      -279.6204
  70   2.0000     -10.275610      -279.6136
  71   2.0000     -10.273400      -279.5534
  72   2.0000     -10.272638      -279.5327
  73   2.0000     -10.272541      -279.5300
  74   2.0000      -1.312734       -35.7213
  75   2.0000      -1.310271       -35.6543
  76   2.0000      -1.297971       -35.3196
  77   2.0000      -1.295471       -35.2516
  78   2.0000      -1.116333       -30.3770
  79   2.0000      -1.116031       -30.3688
  80   2.0000      -1.102056       -29.9885
  81   2.0000      -1.102008       -29.9872
  82   2.0000      -1.099401       -29.9162
  83   2.0000      -1.065251       -28.9869
  84   2.0000      -1.064840       -28.9758
  85   2.0000      -1.063014       -28.9261
  86   2.0000      -1.007888       -27.4260
  87   2.0000      -1.006020       -27.3752
  88   2.0000      -0.993720       -27.0405
  89   2.0000      -0.992211       -26.9994
  90   2.0000      -0.982240       -26.7281
  91   2.0000      -0.980762       -26.6879
  92   2.0000      -0.970619       -26.4119
  93   2.0000      -0.967838       -26.3362
  94   2.0000      -0.926634       -25.2150
  95   2.0000      -0.919645       -25.0248
  96   2.0000      -0.917428       -24.9645
  97   2.0000      -0.915749       -24.9188
  98   2.0000      -0.912396       -24.8276
  99   2.0000      -0.896087       -24.3838
 100   2.0000      -0.889083       -24.1932
 101   2.0000      -0.884967       -24.0812
 102   2.0000      -0.882896       -24.0248
 103   2.0000      -0.881312       -23.9817
 104   2.0000      -0.878124       -23.8950
 105   2.0000      -0.876831       -23.8598
 106   2.0000      -0.876006       -23.8373
 107   2.0000      -0.872555       -23.7434
 108   2.0000      -0.867770       -23.6132
 109   2.0000      -0.857754       -23.3407
 110   2.0000      -0.847637       -23.0654
 111   2.0000      -0.831056       -22.6142
 112   2.0000      -0.828178       -22.5359
 113   2.0000      -0.825720       -22.4690
 114   2.0000      -0.811838       -22.0912
 115   2.0000      -0.800246       -21.7758
 116   2.0000      -0.789542       -21.4845
 117   2.0000      -0.762848       -20.7582
 118   2.0000      -0.755407       -20.5557
 119   2.0000      -0.753746       -20.5105
 120   2.0000      -0.752089       -20.4654
 121   2.0000      -0.735905       -20.0250
 122   2.0000      -0.726893       -19.7798
 123   2.0000      -0.719238       -19.5715
 124   2.0000      -0.712086       -19.3769
 125   2.0000      -0.708102       -19.2684
 126   2.0000      -0.705668       -19.2022
 127   2.0000      -0.703845       -19.1526
 128   2.0000      -0.703127       -19.1330
 129   2.0000      -0.701775       -19.0963
 130   2.0000      -0.694995       -18.9118
 131   2.0000      -0.690080       -18.7780
 132   2.0000      -0.687848       -18.7173
 133   2.0000      -0.682979       -18.5848
 134   2.0000      -0.674977       -18.3671
 135   2.0000      -0.672096       -18.2887
 136   2.0000      -0.664497       -18.0819
 137   2.0000      -0.658893       -17.9294
 138   2.0000      -0.651237       -17.7210
 139   2.0000      -0.650485       -17.7006
 140   2.0000      -0.646169       -17.5831
 141   2.0000      -0.643666       -17.5151
 142   2.0000      -0.639989       -17.4150
 143   2.0000      -0.633812       -17.2469
 144   2.0000      -0.631095       -17.1730
 145   2.0000      -0.629103       -17.1188
 146   2.0000      -0.623144       -16.9566
 147   2.0000      -0.618743       -16.8368
 148   2.0000      -0.606339       -16.4993
 149   2.0000      -0.604591       -16.4518
 150   2.0000      -0.600634       -16.3441
 151   2.0000      -0.594065       -16.1653
 152   2.0000      -0.583656       -15.8821
 153   2.0000      -0.580896       -15.8070
 154   2.0000      -0.577660       -15.7189
 155   2.0000      -0.575378       -15.6568
 156   2.0000      -0.575212       -15.6523
 157   2.0000      -0.572121       -15.5682
 158   2.0000      -0.570610       -15.5271
 159   2.0000      -0.565775       -15.3955
 160   2.0000      -0.562458       -15.3053
 161   2.0000      -0.559325       -15.2200
 162   2.0000      -0.553458       -15.0604
 163   2.0000      -0.548107       -14.9148
 164   2.0000      -0.547073       -14.8866
 165   2.0000      -0.546333       -14.8665
 166   2.0000      -0.544920       -14.8280
 167   2.0000      -0.543917       -14.8007
 168   2.0000      -0.542712       -14.7679
 169   2.0000      -0.542135       -14.7523
 170   2.0000      -0.539951       -14.6928
 171   2.0000      -0.539504       -14.6806
 172   2.0000      -0.537154       -14.6167
 173   2.0000      -0.537066       -14.6143
 174   2.0000      -0.531796       -14.4709
 175   2.0000      -0.530072       -14.4240
 176   2.0000      -0.524434       -14.2706
 177   2.0000      -0.524182       -14.2637
 178   2.0000      -0.523310       -14.2400
 179   2.0000      -0.522144       -14.2083
 180   2.0000      -0.519411       -14.1339
 181   2.0000      -0.517052       -14.0697
 182   2.0000      -0.515196       -14.0192
 183   2.0000      -0.510220       -13.8838
 184   2.0000      -0.508286       -13.8312
 185   2.0000      -0.505894       -13.7661
 186   2.0000      -0.504389       -13.7251
 187   2.0000      -0.499616       -13.5952
 188   2.0000      -0.495091       -13.4721
 189   2.0000      -0.494671       -13.4607
 190   2.0000      -0.492134       -13.3916
 191   2.0000      -0.489359       -13.3161
 192   2.0000      -0.486359       -13.2345
 193   2.0000      -0.485094       -13.2001
 194   2.0000      -0.484642       -13.1878
 195   2.0000      -0.483202       -13.1486
 196   2.0000      -0.480704       -13.0806
 197   2.0000      -0.479014       -13.0346
 198   2.0000      -0.475173       -12.9301
 199   2.0000      -0.474685       -12.9168
 200   2.0000      -0.470813       -12.8115
 201   2.0000      -0.463507       -12.6127
 202   2.0000      -0.462870       -12.5953
 203   2.0000      -0.459523       -12.5043
 204   2.0000      -0.456995       -12.4355
 205   2.0000      -0.455760       -12.4019
 206   2.0000      -0.454273       -12.3614
 207   2.0000      -0.452658       -12.3174
 208   2.0000      -0.449302       -12.2261
 209   2.0000      -0.446961       -12.1624
 210   2.0000      -0.441257       -12.0072
 211   2.0000      -0.441177       -12.0050
 212   2.0000      -0.439024       -11.9465
 213   2.0000      -0.435770       -11.8579
 214   2.0000      -0.434527       -11.8241
 215   2.0000      -0.432124       -11.7587
 216   2.0000      -0.430599       -11.7172
 217   2.0000      -0.425927       -11.5901
 218   2.0000      -0.418759       -11.3950
 219   2.0000      -0.416950       -11.3458
 220   2.0000      -0.414598       -11.2818
 221   2.0000      -0.413893       -11.2626
 222   2.0000      -0.410083       -11.1589
 223   2.0000      -0.407086       -11.0774
 224   2.0000      -0.405663       -11.0387
 225   2.0000      -0.401288       -10.9196
 226   2.0000      -0.395932       -10.7739
 227   2.0000      -0.393246       -10.7008
 228   2.0000      -0.392743       -10.6871
 229   2.0000      -0.381487       -10.3808
 230   2.0000      -0.375725       -10.2240
 231   2.0000      -0.372696       -10.1416
 232   2.0000      -0.366473        -9.9722
 233   2.0000      -0.357429        -9.7261
 234   2.0000      -0.344852        -9.3839
 235   2.0000      -0.328690        -8.9441
 236   2.0000      -0.325344        -8.8531
 237   2.0000      -0.323298        -8.7974
 238   2.0000      -0.310442        -8.4476
 239   2.0000      -0.306774        -8.3477
 240   2.0000      -0.305172        -8.3041
 241   2.0000      -0.300313        -8.1719
 242   2.0000      -0.299911        -8.1610
 243   2.0000      -0.299594        -8.1524
 244   2.0000      -0.290894        -7.9156
 245   2.0000      -0.288644        -7.8544
 246   2.0000      -0.267923        -7.2906
 247   2.0000      -0.240833        -6.5534
 248   2.0000      -0.212948        -5.7946
 249   0.0000      -0.092241        -2.5100
 250   0.0000      -0.082450        -2.2436
 251   0.0000      -0.052503        -1.4287
 252   0.0000      -0.047900        -1.3034
 253   0.0000      -0.040091        -1.0909

MULLIKEN ATOMIC CHARGES
-----------------------
   0 C :   -0.107353
   1 C :    0.237310
   2 F :   -0.176240
   3 C :    0.235822
   4 F :   -0.177168
   5 C :   -0.106267
   6 C :    0.116959
   7 C :    0.111607
   8 C :   -0.085412
   9 C :    0.044250
  10 C :    0.003580
  11 C :   -0.091551
  12 C :    0.150907
  13 O :   -0.171337
  14 C :   -0.112848
  15 C :    0.330722
  16 C :   -0.380226
  17 C :   -0.181787
  18 N :    0.122518
  19 C :   -0.184461
  20 N :    0.133354
  21 C :   -0.008868
  22 C :    0.089337
  23 N :   -0.040965
  24 C :    0.146556
  25 C :   -0.194130
  26 C :    0.132649
  27 N :   -0.039915
  28 C :    0.122858
  29 C :   -0.142854
  30 C :   -0.015258
  31 C :    0.008345
  32 C :    0.110847
  33 N :   -0.036193
  34 C :    0.116521
  35 C :   -0.178934
  36 C :    0.107731
  37 N :   -0.037469
  38 C :    0.113762
  39 C :   -0.171708
  40 C :    0.007094
  41 C :   -0.013879
  42 C :    0.127284
  43 N :   -0.035402
  44 C :    0.109413
  45 C :   -0.149555
  46 C :    0.085140
  47 N :   -0.036240
  48 C :    0.130486
  49 C :   -0.183745
  50 C :    0.048638
  51 C :   -0.017348
  52 C :    0.022189
  53 C :   -0.131777
  54 C :    0.138764
  55 O :   -0.158663
  56 C :    0.007303
  57 C :   -0.086380
  58 C :    0.112865
  59 C :    0.112372
  60 C :   -0.107941
  61 C :    0.239208
  62 C :    0.237079
  63 C :   -0.105819
  64 F :   -0.176779
  65 F :   -0.175531
  66 C :   -0.086503
  67 C :    0.040358
  68 C :    0.290102
  69 C :   -0.346088
  70 C :   -0.221773
  71 N :    0.160832
  72 C :   -0.176287
  73 N :    0.136690
  74 H :    0.004155
  75 H :   -0.004959
  76 H :   -0.009868
  77 H :   -0.018286
  78 H :   -0.030806
  79 H :    0.137874
  80 H :   -0.034341
  81 H :    0.125881
  82 H :   -0.000941
  83 H :   -0.031264
  84 H :   -0.028177
  85 H :    0.120824
  86 H :   -0.038217
  87 H :    0.120210
  88 H :   -0.037892
  89 H :   -0.030264
  90 H :   -0.031589
  91 H :    0.125177
  92 H :   -0.008915
  93 H :    0.122993
  94 H :   -0.037532
  95 H :   -0.012304
  96 H :    0.012113
  97 H :    0.017367
  98 H :   -0.014552
  99 H :    0.004883
 100 H :   -0.004243
 101 H :   -0.008123
Sum of atomic charges:   -0.0000000

LOEWDIN ATOMIC CHARGES
----------------------
   0 C :   -0.029894
   1 C :    0.062990
   2 F :   -0.053846
   3 C :    0.064761
   4 F :   -0.054568
   5 C :   -0.035979
   6 C :   -0.010173
   7 C :   -0.008999
   8 C :    0.013412
   9 C :   -0.021457
  10 C :   -0.047487
  11 C :    0.020842
  12 C :    0.082557
  13 O :   -0.161865
  14 C :   -0.122196
  15 C :    0.078269
  16 C :   -0.164707
  17 C :   -0.019796
  18 N :   -0.078885
  19 C :   -0.018423
  20 N :   -0.071264
  21 C :    0.046449
  22 C :   -0.014436
  23 N :    0.072283
  24 C :    0.016741
  25 C :   -0.115047
  26 C :    0.037146
  27 N :    0.067286
  28 C :   -0.025471
  29 C :   -0.031703
  30 C :   -0.054666
  31 C :   -0.011399
  32 C :   -0.008405
  33 N :    0.070796
  34 C :   -0.017271
  35 C :   -0.096524
  36 C :   -0.000140
  37 N :    0.068484
  38 C :   -0.020939
  39 C :   -0.088973
  40 C :   -0.024654
  41 C :   -0.043262
  42 C :    0.020887
  43 N :    0.070971
  44 C :   -0.023067
  45 C :   -0.059307
  46 C :   -0.010099
  47 N :    0.071237
  48 C :    0.001361
  49 C :   -0.107502
  50 C :    0.020935
  51 C :   -0.052483
  52 C :    0.060193
  53 C :   -0.110945
  54 C :    0.078083
  55 O :   -0.160043
  56 C :   -0.051492
  57 C :    0.024503
  58 C :   -0.011165
  59 C :   -0.007451
  60 C :   -0.030986
  61 C :    0.064505
  62 C :    0.064803
  63 C :   -0.034607
  64 F :   -0.053917
  65 F :   -0.052936
  66 C :    0.009991
  67 C :   -0.018340
  68 C :    0.068055
  69 C :   -0.150267
  70 C :   -0.023361
  71 N :   -0.060622
  72 C :   -0.018985
  73 N :   -0.064102
  74 H :    0.046595
  75 H :    0.042800
  76 H :    0.038840
  77 H :    0.036738
  78 H :    0.041428
  79 H :    0.096135
  80 H :    0.022676
  81 H :    0.091838
  82 H :    0.031447
  83 H :    0.026479
  84 H :    0.028685
  85 H :    0.088876
  86 H :    0.021720
  87 H :    0.088648
  88 H :    0.022428
  89 H :    0.027261
  90 H :    0.026747
  91 H :    0.091266
  92 H :    0.032973
  93 H :    0.090887
  94 H :    0.022173
  95 H :    0.036053
  96 H :    0.036972
  97 H :    0.040072
  98 H :    0.038337
  99 H :    0.046604
 100 H :    0.043294
 101 H :    0.038599

  Mayer bond orders larger than 0.100000
B(  0-C ,  1-C ) :   1.4374 B(  0-C ,  5-C ) :   0.1092 B(  0-C ,  7-C ) :   1.1930
B(  0-C , 74-H ) :   1.0060 B(  1-C ,  2-F ) :   1.1298 B(  1-C ,  3-C ) :   1.1978
B(  3-C ,  4-F ) :   1.1284 B(  3-C ,  5-C ) :   1.4405 B(  5-C ,  6-C ) :   1.1948
B(  5-C , 75-H ) :   1.0061 B(  6-C ,  7-C ) :   1.2612 B(  6-C , 11-C ) :   1.1801
B(  7-C ,  8-C ) :   1.2080 B(  8-C ,  9-C ) :   1.4625 B(  8-C , 76-H ) :   0.9876
B(  9-C , 10-C ) :   1.2224 B(  9-C , 15-C ) :   0.9692 B( 10-C , 11-C ) :   1.4807
B( 10-C , 12-C ) :   0.9439 B( 11-C , 77-H ) :   1.0147 B( 12-C , 13-O ) :   2.1612
B( 12-C , 14-C ) :   0.9622 B( 14-C , 15-C ) :   1.1329 B( 14-C , 21-C ) :   1.4537
B( 15-C , 16-C ) :   1.5663 B( 16-C , 17-C ) :   1.1520 B( 16-C , 19-C ) :   1.1576
B( 17-C , 18-N ) :   2.9505 B( 19-C , 20-N ) :   2.9521 B( 21-C , 22-C ) :   1.2673
B( 21-C , 78-H ) :   0.9141 B( 22-C , 23-N ) :   1.1134 B( 22-C , 29-C ) :   1.3031
B( 23-N , 24-C ) :   1.2220 B( 23-N , 79-H ) :   0.9302 B( 24-C , 25-C ) :   1.2619
B( 24-C , 28-C ) :   1.2472 B( 25-C , 26-C ) :   1.3819 B( 25-C , 80-H ) :   1.0321
B( 26-C , 27-N ) :   1.1956 B( 26-C , 30-C ) :   1.1133 B( 27-N , 28-C ) :   1.1312
B( 27-N , 81-H ) :   0.9361 B( 28-C , 29-C ) :   1.2907 B( 29-C , 82-H ) :   1.0305
B( 30-C , 31-C ) :   1.6608 B( 30-C , 83-H ) :   0.9675 B( 31-C , 32-C ) :   1.1194
B( 31-C , 84-H ) :   0.9637 B( 32-C , 33-N ) :   1.1634 B( 32-C , 39-C ) :   1.3936
B( 33-N , 34-C ) :   1.1734 B( 33-N , 85-H ) :   0.9369 B( 34-C , 35-C ) :   1.2594
B( 34-C , 38-C ) :   1.3065 B( 35-C , 36-C ) :   1.4023 B( 35-C , 86-H ) :   1.0298
B( 36-C , 37-N ) :   1.1701 B( 36-C , 40-C ) :   1.1157 B( 37-N , 38-C ) :   1.1623
B( 37-N , 87-H ) :   0.9375 B( 38-C , 39-C ) :   1.2691 B( 39-C , 88-H ) :   1.0303
B( 40-C , 41-C ) :   1.6715 B( 40-C , 89-H ) :   0.9666 B( 41-C , 42-C ) :   1.1053
B( 41-C , 90-H ) :   0.9646 B( 42-C , 43-N ) :   1.1862 B( 42-C , 49-C ) :   1.3943
B( 43-N , 44-C ) :   1.1502 B( 43-N , 91-H ) :   0.9362 B( 44-C , 45-C ) :   1.3080
B( 44-C , 48-C ) :   1.2819 B( 45-C , 46-C ) :   1.3195 B( 45-C , 92-H ) :   1.0304
B( 46-C , 47-N ) :   1.1432 B( 46-C , 50-C ) :   1.2026 B( 47-N , 48-C ) :   1.1914
B( 47-N , 93-H ) :   0.9375 B( 48-C , 49-C ) :   1.2600 B( 49-C , 94-H ) :   1.0321
B( 50-C , 51-C ) :   1.5865 B( 50-C , 95-H ) :   0.9576 B( 51-C , 52-C ) :   1.2031
B( 51-C , 96-H ) :   0.9505 B( 52-C , 53-C ) :   1.5439 B( 52-C , 97-H ) :   0.9325
B( 53-C , 54-C ) :   0.9634 B( 53-C , 68-C ) :   1.0847 B( 54-C , 55-O ) :   2.2515
B( 54-C , 56-C ) :   0.9155 B( 56-C , 57-C ) :   1.4845 B( 56-C , 67-C ) :   1.2188
B( 57-C , 58-C ) :   1.1856 B( 57-C , 98-H ) :   1.0155 B( 58-C , 59-C ) :   1.2614
B( 58-C , 63-C ) :   1.1960 B( 59-C , 60-C ) :   1.1912 B( 59-C , 66-C ) :   1.2069
B( 60-C , 61-C ) :   1.4384 B( 60-C , 63-C ) :   0.1093 B( 60-C , 99-H ) :   1.0069
B( 61-C , 62-C ) :   1.1966 B( 61-C , 65-F ) :   1.1300 B( 62-C , 63-C ) :   1.4401
B( 62-C , 64-F ) :   1.1280 B( 63-C ,100-H ) :   1.0069 B( 66-C , 67-C ) :   1.4642
B( 66-C ,101-H ) :   0.9919 B( 67-C , 68-C ) :   0.9925 B( 68-C , 69-C ) :   1.6052
B( 69-C , 70-C ) :   1.1674 B( 69-C , 72-C ) :   1.1358 B( 70-C , 71-N ) :   3.0126
B( 72-C , 73-N ) :   2.9714

-----------------------------------------------------------------------------
         ABSORPTION SPECTRUM VIA TRANSITION ELECTRIC DIPOLE MOMENTS
-----------------------------------------------------------------------------
State   Energy  Wavelength   fosc         T2         TX        TY        TZ
        (cm-1)    (nm)                  (au**2)     (au)      (au)      (au)
-----------------------------------------------------------------------------
   0   13265.8    753.8   3.428941820  85.09480   1.67775   8.78199   2.27083
   1   16641.3    600.9   0.562252109  11.12297   1.11258  -3.10019   0.52342
   2   21866.9    457.3   0.042941731   0.64650  -0.63837   0.17230  -0.45749
   3   22639.2    441.7   0.098572326   1.43341  -0.06507   0.95790   0.71526
   4   23760.2    420.9   0.001944040   0.02694  -0.07327  -0.14572  -0.01828
   5   24054.4    415.7   0.162726545   2.22709  -0.31261  -1.11913  -0.93644
   6   25797.2    387.6   0.280769228   3.58305  -0.20529  -1.83345   0.42352
   7   27789.4    359.8   0.068048507   0.80615  -0.38188   0.43472   0.68654
   8   28475.7    351.2   0.012590523   0.14556  -0.02944   0.38036  -0.00463
   9   28725.6    348.1   0.126949445   1.45491  -0.61144  -0.30158  -0.99504
  10   29076.8    343.9   0.014393802   0.16297   0.01136   0.11592   0.38652
  11   29224.9    342.2   0.012839049   0.14463   0.03085   0.01697   0.37867
  12   29400.2    340.1   0.133160089   1.49108   0.25447   0.64530   1.00494
  13   30006.3    333.3   0.059940294   0.65763  -0.20185  -0.55236  -0.55837
  14   30081.9    332.4   0.010930358   0.11962   0.10698  -0.31560  -0.09258
  15   30243.5    330.6   0.022968498   0.25002  -0.31286   0.38507   0.06213
  16   30387.2    329.1   0.109407181   1.18531  -0.07401  -0.58933  -0.91242
  17   30483.4    328.0   0.008867342   0.09576  -0.11386  -0.01326  -0.28745
  18   31580.2    316.7   0.013717897   0.14300  -0.08839   0.25845   0.26153
  19   31981.9    312.7   0.343866907   3.53966  -0.07052  -0.73614  -1.72997
  20   32450.6    308.2   0.029003033   0.29424   0.13392   0.27181   0.44991
  21   32723.6    305.6   0.006535642   0.06575   0.22951   0.04912   0.10326
  22   33366.5    299.7   0.051503026   0.50816  -0.20607  -0.60277  -0.31994
  23   33518.2    298.3   0.105141068   1.03268   0.25986  -0.11613  -0.97554
  24   33814.5    295.7   0.001417560   0.01380  -0.04807  -0.10661   0.01113
  25   34299.8    291.5   0.084377593   0.80986  -0.21260  -0.47688  -0.73297
  26   34881.3    286.7   0.346582097   3.27107   0.15140  -0.75218  -1.63779
  27   35411.5    282.4   0.094499957   0.87854  -0.17275  -0.22038  -0.89450
  28   35654.6    280.5   0.801046290   7.39636   0.53244   0.44572   2.62949
  29   36375.3    274.9   0.120250902   1.08832  -0.19844  -0.19656  -1.00514
  30   36404.0    274.7   0.003781087   0.03419   0.01606  -0.06439   0.17260
  31   37584.6    266.1   0.025725675   0.22534  -0.08279  -0.37098  -0.28436
  32   37823.8    264.4   0.123347317   1.07359   0.24994   0.34443   0.94472
  33   38039.7    262.9   0.163224296   1.41261   0.04757   0.28681  -1.15243
  34   38179.7    261.9   0.004289831   0.03699  -0.12269   0.02623  -0.14577
  35   38406.5    260.4   0.016169405   0.13860   0.31199  -0.05739  -0.19485
  36   38748.1    258.1   0.003027964   0.02573  -0.05264   0.01448  -0.15081
  37   39120.0    255.6   0.029246875   0.24613  -0.17482  -0.22356   0.40692
  38   39482.4    253.3   0.045170341   0.37664   0.08401  -0.55773   0.24192
  39   39641.1    252.3   0.087373448   0.72562  -0.30401   0.58120  -0.54352
  40   40050.9    249.7   0.018586632   0.15278  -0.08943   0.12510   0.35935
  41   40127.4    249.2   0.069178637   0.56755   0.48129   0.54102  -0.20788
  42   40318.0    248.0   0.120985451   0.98789  -0.08441  -0.96953   0.20194

FINAL SINGLE POINT ENERGY     -3320.155876062174

DIPOLE MOMENT
-------------
                                X             Y             Z
Electronic contribution:    -17.01880      18.67595      -9.31030
Nuclear contribution   :     19.47575     -20.77809      10.83375
                        -----------------------------------------
Total Dipole Moment    :      2.45695      -2.10214       1.52345
                        -----------------------------------------
Magnitude (a.u.)       :      3.57443
Magnitude (Debye)      :      9.08547

Rotational constants in cm-1:     0.002654     0.000100     0.000098
Rotational constants in MHz :    79.571117     3.012477     2.942074

                             ****ORCA TERMINATED NORMALLY****
TOTAL RUN TIME: 0 days 0 hours 9 minutes 48 seconds 459 msec
