                         Program Version 4.2.0 -  RELEASE  -
|  1> # ORCA input file
|  2> # SCF done       -175.158070722748          0.000917207531
|  3> ! CAM-B3LYP def2-SVP def2/J RIJCOSX Grid4 TightSCF
|  4> %maxcore 5000
|  5> %tddft
|  6>     Mode sTDDFT
|  7>     Ethresh 5.0
|  8>     maxcore 5000
|  9> end
| 10>
| 11> %pal
| 12>   nprocs 6
| 13>   end
| 14> * xyz 0 1
| 15>    C       -2.89638        14.18366        -1.52827
| 16>    S       -4.02740        12.89235        -1.41919
| 17>    C       -2.84521        11.66102        -1.79116
| 18>    C       -1.59939        12.26201        -1.96210
| 19>    C       -1.65545        13.69485        -1.81875
| 20>    N       -0.40003        14.18946        -1.99684
| 21>    C        0.43773        13.12149        -2.22416
| 22>    N        1.79863        13.35210        -2.45824
| 23>    O        2.17431        14.51537        -2.41712
| 24>    O        2.51480        12.39558        -2.69565
| 25>    C       -0.24900        11.92570        -2.19150
| 26>    C       -3.26037        10.31297        -1.88749
| 27>    C       -4.47991         9.80548        -1.24801
| 28>    N       -4.69989         8.54003        -1.44070
| 29>    C       -3.67583         8.10896        -2.22975
| 30>    C       -2.73407         9.19995        -2.51749
| 31>    C       -1.74417         8.73604        -3.46121
| 32>    S       -0.66587         9.63521        -4.32861
| 33>    C       -2.03704         7.33948        -3.64469
| 34>    C       -3.25866         6.99086        -2.91062
| 35>    N       -3.62638         5.70388        -3.16692
| 36>    C       -2.74754         5.25617        -4.02026
| 37>    C       -1.70870         6.21824        -4.38102
| 38>    C       -0.58478         5.96805        -5.23751
| 39>    C        0.60777         6.62645        -5.00196
| 40>    C        1.72307         6.37479        -5.81337
| 41>    C        3.02612         6.87081        -5.76939
| 42>    C        3.63663         7.79716        -4.77924
| 43>    C        2.95935         9.18610        -4.78105
| 44>    N        3.89208        10.15727        -4.26985
| 45>    C        3.63132         7.16775        -3.37193
| 46>    N        4.46637         7.93844        -2.46596
| 47>    C        3.73518         6.26073        -6.86764
| 48>    C        5.00966         6.39565        -7.28410
| 49>    C        5.53943         5.62340        -8.43477
| 50>    C        4.54412         4.71997        -9.09579
| 51>    C        3.26534         4.61830        -8.68527
| 52>    C        2.81216         5.35987        -7.56943
| 53>    C        1.59270         5.43839        -6.92070
| 54>    C        0.36144         4.78047        -7.13808
| 55>    C       -0.68719         5.02776        -6.31013
| 56>    C        6.12644         6.51596        -9.50043
| 57>    C        5.65061         7.73121        -9.79321
| 58>    C        6.17428         8.58161       -10.81868
| 59>    C        5.45297         9.75872       -11.30865
| 60>    N        6.06582        10.41868       -12.24858
| 61>    C        7.23769         9.75291       -12.44537
| 62>    C        7.33621         8.58127       -11.56226
| 63>    C        8.61758         7.94473       -11.75603
| 64>    S        9.16892         6.64369       -10.89730
| 65>    C        9.28034         8.71722       -12.77501
| 66>    C        8.39485         9.82828       -13.17221
| 67>    N        8.98177        10.62012       -14.11215
| 68>    C       10.15115        10.10074       -14.31460
| 69>    C       10.43888         8.89721       -13.51760
| 70>    C       11.68135         8.23574       -13.64699
| 71>    S       12.93473         8.97840       -14.64403
| 72>    C       14.06425         7.72901       -14.38139
| 73>    C       13.54011         6.75213       -13.56716
| 74>    C       12.19237         7.04396       -13.15055
| 75>    N       11.76007         6.02225       -12.38104
| 76>    C       12.78253         5.11384       -12.27410
| 77>    N       12.60557         3.93987       -11.51082
| 78>    O       11.52424         3.78448       -10.97450
| 79>    O       13.54238         3.16944       -11.43900
| 80>    C       13.89213         5.50897       -12.98627
| 81>    H       -3.21845        15.19277        -1.37439
| 82>    H       -0.08489        15.14579        -1.97195
| 83>    H        0.18326        10.95654        -2.32151
| 84>    H       -5.14314        10.40001        -0.64366
| 85>    H       -2.79903         4.23820        -4.36587
| 86>    H        0.68028         7.31313        -4.17554
| 87>    H        4.68104         7.97087        -5.05764
| 88>    H        2.01894         9.13413        -4.20998
| 89>    H        2.69870         9.46171        -5.80908
| 90>    H        4.18723         9.88408        -3.33674
| 91>    H        3.48598        11.08374        -4.21959
| 92>    H        3.94954         6.11370        -3.46230
| 93>    H        2.61567         7.17177        -2.97026
| 94>    H        5.43973         7.88193        -2.74802
| 95>    H        4.39345         7.57837        -1.52103
| 96>    H        5.70178         7.07402        -6.80391
| 97>    H        6.36783         5.00314        -8.05701
| 98>    H        4.90680         4.16034        -9.94400
| 99>    H        2.57541         3.96162        -9.19494
|100>    H        0.26641         4.08516        -7.95901
|101>    H       -1.63451         4.53517        -6.46921
|102>    H        6.94109         6.09637       -10.07001
|103>    H        4.80167         8.12705        -9.24810
|104>    H        4.48842        10.07653       -10.95205
|105>    H       10.83307        10.53686       -15.02416
|106>    H       15.03371         7.77942       -14.83424
|107>    H       10.87469         5.99042       -11.85680
|108>    H       14.81457         4.97331       -13.07282
|109> *
|110>
|111>                          ****END OF INPUT****

CARTESIAN COORDINATES (ANGSTROEM)
---------------------------------
  C     -2.896380   14.183660   -1.528270
  S     -4.027400   12.892350   -1.419190
  C     -2.845210   11.661020   -1.791160
  C     -1.599390   12.262010   -1.962100
  C     -1.655450   13.694850   -1.818750
  N     -0.400030   14.189460   -1.996840
  C      0.437730   13.121490   -2.224160
  N      1.798630   13.352100   -2.458240
  O      2.174310   14.515370   -2.417120
  O      2.514800   12.395580   -2.695650
  C     -0.249000   11.925700   -2.191500
  C     -3.260370   10.312970   -1.887490
  C     -4.479910    9.805480   -1.248010
  N     -4.699890    8.540030   -1.440700
  C     -3.675830    8.108960   -2.229750
  C     -2.734070    9.199950   -2.517490
  C     -1.744170    8.736040   -3.461210
  S     -0.665870    9.635210   -4.328610
  C     -2.037040    7.339480   -3.644690
  C     -3.258660    6.990860   -2.910620
  N     -3.626380    5.703880   -3.166920
  C     -2.747540    5.256170   -4.020260
  C     -1.708700    6.218240   -4.381020
  C     -0.584780    5.968050   -5.237510
  C      0.607770    6.626450   -5.001960
  C      1.723070    6.374790   -5.813370
  C      3.026120    6.870810   -5.769390
  C      3.636630    7.797160   -4.779240
  C      2.959350    9.186100   -4.781050
  N      3.892080   10.157270   -4.269850
  C      3.631320    7.167750   -3.371930
  N      4.466370    7.938440   -2.465960
  C      3.735180    6.260730   -6.867640
  C      5.009660    6.395650   -7.284100
  C      5.539430    5.623400   -8.434770
  C      4.544120    4.719970   -9.095790
  C      3.265340    4.618300   -8.685270
  C      2.812160    5.359870   -7.569430
  C      1.592700    5.438390   -6.920700
  C      0.361440    4.780470   -7.138080
  C     -0.687190    5.027760   -6.310130
  C      6.126440    6.515960   -9.500430
  C      5.650610    7.731210   -9.793210
  C      6.174280    8.581610  -10.818680
  C      5.452970    9.758720  -11.308650
  N      6.065820   10.418680  -12.248580
  C      7.237690    9.752910  -12.445370
  C      7.336210    8.581270  -11.562260
  C      8.617580    7.944730  -11.756030
  S      9.168920    6.643690  -10.897300
  C      9.280340    8.717220  -12.775010
  C      8.394850    9.828280  -13.172210
  N      8.981770   10.620120  -14.112150
  C     10.151150   10.100740  -14.314600
  C     10.438880    8.897210  -13.517600
  C     11.681350    8.235740  -13.646990
  S     12.934730    8.978400  -14.644030
  C     14.064250    7.729010  -14.381390
  C     13.540110    6.752130  -13.567160
  C     12.192370    7.043960  -13.150550
  N     11.760070    6.022250  -12.381040
  C     12.782530    5.113840  -12.274100
  N     12.605570    3.939870  -11.510820
  O     11.524240    3.784480  -10.974500
  O     13.542380    3.169440  -11.439000
  C     13.892130    5.508970  -12.986270
  H     -3.218450   15.192770   -1.374390
  H     -0.084890   15.145790   -1.971950
  H      0.183260   10.956540   -2.321510
  H     -5.143140   10.400010   -0.643660
  H     -2.799030    4.238200   -4.365870
  H      0.680280    7.313130   -4.175540
  H      4.681040    7.970870   -5.057640
  H      2.018940    9.134130   -4.209980
  H      2.698700    9.461710   -5.809080
  H      4.187230    9.884080   -3.336740
  H      3.485980   11.083740   -4.219590
  H      3.949540    6.113700   -3.462300
  H      2.615670    7.171770   -2.970260
  H      5.439730    7.881930   -2.748020
  H      4.393450    7.578370   -1.521030
  H      5.701780    7.074020   -6.803910
  H      6.367830    5.003140   -8.057010
  H      4.906800    4.160340   -9.944000
  H      2.575410    3.961620   -9.194940
  H      0.266410    4.085160   -7.959010
  H     -1.634510    4.535170   -6.469210
  H      6.941090    6.096370  -10.070010
  H      4.801670    8.127050   -9.248100
  H      4.488420   10.076530  -10.952050
  H     10.833070   10.536860  -15.024160
  H     15.033710    7.779420  -14.834240
  H     10.874690    5.990420  -11.856800
  H     14.814570    4.973310  -13.072820

 Total Charge           Charge          ....    0
 Multiplicity           Mult            ....    1
 Number of Electrons    NEL             ....  482
 Basis Dimension        Dim             .... 1080

ORBITAL ENERGIES
----------------

  NO   OCC          E(Eh)            E(eV)
   0   2.0000     -88.984694     -2421.3966
   1   2.0000     -88.977852     -2421.2104
   2   2.0000     -88.905473     -2419.2409
   3   2.0000     -88.891104     -2418.8499
   4   2.0000     -19.246726      -523.7300
   5   2.0000     -19.245675      -523.7014
   6   2.0000     -19.245097      -523.6857
   7   2.0000     -19.243517      -523.6427
   8   2.0000     -14.655674      -398.8012
   9   2.0000     -14.654268      -398.7629
  10   2.0000     -14.474883      -393.8816
  11   2.0000     -14.465010      -393.6129
  12   2.0000     -14.422557      -392.4577
  13   2.0000     -14.413708      -392.2169
  14   2.0000     -14.412406      -392.1815
  15   2.0000     -14.408529      -392.0760
  16   2.0000     -14.382197      -391.3595
  17   2.0000     -14.333871      -390.0445
  18   2.0000     -10.361309      -281.9455
  19   2.0000     -10.360524      -281.9242
  20   2.0000     -10.351430      -281.6767
  21   2.0000     -10.339686      -281.3571
  22   2.0000     -10.335682      -281.2482
  23   2.0000     -10.335490      -281.2430
  24   2.0000     -10.330386      -281.1041
  25   2.0000     -10.330221      -281.0996
  26   2.0000     -10.329701      -281.0855
  27   2.0000     -10.328416      -281.0505
  28   2.0000     -10.326974      -281.0113
  29   2.0000     -10.326630      -281.0019
  30   2.0000     -10.324666      -280.9484
  31   2.0000     -10.324134      -280.9340
  32   2.0000     -10.323788      -280.9246
  33   2.0000     -10.322352      -280.8855
  34   2.0000     -10.322307      -280.8842
  35   2.0000     -10.321595      -280.8649
  36   2.0000     -10.310635      -280.5666
  37   2.0000     -10.309752      -280.5426
  38   2.0000     -10.306195      -280.4458
  39   2.0000     -10.303535      -280.3734
  40   2.0000     -10.299202      -280.2555
  41   2.0000     -10.297908      -280.2203
  42   2.0000     -10.296431      -280.1801
  43   2.0000     -10.296228      -280.1746
  44   2.0000     -10.295035      -280.1421
  45   2.0000     -10.294623      -280.1309
  46   2.0000     -10.293797      -280.1085
  47   2.0000     -10.291499      -280.0459
  48   2.0000     -10.290706      -280.0244
  49   2.0000     -10.289950      -280.0038
  50   2.0000     -10.283766      -279.8355
  51   2.0000     -10.280766      -279.7539
  52   2.0000     -10.280328      -279.7420
  53   2.0000     -10.279405      -279.7168
  54   2.0000     -10.273922      -279.5676
  55   2.0000     -10.272786      -279.5367
  56   2.0000     -10.271656      -279.5060
  57   2.0000     -10.270783      -279.4822
  58   2.0000     -10.269139      -279.4375
  59   2.0000     -10.268557      -279.4217
  60   2.0000     -10.264334      -279.3067
  61   2.0000     -10.262719      -279.2628
  62   2.0000     -10.261571      -279.2316
  63   2.0000     -10.260603      -279.2052
  64   2.0000     -10.258235      -279.1408
  65   2.0000     -10.256615      -279.0967
  66   2.0000      -8.079476      -219.8537
  67   2.0000      -8.072678      -219.6687
  68   2.0000      -8.001977      -217.7449
  69   2.0000      -7.986362      -217.3199
  70   2.0000      -6.048791      -164.5960
  71   2.0000      -6.044309      -164.4740
  72   2.0000      -6.042052      -164.4126
  73   2.0000      -6.041959      -164.4101
  74   2.0000      -6.037561      -164.2904
  75   2.0000      -6.035253      -164.2276
  76   2.0000      -5.970861      -162.4754
  77   2.0000      -5.969240      -162.4313
  78   2.0000      -5.962222      -162.2403
  79   2.0000      -5.955402      -162.0547
  80   2.0000      -5.954571      -162.0321
  81   2.0000      -5.945799      -161.7934
  82   2.0000      -1.325555       -36.0702
  83   2.0000      -1.324710       -36.0472
  84   2.0000      -1.144502       -31.1435
  85   2.0000      -1.143909       -31.1273
  86   2.0000      -1.102040       -29.9880
  87   2.0000      -1.100989       -29.9594
  88   2.0000      -1.085796       -29.5460
  89   2.0000      -1.077963       -29.3329
  90   2.0000      -1.065535       -28.9947
  91   2.0000      -1.058963       -28.8159
  92   2.0000      -0.994664       -27.0662
  93   2.0000      -0.989571       -26.9276
  94   2.0000      -0.983034       -26.7497
  95   2.0000      -0.964783       -26.2531
  96   2.0000      -0.964096       -26.2344
  97   2.0000      -0.955564       -26.0022
  98   2.0000      -0.947868       -25.7928
  99   2.0000      -0.923837       -25.1389
 100   2.0000      -0.919460       -25.0198
 101   2.0000      -0.916828       -24.9482
 102   2.0000      -0.915295       -24.9065
 103   2.0000      -0.900046       -24.4915
 104   2.0000      -0.898092       -24.4383
 105   2.0000      -0.885597       -24.0983
 106   2.0000      -0.884283       -24.0626
 107   2.0000      -0.874892       -23.8070
 108   2.0000      -0.873041       -23.7566
 109   2.0000      -0.863596       -23.4996
 110   2.0000      -0.856796       -23.3146
 111   2.0000      -0.844049       -22.9677
 112   2.0000      -0.836372       -22.7588
 113   2.0000      -0.829536       -22.5728
 114   2.0000      -0.821083       -22.3428
 115   2.0000      -0.816254       -22.2114
 116   2.0000      -0.811061       -22.0701
 117   2.0000      -0.798959       -21.7408
 118   2.0000      -0.789135       -21.4735
 119   2.0000      -0.781595       -21.2683
 120   2.0000      -0.773811       -21.0565
 121   2.0000      -0.768036       -20.8993
 122   2.0000      -0.752591       -20.4790
 123   2.0000      -0.747578       -20.3426
 124   2.0000      -0.738988       -20.1089
 125   2.0000      -0.725658       -19.7462
 126   2.0000      -0.710447       -19.3323
 127   2.0000      -0.708886       -19.2898
 128   2.0000      -0.705837       -19.2068
 129   2.0000      -0.701069       -19.0771
 130   2.0000      -0.699542       -19.0355
 131   2.0000      -0.683801       -18.6072
 132   2.0000      -0.678922       -18.4744
 133   2.0000      -0.676949       -18.4207
 134   2.0000      -0.675799       -18.3894
 135   2.0000      -0.667631       -18.1672
 136   2.0000      -0.666867       -18.1464
 137   2.0000      -0.665902       -18.1201
 138   2.0000      -0.657151       -17.8820
 139   2.0000      -0.648659       -17.6509
 140   2.0000      -0.643919       -17.5219
 141   2.0000      -0.639226       -17.3942
 142   2.0000      -0.637745       -17.3539
 143   2.0000      -0.636976       -17.3330
 144   2.0000      -0.634252       -17.2589
 145   2.0000      -0.633885       -17.2489
 146   2.0000      -0.615342       -16.7443
 147   2.0000      -0.608901       -16.5690
 148   2.0000      -0.604224       -16.4418
 149   2.0000      -0.601703       -16.3732
 150   2.0000      -0.594866       -16.1871
 151   2.0000      -0.590868       -16.0783
 152   2.0000      -0.589982       -16.0542
 153   2.0000      -0.583026       -15.8650
 154   2.0000      -0.579200       -15.7608
 155   2.0000      -0.576553       -15.6888
 156   2.0000      -0.571945       -15.5634
 157   2.0000      -0.568327       -15.4650
 158   2.0000      -0.564567       -15.3626
 159   2.0000      -0.555176       -15.1071
 160   2.0000      -0.551894       -15.0178
 161   2.0000      -0.551172       -14.9982
 162   2.0000      -0.549376       -14.9493
 163   2.0000      -0.548491       -14.9252
 164   2.0000      -0.546088       -14.8598
 165   2.0000      -0.542709       -14.7679
 166   2.0000      -0.541837       -14.7441
 167   2.0000      -0.534842       -14.5538
 168   2.0000      -0.534285       -14.5386
 169   2.0000      -0.532644       -14.4940
 170   2.0000      -0.531214       -14.4551
 171   2.0000      -0.524924       -14.2839
 172   2.0000      -0.522140       -14.2081
 173   2.0000      -0.519827       -14.1452
 174   2.0000      -0.515764       -14.0346
 175   2.0000      -0.511963       -13.9312
 176   2.0000      -0.510380       -13.8881
 177   2.0000      -0.504308       -13.7229
 178   2.0000      -0.500460       -13.6182
 179   2.0000      -0.499358       -13.5882
 180   2.0000      -0.494982       -13.4692
 181   2.0000      -0.492551       -13.4030
 182   2.0000      -0.491433       -13.3726
 183   2.0000      -0.488164       -13.2836
 184   2.0000      -0.487290       -13.2598
 185   2.0000      -0.484313       -13.1788
 186   2.0000      -0.481306       -13.0970
 187   2.0000      -0.477311       -12.9883
 188   2.0000      -0.472555       -12.8589
 189   2.0000      -0.471580       -12.8324
 190   2.0000      -0.467777       -12.7289
 191   2.0000      -0.463511       -12.6128
 192   2.0000      -0.459301       -12.4982
 193   2.0000      -0.455856       -12.4045
 194   2.0000      -0.453607       -12.3433
 195   2.0000      -0.448598       -12.2070
 196   2.0000      -0.446411       -12.1475
 197   2.0000      -0.440865       -11.9966
 198   2.0000      -0.439804       -11.9677
 199   2.0000      -0.438339       -11.9278
 200   2.0000      -0.435065       -11.8387
 201   2.0000      -0.433147       -11.7865
 202   2.0000      -0.429047       -11.6750
 203   2.0000      -0.425790       -11.5863
 204   2.0000      -0.418408       -11.3854
 205   2.0000      -0.414889       -11.2897
 206   2.0000      -0.407595       -11.0912
 207   2.0000      -0.401153       -10.9159
 208   2.0000      -0.399035       -10.8583
 209   2.0000      -0.395278       -10.7561
 210   2.0000      -0.393459       -10.7066
 211   2.0000      -0.391332       -10.6487
 212   2.0000      -0.389916       -10.6101
 213   2.0000      -0.389097       -10.5879
 214   2.0000      -0.383420       -10.4334
 215   2.0000      -0.382261       -10.4019
 216   2.0000      -0.381908       -10.3922
 217   2.0000      -0.375434       -10.2161
 218   2.0000      -0.373345       -10.1592
 219   2.0000      -0.364359        -9.9147
 220   2.0000      -0.360938        -9.8216
 221   2.0000      -0.353903        -9.6302
 222   2.0000      -0.351283        -9.5589
 223   2.0000      -0.350206        -9.5296
 224   2.0000      -0.343527        -9.3478
 225   2.0000      -0.343294        -9.3415
 226   2.0000      -0.338489        -9.2108
 227   2.0000      -0.328480        -8.9384
 228   2.0000      -0.322955        -8.7880
 229   2.0000      -0.318193        -8.6585
 230   2.0000      -0.316674        -8.6171
 231   2.0000      -0.309615        -8.4250
 232   2.0000      -0.302153        -8.2220
 233   2.0000      -0.301755        -8.2112
 234   2.0000      -0.292812        -7.9678
 235   2.0000      -0.284587        -7.7440
 236   2.0000      -0.278047        -7.5660
 237   2.0000      -0.265369        -7.2211
 238   2.0000      -0.263067        -7.1584
 239   2.0000      -0.256805        -6.9880
 240   2.0000      -0.218834        -5.9548
 241   0.0000      -0.111964        -3.0467
 242   0.0000      -0.109263        -2.9732
 243   0.0000      -0.087414        -2.3787
 244   0.0000      -0.084724        -2.3054
 245   0.0000      -0.062984        -1.7139

MULLIKEN ATOMIC CHARGES
-----------------------
   0 C :   -0.197698
   1 S :    0.147283
   2 C :   -0.168849
   3 C :    0.124813
   4 C :    0.168269
   5 N :   -0.047643
   6 C :    0.116872
   7 N :    0.299824
   8 O :   -0.269777
   9 O :   -0.244286
  10 C :   -0.037521
  11 C :    0.026636
  12 C :    0.033430
  13 N :   -0.020952
  14 C :   -0.002992
  15 C :   -0.022162
  16 C :   -0.032803
  17 S :   -0.135760
  18 C :   -0.027124
  19 C :    0.012290
  20 N :   -0.033976
  21 C :    0.053379
  22 C :    0.004385
  23 C :    0.070200
  24 C :   -0.032283
  25 C :    0.030911
  26 C :   -0.004741
  27 C :   -0.064278
  28 C :    0.167767
  29 N :   -0.230826
  30 C :    0.143760
  31 N :   -0.213607
  32 C :    0.096723
  33 C :   -0.154747
  34 C :    0.158486
  35 C :   -0.033582
  36 C :    0.020781
  37 C :    0.016659
  38 C :    0.035827
  39 C :   -0.006232
  40 C :   -0.022285
  41 C :   -0.064021
  42 C :    0.017135
  43 C :    0.024327
  44 C :    0.054742
  45 N :   -0.021369
  46 C :    0.015847
  47 C :   -0.032753
  48 C :    0.012230
  49 S :   -0.161705
  50 C :   -0.056625
  51 C :   -0.021073
  52 N :   -0.008972
  53 C :    0.027109
  54 C :    0.056036
  55 C :   -0.225467
  56 S :    0.141327
  57 C :   -0.104812
  58 C :    0.093069
  59 C :    0.138529
  60 N :   -0.019294
  61 C :    0.148468
  62 N :    0.277139
  63 O :   -0.250156
  64 O :   -0.240279
  65 C :   -0.071776
  66 H :    0.019399
  67 H :    0.140877
  68 H :   -0.012037
  69 H :    0.010402
  70 H :    0.007852
  71 H :   -0.035993
  72 H :   -0.038675
  73 H :   -0.022486
  74 H :   -0.013121
  75 H :    0.080697
  76 H :    0.086091
  77 H :   -0.008102
  78 H :   -0.010445
  79 H :    0.100083
  80 H :    0.095942
  81 H :    0.007603
  82 H :    0.044454
  83 H :   -0.010122
  84 H :   -0.035211
  85 H :   -0.035725
  86 H :   -0.031485
  87 H :    0.014614
  88 H :    0.000778
  89 H :    0.009379
  90 H :    0.022637
  91 H :    0.037219
  92 H :    0.127495
  93 H :   -0.003948
Sum of atomic charges:   -0.0000000

LOEWDIN ATOMIC CHARGES
----------------------
   0 C :   -0.221565
   1 S :    0.476501
   2 C :   -0.173069
   3 C :   -0.053879
   4 C :   -0.006016
   5 N :    0.055948
   6 C :   -0.004071
   7 N :    0.285020
   8 O :   -0.224119
   9 O :   -0.198820
  10 C :   -0.014439
  11 C :   -0.054182
  12 C :    0.069129
  13 N :   -0.073763
  14 C :    0.029131
  15 C :   -0.048681
  16 C :   -0.140117
  17 S :    0.080103
  18 C :   -0.057055
  19 C :    0.038427
  20 N :   -0.082755
  21 C :    0.085203
  22 C :   -0.018877
  23 C :   -0.041794
  24 C :    0.028874
  25 C :   -0.025808
  26 C :   -0.007169
  27 C :   -0.042368
  28 C :    0.032554
  29 N :   -0.129291
  30 C :    0.027986
  31 N :   -0.098447
  32 C :   -0.020757
  33 C :    0.073594
  34 C :   -0.033155
  35 C :   -0.028192
  36 C :   -0.017946
  37 C :   -0.040790
  38 C :   -0.027978
  39 C :   -0.009307
  40 C :   -0.030824
  41 C :    0.040584
  42 C :   -0.044469
  43 C :   -0.018361
  44 C :    0.079745
  45 N :   -0.073962
  46 C :    0.026732
  47 C :   -0.051789
  48 C :   -0.114996
  49 S :    0.097628
  50 C :   -0.080300
  51 C :    0.037790
  52 N :   -0.062164
  53 C :    0.070241
  54 C :   -0.032845
  55 C :   -0.217131
  56 S :    0.478985
  57 C :   -0.160171
  58 C :   -0.074967
  59 C :    0.017127
  60 N :    0.069365
  61 C :    0.000604
  62 N :    0.278793
  63 O :   -0.213030
  64 O :   -0.202687
  65 C :   -0.032883
  66 H :    0.027671
  67 H :    0.094308
  68 H :    0.026051
  69 H :    0.019870
  70 H :    0.024764
  71 H :    0.018620
  72 H :    0.019783
  73 H :   -0.013642
  74 H :    0.012913
  75 H :    0.034430
  76 H :    0.040678
  77 H :    0.001257
  78 H :    0.016138
  79 H :    0.055977
  80 H :    0.056736
  81 H :    0.034585
  82 H :    0.065951
  83 H :    0.026146
  84 H :    0.030330
  85 H :    0.027570
  86 H :    0.024232
  87 H :    0.008752
  88 H :    0.033597
  89 H :    0.026610
  90 H :    0.019382
  91 H :    0.033111
  92 H :    0.018287
  93 H :    0.040817

  Mayer bond orders larger than 0.100000
B(  0-C ,  1-S ) :   1.1496 B(  0-C ,  2-C ) :   0.1176 B(  0-C ,  4-C ) :   1.4374
B(  0-C , 66-H ) :   0.9895 B(  1-S ,  2-C ) :   1.1696 B(  2-C ,  3-C ) :   1.3538
B(  2-C , 11-C ) :   1.1376 B(  3-C ,  4-C ) :   1.2005 B(  3-C , 10-C ) :   1.1608
B(  4-C ,  5-N ) :   1.1493 B(  5-N ,  6-C ) :   1.1616 B(  5-N , 67-H ) :   0.9163
B(  6-C ,  7-N ) :   0.9368 B(  6-C , 10-C ) :   1.5135 B(  7-N ,  8-O ) :   1.4688
B(  7-N ,  9-O ) :   1.5068 B(  8-O ,  9-O ) :   0.2628 B( 10-C , 68-H ) :   1.0034
B( 11-C , 12-C ) :   1.0274 B( 11-C , 15-C ) :   1.5182 B( 12-C , 13-N ) :   1.7397
B( 12-C , 69-H ) :   0.9872 B( 13-N , 14-C ) :   1.2628 B( 14-C , 15-C ) :   1.0761
B( 14-C , 19-C ) :   1.5028 B( 15-C , 16-C ) :   1.0422 B( 16-C , 17-S ) :   1.6601
B( 16-C , 18-C ) :   1.0472 B( 18-C , 19-C ) :   1.0658 B( 18-C , 22-C ) :   1.5197
B( 19-C , 20-N ) :   1.2669 B( 20-N , 21-C ) :   1.7181 B( 21-C , 22-C ) :   1.0383
B( 21-C , 70-H ) :   0.9889 B( 22-C , 23-C ) :   1.0207 B( 23-C , 24-C ) :   1.5121
B( 23-C , 40-C ) :   1.1162 B( 24-C , 25-C ) :   1.1625 B( 24-C , 71-H ) :   0.9772
B( 25-C , 26-C ) :   1.4374 B( 25-C , 38-C ) :   1.1163 B( 26-C , 27-C ) :   1.0321
B( 26-C , 32-C ) :   1.1165 B( 27-C , 28-C ) :   1.0190 B( 27-C , 30-C ) :   1.0402
B( 27-C , 72-H ) :   0.8763 B( 28-C , 29-N ) :   1.1239 B( 28-C , 73-H ) :   0.9152
B( 28-C , 74-H ) :   0.9428 B( 29-N , 75-H ) :   0.9421 B( 29-N , 76-H ) :   0.9609
B( 30-C , 31-N ) :   1.0844 B( 30-C , 77-H ) :   0.9469 B( 30-C , 78-H ) :   0.9313
B( 31-N , 79-H ) :   0.9642 B( 31-N , 80-H ) :   0.9674 B( 32-C , 33-C ) :   1.6317
B( 32-C , 37-C ) :   1.0516 B( 33-C , 34-C ) :   0.9607 B( 33-C , 81-H ) :   0.9854
B( 34-C , 35-C ) :   0.9891 B( 34-C , 41-C ) :   0.9746 B( 34-C , 82-H ) :   0.8535
B( 35-C , 36-C ) :   1.7231 B( 35-C , 83-H ) :   0.9687 B( 36-C , 37-C ) :   1.1296
B( 36-C , 84-H ) :   0.9878 B( 37-C , 38-C ) :   1.4375 B( 38-C , 39-C ) :   1.1442
B( 39-C , 40-C ) :   1.6045 B( 39-C , 85-H ) :   0.9923 B( 40-C , 86-H ) :   0.9866
B( 41-C , 42-C ) :   1.7758 B( 41-C , 87-H ) :   0.9494 B( 42-C , 43-C ) :   1.0944
B( 42-C , 88-H ) :   0.9552 B( 43-C , 44-C ) :   1.0308 B( 43-C , 47-C ) :   1.4910
B( 44-C , 45-N ) :   1.7150 B( 44-C , 89-H ) :   0.9920 B( 45-N , 46-C ) :   1.2738
B( 46-C , 47-C ) :   1.0699 B( 46-C , 51-C ) :   1.5246 B( 47-C , 48-C ) :   1.0712
B( 48-C , 49-S ) :   1.5924 B( 48-C , 50-C ) :   1.0704 B( 49-S , 92-H ) :   0.1765
B( 50-C , 51-C ) :   1.0796 B( 50-C , 54-C ) :   1.4740 B( 51-C , 52-N ) :   1.2570
B( 52-N , 53-C ) :   1.7530 B( 53-C , 54-C ) :   1.0137 B( 53-C , 90-H ) :   0.9803
B( 54-C , 55-C ) :   1.1913 B( 55-C , 56-S ) :   1.1119 B( 55-C , 57-C ) :   0.1135
B( 55-C , 59-C ) :   1.3584 B( 56-S , 57-C ) :   1.2210 B( 57-C , 58-C ) :   1.3949
B( 57-C , 91-H ) :   0.9732 B( 58-C , 59-C ) :   1.2184 B( 58-C , 65-C ) :   1.1104
B( 59-C , 60-N ) :   1.2725 B( 60-N , 61-C ) :   1.1749 B( 60-N , 92-H ) :   0.8215
B( 61-C , 62-N ) :   0.9152 B( 61-C , 65-C ) :   1.5326 B( 62-N , 63-O ) :   1.5029
B( 62-N , 64-O ) :   1.5428 B( 63-O , 64-O ) :   0.2741 B( 65-C , 93-H ) :   1.0230

-----------------------------------------------------------------------------
         ABSORPTION SPECTRUM VIA TRANSITION ELECTRIC DIPOLE MOMENTS
-----------------------------------------------------------------------------
State   Energy  Wavelength   fosc         T2         TX        TY        TZ
        (cm-1)    (nm)                  (au**2)     (au)      (au)      (au)
-----------------------------------------------------------------------------
   0    8837.8   1131.5   0.087355397   3.25401  -1.41168   0.64432   0.91980
   1   11083.8    902.2   0.045800956   1.36039  -0.91403  -0.32061   0.64973
   2   12796.4    781.5   0.011446406   0.29448   0.24189   0.20888   0.43857
   3   13991.4    714.7   0.050258426   1.18256   0.07453  -0.97230  -0.48129
   4   15053.4    664.3   0.164644729   3.60071   1.70647  -0.48320  -0.67469
   5   16049.9    623.1   0.083422359   1.71114  -0.57073   0.76754   0.89235
   6   16238.2    615.8   0.026281723   0.53283   0.12736  -0.66768  -0.26612
   7   16481.7    606.7   0.089673959   1.79119  -0.96495  -0.07521   0.92434
   8   16997.6    588.3   0.197265414   3.82067  -0.67029   1.51156   1.04238
   9   18138.9    551.3   0.019088360   0.34644  -0.00479   0.54968   0.21042
  10   18993.0    526.5   0.036088462   0.62553   0.67843   0.12855  -0.38566
  11   19780.9    505.5   0.283272627   4.71449  -1.97976   0.51289   0.72939
  12   19827.8    504.3   0.001555488   0.02583  -0.11958   0.10667   0.01213
  13   20439.2    489.3   0.008371239   0.13483  -0.16753   0.28341  -0.16262
  14   20548.8    486.6   0.033602879   0.53835  -0.27256  -0.66649  -0.14091
  15   21002.1    476.1   0.243705219   3.82013  -0.19238  -1.83567  -0.64300
  16   21201.4    471.7   0.067803288   1.05284   0.95230   0.20433  -0.32282
  17   21312.3    469.2   0.009264995   0.14312  -0.17092   0.27677   0.19313
  18   22423.3    446.0   0.022902047   0.33624  -0.43514  -0.36590   0.11405
  19   23940.2    417.7   0.135622547   1.86501  -0.51444   1.00566   0.76747
  20   24611.8    406.3   0.001171523   0.01567   0.10703   0.05206  -0.03879
  21   24859.1    402.3   0.033820409   0.44789  -0.56863  -0.13308   0.32685
  22   24877.0    402.0   0.013816456   0.18284   0.37104   0.20608  -0.05194
  23   25355.3    394.4   0.046799586   0.60764  -0.70104  -0.03380   0.33918
  24   25411.0    393.5   0.015776539   0.20439  -0.36631  -0.10171   0.24468
  25   25612.8    390.4   0.014816185   0.19044  -0.34283   0.25013   0.10168
  26   25960.2    385.2   0.148874209   1.88793  -1.14938   0.09421   0.74698
  27   26078.5    383.5   0.285423937   3.60316  -1.67875   0.34337   0.81674
  28   26183.4    381.9   0.033859024   0.42572   0.24806  -0.51237  -0.31884
  29   26492.5    377.5   0.006123684   0.07610  -0.16664  -0.18470   0.11923
  30   26669.9    375.0   0.092694417   1.14422  -0.82867   0.26201   0.62359
  31   26855.8    372.4   0.038739174   0.47488   0.49309   0.40748  -0.25634
  32   27080.8    369.3   0.039732195   0.48301  -0.53076  -0.30311   0.33079
  33   27242.5    367.1   0.003867403   0.04674  -0.02122   0.18299   0.11314
  34   27420.0    364.7   0.121262616   1.45591   1.03536   0.25210  -0.56602
  35   27545.5    363.0   0.008513525   0.10175  -0.28021  -0.14612   0.04336
  36   27608.9    362.2   0.011759761   0.14022  -0.12258  -0.30953  -0.17144
  37   27762.2    360.2   0.050156819   0.59477   0.71088   0.20983  -0.21308
  38   28380.1    352.4   0.113171549   1.31280  -1.06838   0.02489   0.41322
  39   28495.3    350.9   0.034853765   0.40267   0.53712  -0.16725  -0.29360
  40   28613.9    349.5   0.060755674   0.69901   0.51106  -0.63439  -0.18807
  41   29113.0    343.5   0.002195877   0.02483  -0.03505  -0.10826  -0.10901
  42   29605.0    337.8   0.006357764   0.07070  -0.08354   0.23515   0.09178
  43   30185.2    331.3   0.077789112   0.84840   0.84656   0.19568  -0.30568
  44   30273.5    330.3   0.009486689   0.10316  -0.31196  -0.02367   0.07271
  45   30323.0    329.8   0.002379528   0.02583   0.14994   0.03971   0.04215
  46   30585.8    326.9   0.007242789   0.07796   0.18814  -0.16063  -0.12946
  47   31049.2    322.1   0.013862786   0.14699   0.09154  -0.31439  -0.19942
  48   31129.8    321.2   0.000905324   0.00957  -0.01534  -0.09645  -0.00595
  49   31695.1    315.5   0.015136625   0.15722   0.02305   0.37234   0.13436
  50   32111.2    311.4   0.013640549   0.13985   0.28213   0.03887  -0.24236
  51   32230.4    310.3   0.027086711   0.27667  -0.11009  -0.48566  -0.16936
  52   32293.5    309.7   0.193504230   1.97266  -1.03192  -0.44918   0.84027
  53   32491.9    307.8   0.098855641   1.00162   0.77721   0.06766  -0.62688
  54   32621.5    306.5   0.028748684   0.29013  -0.03764  -0.49627  -0.20597
  55   32780.8    305.1   0.045470584   0.45665   0.53988  -0.40504  -0.03350
  56   33121.6    301.9   0.057020616   0.56676  -0.28588  -0.57677  -0.39033
  57   33247.3    300.8   0.003135938   0.03105   0.01574  -0.11832  -0.12963
  58   33556.3    298.0   0.000329100   0.00323   0.04653  -0.02881  -0.01528
  59   33653.8    297.1   0.238774965   2.33577   1.47116  -0.16371  -0.38035
  60   33892.2    295.1   0.023655847   0.22978   0.31284   0.00363  -0.36318
  61   34099.2    293.3   0.016052866   0.15498   0.31715  -0.12141  -0.19915
  62   34117.7    293.1   0.057711355   0.55687   0.67154  -0.09589  -0.31099
  63   34624.2    288.8   0.067668353   0.64340  -0.49646   0.32227   0.54136
  64   34969.0    286.0   0.010214197   0.09616  -0.21235   0.10997   0.19741
  65   35165.1    284.4   0.075720042   0.70888   0.56100  -0.01307  -0.62768
  66   35211.2    284.0   0.038854668   0.36328  -0.55913   0.05269   0.21881
  67   35234.8    283.8   0.043189439   0.40353   0.38770  -0.25976  -0.43098
  68   35350.9    282.9   0.020736374   0.19311  -0.30414   0.30920  -0.07075
  69   35506.7    281.6   0.007943112   0.07365   0.11365  -0.22024  -0.11057
  70   35595.7    280.9   0.119334419   1.10368  -0.85312   0.43664   0.43036
  71   36019.5    277.6   0.069926165   0.63911  -0.25967   0.52771   0.54149
  72   36298.1    275.5   0.102173548   0.92668   0.74884  -0.56543   0.21497
  73   36404.3    274.7   0.123587596   1.11763  -0.85008  -0.44531   0.44351
  74   36423.7    274.5   0.000616432   0.00557  -0.06008   0.02006  -0.03949
  75   36624.5    273.0   0.010369552   0.09321   0.09764  -0.28806   0.02646
  76   36633.3    273.0   0.023726227   0.21322  -0.32608  -0.27066  -0.18340
  77   36701.3    272.5   0.079101260   0.70954   0.64651   0.51003  -0.17729
  78   36801.2    271.7   0.209869746   1.87743  -0.12573   1.35745  -0.13770
  79   36812.0    271.7   0.060051248   0.53704   0.12641   0.52202   0.49856
  80   36920.7    270.9   0.032956398   0.29386  -0.04891  -0.46060   0.28164
  81   37487.4    266.8   0.003199885   0.02810   0.14972  -0.04491  -0.06057
  82   37585.2    266.1   0.031464198   0.27560  -0.24584  -0.46137   0.04793
  83   37658.4    265.5   0.027804085   0.24306   0.27323  -0.28275  -0.29742
  84   37738.1    265.0   0.000945387   0.00825  -0.00578  -0.07271   0.05410
  85   38171.2    262.0   0.046883468   0.40435   0.19656   0.52227  -0.30488
  86   38382.3    260.5   0.052972923   0.45436   0.66245  -0.05073  -0.11376
  87   38504.0    259.7   0.142702795   1.22012  -0.98358   0.18380   0.46788
  88   38652.9    258.7   0.215107422   1.83210  -1.29235   0.03042   0.40125
  89   38844.4    257.4   0.866514272   7.34384  -0.32834  -2.16068   1.60234
  90   39036.8    256.2   0.007499663   0.06325   0.13327   0.11090  -0.18218
  91   39208.4    255.0   0.001537187   0.01291  -0.03735   0.03537   0.10130
  92   39667.4    252.1   0.054056066   0.44863  -0.27742   0.60869   0.03408
  93   39756.2    251.5   0.051279444   0.42463  -0.19746  -0.42220   0.45540
  94   39925.3    250.5   0.009735606   0.08028  -0.21848   0.12874   0.12637
  95   40097.1    249.4   0.334020624   2.74243  -1.48652   0.49284   0.53834
  96   40194.1    248.8   0.079690092   0.65271   0.48069   0.63468  -0.13720
  97   40286.9    248.2   0.062604494   0.51158  -0.19109  -0.49767   0.47686

FINAL SINGLE POINT ENERGY     -4282.855432320036

DIPOLE MOMENT
-------------
                                X             Y             Z
Electronic contribution:      3.55448      13.46943     -19.93284
Nuclear contribution   :     -2.77929     -12.55478      19.68826
                        -----------------------------------------
Total Dipole Moment    :      0.77520       0.91466      -0.24458
                        -----------------------------------------
Magnitude (a.u.)       :      1.22366
Magnitude (Debye)      :      3.11030

Rotational constants in cm-1:     0.002030     0.000330     0.000305
Rotational constants in MHz :    60.853422     9.900818     9.146244

                             ****ORCA TERMINATED NORMALLY****
TOTAL RUN TIME: 0 days 0 hours 9 minutes 48 seconds 94 msec
