                         Program Version 4.2.0 -  RELEASE  -
|  1> # ORCA input file
|  2> # SCF done       -144.816794625763          0.000868887648
|  3> ! CAM-B3LYP def2-SVP def2/J RIJCOSX Grid4 TightSCF
|  4> %maxcore 5000
|  5> %tddft
|  6>     Mode sTDDFT
|  7>     Ethresh 5.0
|  8>     maxcore 5000
|  9> end
| 10>
| 11> %pal
| 12>   nprocs 6
| 13>   end
| 14> * xyz 0 1
| 15>    C        2.08357         1.73211        -0.66508
| 16>    C        3.24743         1.51044        -1.27985
| 17>    C        4.48431         2.20591        -1.04003
| 18>    C        4.70601         3.14467        -0.09095
| 19>    C        5.95973         3.79009         0.06864
| 20>    C        6.19353         4.74016         1.01028
| 21>    C        7.41579         5.43027         1.20006
| 22>    C        7.56265         6.48878         2.20685
| 23>    N        8.73727         7.04241         2.25042
| 24>    C        9.46589         6.40789         1.28609
| 25>    C        8.66452         5.38171         0.60204
| 26>    C        9.48311         4.71750        -0.37985
| 27>    S        9.07310         3.43081        -1.32820
| 28>    C       10.76574         5.38094        -0.31266
| 29>    C       10.72196         6.40640         0.74079
| 30>    N       11.92956         7.02675         0.87053
| 31>    C       12.70813         6.44290         0.00762
| 32>    C       12.06268         5.39113        -0.78491
| 33>    C       12.73279         4.63647        -1.80794
| 34>    C       14.10370         4.47062        -1.75609
| 35>    C       14.75549         3.70939        -2.73968
| 36>    C       16.10163         3.38837        -2.89784
| 37>    C       17.21411         3.82734        -2.00992
| 38>    C       18.03622         2.64126        -1.48189
| 39>    N       17.14210         1.58968        -1.02766
| 40>    C       18.10944         4.86189        -2.72150
| 41>    N       17.36153         6.09243        -2.89137
| 42>    C       16.20009         2.60118        -4.10425
| 43>    C       17.25392         2.05842        -4.74288
| 44>    C       17.10181         1.30058        -6.01314
| 45>    C       15.68873         1.15513        -6.49077
| 46>    C       14.64574         1.71600        -5.85074
| 47>    C       14.84639         2.44921        -4.65836
| 48>    C       13.97827         3.12555        -3.82155
| 49>    C       12.58088         3.32884        -3.85953
| 50>    C       11.98384         4.05790        -2.88157
| 51>    C       17.88382         1.95064        -7.13087
| 52>    C       18.12332         3.26546        -7.17545
| 53>    C       18.83851         3.94206        -8.21163
| 54>    C       19.45365         3.38327        -9.41707
| 55>    N       20.04870         4.26137       -10.17492
| 56>    C       19.87971         5.46046        -9.54374
| 57>    C       19.12355         5.28446        -8.30052
| 58>    C       18.94741         6.55478        -7.64142
| 59>    S       18.18954         6.78062        -6.19547
| 60>    C       19.58560         7.50749        -8.51029
| 61>    C       20.16063         6.79667        -9.66863
| 62>    N       20.78019         7.66511       -10.51886
| 63>    C       20.62375         8.83824        -9.98165
| 64>    C       19.87817         8.84552        -8.71761
| 65>    C       19.59192        10.04423        -8.01939
| 66>    C       18.89296        10.12080        -6.85689
| 67>    C       18.56665        11.31634        -6.15289
| 68>    C       18.83414        12.58323        -6.54726
| 69>    C       18.45900        13.73813        -5.78715
| 70>    C       18.70647        14.98971        -6.17922
| 71>    H        1.20315         1.16403        -0.91089
| 72>    H        1.96537         2.48467         0.09552
| 73>    H        3.29142         0.74473        -2.04428
| 74>    H        5.30955         1.93892        -1.68786
| 75>    H        3.91295         3.43289         0.58617
| 76>    H        6.75615         3.50309        -0.60402
| 77>    H        5.39038         5.02426         1.68126
| 78>    H        6.77854         6.81157         2.87088
| 79>    H       13.72609         6.77176        -0.10960
| 80>    H       14.67496         4.89949        -0.94725
| 81>    H       16.77446         4.34055        -1.14913
| 82>    H       18.71386         3.01550        -0.69467
| 83>    H       18.65765         2.22114        -2.27599
| 84>    H       16.52027         1.94334        -0.30802
| 85>    H       17.67066         0.82119        -0.63005
| 86>    H       18.48080         4.43667        -3.66752
| 87>    H       18.97331         5.08173        -2.08681
| 88>    H       16.57924         5.93881        -3.52066
| 89>    H       17.94687         6.80633        -3.31083
| 90>    H       18.26647         2.16522        -4.38227
| 91>    H       17.52576         0.29691        -5.85552
| 92>    H       15.55196         0.59599        -7.40384
| 93>    H       13.64169         1.60479        -6.23390
| 94>    H       11.99932         2.90679        -4.66540
| 95>    H       10.91949         4.22526        -2.90297
| 96>    H       18.20126         1.29827        -7.93115
| 97>    H       17.76910         3.90187        -6.37394
| 98>    H       19.44681         2.34570        -9.70125
| 99>    H       21.02546         9.71694       -10.45765
|100>    H       19.97080        10.94529        -8.48413
|101>    H       18.54268         9.19892        -6.41302
|102>    H       18.03973        11.17825        -5.21667
|103>    H       19.34746        12.77204        -7.48005
|104>    H       17.94650        13.55595        -4.85140
|105>    H       19.21373        15.19942        -7.10667
|106>    H       18.41154        15.84050        -5.59040
|107> *
|108>
|109>                          ****END OF INPUT****

CARTESIAN COORDINATES (ANGSTROEM)
---------------------------------
  C      2.083570    1.732110   -0.665080
  C      3.247430    1.510440   -1.279850
  C      4.484310    2.205910   -1.040030
  C      4.706010    3.144670   -0.090950
  C      5.959730    3.790090    0.068640
  C      6.193530    4.740160    1.010280
  C      7.415790    5.430270    1.200060
  C      7.562650    6.488780    2.206850
  N      8.737270    7.042410    2.250420
  C      9.465890    6.407890    1.286090
  C      8.664520    5.381710    0.602040
  C      9.483110    4.717500   -0.379850
  S      9.073100    3.430810   -1.328200
  C     10.765740    5.380940   -0.312660
  C     10.721960    6.406400    0.740790
  N     11.929560    7.026750    0.870530
  C     12.708130    6.442900    0.007620
  C     12.062680    5.391130   -0.784910
  C     12.732790    4.636470   -1.807940
  C     14.103700    4.470620   -1.756090
  C     14.755490    3.709390   -2.739680
  C     16.101630    3.388370   -2.897840
  C     17.214110    3.827340   -2.009920
  C     18.036220    2.641260   -1.481890
  N     17.142100    1.589680   -1.027660
  C     18.109440    4.861890   -2.721500
  N     17.361530    6.092430   -2.891370
  C     16.200090    2.601180   -4.104250
  C     17.253920    2.058420   -4.742880
  C     17.101810    1.300580   -6.013140
  C     15.688730    1.155130   -6.490770
  C     14.645740    1.716000   -5.850740
  C     14.846390    2.449210   -4.658360
  C     13.978270    3.125550   -3.821550
  C     12.580880    3.328840   -3.859530
  C     11.983840    4.057900   -2.881570
  C     17.883820    1.950640   -7.130870
  C     18.123320    3.265460   -7.175450
  C     18.838510    3.942060   -8.211630
  C     19.453650    3.383270   -9.417070
  N     20.048700    4.261370  -10.174920
  C     19.879710    5.460460   -9.543740
  C     19.123550    5.284460   -8.300520
  C     18.947410    6.554780   -7.641420
  S     18.189540    6.780620   -6.195470
  C     19.585600    7.507490   -8.510290
  C     20.160630    6.796670   -9.668630
  N     20.780190    7.665110  -10.518860
  C     20.623750    8.838240   -9.981650
  C     19.878170    8.845520   -8.717610
  C     19.591920   10.044230   -8.019390
  C     18.892960   10.120800   -6.856890
  C     18.566650   11.316340   -6.152890
  C     18.834140   12.583230   -6.547260
  C     18.459000   13.738130   -5.787150
  C     18.706470   14.989710   -6.179220
  H      1.203150    1.164030   -0.910890
  H      1.965370    2.484670    0.095520
  H      3.291420    0.744730   -2.044280
  H      5.309550    1.938920   -1.687860
  H      3.912950    3.432890    0.586170
  H      6.756150    3.503090   -0.604020
  H      5.390380    5.024260    1.681260
  H      6.778540    6.811570    2.870880
  H     13.726090    6.771760   -0.109600
  H     14.674960    4.899490   -0.947250
  H     16.774460    4.340550   -1.149130
  H     18.713860    3.015500   -0.694670
  H     18.657650    2.221140   -2.275990
  H     16.520270    1.943340   -0.308020
  H     17.670660    0.821190   -0.630050
  H     18.480800    4.436670   -3.667520
  H     18.973310    5.081730   -2.086810
  H     16.579240    5.938810   -3.520660
  H     17.946870    6.806330   -3.310830
  H     18.266470    2.165220   -4.382270
  H     17.525760    0.296910   -5.855520
  H     15.551960    0.595990   -7.403840
  H     13.641690    1.604790   -6.233900
  H     11.999320    2.906790   -4.665400
  H     10.919490    4.225260   -2.902970
  H     18.201260    1.298270   -7.931150
  H     17.769100    3.901870   -6.373940
  H     19.446810    2.345700   -9.701250
  H     21.025460    9.716940  -10.457650
  H     19.970800   10.945290   -8.484130
  H     18.542680    9.198920   -6.413020
  H     18.039730   11.178250   -5.216670
  H     19.347460   12.772040   -7.480050
  H     17.946500   13.555950   -4.851400
  H     19.213730   15.199420   -7.106670
  H     18.411540   15.840500   -5.590400

 Total Charge           Charge          ....    0
 Multiplicity           Mult            ....    1
 Number of Electrons    NEL             ....  398
 Basis Dimension        Dim             ....  972

ORBITAL ENERGIES
----------------

  NO   OCC          E(Eh)            E(eV)
   0   2.0000     -88.898520     -2419.0517
   1   2.0000     -88.883702     -2418.6485
   2   2.0000     -14.414227      -392.2311
   3   2.0000     -14.412393      -392.1811
   4   2.0000     -14.402171      -391.9030
   5   2.0000     -14.400549      -391.8589
   6   2.0000     -14.375049      -391.1650
   7   2.0000     -14.367631      -390.9631
   8   2.0000     -10.340176      -281.3705
   9   2.0000     -10.331293      -281.1288
  10   2.0000     -10.330256      -281.1006
  11   2.0000     -10.328922      -281.0643
  12   2.0000     -10.326808      -281.0067
  13   2.0000     -10.322418      -280.8873
  14   2.0000     -10.318507      -280.7809
  15   2.0000     -10.317559      -280.7551
  16   2.0000     -10.312373      -280.6139
  17   2.0000     -10.311612      -280.5932
  18   2.0000     -10.304138      -280.3898
  19   2.0000     -10.300487      -280.2905
  20   2.0000     -10.297052      -280.1970
  21   2.0000     -10.295297      -280.1493
  22   2.0000     -10.294681      -280.1325
  23   2.0000     -10.291452      -280.0446
  24   2.0000     -10.291091      -280.0348
  25   2.0000     -10.288818      -279.9730
  26   2.0000     -10.286444      -279.9084
  27   2.0000     -10.285074      -279.8711
  28   2.0000     -10.283327      -279.8235
  29   2.0000     -10.282179      -279.7923
  30   2.0000     -10.281882      -279.7842
  31   2.0000     -10.280911      -279.7578
  32   2.0000     -10.278576      -279.6943
  33   2.0000     -10.277830      -279.6740
  34   2.0000     -10.276830      -279.6468
  35   2.0000     -10.276662      -279.6422
  36   2.0000     -10.276504      -279.6379
  37   2.0000     -10.276458      -279.6366
  38   2.0000     -10.274149      -279.5738
  39   2.0000     -10.273747      -279.5629
  40   2.0000     -10.272775      -279.5364
  41   2.0000     -10.271177      -279.4929
  42   2.0000     -10.271055      -279.4896
  43   2.0000     -10.270127      -279.4644
  44   2.0000     -10.269412      -279.4449
  45   2.0000     -10.269243      -279.4403
  46   2.0000     -10.267292      -279.3872
  47   2.0000     -10.266254      -279.3590
  48   2.0000     -10.265857      -279.3482
  49   2.0000     -10.261256      -279.2230
  50   2.0000     -10.260412      -279.2000
  51   2.0000     -10.258729      -279.1542
  52   2.0000     -10.258450      -279.1466
  53   2.0000     -10.255626      -279.0698
  54   2.0000     -10.254717      -279.0450
  55   2.0000     -10.253476      -279.0113
  56   2.0000      -7.993783      -217.5219
  57   2.0000      -7.979477      -217.1326
  58   2.0000      -5.962594      -162.2504
  59   2.0000      -5.961770      -162.2280
  60   2.0000      -5.953693      -162.0082
  61   2.0000      -5.948342      -161.8626
  62   2.0000      -5.947663      -161.8441
  63   2.0000      -5.939015      -161.6088
  64   2.0000      -1.079641       -29.3785
  65   2.0000      -1.067980       -29.0612
  66   2.0000      -1.060764       -28.8648
  67   2.0000      -1.049285       -28.5525
  68   2.0000      -0.980184       -26.6722
  69   2.0000      -0.959803       -26.1176
  70   2.0000      -0.958923       -26.0936
  71   2.0000      -0.947172       -25.7739
  72   2.0000      -0.946466       -25.7547
  73   2.0000      -0.943560       -25.6756
  74   2.0000      -0.925015       -25.1709
  75   2.0000      -0.916340       -24.9349
  76   2.0000      -0.914596       -24.8874
  77   2.0000      -0.897684       -24.4272
  78   2.0000      -0.893986       -24.3266
  79   2.0000      -0.887741       -24.1567
  80   2.0000      -0.868055       -23.6210
  81   2.0000      -0.859481       -23.3877
  82   2.0000      -0.856944       -23.3186
  83   2.0000      -0.847295       -23.0561
  84   2.0000      -0.846137       -23.0246
  85   2.0000      -0.836217       -22.7546
  86   2.0000      -0.831276       -22.6202
  87   2.0000      -0.827487       -22.5171
  88   2.0000      -0.820521       -22.3275
  89   2.0000      -0.802964       -21.8498
  90   2.0000      -0.794565       -21.6212
  91   2.0000      -0.789767       -21.4907
  92   2.0000      -0.771732       -20.9999
  93   2.0000      -0.763257       -20.7693
  94   2.0000      -0.753110       -20.4932
  95   2.0000      -0.742626       -20.2079
  96   2.0000      -0.734023       -19.9738
  97   2.0000      -0.722776       -19.6677
  98   2.0000      -0.719066       -19.5668
  99   2.0000      -0.710330       -19.3291
 100   2.0000      -0.707464       -19.2511
 101   2.0000      -0.698668       -19.0117
 102   2.0000      -0.691109       -18.8060
 103   2.0000      -0.685727       -18.6596
 104   2.0000      -0.670792       -18.2532
 105   2.0000      -0.666893       -18.1471
 106   2.0000      -0.660212       -17.9653
 107   2.0000      -0.657471       -17.8907
 108   2.0000      -0.653733       -17.7890
 109   2.0000      -0.649027       -17.6609
 110   2.0000      -0.633596       -17.2410
 111   2.0000      -0.630951       -17.1690
 112   2.0000      -0.622599       -16.9418
 113   2.0000      -0.619619       -16.8607
 114   2.0000      -0.608957       -16.5706
 115   2.0000      -0.602747       -16.4016
 116   2.0000      -0.600011       -16.3271
 117   2.0000      -0.587512       -15.9870
 118   2.0000      -0.581381       -15.8202
 119   2.0000      -0.579120       -15.7587
 120   2.0000      -0.575757       -15.6671
 121   2.0000      -0.572883       -15.5889
 122   2.0000      -0.571344       -15.5471
 123   2.0000      -0.560828       -15.2609
 124   2.0000      -0.556751       -15.1500
 125   2.0000      -0.553135       -15.0516
 126   2.0000      -0.549087       -14.9414
 127   2.0000      -0.545875       -14.8540
 128   2.0000      -0.539922       -14.6920
 129   2.0000      -0.539324       -14.6758
 130   2.0000      -0.537363       -14.6224
 131   2.0000      -0.536046       -14.5865
 132   2.0000      -0.532038       -14.4775
 133   2.0000      -0.527053       -14.3418
 134   2.0000      -0.525747       -14.3063
 135   2.0000      -0.520618       -14.1667
 136   2.0000      -0.514333       -13.9957
 137   2.0000      -0.512627       -13.9493
 138   2.0000      -0.511872       -13.9287
 139   2.0000      -0.505371       -13.7518
 140   2.0000      -0.501872       -13.6566
 141   2.0000      -0.497923       -13.5492
 142   2.0000      -0.494479       -13.4555
 143   2.0000      -0.492306       -13.3963
 144   2.0000      -0.490699       -13.3526
 145   2.0000      -0.488264       -13.2863
 146   2.0000      -0.487459       -13.2644
 147   2.0000      -0.481549       -13.1036
 148   2.0000      -0.479343       -13.0436
 149   2.0000      -0.477648       -12.9975
 150   2.0000      -0.475154       -12.9296
 151   2.0000      -0.472892       -12.8680
 152   2.0000      -0.468126       -12.7384
 153   2.0000      -0.466339       -12.6897
 154   2.0000      -0.465017       -12.6538
 155   2.0000      -0.460111       -12.5203
 156   2.0000      -0.455250       -12.3880
 157   2.0000      -0.446967       -12.1626
 158   2.0000      -0.440043       -11.9742
 159   2.0000      -0.438181       -11.9235
 160   2.0000      -0.437029       -11.8922
 161   2.0000      -0.434463       -11.8224
 162   2.0000      -0.431905       -11.7527
 163   2.0000      -0.430399       -11.7118
 164   2.0000      -0.427959       -11.6454
 165   2.0000      -0.427377       -11.6295
 166   2.0000      -0.426290       -11.5999
 167   2.0000      -0.424524       -11.5519
 168   2.0000      -0.423569       -11.5259
 169   2.0000      -0.421292       -11.4639
 170   2.0000      -0.419603       -11.4180
 171   2.0000      -0.411059       -11.1855
 172   2.0000      -0.407166       -11.0796
 173   2.0000      -0.405053       -11.0220
 174   2.0000      -0.394387       -10.7318
 175   2.0000      -0.388716       -10.5775
 176   2.0000      -0.387263       -10.5380
 177   2.0000      -0.380110       -10.3433
 178   2.0000      -0.379494       -10.3266
 179   2.0000      -0.359067        -9.7707
 180   2.0000      -0.353437        -9.6175
 181   2.0000      -0.349861        -9.5202
 182   2.0000      -0.342267        -9.3135
 183   2.0000      -0.341679        -9.2976
 184   2.0000      -0.337947        -9.1960
 185   2.0000      -0.332707        -9.0534
 186   2.0000      -0.323112        -8.7923
 187   2.0000      -0.322524        -8.7763
 188   2.0000      -0.314310        -8.5528
 189   2.0000      -0.301890        -8.2148
 190   2.0000      -0.298612        -8.1257
 191   2.0000      -0.294651        -8.0179
 192   2.0000      -0.289866        -7.8877
 193   2.0000      -0.286000        -7.7825
 194   2.0000      -0.279158        -7.5963
 195   2.0000      -0.269236        -7.3263
 196   2.0000      -0.261292        -7.1101
 197   2.0000      -0.251227        -6.8362
 198   2.0000      -0.214369        -5.8333
 199   0.0000      -0.109791        -2.9876
 200   0.0000      -0.099391        -2.7046
 201   0.0000      -0.080730        -2.1968
 202   0.0000      -0.074167        -2.0182
 203   0.0000      -0.052987        -1.4419

MULLIKEN ATOMIC CHARGES
-----------------------
   0 C :   -0.008521
   1 C :   -0.003607
   2 C :    0.018622
   3 C :    0.022175
   4 C :    0.050429
   5 C :   -0.038282
   6 C :    0.026577
   7 C :    0.051820
   8 N :   -0.028356
   9 C :    0.000503
  10 C :   -0.008514
  11 C :   -0.009535
  12 S :   -0.136756
  13 C :   -0.021172
  14 C :   -0.000415
  15 N :   -0.030973
  16 C :    0.044929
  17 C :   -0.000936
  18 C :    0.080784
  19 C :   -0.106023
  20 C :    0.043806
  21 C :   -0.009017
  22 C :   -0.071938
  23 C :    0.152268
  24 N :   -0.210263
  25 C :    0.156608
  26 N :   -0.225837
  27 C :    0.128841
  28 C :   -0.174130
  29 C :    0.175142
  30 C :   -0.032490
  31 C :    0.021373
  32 C :    0.010097
  33 C :    0.047573
  34 C :   -0.014246
  35 C :    0.018612
  36 C :   -0.092290
  37 C :    0.015883
  38 C :    0.014508
  39 C :    0.047467
  40 N :   -0.030075
  41 C :    0.022490
  42 C :   -0.007011
  43 C :    0.009086
  44 S :   -0.156142
  45 C :   -0.012213
  46 C :   -0.013824
  47 N :   -0.023665
  48 C :    0.055724
  49 C :    0.019163
  50 C :   -0.009099
  51 C :    0.051839
  52 C :    0.003280
  53 C :    0.033863
  54 C :    0.002208
  55 C :   -0.009432
  56 H :    0.026786
  57 H :    0.017855
  58 H :   -0.001891
  59 H :    0.000811
  60 H :   -0.020479
  61 H :   -0.008933
  62 H :   -0.030741
  63 H :    0.000536
  64 H :    0.012514
  65 H :   -0.035418
  66 H :   -0.019809
  67 H :   -0.012321
  68 H :   -0.020457
  69 H :    0.091305
  70 H :    0.088406
  71 H :   -0.027440
  72 H :   -0.011596
  73 H :    0.100826
  74 H :    0.094492
  75 H :   -0.000442
  76 H :    0.030339
  77 H :   -0.017603
  78 H :   -0.035987
  79 H :   -0.039186
  80 H :   -0.029490
  81 H :   -0.000678
  82 H :    0.018149
  83 H :    0.003850
  84 H :    0.005060
  85 H :   -0.032104
  86 H :   -0.016893
  87 H :   -0.008616
  88 H :   -0.008025
  89 H :   -0.002490
  90 H :    0.018709
  91 H :    0.030051
Sum of atomic charges:   -0.0000000

LOEWDIN ATOMIC CHARGES
----------------------
   0 C :   -0.025028
   1 C :   -0.035182
   2 C :   -0.008902
   3 C :   -0.018475
   4 C :    0.021625
   5 C :   -0.048732
   6 C :   -0.029924
   7 C :    0.077582
   8 N :   -0.079631
   9 C :    0.030991
  10 C :   -0.051947
  11 C :   -0.129609
  12 S :    0.062796
  13 C :   -0.054057
  14 C :    0.032112
  15 N :   -0.081182
  16 C :    0.080427
  17 C :   -0.018846
  18 C :   -0.030859
  19 C :    0.004502
  20 C :   -0.025322
  21 C :   -0.010979
  22 C :   -0.041400
  23 C :    0.025055
  24 N :   -0.115850
  25 C :    0.029696
  26 N :   -0.117528
  27 C :   -0.009623
  28 C :    0.068640
  29 C :   -0.030719
  30 C :   -0.034201
  31 C :   -0.014522
  32 C :   -0.037998
  33 C :   -0.025500
  34 C :   -0.011421
  35 C :   -0.016924
  36 C :    0.015663
  37 C :   -0.028306
  38 C :   -0.030950
  39 C :    0.081616
  40 N :   -0.079777
  41 C :    0.029225
  42 C :   -0.042464
  43 C :   -0.129876
  44 S :    0.048516
  45 C :   -0.053724
  46 C :    0.039087
  47 N :   -0.076188
  48 C :    0.083806
  49 C :   -0.025219
  50 C :   -0.039041
  51 C :    0.019971
  52 C :   -0.036823
  53 C :    0.010090
  54 C :   -0.026493
  55 C :   -0.028094
  56 H :    0.026599
  57 H :    0.020641
  58 H :    0.030562
  59 H :    0.032955
  60 H :    0.023575
  61 H :    0.007498
  62 H :    0.025209
  63 H :    0.022594
  64 H :    0.025139
  65 H :    0.024157
  66 H :    0.025176
  67 H :    0.000568
  68 H :    0.009336
  69 H :    0.053729
  70 H :    0.053874
  71 H :   -0.005794
  72 H :    0.014139
  73 H :    0.050568
  74 H :    0.046205
  75 H :    0.027057
  76 H :    0.057165
  77 H :    0.022421
  78 H :    0.030604
  79 H :    0.027157
  80 H :    0.013465
  81 H :    0.023410
  82 H :    0.030504
  83 H :    0.022281
  84 H :    0.024464
  85 H :    0.024349
  86 H :    0.009607
  87 H :    0.031816
  88 H :    0.026414
  89 H :    0.031442
  90 H :    0.023295
  91 H :    0.027730

  Mayer bond orders larger than 0.100000
B(  0-C ,  1-C ) :   1.9321 B(  0-C , 56-H ) :   0.9527 B(  0-C , 57-H ) :   0.9517
B(  1-C ,  2-C ) :   1.1023 B(  1-C , 58-H ) :   0.9651 B(  2-C ,  3-C ) :   1.6846
B(  2-C , 59-H ) :   0.9761 B(  3-C ,  4-C ) :   1.1558 B(  3-C , 60-H ) :   0.9796
B(  4-C ,  5-C ) :   1.5990 B(  4-C , 61-H ) :   0.9554 B(  5-C ,  6-C ) :   1.1291
B(  5-C , 62-H ) :   0.9716 B(  6-C ,  7-C ) :   1.0196 B(  6-C , 10-C ) :   1.4543
B(  7-C ,  8-N ) :   1.7265 B(  7-C , 63-H ) :   0.9908 B(  8-N ,  9-C ) :   1.2608
B(  9-C , 10-C ) :   1.0799 B(  9-C , 14-C ) :   1.5203 B( 10-C , 11-C ) :   1.0646
B( 11-C , 12-S ) :   1.6619 B( 11-C , 13-C ) :   1.0362 B( 12-S , 61-H ) :   0.1150
B( 13-C , 14-C ) :   1.0720 B( 13-C , 17-C ) :   1.5251 B( 14-C , 15-N ) :   1.2587
B( 15-N , 16-C ) :   1.7302 B( 16-C , 17-C ) :   1.0378 B( 16-C , 64-H ) :   0.9856
B( 17-C , 18-C ) :   1.0221 B( 18-C , 19-C ) :   1.4882 B( 18-C , 35-C ) :   1.1396
B( 19-C , 20-C ) :   1.1465 B( 19-C , 65-H ) :   0.9921 B( 20-C , 21-C ) :   1.4797
B( 20-C , 33-C ) :   1.1142 B( 21-C , 22-C ) :   1.0361 B( 21-C , 27-C ) :   1.0772
B( 22-C , 23-C ) :   1.0401 B( 22-C , 25-C ) :   1.0410 B( 22-C , 66-H ) :   0.8785
B( 23-C , 24-N ) :   1.0981 B( 23-C , 67-H ) :   0.9377 B( 23-C , 68-H ) :   0.9305
B( 24-N , 69-H ) :   0.9697 B( 24-N , 70-H ) :   0.9680 B( 25-C , 26-N ) :   1.1023
B( 25-C , 71-H ) :   0.9250 B( 25-C , 72-H ) :   0.9344 B( 26-N , 73-H ) :   0.9705
B( 26-N , 74-H ) :   0.9669 B( 27-C , 28-C ) :   1.6390 B( 27-C , 32-C ) :   1.0668
B( 28-C , 29-C ) :   0.9716 B( 28-C , 75-H ) :   0.9767 B( 29-C , 30-C ) :   0.9857
B( 29-C , 36-C ) :   0.9597 B( 29-C , 76-H ) :   0.8597 B( 30-C , 31-C ) :   1.7301
B( 30-C , 77-H ) :   0.9659 B( 31-C , 32-C ) :   1.1310 B( 31-C , 78-H ) :   0.9875
B( 32-C , 33-C ) :   1.4397 B( 33-C , 34-C ) :   1.1325 B( 34-C , 35-C ) :   1.6139
B( 34-C , 79-H ) :   0.9931 B( 35-C , 80-H ) :   0.9675 B( 36-C , 37-C ) :   1.7913
B( 36-C , 81-H ) :   0.9699 B( 37-C , 38-C ) :   1.0854 B( 37-C , 82-H ) :   0.9524
B( 38-C , 39-C ) :   1.0117 B( 38-C , 42-C ) :   1.5315 B( 39-C , 40-N ) :   1.7336
B( 39-C , 83-H ) :   0.9914 B( 40-N , 41-C ) :   1.2592 B( 41-C , 42-C ) :   1.0690
B( 41-C , 46-C ) :   1.5250 B( 42-C , 43-C ) :   1.0334 B( 43-C , 44-S ) :   1.6559
B( 43-C , 45-C ) :   1.0667 B( 44-S , 86-H ) :   0.1181 B( 45-C , 46-C ) :   1.0847
B( 45-C , 49-C ) :   1.4468 B( 46-C , 47-N ) :   1.2571 B( 47-N , 48-C ) :   1.7272
B( 48-C , 49-C ) :   1.0157 B( 48-C , 84-H ) :   0.9900 B( 49-C , 50-C ) :   1.1597
B( 50-C , 51-C ) :   1.6301 B( 50-C , 85-H ) :   0.9583 B( 51-C , 52-C ) :   1.1464
B( 51-C , 86-H ) :   0.9463 B( 52-C , 53-C ) :   1.6904 B( 52-C , 87-H ) :   0.9775
B( 53-C , 54-C ) :   1.1246 B( 53-C , 88-H ) :   0.9650 B( 54-C , 55-C ) :   1.8855
B( 54-C , 89-H ) :   0.9774 B( 55-C , 90-H ) :   0.9581 B( 55-C , 91-H ) :   0.9531

-----------------------------------------------------------------------------
         ABSORPTION SPECTRUM VIA TRANSITION ELECTRIC DIPOLE MOMENTS
-----------------------------------------------------------------------------
State   Energy  Wavelength   fosc         T2         TX        TY        TZ
        (cm-1)    (nm)                  (au**2)     (au)      (au)      (au)
-----------------------------------------------------------------------------
   0    9981.1   1001.9   0.096745932   3.19102   1.52458   0.38842  -0.84606
   1   10582.1    945.0   0.063953967   1.98962  -1.29613   0.44957   0.32798
   2   13602.0    735.2   0.027419511   0.66364  -0.03557   0.17830   0.79409
   3   14735.2    678.6   0.029997598   0.67020   0.52359   0.38895  -0.49474
   4   15753.4    634.8   0.094889893   1.98299  -1.25376  -0.59121   0.24811
   5   15878.1    629.8   0.164556262   3.41185  -0.16304   1.80725   0.34513
   6   16194.6    617.5   0.101551553   2.06439  -1.31481  -0.57324  -0.08400
   7   16823.7    594.4   0.000196555   0.00385  -0.00749   0.05666  -0.02408
   8   17562.7    569.4   0.090727887   1.70069   0.75984  -0.41116  -0.97687
   9   18819.7    531.4   0.077567389   1.35688  -0.88488   0.20828   0.72834
  10   19278.9    518.7   0.001032075   0.01762  -0.02227  -0.13045   0.01054
  11   19284.7    518.5   0.007987526   0.13636  -0.19026  -0.25176   0.19176
  12   20354.6    491.3   0.023559465   0.38105   0.53641  -0.11456  -0.28317
  13   21705.2    460.7   0.470834313   7.14135   0.31265   2.62630   0.38233
  14   21989.1    454.8   0.375624215   5.62368  -2.28360  -0.63928   0.01305
  15   23746.6    421.1   0.003493192   0.04843  -0.18817   0.04000   0.10686
  16   24685.8    405.1   0.375079350   5.00209   2.00243   0.89514  -0.43711
  17   24748.0    404.1   0.186362253   2.47909   1.09606  -1.03859  -0.44617
  18   25079.7    398.7   0.049530892   0.65017  -0.18026   0.78209   0.07750
  19   25560.0    391.2   0.012667744   0.16316  -0.03188  -0.32568  -0.23681
  20   26177.7    382.0   0.055055376   0.69238  -0.49702   0.45830   0.48508
  21   26234.1    381.2   0.002147419   0.02695  -0.14387  -0.02000  -0.07647
  22   26400.0    378.8   0.290854587   3.62699   1.71731   0.13678  -0.81186
  23   26586.4    376.1   0.001809001   0.02240  -0.01207   0.07838   0.12693
  24   26595.3    376.0   0.002177360   0.02695   0.14317   0.07782  -0.01999
  25   26616.3    375.7   0.040147008   0.49657   0.68274  -0.06148  -0.16325
  26   27357.9    365.5   0.063440449   0.76341  -0.71096  -0.31085   0.40164
  27   27400.5    365.0   0.100731388   1.21027  -0.88747  -0.44751   0.47159
  28   27885.3    358.6   0.194262043   2.29345  -0.25866   1.49141   0.04725
  29   28053.4    356.5   0.066419152   0.77944  -0.13032   0.86865   0.08889
  30   28083.9    356.1   0.046188301   0.54144  -0.14037   0.67582   0.25496
  31   29315.2    341.1   0.002062840   0.02317  -0.12065  -0.08993  -0.02284
  32   29537.0    338.6   0.012626317   0.14073  -0.09341   0.22424   0.28587
  33   29835.0    335.2   0.000754845   0.00833  -0.07462   0.01929   0.04888
  34   29894.8    334.5   0.012525073   0.13793  -0.25928   0.25135   0.08676
  35   29945.0    333.9   0.002280830   0.02508   0.09150  -0.11995  -0.04812
  36   30445.9    328.5   0.029170563   0.31542  -0.46965  -0.09439   0.29316
  37   30707.7    325.7   0.010620655   0.11386   0.21502  -0.20065  -0.16544
  38   30877.3    323.9   0.004227659   0.04508   0.09185  -0.00481  -0.19135
  39   31004.4    322.5   0.001441711   0.01531  -0.05670   0.08412   0.07084
  40   31096.3    321.6   0.069262119   0.73327  -0.55919   0.29496   0.57755
  41   31485.0    317.6   0.013133674   0.13733  -0.17796   0.22023   0.23907
  42   31850.1    314.0   0.152485920   1.57614  -1.11456  -0.06857   0.57375
  43   32096.5    311.6   0.185297483   1.90058  -0.19376  -1.35871   0.13015
  44   32441.1    308.3   0.018252650   0.18523   0.41088   0.05876   0.11381
  45   32650.0    306.3   0.002957463   0.02982   0.10812  -0.04318  -0.12753
  46   32765.7    305.2   0.001224569   0.01230   0.00623  -0.10788   0.02505
  47   32950.4    303.5   0.049689898   0.49646  -0.61506  -0.06994   0.33655
  48   33409.9    299.3   0.000538743   0.00531  -0.05233  -0.04973  -0.00982
  49   33450.8    298.9   0.113440930   1.11645  -0.15028  -1.04530   0.03485
  50   33983.6    294.3   0.059312799   0.57458   0.03370   0.71856   0.23900
  51   34105.0    293.2   0.075976707   0.73340  -0.54116   0.40280   0.52754
  52   34234.6    292.1   0.111844467   1.07553  -0.07335   1.03447   0.00527
  53   34656.1    288.5   0.192997197   1.83336  -1.21038   0.38923   0.46565
  54   34761.2    287.7   0.021920505   0.20760   0.34509   0.23925  -0.17685
  55   35004.8    285.7   0.060632620   0.57023  -0.17733  -0.73347   0.02843
  56   35483.6    281.8   0.021375223   0.19832   0.41615   0.11288   0.11132
  57   35691.1    280.2   0.004108916   0.03790   0.19086   0.03735   0.00888
  58   35783.8    279.5   0.001845901   0.01698  -0.01147   0.09860   0.08443
  59   35980.5    277.9   0.147873291   1.35300   0.86811   0.69068   0.34978
  60   36312.1    275.4   0.190849087   1.73027   0.73937   0.98131   0.46971
  61   36379.1    274.9   0.007306437   0.06612   0.04004  -0.23088  -0.10588
  62   36485.0    274.1   0.002403979   0.02169  -0.01387   0.06182  -0.13296
  63   36631.3    273.0   0.025643254   0.23046  -0.34261   0.09387   0.32290
  64   36702.3    272.5   0.051197571   0.45923   0.20090   0.53222   0.36825
  65   37391.3    267.4   0.075803759   0.66742   0.24253  -0.31725  -0.71270
  66   37631.7    265.7   0.008107337   0.07093   0.24784  -0.00216  -0.09744
  67   37650.2    265.6   0.010226720   0.08942  -0.20895   0.12174   0.17590
  68   37793.9    264.6   0.007578927   0.06602  -0.12131   0.17054   0.14906
  69   37890.7    263.9   0.012800997   0.11122  -0.05322  -0.26304  -0.19798
  70   38212.5    261.7   0.003157238   0.02720   0.09512   0.05497  -0.12301
  71   38723.4    258.2   0.201288583   1.71128   0.43651  -0.71466  -1.00499
  72   38726.9    258.2   0.030082291   0.25573   0.09602  -0.32996  -0.37099
  73   38826.8    257.6   0.409852631   3.47514   0.85484  -0.86343  -1.41381
  74   39119.0    255.6   0.040711486   0.34261  -0.10355  -0.37381  -0.43836
  75   39250.1    254.8   0.014913281   0.12509   0.01075  -0.15716  -0.31666
  76   39290.6    254.5   0.277141131   2.32214   0.02989   1.02584   1.12645
  77   39470.8    253.4   0.340158085   2.83714   0.17419   1.26266   1.10113
  78   39653.3    252.2   0.398862394   3.31146  -0.13602  -1.35131  -1.21117
  79   40015.6    249.9   0.005286354   0.04349   0.03761   0.12533   0.16239

FINAL SINGLE POINT ENERGY     -2972.284391543647

DIPOLE MOMENT
-------------
                                X             Y             Z
Electronic contribution:      1.03845       1.08239      -9.40149
Nuclear contribution   :     -0.46093      -1.40403       8.94482
                        -----------------------------------------
Total Dipole Moment    :      0.57752      -0.32164      -0.45667
                        -----------------------------------------
Magnitude (a.u.)       :      0.80345
Magnitude (Debye)      :      2.04221

Rotational constants in cm-1:     0.001958     0.000546     0.000484
Rotational constants in MHz :    58.684852    16.355673    14.519318

                             ****ORCA TERMINATED NORMALLY****
TOTAL RUN TIME: 0 days 0 hours 10 minutes 20 seconds 402 msec
