                         Program Version 4.2.0 -  RELEASE  -
|  1> # ORCA input file
|  2> # SCF done       -187.704113200864          0.000302390378
|  3> ! CAM-B3LYP def2-SVP def2/J RIJCOSX Grid4 TightSCF
|  4> %maxcore 5000
|  5> %tddft
|  6>     Mode sTDDFT
|  7>     Ethresh 5.0
|  8>     maxcore 5000
|  9> end
| 10>
| 11> %pal
| 12>   nprocs 6
| 13>   end
| 14> * xyz 0 1
| 15>    C        1.77371        -9.79214         3.56512
| 16>    C        3.05157        -9.37262         3.89270
| 17>    C        3.99434       -10.33624         4.25820
| 18>    C        5.30970        -9.93053         4.59235
| 19>    N        6.37138        -9.59612         4.86068
| 20>    C        3.66301       -11.70407         4.29755
| 21>    C        4.63715       -12.65786         4.67604
| 22>    N        5.40962       -13.44694         4.98024
| 23>    C        2.37407       -12.12226         3.96050
| 24>    C        1.45320       -11.16226         3.60229
| 25>    C        0.04563       -11.35214         3.18217
| 26>    O       -0.50754       -12.42396         3.01652
| 27>    C       -0.47188       -10.00918         2.90356
| 28>    C        0.58140        -9.04969         3.15848
| 29>    C        0.46955        -7.68283         3.12503
| 30>    C        1.53401        -6.79617         3.38878
| 31>    N        2.36555        -6.02979         3.58548
| 32>    C       -0.72588        -6.97926         2.86603
| 33>    N       -1.66476        -6.33963         2.69791
| 34>    C       -1.65929        -9.70582         2.27388
| 35>    C       -2.84422       -10.43932         2.11840
| 36>    S       -3.81436        -9.99436         0.72356
| 37>    C       -5.06804       -11.10170         1.16691
| 38>    C       -4.77216       -11.72946         2.37308
| 39>    C       -3.52409       -11.37973         2.90399
| 40>    C       -3.05406       -11.86722         4.23055
| 41>    C       -4.01982       -12.84794         4.90075
| 42>    C       -5.49167       -12.52632         4.60754
| 43>    N       -5.93587       -11.22148         5.07207
| 44>    C       -5.72109       -12.63088         3.09634
| 45>    C       -6.20767       -11.29622         0.33972
| 46>    C       -6.45263       -10.57126        -0.77403
| 47>    C       -7.58664       -10.77103        -1.61932
| 48>    C       -7.86376       -10.03032        -2.70677
| 49>    C       -6.99922        -8.89917        -3.17501
| 50>    C       -9.09079       -10.25693        -3.55537
| 51>    N      -10.00247       -11.23729        -3.04117
| 52>    C      -10.48453       -12.28558        -3.72306
| 53>    C      -11.37644       -13.17746        -3.20386
| 54>    C      -11.94264       -14.23782        -3.92368
| 55>    C      -12.85135       -15.11459        -3.38074
| 56>    C      -13.58031       -16.14127        -4.02086
| 57>    C      -14.46318       -16.79423        -3.20877
| 58>    C      -14.45963       -16.32891        -1.87774
| 59>    S      -13.30654       -15.03979        -1.68207
| 60>    C      -15.23279       -16.72074        -0.79495
| 61>    C      -16.34097       -17.58051        -0.71040
| 62>    C      -16.91957       -17.59871         0.52924
| 63>    C      -16.30246       -16.75528         1.48098
| 64>    S      -14.93199       -15.97226         0.75613
| 65>    C      -16.66178       -16.64093         2.81981
| 66>    C      -16.08006       -15.88135         3.82323
| 67>    C      -15.15979       -14.83765         3.78105
| 68>    C      -14.24279       -14.65773         4.92822
| 69>    O      -14.30679       -15.19430         6.01487
| 70>    C      -13.19107       -13.72985         4.44733
| 71>    C      -12.02403       -13.35525         5.04263
| 72>    C      -11.12766       -12.51590         4.33703
| 73>    C      -11.47274       -12.07401         3.02842
| 74>    C      -10.56466       -11.26294         2.32172
| 75>    C       -9.37638       -10.91995         2.90305
| 76>    C       -9.01588       -11.33725         4.18896
| 77>    C       -9.89196       -12.12407         4.88778
| 78>    F       -8.49944       -10.15671         2.20593
| 79>    C      -12.70467       -12.45849         2.44733
| 80>    C      -13.54667       -13.27506         3.14691
| 81>    C      -14.83664       -13.86477         2.79293
| 82>    C      -15.64334       -13.43589         1.75349
| 83>    C      -16.96850       -13.87334         1.58737
| 84>    N      -18.05643       -14.20837         1.43103
| 85>    C      -15.25122       -12.48546         0.79800
| 86>    N      -14.96209       -11.73931        -0.02852
| 87>    H        3.34295        -8.33464         3.86939
| 88>    H        2.10637       -13.16784         3.98040
| 89>    H       -1.68049        -8.75174         1.75650
| 90>    H       -2.85795       -11.00188         4.87335
| 91>    H       -2.09678       -12.37706         4.09156
| 92>    H       -3.84381       -12.84317         5.97868
| 93>    H       -3.81785       -13.85739         4.53916
| 94>    H       -6.12284       -13.26879         5.11174
| 95>    H       -5.43121       -10.48282         4.59290
| 96>    H       -5.76562       -11.12258         6.06698
| 97>    H       -6.74949       -12.35213         2.86997
| 98>    H       -5.56939       -13.66635         2.78018
| 99>    H       -6.89550       -12.07476         0.63822
|100>    H       -5.75790        -9.78705        -1.04011
|101>    H       -8.24572       -11.58260        -1.34070
|102>    H       -6.99065        -8.09490        -2.44057
|103>    H       -7.36348        -8.49700        -4.11676
|104>    H       -5.97217        -9.22964        -3.31699
|105>    H       -8.77706       -10.56672        -4.55831
|106>    H       -9.60865        -9.29098        -3.66024
|107>    H      -10.36301       -11.07730        -2.11151
|108>    H      -10.12378       -12.39541        -4.73722
|109>    H      -11.70072       -13.04967        -2.17935
|110>    H      -11.68119       -14.36020        -4.96644
|111>    H      -13.44647       -16.35634        -5.06673
|112>    H      -15.10972       -17.59175        -3.52814
|113>    H      -16.70166       -18.13687        -1.55698
|114>    H      -17.78973       -18.17825         0.78121
|115>    H      -17.44725       -17.31930         3.12932
|116>    H      -16.29471       -16.21153         4.83594
|117>    H      -11.77370       -13.70302         6.03376
|118>    H      -10.81230       -10.91309         1.33119
|119>    H       -8.05615       -11.04949         4.59548
|120>    H       -9.63763       -12.46118         5.88146
|121>    H      -12.94214       -12.11312         1.45388
|122> *
|123>
|124>                          ****END OF INPUT****

CARTESIAN COORDINATES (ANGSTROEM)
---------------------------------
  C      1.773710   -9.792140    3.565120
  C      3.051570   -9.372620    3.892700
  C      3.994340  -10.336240    4.258200
  C      5.309700   -9.930530    4.592350
  N      6.371380   -9.596120    4.860680
  C      3.663010  -11.704070    4.297550
  C      4.637150  -12.657860    4.676040
  N      5.409620  -13.446940    4.980240
  C      2.374070  -12.122260    3.960500
  C      1.453200  -11.162260    3.602290
  C      0.045630  -11.352140    3.182170
  O     -0.507540  -12.423960    3.016520
  C     -0.471880  -10.009180    2.903560
  C      0.581400   -9.049690    3.158480
  C      0.469550   -7.682830    3.125030
  C      1.534010   -6.796170    3.388780
  N      2.365550   -6.029790    3.585480
  C     -0.725880   -6.979260    2.866030
  N     -1.664760   -6.339630    2.697910
  C     -1.659290   -9.705820    2.273880
  C     -2.844220  -10.439320    2.118400
  S     -3.814360   -9.994360    0.723560
  C     -5.068040  -11.101700    1.166910
  C     -4.772160  -11.729460    2.373080
  C     -3.524090  -11.379730    2.903990
  C     -3.054060  -11.867220    4.230550
  C     -4.019820  -12.847940    4.900750
  C     -5.491670  -12.526320    4.607540
  N     -5.935870  -11.221480    5.072070
  C     -5.721090  -12.630880    3.096340
  C     -6.207670  -11.296220    0.339720
  C     -6.452630  -10.571260   -0.774030
  C     -7.586640  -10.771030   -1.619320
  C     -7.863760  -10.030320   -2.706770
  C     -6.999220   -8.899170   -3.175010
  C     -9.090790  -10.256930   -3.555370
  N    -10.002470  -11.237290   -3.041170
  C    -10.484530  -12.285580   -3.723060
  C    -11.376440  -13.177460   -3.203860
  C    -11.942640  -14.237820   -3.923680
  C    -12.851350  -15.114590   -3.380740
  C    -13.580310  -16.141270   -4.020860
  C    -14.463180  -16.794230   -3.208770
  C    -14.459630  -16.328910   -1.877740
  S    -13.306540  -15.039790   -1.682070
  C    -15.232790  -16.720740   -0.794950
  C    -16.340970  -17.580510   -0.710400
  C    -16.919570  -17.598710    0.529240
  C    -16.302460  -16.755280    1.480980
  S    -14.931990  -15.972260    0.756130
  C    -16.661780  -16.640930    2.819810
  C    -16.080060  -15.881350    3.823230
  C    -15.159790  -14.837650    3.781050
  C    -14.242790  -14.657730    4.928220
  O    -14.306790  -15.194300    6.014870
  C    -13.191070  -13.729850    4.447330
  C    -12.024030  -13.355250    5.042630
  C    -11.127660  -12.515900    4.337030
  C    -11.472740  -12.074010    3.028420
  C    -10.564660  -11.262940    2.321720
  C     -9.376380  -10.919950    2.903050
  C     -9.015880  -11.337250    4.188960
  C     -9.891960  -12.124070    4.887780
  F     -8.499440  -10.156710    2.205930
  C    -12.704670  -12.458490    2.447330
  C    -13.546670  -13.275060    3.146910
  C    -14.836640  -13.864770    2.792930
  C    -15.643340  -13.435890    1.753490
  C    -16.968500  -13.873340    1.587370
  N    -18.056430  -14.208370    1.431030
  C    -15.251220  -12.485460    0.798000
  N    -14.962090  -11.739310   -0.028520
  H      3.342950   -8.334640    3.869390
  H      2.106370  -13.167840    3.980400
  H     -1.680490   -8.751740    1.756500
  H     -2.857950  -11.001880    4.873350
  H     -2.096780  -12.377060    4.091560
  H     -3.843810  -12.843170    5.978680
  H     -3.817850  -13.857390    4.539160
  H     -6.122840  -13.268790    5.111740
  H     -5.431210  -10.482820    4.592900
  H     -5.765620  -11.122580    6.066980
  H     -6.749490  -12.352130    2.869970
  H     -5.569390  -13.666350    2.780180
  H     -6.895500  -12.074760    0.638220
  H     -5.757900   -9.787050   -1.040110
  H     -8.245720  -11.582600   -1.340700
  H     -6.990650   -8.094900   -2.440570
  H     -7.363480   -8.497000   -4.116760
  H     -5.972170   -9.229640   -3.316990
  H     -8.777060  -10.566720   -4.558310
  H     -9.608650   -9.290980   -3.660240
  H    -10.363010  -11.077300   -2.111510
  H    -10.123780  -12.395410   -4.737220
  H    -11.700720  -13.049670   -2.179350
  H    -11.681190  -14.360200   -4.966440
  H    -13.446470  -16.356340   -5.066730
  H    -15.109720  -17.591750   -3.528140
  H    -16.701660  -18.136870   -1.556980
  H    -17.789730  -18.178250    0.781210
  H    -17.447250  -17.319300    3.129320
  H    -16.294710  -16.211530    4.835940
  H    -11.773700  -13.703020    6.033760
  H    -10.812300  -10.913090    1.331190
  H     -8.056150  -11.049490    4.595480
  H     -9.637630  -12.461180    5.881460
  H    -12.942140  -12.113120    1.453880

 Total Charge           Charge          ....    0
 Multiplicity           Mult            ....    1
 Number of Electrons    NEL             ....  512
 Basis Dimension        Dim             .... 1195

ORBITAL ENERGIES
----------------

  NO   OCC          E(Eh)            E(eV)
   0   2.0000     -88.976705     -2421.1792
   1   2.0000     -88.958402     -2420.6812
   2   2.0000     -88.953596     -2420.5504
   3   2.0000     -24.780356      -674.3078
   4   2.0000     -19.236185      -523.4432
   5   2.0000     -19.185036      -522.0514
   6   2.0000     -14.477955      -393.9652
   7   2.0000     -14.431220      -392.6935
   8   2.0000     -14.430350      -392.6698
   9   2.0000     -14.428845      -392.6288
  10   2.0000     -14.426937      -392.5769
  11   2.0000     -14.405029      -391.9808
  12   2.0000     -14.389244      -391.5512
  13   2.0000     -14.382868      -391.3777
  14   2.0000     -10.386737      -282.6375
  15   2.0000     -10.361811      -281.9592
  16   2.0000     -10.359115      -281.8859
  17   2.0000     -10.358744      -281.8758
  18   2.0000     -10.358726      -281.8753
  19   2.0000     -10.358676      -281.8739
  20   2.0000     -10.354852      -281.7699
  21   2.0000     -10.349358      -281.6203
  22   2.0000     -10.340623      -281.3827
  23   2.0000     -10.338191      -281.3165
  24   2.0000     -10.336389      -281.2674
  25   2.0000     -10.334628      -281.2195
  26   2.0000     -10.333373      -281.1854
  27   2.0000     -10.333350      -281.1847
  28   2.0000     -10.333198      -281.1806
  29   2.0000     -10.333020      -281.1758
  30   2.0000     -10.332220      -281.1540
  31   2.0000     -10.327924      -281.0371
  32   2.0000     -10.325471      -280.9703
  33   2.0000     -10.324083      -280.9326
  34   2.0000     -10.323362      -280.9130
  35   2.0000     -10.316123      -280.7160
  36   2.0000     -10.316085      -280.7149
  37   2.0000     -10.314927      -280.6834
  38   2.0000     -10.312889      -280.6280
  39   2.0000     -10.312195      -280.6091
  40   2.0000     -10.311791      -280.5981
  41   2.0000     -10.310315      -280.5579
  42   2.0000     -10.307095      -280.4703
  43   2.0000     -10.306025      -280.4412
  44   2.0000     -10.305779      -280.4345
  45   2.0000     -10.303999      -280.3861
  46   2.0000     -10.303266      -280.3661
  47   2.0000     -10.302355      -280.3413
  48   2.0000     -10.301024      -280.3051
  49   2.0000     -10.295412      -280.1524
  50   2.0000     -10.294883      -280.1380
  51   2.0000     -10.294189      -280.1191
  52   2.0000     -10.293175      -280.0915
  53   2.0000     -10.287698      -279.9425
  54   2.0000     -10.287218      -279.9294
  55   2.0000     -10.286430      -279.9080
  56   2.0000     -10.285982      -279.8958
  57   2.0000     -10.285666      -279.8872
  58   2.0000     -10.281942      -279.7859
  59   2.0000     -10.281457      -279.7727
  60   2.0000     -10.281390      -279.7709
  61   2.0000     -10.280069      -279.7349
  62   2.0000     -10.278804      -279.7005
  63   2.0000     -10.277973      -279.6779
  64   2.0000     -10.277768      -279.6723
  65   2.0000     -10.277006      -279.6516
  66   2.0000     -10.274272      -279.5772
  67   2.0000     -10.274206      -279.5753
  68   2.0000     -10.268672      -279.4248
  69   2.0000     -10.267735      -279.3993
  70   2.0000     -10.266097      -279.3547
  71   2.0000     -10.261255      -279.2229
  72   2.0000      -8.072640      -219.6677
  73   2.0000      -8.054590      -219.1765
  74   2.0000      -8.048388      -219.0078
  75   2.0000      -6.041817      -164.4062
  76   2.0000      -6.037974      -164.3016
  77   2.0000      -6.034554      -164.2086
  78   2.0000      -6.024205      -163.9270
  79   2.0000      -6.020121      -163.8158
  80   2.0000      -6.017732      -163.7508
  81   2.0000      -6.015758      -163.6971
  82   2.0000      -6.013513      -163.6360
  83   2.0000      -6.010399      -163.5513
  84   2.0000      -1.291044       -35.1311
  85   2.0000      -1.149850       -31.2890
  86   2.0000      -1.098885       -29.9022
  87   2.0000      -1.078246       -29.3406
  88   2.0000      -1.042365       -28.3642
  89   2.0000      -1.027982       -27.9728
  90   2.0000      -1.020114       -27.7587
  91   2.0000      -1.010965       -27.5098
  92   2.0000      -1.008870       -27.4527
  93   2.0000      -1.007024       -27.4025
  94   2.0000      -1.005447       -27.3596
  95   2.0000      -0.993371       -27.0310
  96   2.0000      -0.991559       -26.9817
  97   2.0000      -0.978913       -26.6376
  98   2.0000      -0.978572       -26.6283
  99   2.0000      -0.976427       -26.5699
 100   2.0000      -0.964642       -26.2493
 101   2.0000      -0.952386       -25.9158
 102   2.0000      -0.951799       -25.8998
 103   2.0000      -0.930538       -25.3212
 104   2.0000      -0.925654       -25.1883
 105   2.0000      -0.919683       -25.0259
 106   2.0000      -0.912809       -24.8388
 107   2.0000      -0.905314       -24.6349
 108   2.0000      -0.903814       -24.5940
 109   2.0000      -0.893370       -24.3098
 110   2.0000      -0.886498       -24.1228
 111   2.0000      -0.873682       -23.7741
 112   2.0000      -0.871186       -23.7062
 113   2.0000      -0.864870       -23.5343
 114   2.0000      -0.858343       -23.3567
 115   2.0000      -0.852650       -23.2018
 116   2.0000      -0.840636       -22.8749
 117   2.0000      -0.835646       -22.7391
 118   2.0000      -0.829502       -22.5719
 119   2.0000      -0.824664       -22.4403
 120   2.0000      -0.817503       -22.2454
 121   2.0000      -0.814860       -22.1735
 122   2.0000      -0.808787       -22.0082
 123   2.0000      -0.806811       -21.9545
 124   2.0000      -0.787061       -21.4170
 125   2.0000      -0.780095       -21.2275
 126   2.0000      -0.761331       -20.7169
 127   2.0000      -0.752852       -20.4861
 128   2.0000      -0.741649       -20.1813
 129   2.0000      -0.739190       -20.1144
 130   2.0000      -0.734807       -19.9951
 131   2.0000      -0.733252       -19.9528
 132   2.0000      -0.718735       -19.5578
 133   2.0000      -0.714198       -19.4343
 134   2.0000      -0.705422       -19.1955
 135   2.0000      -0.698488       -19.0068
 136   2.0000      -0.688806       -18.7434
 137   2.0000      -0.688239       -18.7279
 138   2.0000      -0.686966       -18.6933
 139   2.0000      -0.677385       -18.4326
 140   2.0000      -0.668297       -18.1853
 141   2.0000      -0.659439       -17.9443
 142   2.0000      -0.656701       -17.8698
 143   2.0000      -0.653393       -17.7797
 144   2.0000      -0.649452       -17.6725
 145   2.0000      -0.645345       -17.5607
 146   2.0000      -0.640304       -17.4236
 147   2.0000      -0.636103       -17.3093
 148   2.0000      -0.630918       -17.1682
 149   2.0000      -0.622630       -16.9426
 150   2.0000      -0.616798       -16.7839
 151   2.0000      -0.614447       -16.7200
 152   2.0000      -0.612314       -16.6619
 153   2.0000      -0.608111       -16.5475
 154   2.0000      -0.599317       -16.3083
 155   2.0000      -0.597301       -16.2534
 156   2.0000      -0.594635       -16.1809
 157   2.0000      -0.593754       -16.1569
 158   2.0000      -0.587309       -15.9815
 159   2.0000      -0.586153       -15.9500
 160   2.0000      -0.576745       -15.6940
 161   2.0000      -0.570358       -15.5202
 162   2.0000      -0.567833       -15.4515
 163   2.0000      -0.565669       -15.3926
 164   2.0000      -0.562451       -15.3051
 165   2.0000      -0.560515       -15.2524
 166   2.0000      -0.556337       -15.1387
 167   2.0000      -0.551669       -15.0117
 168   2.0000      -0.548401       -14.9228
 169   2.0000      -0.546691       -14.8762
 170   2.0000      -0.544361       -14.8128
 171   2.0000      -0.542644       -14.7661
 172   2.0000      -0.536290       -14.5932
 173   2.0000      -0.533340       -14.5129
 174   2.0000      -0.530462       -14.4346
 175   2.0000      -0.530068       -14.4239
 176   2.0000      -0.527128       -14.3439
 177   2.0000      -0.525591       -14.3021
 178   2.0000      -0.524348       -14.2682
 179   2.0000      -0.518870       -14.1192
 180   2.0000      -0.515685       -14.0325
 181   2.0000      -0.515408       -14.0250
 182   2.0000      -0.511894       -13.9293
 183   2.0000      -0.510365       -13.8877
 184   2.0000      -0.508527       -13.8377
 185   2.0000      -0.506685       -13.7876
 186   2.0000      -0.504697       -13.7335
 187   2.0000      -0.504161       -13.7189
 188   2.0000      -0.500749       -13.6261
 189   2.0000      -0.498340       -13.5605
 190   2.0000      -0.498076       -13.5533
 191   2.0000      -0.495066       -13.4714
 192   2.0000      -0.491271       -13.3682
 193   2.0000      -0.489471       -13.3192
 194   2.0000      -0.488235       -13.2856
 195   2.0000      -0.486077       -13.2268
 196   2.0000      -0.483340       -13.1523
 197   2.0000      -0.482257       -13.1229
 198   2.0000      -0.475787       -12.9468
 199   2.0000      -0.475095       -12.9280
 200   2.0000      -0.469396       -12.7729
 201   2.0000      -0.464396       -12.6368
 202   2.0000      -0.463426       -12.6105
 203   2.0000      -0.463026       -12.5996
 204   2.0000      -0.462581       -12.5875
 205   2.0000      -0.461431       -12.5562
 206   2.0000      -0.457829       -12.4582
 207   2.0000      -0.457505       -12.4494
 208   2.0000      -0.456762       -12.4291
 209   2.0000      -0.455505       -12.3949
 210   2.0000      -0.454340       -12.3632
 211   2.0000      -0.451544       -12.2871
 212   2.0000      -0.449137       -12.2217
 213   2.0000      -0.446963       -12.1625
 214   2.0000      -0.442887       -12.0516
 215   2.0000      -0.441205       -12.0058
 216   2.0000      -0.440650       -11.9907
 217   2.0000      -0.438506       -11.9324
 218   2.0000      -0.434852       -11.8329
 219   2.0000      -0.432069       -11.7572
 220   2.0000      -0.430789       -11.7224
 221   2.0000      -0.428642       -11.6640
 222   2.0000      -0.427793       -11.6408
 223   2.0000      -0.427100       -11.6220
 224   2.0000      -0.426925       -11.6172
 225   2.0000      -0.424319       -11.5463
 226   2.0000      -0.420435       -11.4406
 227   2.0000      -0.416714       -11.3394
 228   2.0000      -0.415772       -11.3137
 229   2.0000      -0.414189       -11.2706
 230   2.0000      -0.413414       -11.2496
 231   2.0000      -0.411454       -11.1962
 232   2.0000      -0.408253       -11.1091
 233   2.0000      -0.402610       -10.9556
 234   2.0000      -0.396592       -10.7918
 235   2.0000      -0.391814       -10.6618
 236   2.0000      -0.386277       -10.5111
 237   2.0000      -0.381516       -10.3816
 238   2.0000      -0.372894       -10.1470
 239   2.0000      -0.368245       -10.0205
 240   2.0000      -0.363474        -9.8906
 241   2.0000      -0.359377        -9.7791
 242   2.0000      -0.350071        -9.5259
 243   2.0000      -0.344479        -9.3738
 244   2.0000      -0.343308        -9.3419
 245   2.0000      -0.337513        -9.1842
 246   2.0000      -0.326312        -8.8794
 247   2.0000      -0.325348        -8.8532
 248   2.0000      -0.321765        -8.7557
 249   2.0000      -0.317541        -8.6407
 250   2.0000      -0.308053        -8.3826
 251   2.0000      -0.289795        -7.8857
 252   2.0000      -0.280317        -7.6278
 253   2.0000      -0.275080        -7.4853
 254   2.0000      -0.268995        -7.3197
 255   2.0000      -0.219373        -5.9695
 256   0.0000      -0.114079        -3.1042
 257   0.0000      -0.096853        -2.6355
 258   0.0000      -0.093343        -2.5400
 259   0.0000      -0.051149        -1.3918
 260   0.0000      -0.040955        -1.1144

MULLIKEN ATOMIC CHARGES
-----------------------
   0 C :    0.052118
   1 C :   -0.046872
   2 C :   -0.063036
   3 C :   -0.173936
   4 N :    0.202912
   5 C :   -0.064673
   6 C :   -0.171907
   7 N :    0.193132
   8 C :   -0.040928
   9 C :   -0.004771
  10 C :    0.152776
  11 O :   -0.161410
  12 C :   -0.097647
  13 C :    0.294006
  14 C :   -0.329179
  15 C :   -0.185244
  16 N :    0.164206
  17 C :   -0.213009
  18 N :    0.171517
  19 C :    0.008150
  20 C :   -0.128774
  21 S :    0.121125
  22 C :   -0.058075
  23 C :   -0.136740
  24 C :   -0.014104
  25 C :    0.082178
  26 C :    0.064885
  27 C :   -0.048371
  28 N :   -0.166844
  29 C :    0.184177
  30 C :    0.007252
  31 C :    0.016020
  32 C :    0.006508
  33 C :   -0.228330
  34 C :    0.076361
  35 C :    0.218230
  36 N :   -0.136197
  37 C :    0.083106
  38 C :   -0.042931
  39 C :    0.030206
  40 C :   -0.055664
  41 C :    0.061128
  42 C :    0.009204
  43 C :   -0.006871
  44 S :    0.097789
  45 C :   -0.068510
  46 C :    0.043891
  47 C :    0.036639
  48 C :   -0.026674
  49 S :    0.109751
  50 C :    0.005691
  51 C :    0.026554
  52 C :   -0.164993
  53 C :    0.136783
  54 O :   -0.160393
  55 C :    0.020812
  56 C :   -0.096187
  57 C :    0.100161
  58 C :    0.116011
  59 C :   -0.107706
  60 C :    0.289911
  61 C :   -0.026001
  62 C :   -0.022865
  63 F :   -0.208658
  64 C :   -0.109886
  65 C :    0.046413
  66 C :    0.282001
  67 C :   -0.374916
  68 C :   -0.208123
  69 N :    0.149799
  70 C :   -0.168490
  71 N :    0.109632
  72 H :    0.020239
  73 H :    0.012882
  74 H :    0.037544
  75 H :    0.013929
  76 H :    0.056283
  77 H :   -0.000060
  78 H :    0.006661
  79 H :    0.001947
  80 H :    0.106971
  81 H :    0.101854
  82 H :    0.018461
  83 H :    0.021146
  84 H :   -0.000289
  85 H :   -0.000679
  86 H :   -0.025582
  87 H :    0.052013
  88 H :    0.015226
  89 H :    0.045344
  90 H :    0.035267
  91 H :    0.041316
  92 H :    0.142477
  93 H :    0.015415
  94 H :    0.009398
  95 H :   -0.007573
  96 H :   -0.006286
  97 H :   -0.009036
  98 H :   -0.015458
  99 H :   -0.012506
 100 H :   -0.009999
 101 H :    0.017338
 102 H :   -0.022361
 103 H :   -0.036628
 104 H :   -0.025188
 105 H :   -0.023131
 106 H :   -0.029055
Sum of atomic charges:   -0.0000000

LOEWDIN ATOMIC CHARGES
----------------------
   0 C :    0.001355
   1 C :    0.033209
   2 C :   -0.026162
   3 C :   -0.031746
   4 N :   -0.012973
   5 C :   -0.029573
   6 C :   -0.031687
   7 N :   -0.015926
   8 C :    0.044426
   9 C :   -0.026569
  10 C :    0.081322
  11 O :   -0.142499
  12 C :   -0.116783
  13 C :    0.068715
  14 C :   -0.130174
  15 C :   -0.022437
  16 N :   -0.039029
  17 C :   -0.027204
  18 N :   -0.041059
  19 C :    0.055145
  20 C :   -0.179726
  21 S :    0.446507
  22 C :   -0.129201
  23 C :   -0.064397
  24 C :    0.001153
  25 C :   -0.040976
  26 C :   -0.037854
  27 C :    0.014987
  28 N :   -0.076030
  29 C :   -0.023365
  30 C :   -0.037708
  31 C :    0.001560
  32 C :   -0.057067
  33 C :   -0.024458
  34 C :   -0.049614
  35 C :    0.043482
  36 N :    0.031182
  37 C :    0.078413
  38 C :   -0.124721
  39 C :    0.010645
  40 C :   -0.187866
  41 C :    0.000826
  42 C :   -0.058756
  43 C :   -0.125753
  44 S :    0.404053
  45 C :   -0.219002
  46 C :   -0.020108
  47 C :   -0.047941
  48 C :   -0.114432
  49 S :    0.479974
  50 C :   -0.074355
  51 C :    0.031428
  52 C :   -0.124377
  53 C :    0.079897
  54 O :   -0.162393
  55 C :   -0.052793
  56 C :    0.022516
  57 C :   -0.023924
  58 C :   -0.000716
  59 C :   -0.057184
  60 C :    0.079447
  61 C :   -0.052671
  62 C :   -0.001777
  63 F :   -0.080877
  64 C :   -0.011363
  65 C :   -0.006778
  66 C :    0.028111
  67 C :   -0.185040
  68 C :   -0.028352
  69 N :   -0.070493
  70 C :   -0.017672
  71 N :   -0.095543
  72 H :    0.052133
  73 H :    0.052573
  74 H :    0.045534
  75 H :    0.032969
  76 H :    0.043630
  77 H :    0.023995
  78 H :    0.027567
  79 H :    0.024054
  80 H :    0.055269
  81 H :    0.059283
  82 H :    0.035013
  83 H :    0.037980
  84 H :    0.035747
  85 H :    0.021314
  86 H :    0.023419
  87 H :    0.046755
  88 H :    0.031467
  89 H :    0.042519
  90 H :    0.040681
  91 H :    0.036386
  92 H :    0.089544
  93 H :    0.033923
  94 H :    0.024058
  95 H :    0.036425
  96 H :    0.036198
  97 H :    0.033921
  98 H :    0.032185
  99 H :    0.034032
 100 H :    0.037645
 101 H :    0.042860
 102 H :    0.035211
 103 H :    0.029677
 104 H :    0.025382
 105 H :    0.030286
 106 H :    0.031122

  Mayer bond orders larger than 0.100000
B(  0-C ,  1-C ) :   1.3610 B(  0-C ,  9-C ) :   1.3322 B(  0-C , 13-C ) :   0.9570
B(  1-C ,  2-C ) :   1.3846 B(  1-C , 72-H ) :   0.9885 B(  2-C ,  3-C ) :   1.0863
B(  2-C ,  5-C ) :   1.4099 B(  3-C ,  4-N ) :   3.0444 B(  5-C ,  6-C ) :   1.0848
B(  5-C ,  8-C ) :   1.3553 B(  6-C ,  7-N ) :   3.0428 B(  8-C ,  9-C ) :   1.3679
B(  8-C , 73-H ) :   1.0159 B(  9-C , 10-C ) :   0.9147 B( 10-C , 11-O ) :   2.1473
B( 10-C , 12-C ) :   0.9974 B( 12-C , 13-C ) :   1.0901 B( 12-C , 19-C ) :   1.5010
B( 13-C , 14-C ) :   1.6447 B( 14-C , 15-C ) :   1.1445 B( 14-C , 17-C ) :   1.1411
B( 15-C , 16-N ) :   2.9619 B( 17-C , 18-N ) :   2.9996 B( 19-C , 20-C ) :   1.2620
B( 19-C , 74-H ) :   0.9248 B( 20-C , 21-S ) :   1.0827 B( 20-C , 24-C ) :   1.3938
B( 21-S , 22-C ) :   1.1492 B( 22-C , 23-C ) :   1.4294 B( 22-C , 30-C ) :   1.1388
B( 23-C , 24-C ) :   1.3505 B( 23-C , 29-C ) :   1.0349 B( 24-C , 25-C ) :   1.0765
B( 25-C , 26-C ) :   1.0755 B( 25-C , 75-H ) :   0.9060 B( 25-C , 76-H ) :   0.8679
B( 26-C , 27-C ) :   1.0399 B( 26-C , 77-H ) :   0.9291 B( 26-C , 78-H ) :   0.9326
B( 27-C , 28-N ) :   1.0646 B( 27-C , 29-C ) :   1.0533 B( 27-C , 79-H ) :   0.9216
B( 28-N , 80-H ) :   0.9639 B( 28-N , 81-H ) :   0.9664 B( 28-N ,104-H ) :   0.1540
B( 29-C , 82-H ) :   0.9125 B( 29-C , 83-H ) :   0.9072 B( 30-C , 31-C ) :   1.6648
B( 30-C , 84-H ) :   0.9795 B( 31-C , 32-C ) :   1.1143 B( 31-C , 85-H ) :   0.9692
B( 32-C , 33-C ) :   1.7669 B( 32-C , 86-H ) :   0.9713 B( 33-C , 34-C ) :   1.0767
B( 33-C , 35-C ) :   1.0116 B( 34-C , 87-H ) :   0.9454 B( 34-C , 88-H ) :   0.9558
B( 34-C , 89-H ) :   0.9473 B( 35-C , 36-N ) :   1.0205 B( 35-C , 90-H ) :   0.9215
B( 35-C , 91-H ) :   0.9288 B( 36-N , 37-C ) :   1.2831 B( 36-N , 92-H ) :   0.9284
B( 37-C , 38-C ) :   1.5306 B( 37-C , 93-H ) :   0.9668 B( 38-C , 39-C ) :   1.2302
B( 38-C , 94-H ) :   0.9621 B( 39-C , 40-C ) :   1.5233 B( 39-C , 95-H ) :   0.9796
B( 40-C , 41-C ) :   1.1858 B( 40-C , 44-S ) :   1.0208 B( 41-C , 42-C ) :   1.5368
B( 41-C , 96-H ) :   0.9975 B( 42-C , 43-C ) :   1.2295 B( 42-C , 97-H ) :   0.9977
B( 43-C , 44-S ) :   1.1191 B( 43-C , 45-C ) :   1.4020 B( 45-C , 46-C ) :   1.2447
B( 45-C , 49-S ) :   1.0465 B( 46-C , 47-C ) :   1.5190 B( 46-C , 98-H ) :   0.9927
B( 47-C , 48-C ) :   1.2199 B( 47-C , 99-H ) :   0.9976 B( 48-C , 49-S ) :   1.1374
B( 48-C , 50-C ) :   1.3646 B( 50-C , 51-C ) :   1.4202 B( 50-C ,100-H ) :   0.9579
B( 51-C , 52-C ) :   1.3725 B( 51-C ,101-H ) :   0.9353 B( 52-C , 53-C ) :   0.9785
B( 52-C , 66-C ) :   1.1858 B( 53-C , 54-O ) :   2.2520 B( 53-C , 55-C ) :   0.9047
B( 55-C , 56-C ) :   1.4885 B( 55-C , 65-C ) :   1.2202 B( 56-C , 57-C ) :   1.1697
B( 56-C ,102-H ) :   1.0149 B( 57-C , 58-C ) :   1.2719 B( 57-C , 62-C ) :   1.2380
B( 58-C , 59-C ) :   1.2050 B( 58-C , 64-C ) :   1.1798 B( 59-C , 60-C ) :   1.4314
B( 59-C ,103-H ) :   1.0038 B( 60-C , 61-C ) :   1.2611 B( 60-C , 63-F ) :   1.0510
B( 61-C , 62-C ) :   1.4504 B( 61-C ,104-H ) :   0.9448 B( 62-C ,105-H ) :   0.9981
B( 64-C , 65-C ) :   1.4884 B( 64-C ,106-H ) :   0.9925 B( 65-C , 66-C ) :   0.9825
B( 66-C , 67-C ) :   1.5061 B( 67-C , 68-C ) :   1.1694 B( 67-C , 70-C ) :   1.1578
B( 68-C , 69-N ) :   3.0068 B( 70-C , 71-N ) :   2.9541

-----------------------------------------------------------------------------
         ABSORPTION SPECTRUM VIA TRANSITION ELECTRIC DIPOLE MOMENTS
-----------------------------------------------------------------------------
State   Energy  Wavelength   fosc         T2         TX        TY        TZ
        (cm-1)    (nm)                  (au**2)     (au)      (au)      (au)
-----------------------------------------------------------------------------
   0   12252.5    816.2   0.525682721  14.12459  -1.98162  -0.08509   3.19226
   1   14738.5    678.5   0.007633557   0.17051  -0.26340  -0.11433  -0.29674
   2   19239.6    519.8   1.087329351  18.60542  -3.64116  -1.39012  -1.84797
   3   19768.3    505.9   0.001305881   0.02175   0.13515   0.00614   0.05869
   4   21253.4    470.5   0.006502569   0.10072   0.09927   0.13479  -0.26963
   5   22782.3    438.9   0.362701608   5.24116  -2.12868  -0.02726  -0.84209
   6   23242.8    430.2   0.253057583   3.58432  -0.02766  -1.43622   1.23322
   7   24255.3    412.3   0.000667608   0.00906  -0.07370  -0.05793  -0.01655
   8   24865.1    402.2   0.001501878   0.01988   0.11516   0.00230   0.08135
   9   26172.1    382.1   0.796124052  10.01425   1.92328   2.51123  -0.09468
  10   26427.8    378.4   0.096019127   1.19611   0.69644   0.84016  -0.07221
  11   27458.4    364.2   0.003006068   0.03604   0.12773  -0.05799   0.12792
  12   27667.3    361.4   0.027730245   0.32996  -0.35499  -0.17509   0.41628
  13   27777.8    360.0   0.000483890   0.00573  -0.07037   0.01982   0.01974
  14   28038.8    356.6   0.000998151   0.01172   0.10032  -0.03035  -0.02710
  15   28929.2    345.7   0.004784239   0.05444  -0.11329  -0.05218   0.19720
  16   29080.6    343.9   0.017328168   0.19617   0.35243  -0.02915   0.26666
  17   29093.9    343.7   0.040875205   0.46252  -0.45439   0.18473  -0.47109
  18   29875.3    334.7   0.012378132   0.13640  -0.22836  -0.25205  -0.14395
  19   29945.8    333.9   0.142081706   1.56199  -0.14314  -1.23881   0.08280
  20   30259.5    330.5   0.001768558   0.01924   0.03052   0.13335  -0.02299
  21   30992.4    322.7   0.087544510   0.92993   0.47632  -0.54564   0.63665
  22   31237.7    320.1   0.100420369   1.05832  -0.57148  -0.64012  -0.56743
  23   31522.8    317.2   0.019544793   0.20412   0.23141  -0.38346   0.05941
  24   31785.8    314.6   0.031371361   0.32492   0.41417   0.31884   0.22743
  25   31970.7    312.8   0.008001783   0.08240  -0.08122   0.27500   0.01323
  26   32417.7    308.5   0.231928223   2.35530   0.95122   1.19719   0.13120
  27   32501.1    307.7   0.371101642   3.75899   1.71799   0.22291   0.87051
  28   33338.9    299.9   0.102877265   1.01588   0.90564   0.42000   0.13893
  29   33431.5    299.1   0.049907072   0.49145   0.36052   0.55156   0.23929
  30   33554.8    298.0   0.017272000   0.16946  -0.04652  -0.38384   0.14129
  31   33640.9    297.3   0.165678471   1.62134  -0.45208   0.18043  -1.17661
  32   33693.2    296.8   0.004890321   0.04778  -0.14918  -0.01020  -0.15945
  33   33900.7    295.0   0.325920389   3.16504   0.89212  -1.17101   0.99894
  34   34400.2    290.7   0.085404887   0.81733  -0.10347  -0.69328  -0.57095
  35   34575.1    289.2   0.369015573   3.51364   1.36484  -1.27513  -0.15780
  36   35181.6    284.2   0.101669457   0.95137  -0.87474  -0.43040   0.03103
  37   35804.2    279.3   0.002152607   0.01979  -0.00096  -0.14017   0.01198
  38   35896.3    278.6   0.032699882   0.29990   0.47048  -0.28016   0.00733
  39   35991.9    277.8   0.009579653   0.08762  -0.27826  -0.08722  -0.05086
  40   36103.8    277.0   0.083293619   0.75951   0.86909   0.05946   0.02579
  41   36556.7    273.5   0.319193574   2.87451  -0.85912  -0.27954  -1.43467
  42   36748.6    272.1   0.008438949   0.07560  -0.20562  -0.17879  -0.03679
  43   37333.8    267.9   0.155427188   1.37057   1.00485   0.59887   0.04681
  44   37606.0    265.9   0.007295268   0.06386   0.03639   0.17912   0.17452
  45   37920.8    263.7   0.000727078   0.00631  -0.07650  -0.02097   0.00456
  46   38055.7    262.8   0.000382074   0.00331  -0.01344  -0.03172   0.04603
  47   38318.2    261.0   0.059735380   0.51322   0.14648  -0.02691  -0.70074
  48   38418.8    260.3   0.075485618   0.64684  -0.13673  -0.07978   0.78853
  49   38696.2    258.4   0.000250672   0.00213   0.03937   0.02406   0.00184
  50   39415.1    253.7   0.021758241   0.18173  -0.23283   0.17549  -0.31101
  51   39569.4    252.7   0.002870484   0.02388   0.10854   0.10805  -0.02065
  52   39712.4    251.8   0.041435246   0.34349  -0.55101   0.11821   0.16097
  53   40015.0    249.9   0.004624022   0.03804  -0.06285   0.17557  -0.05717
  54   40115.6    249.3   0.002433929   0.01997   0.11021   0.08168  -0.03403
  55   40322.9    248.0   0.046391643   0.37876   0.49742   0.35664  -0.06431

FINAL SINGLE POINT ENERGY     -4109.880107356160

DIPOLE MOMENT
-------------
                                X             Y             Z
Electronic contribution:     21.85160       5.78028      20.40991
Nuclear contribution   :    -21.97129      -7.05587     -25.23135
                        -----------------------------------------
Total Dipole Moment    :     -0.11969      -1.27559      -4.82144
                        -----------------------------------------
Magnitude (a.u.)       :      4.98876
Magnitude (Debye)      :     12.68041

Rotational constants in cm-1:     0.001823     0.000305     0.000288
Rotational constants in MHz :    54.658873     9.154392     8.643385

                             ****ORCA TERMINATED NORMALLY****
TOTAL RUN TIME: 0 days 0 hours 25 minutes 24 seconds 17 msec
