                         Program Version 4.2.0 -  RELEASE  -
|  1> # ORCA input file
|  2> # SCF done       -216.491266916615          0.000383849105
|  3> ! CAM-B3LYP def2-SVP def2/J RIJCOSX Grid4 TightSCF
|  4> %maxcore 5000
|  5> %tddft
|  6>     Mode sTDDFT
|  7>     Ethresh 5.0
|  8>     maxcore 5000
|  9> end
| 10>
| 11> %pal
| 12>   nprocs 6
| 13>   end
| 14> * xyz 0 1
| 15>    C       15.50958        -5.52282         7.78027
| 16>    C       15.65551        -6.74523         8.37522
| 17>    F       16.83765        -7.07660         8.92522
| 18>    C       14.61334        -7.68010         8.43732
| 19>    C       13.40507        -7.36123         7.88255
| 20>    C       13.19924        -6.11491         7.25640
| 21>    C       14.27101        -5.17644         7.20683
| 22>    C       14.08402        -3.91287         6.59821
| 23>    C       12.86647        -3.60354         6.05721
| 24>    C       11.80435        -4.55327         6.09164
| 25>    C       11.95511        -5.77644         6.67786
| 26>    C       10.62177        -3.98442         5.41740
| 27>    O        9.52387        -4.47833         5.28994
| 28>    C       11.07643        -2.67984         4.86702
| 29>    C       12.37040        -2.38117         5.42881
| 30>    C       12.90720        -1.12990         5.61038
| 31>    C       12.22989         0.05714         5.27044
| 32>    N       11.68169         1.04181         5.04829
| 33>    C       14.14167        -0.88900         6.24327
| 34>    N       15.15355        -0.64067         6.72575
| 35>    C       10.29590        -2.03638         3.94565
| 36>    C       10.64591        -1.06469         2.99667
| 37>    S       12.26861        -0.81195         2.43410
| 38>    C       11.80991         0.46115         1.35193
| 39>    C       10.40788         0.63963         1.36779
| 40>    C        9.75531        -0.22593         2.29328
| 41>    C        8.36090        -0.16972         2.45228
| 42>    C        7.64152         0.69263         1.67179
| 43>    F        6.31044         0.75646         1.79703
| 44>    C        8.27826         1.50266         0.70853
| 45>    F        7.53289         2.29807        -0.07230
| 46>    C        9.63683         1.48196         0.54892
| 47>    C       12.82069         1.14640         0.65773
| 48>    C       12.72971         2.42043         0.16586
| 49>    C       13.74722         3.07784        -0.53573
| 50>    S       15.18400         2.26704        -1.07990
| 51>    C       15.83191         3.69715        -1.82203
| 52>    C       14.95559         4.79034        -1.63187
| 53>    C       13.77562         4.43836        -0.91731
| 54>    C       12.79857         5.41213        -0.65389
| 55>    C       13.00306         6.69075        -1.09535
| 56>    F       12.08334         7.63346        -0.85367
| 57>    C       14.17179         7.03943        -1.80432
| 58>    F       14.33025         8.30376        -2.21677
| 59>    C       15.13917         6.11043        -2.07406
| 60>    C       17.04399         3.70325        -2.52279
| 61>    C       17.77641         2.58296        -2.81131
| 62>    C       18.96778         2.53425        -3.55225
| 63>    S       19.40047         1.02895        -4.29975
| 64>    C       20.74428         1.71503        -5.14850
| 65>    C       20.89772         3.07565        -4.80311
| 66>    C       19.90697         3.53762        -3.88727
| 67>    C       19.99374         4.84463        -3.37955
| 68>    C       20.99054         5.66931        -3.82591
| 69>    F       21.08531         6.91504        -3.33983
| 70>    C       21.93230         5.22904        -4.77779
| 71>    F       22.88720         6.07215        -5.19113
| 72>    C       21.90130         3.94758        -5.25503
| 73>    C       21.47243         0.99526        -6.10461
| 74>    C       21.29508        -0.33016        -6.38923
| 75>    C       21.97808        -1.04370        -7.39238
| 76>    C       22.62111        -0.59827        -8.51681
| 77>    C       23.60039        -1.51021        -9.17262
| 78>    O       23.76366        -2.68462        -8.92906
| 79>    C       24.34401        -0.66908       -10.12777
| 80>    C       25.42113        -0.99077       -10.90180
| 81>    C       25.99159        -0.00158       -11.73412
| 82>    C       25.43716         1.31148       -11.73722
| 83>    C       26.01515         2.29597       -12.56173
| 84>    C       27.08878         1.97062       -13.34339
| 85>    C       27.64637         0.68483       -13.35693
| 86>    C       27.09939        -0.28204       -12.55987
| 87>    F       27.64080         2.90866       -14.13338
| 88>    C       24.31681         1.61415       -10.92795
| 89>    C       23.77087         0.63470       -10.14367
| 90>    C       22.61047         0.64388        -9.25225
| 91>    C       21.59488         1.56686        -9.31887
| 92>    C       20.37274         1.46736        -8.62878
| 93>    N       19.34875         1.44174        -8.10911
| 94>    C       21.62108         2.70635       -10.14858
| 95>    N       21.59201         3.66133       -10.78524
| 96>    H       16.33262        -4.82577         7.75536
| 97>    H       14.78665        -8.62843         8.92074
| 98>    H       12.58704        -8.06491         7.91809
| 99>    H       14.91248        -3.22275         6.56986
|100>    H       11.13426        -6.47731         6.70404
|101>    H        9.27160        -2.39441         3.89992
|102>    H        7.85041        -0.79389         3.16674
|103>    H       10.08161         2.08510        -0.22390
|104>    H       13.77616         0.64051         0.58567
|105>    H       11.84578         3.00270         0.37473
|106>    H       11.89796         5.17947        -0.11030
|107>    H       16.01915         6.40959        -2.61890
|108>    H       17.35983         4.65849        -2.91122
|109>    H       17.36304         1.62369        -2.52318
|110>    H       19.32262         5.20352        -2.61833
|111>    H       22.65438         3.62745        -5.95589
|112>    H       22.23689         1.54555        -6.63642
|113>    H       20.62203        -0.90010        -5.76121
|114>    H       22.05946        -2.11692        -7.24313
|115>    H       25.83300        -1.98855       -10.88088
|116>    H       25.60914         3.29532       -12.58006
|117>    H       28.49316         0.48670       -13.99468
|118>    H       27.51165        -1.27980       -12.55310
|119>    H       23.92504         2.61872       -10.94579
|120> *
|121>
|122>                          ****END OF INPUT****

CARTESIAN COORDINATES (ANGSTROEM)
---------------------------------
  C     15.509580   -5.522820    7.780270
  C     15.655510   -6.745230    8.375220
  F     16.837650   -7.076600    8.925220
  C     14.613340   -7.680100    8.437320
  C     13.405070   -7.361230    7.882550
  C     13.199240   -6.114910    7.256400
  C     14.271010   -5.176440    7.206830
  C     14.084020   -3.912870    6.598210
  C     12.866470   -3.603540    6.057210
  C     11.804350   -4.553270    6.091640
  C     11.955110   -5.776440    6.677860
  C     10.621770   -3.984420    5.417400
  O      9.523870   -4.478330    5.289940
  C     11.076430   -2.679840    4.867020
  C     12.370400   -2.381170    5.428810
  C     12.907200   -1.129900    5.610380
  C     12.229890    0.057140    5.270440
  N     11.681690    1.041810    5.048290
  C     14.141670   -0.889000    6.243270
  N     15.153550   -0.640670    6.725750
  C     10.295900   -2.036380    3.945650
  C     10.645910   -1.064690    2.996670
  S     12.268610   -0.811950    2.434100
  C     11.809910    0.461150    1.351930
  C     10.407880    0.639630    1.367790
  C      9.755310   -0.225930    2.293280
  C      8.360900   -0.169720    2.452280
  C      7.641520    0.692630    1.671790
  F      6.310440    0.756460    1.797030
  C      8.278260    1.502660    0.708530
  F      7.532890    2.298070   -0.072300
  C      9.636830    1.481960    0.548920
  C     12.820690    1.146400    0.657730
  C     12.729710    2.420430    0.165860
  C     13.747220    3.077840   -0.535730
  S     15.184000    2.267040   -1.079900
  C     15.831910    3.697150   -1.822030
  C     14.955590    4.790340   -1.631870
  C     13.775620    4.438360   -0.917310
  C     12.798570    5.412130   -0.653890
  C     13.003060    6.690750   -1.095350
  F     12.083340    7.633460   -0.853670
  C     14.171790    7.039430   -1.804320
  F     14.330250    8.303760   -2.216770
  C     15.139170    6.110430   -2.074060
  C     17.043990    3.703250   -2.522790
  C     17.776410    2.582960   -2.811310
  C     18.967780    2.534250   -3.552250
  S     19.400470    1.028950   -4.299750
  C     20.744280    1.715030   -5.148500
  C     20.897720    3.075650   -4.803110
  C     19.906970    3.537620   -3.887270
  C     19.993740    4.844630   -3.379550
  C     20.990540    5.669310   -3.825910
  F     21.085310    6.915040   -3.339830
  C     21.932300    5.229040   -4.777790
  F     22.887200    6.072150   -5.191130
  C     21.901300    3.947580   -5.255030
  C     21.472430    0.995260   -6.104610
  C     21.295080   -0.330160   -6.389230
  C     21.978080   -1.043700   -7.392380
  C     22.621110   -0.598270   -8.516810
  C     23.600390   -1.510210   -9.172620
  O     23.763660   -2.684620   -8.929060
  C     24.344010   -0.669080  -10.127770
  C     25.421130   -0.990770  -10.901800
  C     25.991590   -0.001580  -11.734120
  C     25.437160    1.311480  -11.737220
  C     26.015150    2.295970  -12.561730
  C     27.088780    1.970620  -13.343390
  C     27.646370    0.684830  -13.356930
  C     27.099390   -0.282040  -12.559870
  F     27.640800    2.908660  -14.133380
  C     24.316810    1.614150  -10.927950
  C     23.770870    0.634700  -10.143670
  C     22.610470    0.643880   -9.252250
  C     21.594880    1.566860   -9.318870
  C     20.372740    1.467360   -8.628780
  N     19.348750    1.441740   -8.109110
  C     21.621080    2.706350  -10.148580
  N     21.592010    3.661330  -10.785240
  H     16.332620   -4.825770    7.755360
  H     14.786650   -8.628430    8.920740
  H     12.587040   -8.064910    7.918090
  H     14.912480   -3.222750    6.569860
  H     11.134260   -6.477310    6.704040
  H      9.271600   -2.394410    3.899920
  H      7.850410   -0.793890    3.166740
  H     10.081610    2.085100   -0.223900
  H     13.776160    0.640510    0.585670
  H     11.845780    3.002700    0.374730
  H     11.897960    5.179470   -0.110300
  H     16.019150    6.409590   -2.618900
  H     17.359830    4.658490   -2.911220
  H     17.363040    1.623690   -2.523180
  H     19.322620    5.203520   -2.618330
  H     22.654380    3.627450   -5.955890
  H     22.236890    1.545550   -6.636420
  H     20.622030   -0.900100   -5.761210
  H     22.059460   -2.116920   -7.243130
  H     25.833000   -1.988550  -10.880880
  H     25.609140    3.295320  -12.580060
  H     28.493160    0.486700  -13.994680
  H     27.511650   -1.279800  -12.553100
  H     23.925040    2.618720  -10.945790

 Total Charge           Charge          ....    0
 Multiplicity           Mult            ....    1
 Number of Electrons    NEL             ....  572
 Basis Dimension        Dim             .... 1266

ORBITAL ENERGIES
----------------

  NO   OCC          E(Eh)            E(eV)
   0   2.0000     -88.989708     -2421.5331
   1   2.0000     -88.987559     -2421.4746
   2   2.0000     -88.986887     -2421.4563
   3   2.0000     -24.801730      -674.8894
   4   2.0000     -24.801467      -674.8822
   5   2.0000     -24.801089      -674.8719
   6   2.0000     -24.800771      -674.8633
   7   2.0000     -24.800276      -674.8498
   8   2.0000     -24.798078      -674.7900
   9   2.0000     -24.785341      -674.4434
  10   2.0000     -24.784360      -674.4167
  11   2.0000     -19.210415      -522.7420
  12   2.0000     -19.209304      -522.7117
  13   2.0000     -14.416347      -392.2887
  14   2.0000     -14.413986      -392.2245
  15   2.0000     -14.412070      -392.1724
  16   2.0000     -14.411550      -392.1582
  17   2.0000     -10.385862      -282.6137
  18   2.0000     -10.385568      -282.6057
  19   2.0000     -10.384942      -282.5886
  20   2.0000     -10.384702      -282.5821
  21   2.0000     -10.383831      -282.5584
  22   2.0000     -10.380889      -282.4784
  23   2.0000     -10.368797      -282.1493
  24   2.0000     -10.367688      -282.1191
  25   2.0000     -10.361688      -281.9559
  26   2.0000     -10.361164      -281.9416
  27   2.0000     -10.341760      -281.4136
  28   2.0000     -10.340448      -281.3779
  29   2.0000     -10.340393      -281.3764
  30   2.0000     -10.338479      -281.3243
  31   2.0000     -10.338087      -281.3137
  32   2.0000     -10.337617      -281.3009
  33   2.0000     -10.334724      -281.2221
  34   2.0000     -10.331892      -281.1451
  35   2.0000     -10.325363      -280.9674
  36   2.0000     -10.322461      -280.8884
  37   2.0000     -10.319946      -280.8200
  38   2.0000     -10.318033      -280.7680
  39   2.0000     -10.317381      -280.7502
  40   2.0000     -10.317229      -280.7461
  41   2.0000     -10.316284      -280.7204
  42   2.0000     -10.315788      -280.7069
  43   2.0000     -10.315657      -280.7033
  44   2.0000     -10.315307      -280.6938
  45   2.0000     -10.314980      -280.6849
  46   2.0000     -10.314801      -280.6800
  47   2.0000     -10.314544      -280.6730
  48   2.0000     -10.314203      -280.6637
  49   2.0000     -10.314050      -280.6596
  50   2.0000     -10.313814      -280.6531
  51   2.0000     -10.313681      -280.6495
  52   2.0000     -10.311687      -280.5953
  53   2.0000     -10.311011      -280.5769
  54   2.0000     -10.308013      -280.4953
  55   2.0000     -10.307751      -280.4882
  56   2.0000     -10.307374      -280.4779
  57   2.0000     -10.306619      -280.4574
  58   2.0000     -10.306268      -280.4478
  59   2.0000     -10.305166      -280.4178
  60   2.0000     -10.304927      -280.4113
  61   2.0000     -10.303905      -280.3835
  62   2.0000     -10.303311      -280.3674
  63   2.0000     -10.302649      -280.3493
  64   2.0000     -10.300171      -280.2819
  65   2.0000     -10.298780      -280.2441
  66   2.0000     -10.298522      -280.2370
  67   2.0000     -10.297292      -280.2036
  68   2.0000     -10.297183      -280.2006
  69   2.0000     -10.296956      -280.1944
  70   2.0000     -10.295894      -280.1655
  71   2.0000     -10.295529      -280.1556
  72   2.0000     -10.294231      -280.1203
  73   2.0000     -10.293847      -280.1098
  74   2.0000     -10.293826      -280.1092
  75   2.0000     -10.292511      -280.0735
  76   2.0000     -10.292478      -280.0726
  77   2.0000     -10.288308      -279.9591
  78   2.0000     -10.288166      -279.9552
  79   2.0000     -10.287319      -279.9322
  80   2.0000     -10.287127      -279.9270
  81   2.0000      -8.084650      -219.9945
  82   2.0000      -8.082851      -219.9455
  83   2.0000      -8.081648      -219.9128
  84   2.0000      -6.053631      -164.7277
  85   2.0000      -6.051753      -164.6766
  86   2.0000      -6.050682      -164.6474
  87   2.0000      -6.049713      -164.6211
  88   2.0000      -6.047751      -164.5677
  89   2.0000      -6.047272      -164.5546
  90   2.0000      -6.046543      -164.5348
  91   2.0000      -6.045605      -164.5093
  92   2.0000      -6.044333      -164.4747
  93   2.0000      -1.324584       -36.0438
  94   2.0000      -1.324193       -36.0331
  95   2.0000      -1.322348       -35.9829
  96   2.0000      -1.309538       -35.6344
  97   2.0000      -1.309268       -35.6270
  98   2.0000      -1.307154       -35.5695
  99   2.0000      -1.300404       -35.3858
 100   2.0000      -1.299291       -35.3555
 101   2.0000      -1.125731       -30.6327
 102   2.0000      -1.124679       -30.6041
 103   2.0000      -1.027441       -27.9581
 104   2.0000      -1.025002       -27.8917
 105   2.0000      -1.023435       -27.8491
 106   2.0000      -1.017946       -27.6997
 107   2.0000      -1.013842       -27.5880
 108   2.0000      -0.999947       -27.2099
 109   2.0000      -0.997610       -27.1464
 110   2.0000      -0.993757       -27.0415
 111   2.0000      -0.990586       -26.9552
 112   2.0000      -0.975260       -26.5382
 113   2.0000      -0.974009       -26.5041
 114   2.0000      -0.965840       -26.2818
 115   2.0000      -0.963125       -26.2080
 116   2.0000      -0.959789       -26.1172
 117   2.0000      -0.946793       -25.7635
 118   2.0000      -0.936060       -25.4715
 119   2.0000      -0.927755       -25.2455
 120   2.0000      -0.922696       -25.1078
 121   2.0000      -0.915303       -24.9067
 122   2.0000      -0.904901       -24.6236
 123   2.0000      -0.894627       -24.3440
 124   2.0000      -0.890299       -24.2263
 125   2.0000      -0.884710       -24.0742
 126   2.0000      -0.883503       -24.0413
 127   2.0000      -0.879182       -23.9238
 128   2.0000      -0.876118       -23.8404
 129   2.0000      -0.866014       -23.5654
 130   2.0000      -0.857505       -23.3339
 131   2.0000      -0.855106       -23.2686
 132   2.0000      -0.853812       -23.2334
 133   2.0000      -0.852538       -23.1987
 134   2.0000      -0.836519       -22.7628
 135   2.0000      -0.833584       -22.6830
 136   2.0000      -0.831906       -22.6373
 137   2.0000      -0.821719       -22.3601
 138   2.0000      -0.809022       -22.0146
 139   2.0000      -0.794426       -21.6174
 140   2.0000      -0.775875       -21.1126
 141   2.0000      -0.764214       -20.7953
 142   2.0000      -0.758440       -20.6382
 143   2.0000      -0.755600       -20.5609
 144   2.0000      -0.753984       -20.5170
 145   2.0000      -0.753261       -20.4973
 146   2.0000      -0.751843       -20.4587
 147   2.0000      -0.738836       -20.1048
 148   2.0000      -0.730395       -19.8751
 149   2.0000      -0.723763       -19.6946
 150   2.0000      -0.715532       -19.4706
 151   2.0000      -0.708840       -19.2885
 152   2.0000      -0.708339       -19.2749
 153   2.0000      -0.706874       -19.2350
 154   2.0000      -0.695592       -18.9280
 155   2.0000      -0.692918       -18.8553
 156   2.0000      -0.686386       -18.6775
 157   2.0000      -0.680746       -18.5240
 158   2.0000      -0.678698       -18.4683
 159   2.0000      -0.676165       -18.3994
 160   2.0000      -0.673314       -18.3218
 161   2.0000      -0.668753       -18.1977
 162   2.0000      -0.663560       -18.0564
 163   2.0000      -0.650402       -17.6984
 164   2.0000      -0.643133       -17.5005
 165   2.0000      -0.641463       -17.4551
 166   2.0000      -0.635890       -17.3034
 167   2.0000      -0.634265       -17.2592
 168   2.0000      -0.630935       -17.1686
 169   2.0000      -0.629316       -17.1246
 170   2.0000      -0.628130       -17.0923
 171   2.0000      -0.627190       -17.0667
 172   2.0000      -0.626682       -17.0529
 173   2.0000      -0.624971       -17.0063
 174   2.0000      -0.623589       -16.9687
 175   2.0000      -0.616532       -16.7767
 176   2.0000      -0.613117       -16.6838
 177   2.0000      -0.606290       -16.4980
 178   2.0000      -0.599980       -16.3263
 179   2.0000      -0.596185       -16.2230
 180   2.0000      -0.593167       -16.1409
 181   2.0000      -0.589262       -16.0346
 182   2.0000      -0.588873       -16.0240
 183   2.0000      -0.586843       -15.9688
 184   2.0000      -0.584586       -15.9074
 185   2.0000      -0.578323       -15.7370
 186   2.0000      -0.574635       -15.6366
 187   2.0000      -0.569732       -15.5032
 188   2.0000      -0.564727       -15.3670
 189   2.0000      -0.562508       -15.3066
 190   2.0000      -0.561307       -15.2739
 191   2.0000      -0.559389       -15.2218
 192   2.0000      -0.557819       -15.1790
 193   2.0000      -0.556995       -15.1566
 194   2.0000      -0.556043       -15.1307
 195   2.0000      -0.553478       -15.0609
 196   2.0000      -0.551250       -15.0003
 197   2.0000      -0.550527       -14.9806
 198   2.0000      -0.550469       -14.9790
 199   2.0000      -0.549137       -14.9428
 200   2.0000      -0.548288       -14.9197
 201   2.0000      -0.547384       -14.8951
 202   2.0000      -0.545792       -14.8517
 203   2.0000      -0.543912       -14.8006
 204   2.0000      -0.536165       -14.5898
 205   2.0000      -0.532997       -14.5036
 206   2.0000      -0.531405       -14.4603
 207   2.0000      -0.530104       -14.4249
 208   2.0000      -0.528123       -14.3710
 209   2.0000      -0.526307       -14.3215
 210   2.0000      -0.522740       -14.2245
 211   2.0000      -0.522036       -14.2053
 212   2.0000      -0.521605       -14.1936
 213   2.0000      -0.521313       -14.1856
 214   2.0000      -0.518580       -14.1113
 215   2.0000      -0.516749       -14.0615
 216   2.0000      -0.515910       -14.0386
 217   2.0000      -0.509858       -13.8739
 218   2.0000      -0.509378       -13.8609
 219   2.0000      -0.503056       -13.6888
 220   2.0000      -0.499631       -13.5956
 221   2.0000      -0.498400       -13.5622
 222   2.0000      -0.495831       -13.4922
 223   2.0000      -0.493564       -13.4305
 224   2.0000      -0.492379       -13.3983
 225   2.0000      -0.490305       -13.3419
 226   2.0000      -0.488814       -13.3013
 227   2.0000      -0.486503       -13.2384
 228   2.0000      -0.485777       -13.2187
 229   2.0000      -0.481898       -13.1131
 230   2.0000      -0.481592       -13.1048
 231   2.0000      -0.479878       -13.0582
 232   2.0000      -0.475205       -12.9310
 233   2.0000      -0.473824       -12.8934
 234   2.0000      -0.470940       -12.8149
 235   2.0000      -0.464722       -12.6457
 236   2.0000      -0.463603       -12.6153
 237   2.0000      -0.459285       -12.4978
 238   2.0000      -0.458020       -12.4634
 239   2.0000      -0.455384       -12.3916
 240   2.0000      -0.454779       -12.3752
 241   2.0000      -0.452686       -12.3182
 242   2.0000      -0.450743       -12.2653
 243   2.0000      -0.450383       -12.2555
 244   2.0000      -0.448945       -12.2164
 245   2.0000      -0.447798       -12.1852
 246   2.0000      -0.443730       -12.0745
 247   2.0000      -0.442178       -12.0323
 248   2.0000      -0.441942       -12.0259
 249   2.0000      -0.439846       -11.9688
 250   2.0000      -0.437534       -11.9059
 251   2.0000      -0.437129       -11.8949
 252   2.0000      -0.436636       -11.8815
 253   2.0000      -0.434631       -11.8269
 254   2.0000      -0.433387       -11.7931
 255   2.0000      -0.427835       -11.6420
 256   2.0000      -0.425158       -11.5691
 257   2.0000      -0.425112       -11.5679
 258   2.0000      -0.424467       -11.5503
 259   2.0000      -0.421825       -11.4785
 260   2.0000      -0.416988       -11.3468
 261   2.0000      -0.414703       -11.2846
 262   2.0000      -0.411689       -11.2026
 263   2.0000      -0.405243       -11.0272
 264   2.0000      -0.402715       -10.9584
 265   2.0000      -0.397691       -10.8217
 266   2.0000      -0.383496       -10.4354
 267   2.0000      -0.380450       -10.3526
 268   2.0000      -0.376147       -10.2355
 269   2.0000      -0.368671       -10.0321
 270   2.0000      -0.359001        -9.7689
 271   2.0000      -0.357622        -9.7314
 272   2.0000      -0.344434        -9.3725
 273   2.0000      -0.335351        -9.1254
 274   2.0000      -0.333019        -9.0619
 275   2.0000      -0.331210        -9.0127
 276   2.0000      -0.330934        -9.0052
 277   2.0000      -0.327054        -8.8996
 278   2.0000      -0.325676        -8.8621
 279   2.0000      -0.312998        -8.5171
 280   2.0000      -0.311214        -8.4686
 281   2.0000      -0.299433        -8.1480
 282   2.0000      -0.297319        -8.0904
 283   2.0000      -0.290983        -7.9181
 284   2.0000      -0.262865        -7.1529
 285   2.0000      -0.229007        -6.2316
 286   0.0000      -0.126812        -3.4507
 287   0.0000      -0.100697        -2.7401
 288   0.0000      -0.078114        -2.1256
 289   0.0000      -0.061956        -1.6859
 290   0.0000      -0.053114        -1.4453

MULLIKEN ATOMIC CHARGES
-----------------------
   0 C :   -0.101997
   1 C :    0.302134
   2 F :   -0.191048
   3 C :   -0.028713
   4 C :   -0.013588
   5 C :    0.104279
   6 C :    0.106100
   7 C :   -0.092906
   8 C :    0.041350
   9 C :    0.012496
  10 C :   -0.088074
  11 C :    0.139969
  12 O :   -0.150398
  13 C :   -0.147001
  14 C :    0.258507
  15 C :   -0.337072
  16 C :   -0.210398
  17 N :    0.165865
  18 C :   -0.173931
  19 N :    0.146540
  20 C :    0.016216
  21 C :   -0.140065
  22 S :    0.197079
  23 C :   -0.090591
  24 C :    0.120391
  25 C :    0.168924
  26 C :   -0.106844
  27 C :    0.238320
  28 F :   -0.168454
  29 C :    0.222768
  30 F :   -0.173948
  31 C :   -0.118246
  32 C :    0.017506
  33 C :   -0.009268
  34 C :   -0.090436
  35 S :    0.147118
  36 C :   -0.081496
  37 C :    0.128354
  38 C :    0.137875
  39 C :   -0.115248
  40 C :    0.228982
  41 F :   -0.169314
  42 C :    0.227510
  43 F :   -0.170053
  44 C :   -0.114286
  45 C :   -0.017695
  46 C :    0.034002
  47 C :   -0.108565
  48 S :    0.187659
  49 C :   -0.104365
  50 C :    0.140579
  51 C :    0.124773
  52 C :   -0.123472
  53 C :    0.228879
  54 F :   -0.172980
  55 C :    0.236347
  56 F :   -0.168824
  57 C :   -0.120687
  58 C :    0.027653
  59 C :   -0.002630
  60 C :    0.040897
  61 C :   -0.136297
  62 C :    0.131523
  63 O :   -0.148390
  64 C :    0.017379
  65 C :   -0.080470
  66 C :    0.099281
  67 C :    0.099251
  68 C :   -0.096231
  69 C :    0.303781
  70 C :   -0.033259
  71 C :   -0.008044
  72 F :   -0.190379
  73 C :   -0.084639
  74 C :    0.029845
  75 C :    0.279979
  76 C :   -0.355837
  77 C :   -0.200311
  78 N :    0.165380
  79 C :   -0.174612
  80 N :    0.148324
  81 H :   -0.002642
  82 H :    0.002406
  83 H :   -0.008472
  84 H :   -0.004800
  85 H :   -0.011889
  86 H :    0.022582
  87 H :    0.003163
  88 H :   -0.008397
  89 H :   -0.000505
  90 H :    0.005278
  91 H :   -0.004279
  92 H :   -0.005464
  93 H :   -0.003272
  94 H :   -0.002869
  95 H :   -0.007530
  96 H :   -0.005650
  97 H :    0.016964
  98 H :    0.003424
  99 H :    0.027358
 100 H :   -0.012738
 101 H :   -0.002887
 102 H :    0.003358
 103 H :   -0.009527
 104 H :   -0.006364
Sum of atomic charges:   -0.0000000

LOEWDIN ATOMIC CHARGES
----------------------
   0 C :   -0.043241
   1 C :    0.092231
   2 F :   -0.065533
   3 C :   -0.038265
   4 C :    0.004113
   5 C :   -0.019385
   6 C :    0.003097
   7 C :    0.007852
   8 C :   -0.015951
   9 C :   -0.058481
  10 C :    0.032430
  11 C :    0.080184
  12 O :   -0.152098
  13 C :   -0.108681
  14 C :    0.060215
  15 C :   -0.152303
  16 C :   -0.034648
  17 N :   -0.058047
  18 C :   -0.020615
  19 N :   -0.058833
  20 C :    0.042779
  21 C :   -0.195094
  22 S :    0.518936
  23 C :   -0.131958
  24 C :   -0.047329
  25 C :   -0.010286
  26 C :   -0.035614
  27 C :    0.075025
  28 F :   -0.045716
  29 C :    0.060628
  30 F :   -0.052529
  31 C :   -0.035662
  32 C :   -0.055504
  33 C :   -0.021926
  34 C :   -0.171890
  35 S :    0.478527
  36 C :   -0.162101
  37 C :   -0.039819
  38 C :   -0.034992
  39 C :   -0.037812
  40 C :    0.067906
  41 F :   -0.047708
  42 C :    0.065779
  43 F :   -0.048672
  44 C :   -0.036891
  45 C :   -0.034153
  46 C :   -0.046218
  47 C :   -0.149129
  48 S :    0.505795
  49 C :   -0.180456
  50 C :   -0.023786
  51 C :   -0.045516
  52 C :   -0.038819
  53 C :    0.063402
  54 F :   -0.051357
  55 C :    0.070485
  56 F :   -0.047327
  57 C :   -0.036738
  58 C :    0.019029
  59 C :   -0.054045
  60 C :    0.063313
  61 C :   -0.102265
  62 C :    0.080418
  63 O :   -0.148860
  64 C :   -0.058956
  65 C :    0.033148
  66 C :   -0.019073
  67 C :    0.002758
  68 C :   -0.042338
  69 C :    0.092581
  70 C :   -0.037365
  71 C :    0.004263
  72 F :   -0.064764
  73 C :    0.008959
  74 C :   -0.017920
  75 C :    0.064091
  76 C :   -0.150973
  77 C :   -0.016316
  78 N :   -0.049443
  79 C :   -0.021617
  80 N :   -0.057658
  81 H :    0.042660
  82 H :    0.041475
  83 H :    0.035560
  84 H :    0.038569
  85 H :    0.039320
  86 H :    0.047561
  87 H :    0.045650
  88 H :    0.040290
  89 H :    0.026801
  90 H :    0.037387
  91 H :    0.042315
  92 H :    0.041641
  93 H :    0.035009
  94 H :    0.025698
  95 H :    0.040243
  96 H :    0.042447
  97 H :    0.038601
  98 H :    0.028062
  99 H :    0.047332
 100 H :    0.039370
 101 H :    0.042965
 102 H :    0.041744
 103 H :    0.035576
 104 H :    0.038449

  Mayer bond orders larger than 0.100000
B(  0-C ,  1-C ) :   1.4411 B(  0-C ,  6-C ) :   1.2034 B(  0-C , 81-H ) :   1.0062
B(  1-C ,  2-F ) :   1.0878 B(  1-C ,  3-C ) :   1.2566 B(  3-C ,  4-C ) :   1.4593
B(  3-C , 82-H ) :   0.9921 B(  4-C ,  5-C ) :   1.2363 B(  4-C , 83-H ) :   0.9968
B(  5-C ,  6-C ) :   1.2574 B(  5-C , 10-C ) :   1.1870 B(  6-C ,  7-C ) :   1.1993
B(  7-C ,  8-C ) :   1.4659 B(  7-C , 84-H ) :   0.9949 B(  8-C ,  9-C ) :   1.2179
B(  8-C , 14-C ) :   0.9943 B(  9-C , 10-C ) :   1.4765 B(  9-C , 11-C ) :   0.9199
B( 10-C , 85-H ) :   1.0155 B( 11-C , 12-O ) :   2.2551 B( 11-C , 13-C ) :   0.9524
B( 13-C , 14-C ) :   1.0657 B( 13-C , 20-C ) :   1.5760 B( 14-C , 15-C ) :   1.6247
B( 15-C , 16-C ) :   1.1641 B( 15-C , 18-C ) :   1.1378 B( 16-C , 17-N ) :   3.0180
B( 18-C , 19-N ) :   2.9830 B( 20-C , 21-C ) :   1.2217 B( 20-C , 86-H ) :   0.9332
B( 21-C , 22-S ) :   1.1169 B( 21-C , 25-C ) :   1.2602 B( 22-S , 23-C ) :   1.1867
B( 23-C , 24-C ) :   1.2838 B( 23-C , 32-C ) :   1.2111 B( 24-C , 25-C ) :   1.2452
B( 24-C , 31-C ) :   1.1734 B( 25-C , 26-C ) :   1.1962 B( 26-C , 27-C ) :   1.4731
B( 26-C , 31-C ) :   0.1087 B( 26-C , 87-H ) :   0.9976 B( 27-C , 28-F ) :   1.1375
B( 27-C , 29-C ) :   1.1719 B( 29-C , 30-F ) :   1.1324 B( 29-C , 31-C ) :   1.4860
B( 31-C , 88-H ) :   0.9935 B( 32-C , 33-C ) :   1.5609 B( 32-C , 89-H ) :   0.9485
B( 33-C , 34-C ) :   1.2611 B( 33-C , 90-H ) :   0.9599 B( 34-C , 35-S ) :   1.1239
B( 34-C , 38-C ) :   1.2853 B( 35-S , 36-C ) :   1.1349 B( 36-C , 37-C ) :   1.2840
B( 36-C , 45-C ) :   1.2586 B( 37-C , 38-C ) :   1.2309 B( 37-C , 44-C ) :   1.1770
B( 38-C , 39-C ) :   1.1796 B( 39-C , 40-C ) :   1.4924 B( 39-C , 44-C ) :   0.1123
B( 39-C , 91-H ) :   0.9973 B( 40-C , 41-F ) :   1.1390 B( 40-C , 42-C ) :   1.1657
B( 42-C , 43-F ) :   1.1385 B( 42-C , 44-C ) :   1.4949 B( 44-C , 92-H ) :   0.9966
B( 45-C , 46-C ) :   1.5594 B( 45-C , 93-H ) :   0.9600 B( 46-C , 47-C ) :   1.2161
B( 46-C , 94-H ) :   0.9478 B( 47-C , 48-S ) :   1.1745 B( 47-C , 51-C ) :   1.2888
B( 48-S , 49-C ) :   1.1253 B( 49-C , 50-C ) :   1.2723 B( 49-C , 58-C ) :   1.2865
B( 50-C , 51-C ) :   1.2424 B( 50-C , 57-C ) :   1.1864 B( 51-C , 52-C ) :   1.1726
B( 52-C , 53-C ) :   1.4841 B( 52-C , 57-C ) :   0.1098 B( 52-C , 95-H ) :   0.9951
B( 53-C , 54-F ) :   1.1322 B( 53-C , 55-C ) :   1.1706 B( 55-C , 56-F ) :   1.1395
B( 55-C , 57-C ) :   1.4812 B( 57-C , 96-H ) :   0.9999 B( 58-C , 59-C ) :   1.5331
B( 58-C , 97-H ) :   0.9553 B( 59-C , 60-C ) :   1.2242 B( 59-C , 98-H ) :   0.9600
B( 60-C , 61-C ) :   1.5874 B( 60-C , 99-H ) :   0.9304 B( 61-C , 62-C ) :   0.9532
B( 61-C , 75-C ) :   1.0627 B( 62-C , 63-O ) :   2.2600 B( 62-C , 64-C ) :   0.9188
B( 64-C , 65-C ) :   1.4718 B( 64-C , 74-C ) :   1.2187 B( 65-C , 66-C ) :   1.1891
B( 65-C ,100-H ) :   1.0153 B( 66-C , 67-C ) :   1.2559 B( 66-C , 71-C ) :   1.2347
B( 67-C , 68-C ) :   1.2041 B( 67-C , 73-C ) :   1.2033 B( 68-C , 69-C ) :   1.4391
B( 68-C ,101-H ) :   1.0064 B( 69-C , 70-C ) :   1.2564 B( 69-C , 72-F ) :   1.0884
B( 70-C , 71-C ) :   1.4589 B( 70-C ,102-H ) :   0.9937 B( 71-C ,103-H ) :   0.9972
B( 73-C , 74-C ) :   1.4637 B( 73-C ,104-H ) :   0.9936 B( 74-C , 75-C ) :   0.9901
B( 75-C , 76-C ) :   1.6167 B( 76-C , 77-C ) :   1.1786 B( 76-C , 79-C ) :   1.1304
B( 77-C , 78-N ) :   2.9822 B( 79-C , 80-N ) :   2.9827

-----------------------------------------------------------------------------
         ABSORPTION SPECTRUM VIA TRANSITION ELECTRIC DIPOLE MOMENTS
-----------------------------------------------------------------------------
State   Energy  Wavelength   fosc         T2         TX        TY        TZ
        (cm-1)    (nm)                  (au**2)     (au)      (au)      (au)
-----------------------------------------------------------------------------
   0    8937.0   1118.9   1.344332594  49.52129   4.36117   1.22601  -5.38501
   1   14428.0    693.1   0.426762053   9.73768   1.41560  -2.76614  -0.28678
   2   16482.4    606.7   0.086303688   1.72379   0.66613  -1.13079  -0.03706
   3   19155.6    522.0   0.299391898   5.14540  -2.06288   0.29138  -0.89722
   4   21444.6    466.3   0.126774577   1.94621  -1.09638   0.04836  -0.86128
   5   22728.9    440.0   0.169097884   2.44927   0.67056   1.28637   0.58726
   6   23903.9    418.3   0.011928850   0.16429   0.16392  -0.34205  -0.14291
   7   24249.2    412.4   0.019653452   0.26682   0.15882  -0.42818   0.24136
   8   24881.5    401.9   0.083553272   1.10551  -0.34179   0.98937  -0.09921
   9   25507.5    392.0   0.028134468   0.36312  -0.15567  -0.05878   0.57916
  10   26308.7    380.1   0.128135601   1.60341  -0.05370  -1.17033   0.48048
  11   26628.4    375.5   0.087203554   1.07811   0.59642  -0.75176  -0.39655
  12   26720.5    374.2   0.009781143   0.12051   0.30279  -0.04696  -0.16317
  13   27175.9    368.0   0.061566782   0.74583   0.25497   0.80990  -0.15775
  14   27621.1    362.0   0.071070169   0.84708   0.57403  -0.60994   0.38150
  15   28116.2    355.7   0.061440763   0.71941   0.26777  -0.71266   0.37392
  16   28381.5    352.3   0.025311275   0.29360   0.50118  -0.02450  -0.20450
  17   28808.9    347.1   0.165815286   1.89485  -1.16735   0.68302  -0.25617
  18   29092.2    343.7   0.089472235   1.01248  -0.31091  -0.43021  -0.85483
  19   29882.0    334.6   0.002297267   0.02531  -0.07963   0.02399  -0.13562
  20   30295.6    330.1   0.044375577   0.48221   0.44703  -0.30180  -0.43737
  21   30441.5    328.5   0.175109438   1.89374   0.00327  -1.31382   0.40940
  22   31095.9    321.6   0.045809980   0.48499  -0.64475   0.01804   0.26261
  23   31738.1    315.1   0.152483170   1.58167   0.42824   0.75332  -0.91148
  24   31866.5    313.8   0.276349492   2.85496  -1.46364   0.65453   0.53322
  25   32018.0    312.3   0.063307054   0.65093  -0.52217   0.21817  -0.57504
  26   32290.8    309.7   0.025235353   0.25728  -0.34777   0.31034  -0.20006
  27   32700.9    305.8   0.010074870   0.10143   0.09659   0.09540   0.28809
  28   33289.4    300.4   0.073324609   0.72514   0.18677   0.81146   0.17829
  29   33402.9    299.4   0.071698660   0.70665   0.07591  -0.74383   0.38419
  30   33653.1    297.1   0.034821363   0.34064   0.08885  -0.21089   0.53691
  31   33694.3    296.8   0.086972826   0.84977   0.74681  -0.53935  -0.03385
  32   33944.9    294.6   0.175075829   1.69796  -0.32559   1.20624  -0.37004
  33   33972.7    294.4   0.030068070   0.29137  -0.40507  -0.20663  -0.29085
  34   34363.8    291.0   0.091414639   0.87577   0.86228   0.25956  -0.25470
  35   34801.1    287.3   0.163107202   1.54296  -0.77507   0.80514  -0.54220
  36   35348.1    282.9   0.061932280   0.57680  -0.64215  -0.19076   0.35784
  37   35492.0    281.8   0.058046603   0.53842   0.50413  -0.09530  -0.52458
  38   35736.6    279.8   0.031358180   0.28888   0.15855  -0.43326  -0.27572
  39   35980.9    277.9   0.238827006   2.18518  -0.54564   1.33265  -0.33391
  40   36063.6    277.3   0.238336760   2.17569   1.23922  -0.73973  -0.30465
  41   36149.1    276.6   0.227583035   2.07261   1.05500   0.22421  -0.95358
  42   36445.2    274.4   0.067238050   0.60737  -0.67223   0.11012   0.37862
  43   36622.5    273.1   0.112677347   1.01290   0.07689   1.00314  -0.02618
  44   37158.6    269.1   0.110508758   0.97907   0.33488   0.82860  -0.42467
  45   37196.3    268.8   0.014052623   0.12438   0.16688   0.29489  -0.09781
  46   37551.5    266.3   0.045032089   0.39479  -0.55765  -0.17003   0.23433
  47   38008.4    263.1   0.076314501   0.66100  -0.16941   0.79201  -0.07088
  48   38124.1    262.3   0.014898120   0.12865  -0.00554  -0.17439   0.31338
  49   38325.7    260.9   0.062192056   0.53422   0.28514  -0.67290   0.01109
  50   38740.1    258.1   0.036328849   0.30872   0.55346  -0.00576   0.04869
  51   38914.6    257.0   0.079794841   0.67505   0.05739  -0.79337  -0.20571
  52   39062.9    256.0   0.111364876   0.93855   0.89118   0.32783  -0.19205
  53   39198.3    255.1   0.068144679   0.57232  -0.00292   0.75449  -0.05529
  54   39829.1    251.1   0.043038808   0.35574  -0.11536   0.58304   0.05001
  55   40124.0    249.2   0.012470576   0.10232  -0.03918   0.21838   0.23042
  56   40289.4    248.2   0.099868678   0.81605   0.63197  -0.45982   0.45302

FINAL SINGLE POINT ENERGY     -4811.123080420130

DIPOLE MOMENT
-------------
                                X             Y             Z
Electronic contribution:    -23.26040      36.19279       7.12998
Nuclear contribution   :     24.52617     -37.98194      -7.46250
                        -----------------------------------------
Total Dipole Moment    :      1.26576      -1.78915      -0.33252
                        -----------------------------------------
Magnitude (a.u.)       :      2.21671
Magnitude (Debye)      :      5.63442

Rotational constants in cm-1:     0.000849     0.000208     0.000182
Rotational constants in MHz :    25.456266     6.239895     5.454070

                             ****ORCA TERMINATED NORMALLY****
TOTAL RUN TIME: 0 days 0 hours 12 minutes 15 seconds 144 msec
