                         Program Version 4.2.0 -  RELEASE  -
|  1> # ORCA input file
|  2> # SCF done       -203.236610491483          0.000599078937
|  3> ! CAM-B3LYP def2-SVP def2/J RIJCOSX Grid4 TightSCF
|  4> %maxcore 5000
|  5> %tddft
|  6>     Mode sTDDFT
|  7>     Ethresh 5.0
|  8>     maxcore 5000
|  9> end
| 10>
| 11> %pal
| 12>   nprocs 6
| 13>   end
| 14> * xyz 0 1
| 15>    C       -7.86451         1.00244         5.18158
| 16>    C       -6.91833         0.01326         5.08160
| 17>    C       -6.33656        -0.64167         6.18664
| 18>    N       -5.83202        -1.22218         7.03942
| 19>    C       -6.38450        -0.49592         3.88029
| 20>    N       -5.89154        -0.95994         2.95193
| 21>    C       -8.37949         1.54698         6.43413
| 22>    C       -9.33375         2.54677         6.13476
| 23>    C      -10.00493         3.24971         7.10411
| 24>    C       -9.70562         2.96439         8.43989
| 25>    C       -8.73810         1.97511         8.73217
| 26>    C       -8.06987         1.25473         7.74938
| 27>    S       -8.50965         1.79276        10.44614
| 28>    C       -9.70163         3.03020        10.74041
| 29>    C      -10.24432         3.55445         9.61619
| 30>   Br      -10.11981         3.51896        12.50337
| 31>    C       -9.43335         2.71084         4.67267
| 32>    O      -10.14373         3.51346         4.09936
| 33>    C       -8.50817         1.70715         4.09285
| 34>    C       -8.30193         1.51671         2.74994
| 35>    C       -8.86944         2.34584         1.76751
| 36>    C       -8.59852         2.28142         0.43133
| 37>    C       -9.04405         3.32108        -0.41360
| 38>    O       -9.73246         4.34583         0.14190
| 39>    C       -9.88154         5.32690        -0.77361
| 40>    C       -9.32035         4.91149        -1.98285
| 41>    C       -8.78089         3.63004        -1.75238
| 42>    O       -8.10244         2.82911        -2.60622
| 43>    O       -9.28382         5.65896        -3.11413
| 44>    C      -10.39834         6.54846        -0.28689
| 45>    C      -10.40950         7.74930        -0.91747
| 46>    C      -10.72859         8.92040        -0.18854
| 47>    C      -10.70046        10.18553        -0.66343
| 48>    N      -10.96993        11.23663         0.16340
| 49>    C      -11.13898        12.51225        -0.20278
| 50>    S      -10.74036        13.06422        -1.80099
| 51>    C      -11.27863        14.66243        -1.36731
| 52>    N      -11.19223        15.65740        -2.34318
| 53>    O      -11.57472        16.77617        -2.04933
| 54>    O      -10.73625        15.32454        -3.42574
| 55>    C      -11.75296        14.75426        -0.08980
| 56>    C      -11.69697        13.52989         0.60976
| 57>    C      -12.21589        13.27971         1.90864
| 58>    C      -12.99544        14.15650         2.60801
| 59>    C      -13.59566        13.93577         3.85815
| 60>    C      -13.54190        12.85163         4.70596
| 61>    C      -14.17861        12.81491         5.97036
| 62>    C      -13.91764        11.69905         6.70614
| 63>    C      -13.06353        10.77901         6.05982
| 64>    S      -12.64569        11.35702         4.47044
| 65>    C      -12.49716         9.64490         6.62275
| 66>    C      -12.47260         9.32056         7.99264
| 67>    C      -11.58936         8.32758         8.29836
| 68>    C      -10.86599         7.82358         7.19243
| 69>    S      -11.47554         8.53738         5.72584
| 70>    C       -9.84513         6.89070         7.33897
| 71>    C       -8.91479         6.32693         6.48386
| 72>    C       -8.49381         6.52657         5.17244
| 73>    C       -8.62575         7.56071         4.20995
| 74>    C       -8.96688         8.89191         4.44076
| 75>    C       -9.44801         9.73505         3.43846
| 76>    N       -9.97011        10.40107         2.65353
| 77>    C       -8.82042         9.48111         5.70962
| 78>    N       -8.63734         9.98704         6.72489
| 79>    C       -8.13019         7.05654         2.92655
| 80>    C       -7.60059         5.75896         3.12758
| 81>    C       -7.77268         5.39519         4.54754
| 82>    O       -7.39623         4.37502         5.09203
| 83>    C       -6.98011         5.04824         2.13392
| 84>    C       -6.87564         5.64887         0.87362
| 85>    C       -7.37827         6.95455         0.68816
| 86>    C       -8.00397         7.67598         1.70057
| 87>    S       -7.11976         7.51654        -0.93513
| 88>    C       -6.38671         5.98977        -1.34383
| 89>    C       -6.30980         5.11339        -0.31634
| 90>   Br       -5.86415         5.65748        -3.11515
| 91>    H      -10.73305         4.00090         6.83995
| 92>    H       -7.34195         0.51049         8.02587
| 93>    H      -10.99830         4.32063         9.61400
| 94>    H       -7.63302         0.73324         2.41832
| 95>    H       -9.51188         3.14380         2.10877
| 96>    H       -7.99245         1.50244        -0.00670
| 97>    H       -7.75675         3.33105        -3.35634
| 98>    H       -8.97704         5.13373        -3.86391
| 99>    H      -10.70604         6.49300         0.74958
|100>    H      -10.11758         7.82955        -1.95333
|101>    H      -10.97296         8.78131         0.85748
|102>    H      -10.50006        10.41525        -1.70014
|103>    H      -10.95774        11.01361         1.16706
|104>    H      -12.11719        15.68148         0.31221
|105>    H      -12.00726        12.31200         2.33886
|106>    H      -13.20598        15.11967         2.16528
|107>    H      -14.19639        14.75561         4.23408
|108>    H      -14.79767        13.62799         6.30648
|109>    H      -14.31084        11.51815         7.68956
|110>    H      -13.04619         9.86249         8.72182
|111>    H      -11.39024         7.98646         9.29858
|112>    H       -9.78673         6.51142         8.35441
|113>    H       -8.40172         5.46952         6.91608
|114>    H       -6.57578         4.06584         2.31916
|115>    H       -8.36388         8.67384         1.50975
|116>    H       -5.88782         4.12756        -0.39031
|117> *
|118>
|119>                          ****END OF INPUT****

CARTESIAN COORDINATES (ANGSTROEM)
---------------------------------
  C     -7.864510    1.002440    5.181580
  C     -6.918330    0.013260    5.081600
  C     -6.336560   -0.641670    6.186640
  N     -5.832020   -1.222180    7.039420
  C     -6.384500   -0.495920    3.880290
  N     -5.891540   -0.959940    2.951930
  C     -8.379490    1.546980    6.434130
  C     -9.333750    2.546770    6.134760
  C    -10.004930    3.249710    7.104110
  C     -9.705620    2.964390    8.439890
  C     -8.738100    1.975110    8.732170
  C     -8.069870    1.254730    7.749380
  S     -8.509650    1.792760   10.446140
  C     -9.701630    3.030200   10.740410
  C    -10.244320    3.554450    9.616190
  Br   -10.119810    3.518960   12.503370
  C     -9.433350    2.710840    4.672670
  O    -10.143730    3.513460    4.099360
  C     -8.508170    1.707150    4.092850
  C     -8.301930    1.516710    2.749940
  C     -8.869440    2.345840    1.767510
  C     -8.598520    2.281420    0.431330
  C     -9.044050    3.321080   -0.413600
  O     -9.732460    4.345830    0.141900
  C     -9.881540    5.326900   -0.773610
  C     -9.320350    4.911490   -1.982850
  C     -8.780890    3.630040   -1.752380
  O     -8.102440    2.829110   -2.606220
  O     -9.283820    5.658960   -3.114130
  C    -10.398340    6.548460   -0.286890
  C    -10.409500    7.749300   -0.917470
  C    -10.728590    8.920400   -0.188540
  C    -10.700460   10.185530   -0.663430
  N    -10.969930   11.236630    0.163400
  C    -11.138980   12.512250   -0.202780
  S    -10.740360   13.064220   -1.800990
  C    -11.278630   14.662430   -1.367310
  N    -11.192230   15.657400   -2.343180
  O    -11.574720   16.776170   -2.049330
  O    -10.736250   15.324540   -3.425740
  C    -11.752960   14.754260   -0.089800
  C    -11.696970   13.529890    0.609760
  C    -12.215890   13.279710    1.908640
  C    -12.995440   14.156500    2.608010
  C    -13.595660   13.935770    3.858150
  C    -13.541900   12.851630    4.705960
  C    -14.178610   12.814910    5.970360
  C    -13.917640   11.699050    6.706140
  C    -13.063530   10.779010    6.059820
  S    -12.645690   11.357020    4.470440
  C    -12.497160    9.644900    6.622750
  C    -12.472600    9.320560    7.992640
  C    -11.589360    8.327580    8.298360
  C    -10.865990    7.823580    7.192430
  S    -11.475540    8.537380    5.725840
  C     -9.845130    6.890700    7.338970
  C     -8.914790    6.326930    6.483860
  C     -8.493810    6.526570    5.172440
  C     -8.625750    7.560710    4.209950
  C     -8.966880    8.891910    4.440760
  C     -9.448010    9.735050    3.438460
  N     -9.970110   10.401070    2.653530
  C     -8.820420    9.481110    5.709620
  N     -8.637340    9.987040    6.724890
  C     -8.130190    7.056540    2.926550
  C     -7.600590    5.758960    3.127580
  C     -7.772680    5.395190    4.547540
  O     -7.396230    4.375020    5.092030
  C     -6.980110    5.048240    2.133920
  C     -6.875640    5.648870    0.873620
  C     -7.378270    6.954550    0.688160
  C     -8.003970    7.675980    1.700570
  S     -7.119760    7.516540   -0.935130
  C     -6.386710    5.989770   -1.343830
  C     -6.309800    5.113390   -0.316340
  Br    -5.864150    5.657480   -3.115150
  H    -10.733050    4.000900    6.839950
  H     -7.341950    0.510490    8.025870
  H    -10.998300    4.320630    9.614000
  H     -7.633020    0.733240    2.418320
  H     -9.511880    3.143800    2.108770
  H     -7.992450    1.502440   -0.006700
  H     -7.756750    3.331050   -3.356340
  H     -8.977040    5.133730   -3.863910
  H    -10.706040    6.493000    0.749580
  H    -10.117580    7.829550   -1.953330
  H    -10.972960    8.781310    0.857480
  H    -10.500060   10.415250   -1.700140
  H    -10.957740   11.013610    1.167060
  H    -12.117190   15.681480    0.312210
  H    -12.007260   12.312000    2.338860
  H    -13.205980   15.119670    2.165280
  H    -14.196390   14.755610    4.234080
  H    -14.797670   13.627990    6.306480
  H    -14.310840   11.518150    7.689560
  H    -13.046190    9.862490    8.721820
  H    -11.390240    7.986460    9.298580
  H     -9.786730    6.511420    8.354410
  H     -8.401720    5.469520    6.916080
  H     -6.575780    4.065840    2.319160
  H     -8.363880    8.673840    1.509750
  H     -5.887820    4.127560   -0.390310

 Total Charge           Charge          ....    0
 Multiplicity           Mult            ....    1
 Number of Electrons    NEL             ....  610
 Basis Dimension        Dim             .... 1250

ORBITAL ENERGIES
----------------

  NO   OCC          E(Eh)            E(eV)
   0   2.0000    -482.899181    -13140.3548
   1   2.0000    -482.880852    -13139.8560
   2   2.0000     -88.987257     -2421.4664
   3   2.0000     -88.977413     -2421.1985
   4   2.0000     -88.974989     -2421.1325
   5   2.0000     -88.974637     -2421.1230
   6   2.0000     -88.967047     -2420.9164
   7   2.0000     -62.576531     -1702.7940
   8   2.0000     -62.558542     -1702.3045
   9   2.0000     -56.410398     -1535.0050
  10   2.0000     -56.407838     -1534.9353
  11   2.0000     -56.407784     -1534.9338
  12   2.0000     -56.392485     -1534.5175
  13   2.0000     -56.389795     -1534.4443
  14   2.0000     -56.389745     -1534.4430
  15   2.0000     -19.294636      -525.0337
  16   2.0000     -19.278832      -524.6037
  17   2.0000     -19.277393      -524.5645
  18   2.0000     -19.237439      -523.4773
  19   2.0000     -19.236320      -523.4469
  20   2.0000     -19.206852      -522.6450
  21   2.0000     -19.201321      -522.4945
  22   2.0000     -14.648719      -398.6119
  23   2.0000     -14.478280      -393.9740
  24   2.0000     -14.428460      -392.6183
  25   2.0000     -14.403549      -391.9405
  26   2.0000     -14.401093      -391.8737
  27   2.0000     -14.396896      -391.7595
  28   2.0000     -10.378314      -282.4083
  29   2.0000     -10.358118      -281.8587
  30   2.0000     -10.355393      -281.7846
  31   2.0000     -10.354422      -281.7581
  32   2.0000     -10.352834      -281.7149
  33   2.0000     -10.351880      -281.6890
  34   2.0000     -10.349507      -281.6244
  35   2.0000     -10.348748      -281.6037
  36   2.0000     -10.344610      -281.4911
  37   2.0000     -10.343760      -281.4680
  38   2.0000     -10.339681      -281.3570
  39   2.0000     -10.336805      -281.2788
  40   2.0000     -10.334266      -281.2097
  41   2.0000     -10.332523      -281.1622
  42   2.0000     -10.327686      -281.0306
  43   2.0000     -10.327457      -281.0244
  44   2.0000     -10.326485      -280.9979
  45   2.0000     -10.326126      -280.9882
  46   2.0000     -10.325543      -280.9723
  47   2.0000     -10.323946      -280.9289
  48   2.0000     -10.320551      -280.8365
  49   2.0000     -10.319115      -280.7974
  50   2.0000     -10.316000      -280.7126
  51   2.0000     -10.315753      -280.7059
  52   2.0000     -10.315329      -280.6944
  53   2.0000     -10.314404      -280.6692
  54   2.0000     -10.307237      -280.4742
  55   2.0000     -10.304988      -280.4130
  56   2.0000     -10.304899      -280.4105
  57   2.0000     -10.304705      -280.4053
  58   2.0000     -10.304605      -280.4026
  59   2.0000     -10.303300      -280.3670
  60   2.0000     -10.300633      -280.2945
  61   2.0000     -10.300374      -280.2874
  62   2.0000     -10.300241      -280.2838
  63   2.0000     -10.298928      -280.2481
  64   2.0000     -10.298327      -280.2317
  65   2.0000     -10.298210      -280.2285
  66   2.0000     -10.297199      -280.2010
  67   2.0000     -10.296922      -280.1935
  68   2.0000     -10.295570      -280.1567
  69   2.0000     -10.293456      -280.0992
  70   2.0000     -10.293413      -280.0980
  71   2.0000     -10.292437      -280.0715
  72   2.0000     -10.291522      -280.0466
  73   2.0000     -10.290264      -280.0123
  74   2.0000     -10.287750      -279.9439
  75   2.0000     -10.287290      -279.9314
  76   2.0000     -10.286882      -279.9203
  77   2.0000     -10.285671      -279.8873
  78   2.0000     -10.284732      -279.8618
  79   2.0000     -10.281723      -279.7799
  80   2.0000     -10.280358      -279.7428
  81   2.0000     -10.279849      -279.7289
  82   2.0000     -10.277217      -279.6573
  83   2.0000     -10.268323      -279.4153
  84   2.0000      -8.805854      -239.6195
  85   2.0000      -8.787947      -239.1322
  86   2.0000      -8.082788      -219.9438
  87   2.0000      -8.072719      -219.6699
  88   2.0000      -8.070119      -219.5991
  89   2.0000      -8.069211      -219.5744
  90   2.0000      -8.062990      -219.4051
  91   2.0000      -6.641634      -180.7281
  92   2.0000      -6.628101      -180.3598
  93   2.0000      -6.627443      -180.3419
  94   2.0000      -6.624155      -180.2524
  95   2.0000      -6.609711      -179.8594
  96   2.0000      -6.609551      -179.8550
  97   2.0000      -6.052527      -164.6976
  98   2.0000      -6.048148      -164.5785
  99   2.0000      -6.044049      -164.4669
 100   2.0000      -6.042354      -164.4208
 101   2.0000      -6.039939      -164.3551
 102   2.0000      -6.038631      -164.3195
 103   2.0000      -6.038224      -164.3084
 104   2.0000      -6.035576      -164.2364
 105   2.0000      -6.034529      -164.2079
 106   2.0000      -6.034014      -164.1939
 107   2.0000      -6.032661      -164.1570
 108   2.0000      -6.031372      -164.1220
 109   2.0000      -6.031015      -164.1123
 110   2.0000      -6.028422      -164.0417
 111   2.0000      -6.024229      -163.9276
 112   2.0000      -2.757648       -75.0394
 113   2.0000      -2.753922       -74.9380
 114   2.0000      -2.753426       -74.9245
 115   2.0000      -2.742646       -74.6312
 116   2.0000      -2.742636       -74.6309
 117   2.0000      -2.740081       -74.5614
 118   2.0000      -2.735941       -74.4487
 119   2.0000      -2.735874       -74.4469
 120   2.0000      -2.724366       -74.1338
 121   2.0000      -2.724357       -74.1335
 122   2.0000      -1.317363       -35.8473
 123   2.0000      -1.220682       -33.2164
 124   2.0000      -1.175134       -31.9770
 125   2.0000      -1.158042       -31.5119
 126   2.0000      -1.136532       -30.9266
 127   2.0000      -1.122579       -30.5469
 128   2.0000      -1.113599       -30.3026
 129   2.0000      -1.092988       -29.7417
 130   2.0000      -1.022394       -27.8208
 131   2.0000      -1.018846       -27.7242
 132   2.0000      -1.015112       -27.6226
 133   2.0000      -1.011142       -27.5146
 134   2.0000      -1.006589       -27.3907
 135   2.0000      -1.001594       -27.2548
 136   2.0000      -0.997450       -27.1420
 137   2.0000      -0.988203       -26.8904
 138   2.0000      -0.981455       -26.7067
 139   2.0000      -0.978723       -26.6324
 140   2.0000      -0.975740       -26.5512
 141   2.0000      -0.940675       -25.5971
 142   2.0000      -0.938665       -25.5424
 143   2.0000      -0.935192       -25.4479
 144   2.0000      -0.929404       -25.2904
 145   2.0000      -0.917720       -24.9724
 146   2.0000      -0.911700       -24.8086
 147   2.0000      -0.907314       -24.6893
 148   2.0000      -0.901064       -24.5192
 149   2.0000      -0.898431       -24.4475
 150   2.0000      -0.897385       -24.4191
 151   2.0000      -0.889481       -24.2040
 152   2.0000      -0.881512       -23.9872
 153   2.0000      -0.880412       -23.9572
 154   2.0000      -0.875189       -23.8151
 155   2.0000      -0.874040       -23.7839
 156   2.0000      -0.868150       -23.6236
 157   2.0000      -0.861908       -23.4537
 158   2.0000      -0.852131       -23.1877
 159   2.0000      -0.845909       -23.0184
 160   2.0000      -0.841441       -22.8968
 161   2.0000      -0.830758       -22.6061
 162   2.0000      -0.824534       -22.4367
 163   2.0000      -0.818694       -22.2778
 164   2.0000      -0.811115       -22.0716
 165   2.0000      -0.803342       -21.8601
 166   2.0000      -0.783158       -21.3108
 167   2.0000      -0.771860       -21.0034
 168   2.0000      -0.759590       -20.6695
 169   2.0000      -0.751781       -20.4570
 170   2.0000      -0.744830       -20.2679
 171   2.0000      -0.744551       -20.2603
 172   2.0000      -0.733291       -19.9539
 173   2.0000      -0.722952       -19.6725
 174   2.0000      -0.718883       -19.5618
 175   2.0000      -0.710153       -19.3243
 176   2.0000      -0.697706       -18.9856
 177   2.0000      -0.695945       -18.9376
 178   2.0000      -0.690196       -18.7812
 179   2.0000      -0.686588       -18.6830
 180   2.0000      -0.682886       -18.5823
 181   2.0000      -0.681565       -18.5463
 182   2.0000      -0.676716       -18.4144
 183   2.0000      -0.664664       -18.0864
 184   2.0000      -0.662282       -18.0216
 185   2.0000      -0.658390       -17.9157
 186   2.0000      -0.656601       -17.8670
 187   2.0000      -0.651033       -17.7155
 188   2.0000      -0.646240       -17.5851
 189   2.0000      -0.644039       -17.5252
 190   2.0000      -0.641132       -17.4461
 191   2.0000      -0.639343       -17.3974
 192   2.0000      -0.633478       -17.2378
 193   2.0000      -0.630136       -17.1469
 194   2.0000      -0.626094       -17.0369
 195   2.0000      -0.619382       -16.8542
 196   2.0000      -0.618399       -16.8275
 197   2.0000      -0.614106       -16.7107
 198   2.0000      -0.611987       -16.6530
 199   2.0000      -0.601824       -16.3765
 200   2.0000      -0.597986       -16.2720
 201   2.0000      -0.593085       -16.1387
 202   2.0000      -0.589677       -16.0459
 203   2.0000      -0.587996       -16.0002
 204   2.0000      -0.583961       -15.8904
 205   2.0000      -0.582977       -15.8636
 206   2.0000      -0.579411       -15.7666
 207   2.0000      -0.577119       -15.7042
 208   2.0000      -0.568068       -15.4579
 209   2.0000      -0.562313       -15.3013
 210   2.0000      -0.558554       -15.1990
 211   2.0000      -0.555658       -15.1202
 212   2.0000      -0.550986       -14.9931
 213   2.0000      -0.546993       -14.8844
 214   2.0000      -0.542285       -14.7563
 215   2.0000      -0.539444       -14.6790
 216   2.0000      -0.536799       -14.6070
 217   2.0000      -0.534745       -14.5512
 218   2.0000      -0.532422       -14.4879
 219   2.0000      -0.527904       -14.3650
 220   2.0000      -0.526757       -14.3338
 221   2.0000      -0.526582       -14.3290
 222   2.0000      -0.521783       -14.1984
 223   2.0000      -0.519115       -14.1258
 224   2.0000      -0.516027       -14.0418
 225   2.0000      -0.515920       -14.0389
 226   2.0000      -0.512611       -13.9488
 227   2.0000      -0.508451       -13.8356
 228   2.0000      -0.507900       -13.8207
 229   2.0000      -0.506727       -13.7887
 230   2.0000      -0.504741       -13.7347
 231   2.0000      -0.503505       -13.7011
 232   2.0000      -0.501822       -13.6553
 233   2.0000      -0.498831       -13.5739
 234   2.0000      -0.498180       -13.5562
 235   2.0000      -0.497543       -13.5388
 236   2.0000      -0.495107       -13.4726
 237   2.0000      -0.493915       -13.4401
 238   2.0000      -0.492339       -13.3972
 239   2.0000      -0.489424       -13.3179
 240   2.0000      -0.486299       -13.2329
 241   2.0000      -0.485523       -13.2118
 242   2.0000      -0.481876       -13.1125
 243   2.0000      -0.481071       -13.0906
 244   2.0000      -0.479604       -13.0507
 245   2.0000      -0.474031       -12.8990
 246   2.0000      -0.471621       -12.8334
 247   2.0000      -0.469023       -12.7628
 248   2.0000      -0.464195       -12.6314
 249   2.0000      -0.462012       -12.5720
 250   2.0000      -0.460828       -12.5398
 251   2.0000      -0.457878       -12.4595
 252   2.0000      -0.454294       -12.3620
 253   2.0000      -0.453615       -12.3435
 254   2.0000      -0.451438       -12.2843
 255   2.0000      -0.447274       -12.1710
 256   2.0000      -0.444791       -12.1034
 257   2.0000      -0.441626       -12.0173
 258   2.0000      -0.440096       -11.9756
 259   2.0000      -0.438324       -11.9274
 260   2.0000      -0.437395       -11.9021
 261   2.0000      -0.436508       -11.8780
 262   2.0000      -0.436159       -11.8685
 263   2.0000      -0.432385       -11.7658
 264   2.0000      -0.431588       -11.7441
 265   2.0000      -0.430477       -11.7139
 266   2.0000      -0.428306       -11.6548
 267   2.0000      -0.427520       -11.6334
 268   2.0000      -0.426388       -11.6026
 269   2.0000      -0.423295       -11.5184
 270   2.0000      -0.417249       -11.3539
 271   2.0000      -0.416732       -11.3398
 272   2.0000      -0.414721       -11.2851
 273   2.0000      -0.411450       -11.1961
 274   2.0000      -0.409567       -11.1449
 275   2.0000      -0.404285       -11.0012
 276   2.0000      -0.396401       -10.7866
 277   2.0000      -0.394850       -10.7444
 278   2.0000      -0.394259       -10.7283
 279   2.0000      -0.386785       -10.5250
 280   2.0000      -0.385186       -10.4815
 281   2.0000      -0.383082       -10.4242
 282   2.0000      -0.377360       -10.2685
 283   2.0000      -0.377064       -10.2604
 284   2.0000      -0.371975       -10.1220
 285   2.0000      -0.370379       -10.0785
 286   2.0000      -0.365782        -9.9534
 287   2.0000      -0.362471        -9.8633
 288   2.0000      -0.358757        -9.7623
 289   2.0000      -0.354223        -9.6389
 290   2.0000      -0.345886        -9.4120
 291   2.0000      -0.340237        -9.2583
 292   2.0000      -0.335882        -9.1398
 293   2.0000      -0.329870        -8.9762
 294   2.0000      -0.324582        -8.8323
 295   2.0000      -0.320594        -8.7238
 296   2.0000      -0.315836        -8.5943
 297   2.0000      -0.311642        -8.4802
 298   2.0000      -0.302176        -8.2226
 299   2.0000      -0.293260        -7.9800
 300   2.0000      -0.287915        -7.8346
 301   2.0000      -0.282926        -7.6988
 302   2.0000      -0.272704        -7.4206
 303   2.0000      -0.241740        -6.5781
 304   2.0000      -0.228063        -6.2059
 305   0.0000      -0.116650        -3.1742
 306   0.0000      -0.088182        -2.3995
 307   0.0000      -0.068539        -1.8651
 308   0.0000      -0.058495        -1.5917
 309   0.0000      -0.055678        -1.5151

MULLIKEN ATOMIC CHARGES
-----------------------
   0 C :    0.336158
   1 C :   -0.363045
   2 C :   -0.189642
   3 N :    0.144493
   4 C :   -0.193853
   5 N :    0.140472
   6 C :    0.030733
   7 C :    0.024752
   8 C :   -0.106320
   9 C :    0.121705
  10 C :   -0.086761
  11 C :   -0.031158
  12 S :    0.181081
  13 C :   -0.122564
  14 C :    0.029606
  15 Br:    0.013469
  16 C :    0.150063
  17 O :   -0.175191
  18 C :   -0.059975
  19 C :   -0.035474
  20 C :   -0.001477
  21 C :   -0.039955
  22 C :    0.103650
  23 O :   -0.206589
  24 C :    0.129759
  25 C :    0.045968
  26 C :    0.092668
  27 O :   -0.175364
  28 O :   -0.179684
  29 C :   -0.018118
  30 C :    0.010536
  31 C :   -0.008477
  32 C :    0.052894
  33 N :   -0.024885
  34 C :   -0.085604
  35 S :    0.152149
  36 C :   -0.009985
  37 N :    0.278454
  38 O :   -0.254754
  39 O :   -0.267505
  40 C :    0.010579
  41 C :    0.097421
  42 C :    0.017839
  43 C :   -0.012794
  44 C :    0.030782
  45 C :   -0.046896
  46 C :    0.059781
  47 C :    0.018022
  48 C :    0.008109
  49 S :    0.089349
  50 C :   -0.074174
  51 C :    0.050169
  52 C :    0.034086
  53 C :   -0.026139
  54 S :    0.140825
  55 C :   -0.024708
  56 C :    0.022182
  57 C :   -0.103412
  58 C :    0.273573
  59 C :   -0.419309
  60 C :   -0.090211
  61 N :    0.056635
  62 C :   -0.218631
  63 N :    0.155406
  64 C :    0.041695
  65 C :    0.013438
  66 C :    0.154686
  67 O :   -0.182259
  68 C :   -0.052231
  69 C :    0.097699
  70 C :   -0.082115
  71 C :   -0.062685
  72 S :    0.177528
  73 C :   -0.156231
  74 C :    0.072347
  75 Br:   -0.014433
  76 H :   -0.015096
  77 H :   -0.010192
  78 H :   -0.011021
  79 H :    0.002288
  80 H :    0.043213
  81 H :    0.015391
  82 H :    0.175594
  83 H :    0.176431
  84 H :    0.003525
  85 H :    0.004527
  86 H :   -0.000405
  87 H :    0.022569
  88 H :    0.157154
  89 H :    0.012664
  90 H :    0.000217
  91 H :   -0.014531
  92 H :    0.002919
  93 H :    0.001632
  94 H :   -0.003520
  95 H :   -0.006424
  96 H :   -0.006828
  97 H :   -0.005867
  98 H :    0.037832
  99 H :   -0.016341
 100 H :   -0.020887
 101 H :   -0.002995
Sum of atomic charges:   -0.0000000

LOEWDIN ATOMIC CHARGES
----------------------
   0 C :    0.082932
   1 C :   -0.147941
   2 C :   -0.017812
   3 N :   -0.063125
   4 C :   -0.018615
   5 N :   -0.064433
   6 C :   -0.011517
   7 C :   -0.039266
   8 C :    0.014692
   9 C :   -0.037224
  10 C :   -0.145426
  11 C :   -0.010571
  12 S :    0.429025
  13 C :   -0.274468
  14 C :   -0.077414
  15 Br:    0.128802
  16 C :    0.087799
  17 O :   -0.160084
  18 C :   -0.091817
  19 C :    0.056328
  20 C :   -0.039639
  21 C :    0.009416
  22 C :   -0.008439
  23 O :    0.028784
  24 C :    0.019029
  25 C :   -0.027854
  26 C :   -0.002201
  27 O :   -0.043384
  28 O :   -0.047994
  29 C :   -0.044097
  30 C :   -0.020600
  31 C :   -0.059400
  32 C :    0.015839
  33 N :    0.060983
  34 C :   -0.076240
  35 S :    0.447879
  36 C :   -0.209735
  37 N :    0.273258
  38 O :   -0.221061
  39 O :   -0.233932
  40 C :    0.010893
  41 C :   -0.114758
  42 C :    0.027925
  43 C :   -0.063037
  44 C :    0.001882
  45 C :   -0.172464
  46 C :    0.007266
  47 C :   -0.055857
  48 C :   -0.123629
  49 S :    0.423196
  50 C :   -0.207165
  51 C :   -0.008895
  52 C :   -0.046401
  53 C :   -0.106903
  54 S :    0.485420
  55 C :   -0.083746
  56 C :    0.041478
  57 C :   -0.110850
  58 C :    0.054952
  59 C :   -0.201495
  60 C :    0.031061
  61 N :   -0.114658
  62 C :   -0.048956
  63 N :   -0.076113
  64 C :   -0.009160
  65 C :   -0.047737
  66 C :    0.097496
  67 O :   -0.154523
  68 C :    0.030928
  69 C :   -0.042318
  70 C :   -0.141090
  71 C :   -0.024868
  72 S :    0.440102
  73 C :   -0.286864
  74 C :   -0.060662
  75 Br:    0.124486
  76 H :    0.036411
  77 H :    0.040043
  78 H :    0.033856
  79 H :    0.038611
  80 H :    0.031870
  81 H :    0.042653
  82 H :    0.079887
  83 H :    0.087060
  84 H :    0.040091
  85 H :    0.027317
  86 H :    0.030185
  87 H :    0.023985
  88 H :    0.073523
  89 H :    0.044770
  90 H :    0.015832
  91 H :    0.031484
  92 H :    0.043879
  93 H :    0.039456
  94 H :    0.035216
  95 H :    0.035196
  96 H :    0.035506
  97 H :    0.039527
  98 H :    0.047356
  99 H :    0.039574
 100 H :    0.033151
 101 H :    0.038146

  Mayer bond orders larger than 0.100000
B(  0-C ,  1-C ) :   1.6077 B(  0-C ,  6-C ) :   1.0008 B(  0-C , 18-C ) :   1.0791
B(  1-C ,  2-C ) :   1.1437 B(  1-C ,  4-C ) :   1.1534 B(  2-C ,  3-N ) :   2.9675
B(  4-C ,  5-N ) :   2.9595 B(  6-C ,  7-C ) :   1.2839 B(  6-C , 11-C ) :   1.4084
B(  7-C ,  8-C ) :   1.4235 B(  7-C , 16-C ) :   0.9470 B(  8-C ,  9-C ) :   1.2356
B(  8-C , 76-H ) :   1.0133 B(  9-C , 10-C ) :   1.3174 B(  9-C , 14-C ) :   1.1598
B( 10-C , 11-C ) :   1.3243 B( 10-C , 12-S ) :   1.0800 B( 11-C , 77-H ) :   0.9782
B( 12-S , 13-C ) :   1.0883 B( 13-C , 14-C ) :   1.6138 B( 13-C , 15-Br) :   1.0130
B( 14-C , 78-H ) :   0.9982 B( 16-C , 17-O ) :   2.1493 B( 16-C , 18-C ) :   0.9539
B( 18-C , 19-C ) :   1.5136 B( 19-C , 20-C ) :   1.1844 B( 19-C , 79-H ) :   0.9620
B( 20-C , 21-C ) :   1.4996 B( 20-C , 80-H ) :   0.9674 B( 21-C , 22-C ) :   1.1913
B( 21-C , 81-H ) :   0.9893 B( 22-C , 23-O ) :   1.1069 B( 22-C , 24-C ) :   0.1107
B( 22-C , 26-C ) :   1.3160 B( 23-O , 24-C ) :   1.1296 B( 24-C , 25-C ) :   1.3899
B( 24-C , 29-C ) :   1.1463 B( 25-C , 26-C ) :   1.2078 B( 25-C , 28-O ) :   1.2189
B( 26-C , 27-O ) :   1.2683 B( 27-O , 82-H ) :   0.9468 B( 28-O , 83-H ) :   0.9500
B( 29-C , 30-C ) :   1.6430 B( 29-C , 84-H ) :   0.9494 B( 30-C , 31-C ) :   1.1554
B( 30-C , 85-H ) :   0.9751 B( 31-C , 32-C ) :   1.6355 B( 31-C , 86-H ) :   0.9788
B( 32-C , 33-N ) :   1.1086 B( 32-C , 87-H ) :   0.9648 B( 33-N , 34-C ) :   1.3206
B( 33-N , 88-H ) :   0.8494 B( 34-C , 35-S ) :   1.1356 B( 34-C , 41-C ) :   1.2623
B( 35-S , 36-C ) :   1.0460 B( 36-C , 37-N ) :   0.9806 B( 36-C , 40-C ) :   1.5173
B( 37-N , 38-O ) :   1.5264 B( 37-N , 39-O ) :   1.5046 B( 38-O , 39-O ) :   0.2548
B( 40-C , 41-C ) :   1.2033 B( 40-C , 89-H ) :   0.9979 B( 41-C , 42-C ) :   1.1891
B( 42-C , 43-C ) :   1.5814 B( 42-C , 90-H ) :   0.9507 B( 43-C , 44-C ) :   1.2438
B( 43-C , 91-H ) :   0.9681 B( 44-C , 45-C ) :   1.5214 B( 44-C , 92-H ) :   0.9614
B( 45-C , 46-C ) :   1.1821 B( 45-C , 49-S ) :   1.0253 B( 46-C , 47-C ) :   1.5401
B( 46-C , 93-H ) :   0.9995 B( 47-C , 48-C ) :   1.2225 B( 47-C , 94-H ) :   0.9943
B( 48-C , 49-S ) :   1.1134 B( 48-C , 50-C ) :   1.4024 B( 50-C , 51-C ) :   1.2430
B( 50-C , 54-S ) :   1.0389 B( 51-C , 52-C ) :   1.5163 B( 51-C , 95-H ) :   0.9899
B( 52-C , 53-C ) :   1.2121 B( 52-C , 96-H ) :   0.9986 B( 53-C , 54-S ) :   1.1248
B( 53-C , 55-C ) :   1.3711 B( 55-C , 56-C ) :   1.4172 B( 55-C , 97-H ) :   0.9462
B( 56-C , 57-C ) :   1.3879 B( 56-C , 98-H ) :   0.9114 B( 57-C , 58-C ) :   1.2151
B( 57-C , 66-C ) :   0.9855 B( 58-C , 59-C ) :   1.4235 B( 58-C , 64-C ) :   1.0186
B( 59-C , 60-C ) :   1.1851 B( 59-C , 62-C ) :   1.1595 B( 60-C , 61-N ) :   2.8459
B( 61-N , 88-H ) :   0.1412 B( 62-C , 63-N ) :   3.0222 B( 64-C , 65-C ) :   1.2768
B( 64-C , 71-C ) :   1.4225 B( 65-C , 66-C ) :   0.9296 B( 65-C , 68-C ) :   1.4455
B( 66-C , 67-O ) :   2.1386 B( 68-C , 69-C ) :   1.2396 B( 68-C , 99-H ) :   1.0048
B( 69-C , 70-C ) :   1.3386 B( 69-C , 74-C ) :   1.1614 B( 70-C , 71-C ) :   1.3007
B( 70-C , 72-S ) :   1.0850 B( 71-C ,100-H ) :   0.9821 B( 72-S , 73-C ) :   1.0864
B( 73-C , 74-C ) :   1.6077 B( 73-C , 75-Br) :   0.9949 B( 74-C ,101-H ) :   0.9963

-----------------------------------------------------------------------------
         ABSORPTION SPECTRUM VIA TRANSITION ELECTRIC DIPOLE MOMENTS
-----------------------------------------------------------------------------
State   Energy  Wavelength   fosc         T2         TX        TY        TZ
        (cm-1)    (nm)                  (au**2)     (au)      (au)      (au)
-----------------------------------------------------------------------------
   0    9013.0   1109.5   0.098523195   3.59869   0.85566  -0.82717   1.47727
   1   13671.1    731.5   0.429109169  10.33330   1.88220  -2.58921   0.29430
   2   16363.1    611.1   1.130280752  22.74038   1.28581  -3.64142   2.79769
   3   18519.3    540.0   0.048050236   0.85417  -0.54575   0.56752   0.48399
   4   19668.9    508.4   0.029859337   0.49978   0.59976   0.13823  -0.34778
   5   19913.4    502.2   0.157783075   2.60850   0.66485  -0.42126  -1.41032
   6   21384.4    467.6   0.493462740   7.59684   0.63625   1.00327  -2.48706
   7   22616.7    442.2   0.024631716   0.35854   0.42384  -0.40099  -0.13455
   8   22939.7    435.9   0.078098347   1.12080  -0.75162   0.72104   0.18967
   9   23215.0    430.8   0.470732693   6.67546  -0.47811   2.50543   0.41194
  10   23874.3    418.9   0.246391897   3.39760  -0.25858  -1.28667   1.29430
  11   24954.2    400.7   0.037363243   0.49292   0.30814  -0.32768  -0.53907
  12   25337.1    394.7   0.505007676   6.56169  -1.08914  -0.57020   2.24729
  13   25872.1    386.5   0.071617064   0.91130   0.10686  -0.32873   0.88984
  14   26387.4    379.0   0.044125703   0.55052  -0.07853  -0.69712   0.24161
  15   26864.1    372.2   0.049095059   0.60165  -0.12293   0.76575  -0.01279
  16   27344.3    365.7   0.034029505   0.40970   0.12397   0.57587  -0.25042
  17   27477.4    363.9   0.086078871   1.03133  -0.57995   0.50186   0.66567
  18   27506.7    363.5   0.089968078   1.07678   0.48214  -0.10693  -0.91262
  19   28080.4    356.1   0.067567984   0.79216  -0.06398   0.48194   0.74552
  20   28299.1    353.4   0.022902780   0.26643  -0.22486   0.43442   0.16477
  21   28699.7    348.4   0.106957153   1.22690  -0.39230   1.00911  -0.23385
  22   28838.6    346.8   0.219179299   2.50208   0.62147  -0.91458  -1.13111
  23   29129.7    343.3   0.106926424   1.20844   0.07466  -1.01068  -0.42590
  24   29343.6    340.8   0.049780201   0.55850   0.00244  -0.48737   0.56653
  25   29486.1    339.1   0.018691186   0.20869   0.39746  -0.19199  -0.11771
  26   29823.4    335.3   0.034140542   0.37687   0.30549  -0.49720   0.19062
  27   29981.0    333.5   0.332435710   3.65037   0.65682  -1.00623  -1.48541
  28   30283.3    330.2   0.050549404   0.54953   0.34255   0.25552  -0.60572
  29   30408.4    328.9   0.014782689   0.16004   0.23848  -0.17063  -0.27213
  30   30647.8    326.3   0.084514977   0.90784  -0.23218  -0.21192   0.89946
  31   30978.4    322.8   0.047095960   0.50050  -0.35080  -0.29167   0.54071
  32   31192.4    320.6   0.023418640   0.24717   0.05857  -0.39030   0.30232
  33   31697.0    315.5   0.138750820   1.44109  -0.54325   0.62889   0.86630
  34   31931.1    313.2   0.052342025   0.53965   0.41339  -0.27244  -0.54271
  35   31997.0    312.5   0.125087896   1.28701   0.56810  -0.26076  -0.94672
  36   32361.0    309.0   0.194936444   1.98311  -0.82739   1.05012   0.44248
  37   32747.5    305.4   0.008987154   0.09035   0.19328  -0.21056  -0.09303
  38   33000.8    303.0   0.159433324   1.59049   0.35029  -1.10965  -0.48626
  39   33097.3    302.1   0.169742909   1.68840  -0.46325   0.32408   1.16994
  40   33364.6    299.7   0.064249470   0.63396   0.21510  -0.55539   0.52842
  41   33631.7    297.3   0.085571833   0.83764   0.14604   0.85670   0.28701
  42   34261.8    291.9   0.033004452   0.31713   0.12323  -0.17205   0.52186
  43   34350.8    291.1   0.014022983   0.13439   0.30926  -0.19638  -0.01366
  44   34466.2    290.1   0.171410678   1.63727  -0.34755   0.99175  -0.73001
  45   34602.0    289.0   0.204652508   1.94712  -0.59077   1.19155  -0.42229
  46   34871.0    286.8   0.499595035   4.71661  -1.01638   1.18605   1.50893
  47   35024.7    285.5   0.085081447   0.79972  -0.25465   0.09977   0.85142
  48   35199.6    284.1   0.142570119   1.33342  -0.19210  -0.20641   1.11978
  49   35546.9    281.3   0.033030914   0.30591   0.24274  -0.05357  -0.49409
  50   35676.8    280.3   0.025424900   0.23461  -0.03445  -0.46375   0.13551
  51   36209.5    276.2   0.002526662   0.02297  -0.11672  -0.01847   0.09490
  52   36313.2    275.4   0.037936640   0.34393   0.15588  -0.26338   0.50026
  53   36482.9    274.1   0.050584085   0.45646   0.23784  -0.31495  -0.54836
  54   36588.9    273.3   0.024644137   0.22174  -0.13115   0.34231   0.29558
  55   36635.3    273.0   0.033782318   0.30357  -0.02939   0.34732  -0.42671
  56   36803.6    271.7   0.024080361   0.21540  -0.08374  -0.28736   0.35471
  57   37069.7    269.8   0.006483614   0.05758   0.14223   0.14291   0.13011
  58   37128.9    269.3   0.154118340   1.36653   0.45203  -1.03590  -0.29851
  59   37422.1    267.2   0.022127680   0.19466  -0.21737  -0.16343   0.34742
  60   37573.3    266.1   0.036878978   0.32313   0.26640  -0.37364  -0.33549
  61   37815.6    264.4   0.063102802   0.54936   0.36047  -0.30988  -0.56867
  62   37973.1    263.3   0.056549599   0.49026   0.53843  -0.25123   0.37045
  63   38153.7    262.1   0.040096063   0.34597  -0.05855   0.26173  -0.52349
  64   38333.8    260.9   0.011646498   0.10002   0.27441  -0.12789   0.09145
  65   38422.7    260.3   0.092004652   0.78831  -0.48285   0.57594  -0.47272
  66   38849.5    257.4   0.018696074   0.15843  -0.06511   0.32031  -0.22714
  67   39051.4    256.1   0.022139398   0.18664  -0.17787  -0.07548  -0.38640
  68   39288.1    254.5   0.001168850   0.00979  -0.02246  -0.07363   0.06220
  69   39537.7    252.9   0.007212932   0.06006   0.11733   0.06375   0.20550
  70   39718.1    251.8   0.007509820   0.06225  -0.05487  -0.09646   0.22345
  71   39897.0    250.6   0.006754146   0.05573   0.04342   0.11368  -0.20230
  72   39983.0    250.1   0.014868079   0.12242  -0.11973   0.12717   0.30317
  73   40185.8    248.8   0.101535348   0.83180   0.19945   0.27627  -0.84599

FINAL SINGLE POINT ENERGY    -10138.934058971454

DIPOLE MOMENT
-------------
                                X             Y             Z
Electronic contribution:     45.05978     -57.79389      30.78861
Nuclear contribution   :    -48.26734      59.99508     -31.39544
                        -----------------------------------------
Total Dipole Moment    :     -3.20756       2.20118      -0.60683
                        -----------------------------------------
Magnitude (a.u.)       :      3.93724
Magnitude (Debye)      :     10.00768

Rotational constants in cm-1:     0.000814     0.000491     0.000323
Rotational constants in MHz :    24.407160    14.717104     9.694742

                             ****ORCA TERMINATED NORMALLY****
TOTAL RUN TIME: 0 days 0 hours 31 minutes 16 seconds 727 msec
