                         Program Version 4.2.0 -  RELEASE  -
|  1> # ORCA input file
|  2> # SCF done       -148.314888383348          0.000539479393
|  3> ! CAM-B3LYP def2-SVP def2/J RIJCOSX Grid4 TightSCF
|  4> %maxcore 5000
|  5> %tddft
|  6>     Mode sTDDFT
|  7>     Ethresh 5.0
|  8>     maxcore 5000
|  9> end
| 10>
| 11> %pal
| 12>   nprocs 6
| 13>   end
| 14> * xyz 0 1
| 15>    C        0.97744        -1.14679         1.44209
| 16>    C       -0.31618        -0.63864         1.47708
| 17>    C       -0.81747         0.15264         0.39019
| 18>    N       -2.06692         0.67535         0.45287
| 19>    C       -2.78656         0.40651         1.50034
| 20>    C       -2.30169        -0.40278         2.55977
| 21>    N       -1.10282        -0.90057         2.55337
| 22>    C       -0.01273         0.42222        -0.73015
| 23>    C        1.29332        -0.09867        -0.75350
| 24>    C        1.78570        -0.88451         0.34180
| 25>    N        3.04912        -1.38326         0.31368
| 26>    C        3.77674        -1.12743        -0.73054
| 27>    C        3.28289        -0.37186        -1.82421
| 28>    N        2.08114         0.12225        -1.83485
| 29>    C       -0.52816         1.19659        -1.85613
| 30>    C        0.23323         2.18069        -2.47448
| 31>    C       -0.27891         2.86863        -3.57677
| 32>    C       -1.57289         2.51943        -3.98815
| 33>    N       -2.29925         1.58461        -3.41164
| 34>    C       -1.79897         0.93353        -2.38225
| 35>    C        0.44418         3.89012        -4.29698
| 36>    C        1.56248         4.50944        -3.86776
| 37>    C        2.28504         5.50378        -4.58677
| 38>    S        3.19066         6.67900        -3.70040
| 39>    C        3.63999         7.56971        -5.12214
| 40>    C        3.16446         6.91723        -6.26755
| 41>    C        2.39621         5.74730        -5.96242
| 42>    C        1.92328         4.94062        -7.01220
| 43>    C        2.14351         5.28243        -8.32465
| 44>    C        1.64882         4.42264        -9.39755
| 45>    C        0.54174         3.69436        -9.33161
| 46>    C        2.89727         6.45574        -8.63132
| 47>    C        3.15316         6.83289       -10.05891
| 48>    C        3.39915         7.23025        -7.62229
| 49>    C        4.36006         8.77784        -4.90952
| 50>    C        4.55979         9.78740        -5.78155
| 51>    C        5.29353        11.00033        -5.50295
| 52>    C        5.76067        11.37306        -4.24218
| 53>    C        6.46112        12.56793        -4.06752
| 54>    C        6.65824        13.35931        -5.20914
| 55>    N        6.22205        13.02565        -6.40781
| 56>    C        5.56505        11.89236        -6.55217
| 57>    C        6.91370        12.92913        -2.74188
| 58>    C        7.69523        13.98373        -2.44378
| 59>    C        8.15455        14.37731        -1.13897
| 60>    C        7.72733        13.81441         0.08741
| 61>    C        8.27786        14.27424         1.33229
| 62>    N        7.87833        13.72650         2.50901
| 63>    C        6.98287        12.78713         2.47037
| 64>    C        6.41914        12.34843         1.24922
| 65>    N        6.78110        12.84717         0.10360
| 66>    C        9.23167        15.28562         1.36553
| 67>    C        9.64803        15.86866         0.17461
| 68>    C        9.10917        15.42325        -1.07547
| 69>    N        9.52009        16.00574        -2.22682
| 70>    C       10.40827        16.95291        -2.15387
| 71>    C       10.94777        17.38250        -0.91654
| 72>    N       10.57573        16.86037         0.21269
| 73>    H        1.35097        -1.73893         2.26129
| 74>    H       -3.77862         0.83678         1.53197
| 75>    H       -2.91845        -0.62410         3.42071
| 76>    H        4.78159        -1.52882        -0.73744
| 77>    H        3.89219        -0.18681        -2.69904
| 78>    H        1.21872         2.40276        -2.09736
| 79>    H       -2.04112         3.02950        -4.82095
| 80>    H       -2.41973         0.15381        -1.96554
| 81>    H       -0.00176         4.19335        -5.23366
| 82>    H        1.93435         4.30568        -2.87163
| 83>    H        1.43281         4.00925        -6.78124
| 84>    H        2.23996         4.40182       -10.30283
| 85>    H       -0.10408         3.70574        -8.46959
| 86>    H        0.22790         3.06959       -10.15010
| 87>    H        2.21837         6.88570       -10.61501
| 88>    H        3.79330         6.09541       -10.54361
| 89>    H        3.64728         7.79963       -10.11623
| 90>    H        4.01563         8.07862        -7.87092
| 91>    H        4.74586         8.87819        -3.90248
| 92>    H        4.14632         9.73177        -6.77704
| 93>    H        5.57729        10.74681        -3.38094
| 94>    H        7.17714        14.30569        -5.15524
| 95>    H        5.23287        11.67187        -7.55914
| 96>    H        6.58304        12.28038        -1.94354
| 97>    H        8.07032        14.62267        -3.23133
| 98>    H        6.67909        12.35834         3.41639
| 99>    H        5.65526        11.58212         1.22530
|100>    H        9.64500        15.61021         2.30604
|101>    H       10.71591        17.40438        -3.08781
|102>    H       11.68834        18.17010        -0.87176
|103> *
|104>
|105>                          ****END OF INPUT****

CARTESIAN COORDINATES (ANGSTROEM)
---------------------------------
  C      0.977440   -1.146790    1.442090
  C     -0.316180   -0.638640    1.477080
  C     -0.817470    0.152640    0.390190
  N     -2.066920    0.675350    0.452870
  C     -2.786560    0.406510    1.500340
  C     -2.301690   -0.402780    2.559770
  N     -1.102820   -0.900570    2.553370
  C     -0.012730    0.422220   -0.730150
  C      1.293320   -0.098670   -0.753500
  C      1.785700   -0.884510    0.341800
  N      3.049120   -1.383260    0.313680
  C      3.776740   -1.127430   -0.730540
  C      3.282890   -0.371860   -1.824210
  N      2.081140    0.122250   -1.834850
  C     -0.528160    1.196590   -1.856130
  C      0.233230    2.180690   -2.474480
  C     -0.278910    2.868630   -3.576770
  C     -1.572890    2.519430   -3.988150
  N     -2.299250    1.584610   -3.411640
  C     -1.798970    0.933530   -2.382250
  C      0.444180    3.890120   -4.296980
  C      1.562480    4.509440   -3.867760
  C      2.285040    5.503780   -4.586770
  S      3.190660    6.679000   -3.700400
  C      3.639990    7.569710   -5.122140
  C      3.164460    6.917230   -6.267550
  C      2.396210    5.747300   -5.962420
  C      1.923280    4.940620   -7.012200
  C      2.143510    5.282430   -8.324650
  C      1.648820    4.422640   -9.397550
  C      0.541740    3.694360   -9.331610
  C      2.897270    6.455740   -8.631320
  C      3.153160    6.832890  -10.058910
  C      3.399150    7.230250   -7.622290
  C      4.360060    8.777840   -4.909520
  C      4.559790    9.787400   -5.781550
  C      5.293530   11.000330   -5.502950
  C      5.760670   11.373060   -4.242180
  C      6.461120   12.567930   -4.067520
  C      6.658240   13.359310   -5.209140
  N      6.222050   13.025650   -6.407810
  C      5.565050   11.892360   -6.552170
  C      6.913700   12.929130   -2.741880
  C      7.695230   13.983730   -2.443780
  C      8.154550   14.377310   -1.138970
  C      7.727330   13.814410    0.087410
  C      8.277860   14.274240    1.332290
  N      7.878330   13.726500    2.509010
  C      6.982870   12.787130    2.470370
  C      6.419140   12.348430    1.249220
  N      6.781100   12.847170    0.103600
  C      9.231670   15.285620    1.365530
  C      9.648030   15.868660    0.174610
  C      9.109170   15.423250   -1.075470
  N      9.520090   16.005740   -2.226820
  C     10.408270   16.952910   -2.153870
  C     10.947770   17.382500   -0.916540
  N     10.575730   16.860370    0.212690
  H      1.350970   -1.738930    2.261290
  H     -3.778620    0.836780    1.531970
  H     -2.918450   -0.624100    3.420710
  H      4.781590   -1.528820   -0.737440
  H      3.892190   -0.186810   -2.699040
  H      1.218720    2.402760   -2.097360
  H     -2.041120    3.029500   -4.820950
  H     -2.419730    0.153810   -1.965540
  H     -0.001760    4.193350   -5.233660
  H      1.934350    4.305680   -2.871630
  H      1.432810    4.009250   -6.781240
  H      2.239960    4.401820  -10.302830
  H     -0.104080    3.705740   -8.469590
  H      0.227900    3.069590  -10.150100
  H      2.218370    6.885700  -10.615010
  H      3.793300    6.095410  -10.543610
  H      3.647280    7.799630  -10.116230
  H      4.015630    8.078620   -7.870920
  H      4.745860    8.878190   -3.902480
  H      4.146320    9.731770   -6.777040
  H      5.577290   10.746810   -3.380940
  H      7.177140   14.305690   -5.155240
  H      5.232870   11.671870   -7.559140
  H      6.583040   12.280380   -1.943540
  H      8.070320   14.622670   -3.231330
  H      6.679090   12.358340    3.416390
  H      5.655260   11.582120    1.225300
  H      9.645000   15.610210    2.306040
  H     10.715910   17.404380   -3.087810
  H     11.688340   18.170100   -0.871760

 Total Charge           Charge          ....    0
 Multiplicity           Mult            ....    1
 Number of Electrons    NEL             ....  398
 Basis Dimension        Dim             ....  966

ORBITAL ENERGIES
----------------

  NO   OCC          E(Eh)            E(eV)
   0   2.0000     -88.957729     -2420.6629
   1   2.0000     -14.428111      -392.6089
   2   2.0000     -14.426787      -392.5728
   3   2.0000     -14.426769      -392.5724
   4   2.0000     -14.425905      -392.5488
   5   2.0000     -14.425708      -392.5435
   6   2.0000     -14.424935      -392.5224
   7   2.0000     -14.423856      -392.4931
   8   2.0000     -14.422448      -392.4548
   9   2.0000     -14.389507      -391.5584
  10   2.0000     -14.387270      -391.4975
  11   2.0000     -10.324362      -280.9402
  12   2.0000     -10.323464      -280.9157
  13   2.0000     -10.322983      -280.9026
  14   2.0000     -10.322731      -280.8958
  15   2.0000     -10.322485      -280.8891
  16   2.0000     -10.322356      -280.8856
  17   2.0000     -10.321601      -280.8651
  18   2.0000     -10.320513      -280.8354
  19   2.0000     -10.320336      -280.8306
  20   2.0000     -10.320233      -280.8278
  21   2.0000     -10.320032      -280.8224
  22   2.0000     -10.319385      -280.8047
  23   2.0000     -10.318447      -280.7792
  24   2.0000     -10.316879      -280.7366
  25   2.0000     -10.316626      -280.7297
  26   2.0000     -10.315688      -280.7041
  27   2.0000     -10.297925      -280.2208
  28   2.0000     -10.296718      -280.1879
  29   2.0000     -10.296277      -280.1759
  30   2.0000     -10.292570      -280.0751
  31   2.0000     -10.291582      -280.0482
  32   2.0000     -10.290884      -280.0292
  33   2.0000     -10.290294      -280.0131
  34   2.0000     -10.289551      -279.9929
  35   2.0000     -10.282109      -279.7904
  36   2.0000     -10.279872      -279.7295
  37   2.0000     -10.279511      -279.7197
  38   2.0000     -10.278243      -279.6852
  39   2.0000     -10.276959      -279.6503
  40   2.0000     -10.276162      -279.6286
  41   2.0000     -10.276116      -279.6273
  42   2.0000     -10.275730      -279.6168
  43   2.0000     -10.274548      -279.5847
  44   2.0000     -10.274026      -279.5705
  45   2.0000     -10.273982      -279.5693
  46   2.0000     -10.273796      -279.5642
  47   2.0000     -10.273564      -279.5579
  48   2.0000     -10.272950      -279.5412
  49   2.0000     -10.271111      -279.4911
  50   2.0000     -10.269967      -279.4600
  51   2.0000     -10.268008      -279.4067
  52   2.0000     -10.266238      -279.3585
  53   2.0000     -10.263351      -279.2800
  54   2.0000     -10.263163      -279.2749
  55   2.0000     -10.261700      -279.2351
  56   2.0000     -10.260931      -279.2141
  57   2.0000     -10.260200      -279.1942
  58   2.0000      -8.053311      -219.1417
  59   2.0000      -6.022108      -163.8699
  60   2.0000      -6.018225      -163.7642
  61   2.0000      -6.016236      -163.7101
  62   2.0000      -1.086187       -29.5567
  63   2.0000      -1.082885       -29.4668
  64   2.0000      -1.078883       -29.3579
  65   2.0000      -1.075985       -29.2790
  66   2.0000      -1.025303       -27.8999
  67   2.0000      -1.023867       -27.8608
  68   2.0000      -1.008827       -27.4516
  69   2.0000      -1.005973       -27.3739
  70   2.0000      -1.003958       -27.3191
  71   2.0000      -1.000599       -27.2277
  72   2.0000      -0.989219       -26.9180
  73   2.0000      -0.951382       -25.8884
  74   2.0000      -0.945935       -25.7402
  75   2.0000      -0.937290       -25.5050
  76   2.0000      -0.916022       -24.9262
  77   2.0000      -0.907674       -24.6991
  78   2.0000      -0.897918       -24.4336
  79   2.0000      -0.889106       -24.1938
  80   2.0000      -0.873954       -23.7815
  81   2.0000      -0.867626       -23.6093
  82   2.0000      -0.864918       -23.5356
  83   2.0000      -0.862111       -23.4592
  84   2.0000      -0.859584       -23.3905
  85   2.0000      -0.849423       -23.1140
  86   2.0000      -0.833335       -22.6762
  87   2.0000      -0.823363       -22.4048
  88   2.0000      -0.808648       -22.0044
  89   2.0000      -0.805257       -21.9122
  90   2.0000      -0.791095       -21.5268
  91   2.0000      -0.787748       -21.4357
  92   2.0000      -0.778710       -21.1898
  93   2.0000      -0.764374       -20.7997
  94   2.0000      -0.760572       -20.6962
  95   2.0000      -0.759623       -20.6704
  96   2.0000      -0.735562       -20.0157
  97   2.0000      -0.727920       -19.8077
  98   2.0000      -0.727507       -19.7965
  99   2.0000      -0.726395       -19.7662
 100   2.0000      -0.723930       -19.6991
 101   2.0000      -0.718352       -19.5474
 102   2.0000      -0.704760       -19.1775
 103   2.0000      -0.688467       -18.7341
 104   2.0000      -0.685102       -18.6426
 105   2.0000      -0.682449       -18.5704
 106   2.0000      -0.675981       -18.3944
 107   2.0000      -0.669949       -18.2302
 108   2.0000      -0.658394       -17.9158
 109   2.0000      -0.646553       -17.5936
 110   2.0000      -0.643323       -17.5057
 111   2.0000      -0.633944       -17.2505
 112   2.0000      -0.631719       -17.1899
 113   2.0000      -0.629865       -17.1395
 114   2.0000      -0.627988       -17.0884
 115   2.0000      -0.615742       -16.7552
 116   2.0000      -0.600513       -16.3408
 117   2.0000      -0.595372       -16.2009
 118   2.0000      -0.594066       -16.1654
 119   2.0000      -0.593066       -16.1381
 120   2.0000      -0.590144       -16.0586
 121   2.0000      -0.589146       -16.0315
 122   2.0000      -0.578161       -15.7326
 123   2.0000      -0.574774       -15.6404
 124   2.0000      -0.573545       -15.6070
 125   2.0000      -0.572113       -15.5680
 126   2.0000      -0.565903       -15.3990
 127   2.0000      -0.560299       -15.2465
 128   2.0000      -0.550872       -14.9900
 129   2.0000      -0.542907       -14.7732
 130   2.0000      -0.539540       -14.6816
 131   2.0000      -0.538579       -14.6555
 132   2.0000      -0.536881       -14.6093
 133   2.0000      -0.533204       -14.5092
 134   2.0000      -0.527325       -14.3492
 135   2.0000      -0.524089       -14.2612
 136   2.0000      -0.517422       -14.0798
 137   2.0000      -0.515508       -14.0277
 138   2.0000      -0.514608       -14.0032
 139   2.0000      -0.513190       -13.9646
 140   2.0000      -0.511388       -13.9156
 141   2.0000      -0.509688       -13.8693
 142   2.0000      -0.508807       -13.8453
 143   2.0000      -0.504129       -13.7181
 144   2.0000      -0.499978       -13.6051
 145   2.0000      -0.496996       -13.5240
 146   2.0000      -0.492125       -13.3914
 147   2.0000      -0.488776       -13.3003
 148   2.0000      -0.485090       -13.2000
 149   2.0000      -0.483530       -13.1575
 150   2.0000      -0.481780       -13.1099
 151   2.0000      -0.477709       -12.9991
 152   2.0000      -0.476369       -12.9627
 153   2.0000      -0.475616       -12.9422
 154   2.0000      -0.467289       -12.7156
 155   2.0000      -0.465655       -12.6711
 156   2.0000      -0.463527       -12.6132
 157   2.0000      -0.461300       -12.5526
 158   2.0000      -0.459184       -12.4950
 159   2.0000      -0.452175       -12.3043
 160   2.0000      -0.444312       -12.0903
 161   2.0000      -0.442356       -12.0371
 162   2.0000      -0.440189       -11.9781
 163   2.0000      -0.438298       -11.9267
 164   2.0000      -0.434621       -11.8266
 165   2.0000      -0.426877       -11.6159
 166   2.0000      -0.419649       -11.4192
 167   2.0000      -0.418819       -11.3967
 168   2.0000      -0.417245       -11.3538
 169   2.0000      -0.414057       -11.2671
 170   2.0000      -0.412648       -11.2287
 171   2.0000      -0.410703       -11.1758
 172   2.0000      -0.409770       -11.1504
 173   2.0000      -0.405988       -11.0475
 174   2.0000      -0.399575       -10.8730
 175   2.0000      -0.391090       -10.6421
 176   2.0000      -0.389756       -10.6058
 177   2.0000      -0.385918       -10.5014
 178   2.0000      -0.383632       -10.4392
 179   2.0000      -0.380107       -10.3432
 180   2.0000      -0.379499       -10.3267
 181   2.0000      -0.360216        -9.8020
 182   2.0000      -0.349718        -9.5163
 183   2.0000      -0.344210        -9.3664
 184   2.0000      -0.330740        -8.9999
 185   2.0000      -0.327779        -8.9193
 186   2.0000      -0.326199        -8.8763
 187   2.0000      -0.324915        -8.8414
 188   2.0000      -0.323637        -8.8066
 189   2.0000      -0.323215        -8.7951
 190   2.0000      -0.319640        -8.6978
 191   2.0000      -0.312889        -8.5141
 192   2.0000      -0.309210        -8.4140
 193   2.0000      -0.304819        -8.2945
 194   2.0000      -0.297763        -8.1025
 195   2.0000      -0.288578        -7.8526
 196   2.0000      -0.279800        -7.6138
 197   2.0000      -0.257880        -7.0173
 198   2.0000      -0.222224        -6.0470
 199   0.0000      -0.078180        -2.1274
 200   0.0000      -0.076355        -2.0777
 201   0.0000      -0.055393        -1.5073
 202   0.0000      -0.009784        -0.2662
 203   0.0000      -0.009231        -0.2512

MULLIKEN ATOMIC CHARGES
-----------------------
   0 C :   -0.073330
   1 C :    0.024954
   2 C :   -0.057528
   3 N :   -0.007465
   4 C :    0.026546
   5 C :    0.020593
   6 N :   -0.014676
   7 C :    0.096102
   8 C :   -0.061457
   9 C :    0.033353
  10 N :   -0.015051
  11 C :    0.021041
  12 C :    0.024083
  13 N :   -0.010844
  14 C :   -0.038431
  15 C :    0.046091
  16 C :    0.047088
  17 C :   -0.024370
  18 N :   -0.056364
  19 C :    0.035437
  20 C :   -0.010672
  21 C :    0.051920
  22 C :   -0.134540
  23 S :    0.146934
  24 C :   -0.139815
  25 C :    0.130850
  26 C :    0.120876
  27 C :   -0.117549
  28 C :    0.082757
  29 C :   -0.035276
  30 C :   -0.011450
  31 C :   -0.078211
  32 C :    0.102220
  33 C :   -0.106018
  34 C :    0.076474
  35 C :   -0.024608
  36 C :    0.089666
  37 C :   -0.040696
  38 C :    0.082751
  39 C :   -0.016670
  40 N :   -0.051501
  41 C :   -0.031379
  42 C :    0.027221
  43 C :   -0.067898
  44 C :    0.123445
  45 C :   -0.059515
  46 C :    0.034350
  47 N :   -0.016097
  48 C :    0.020888
  49 C :    0.029806
  50 N :   -0.020086
  51 C :   -0.073943
  52 C :    0.030670
  53 C :   -0.054500
  54 N :   -0.014852
  55 C :    0.024944
  56 C :    0.018619
  57 N :   -0.014503
  58 H :   -0.034183
  59 H :    0.016350
  60 H :    0.016237
  61 H :    0.015947
  62 H :    0.016392
  63 H :   -0.021401
  64 H :   -0.010370
  65 H :   -0.010149
  66 H :   -0.011859
  67 H :   -0.016671
  68 H :   -0.028176
  69 H :   -0.006663
  70 H :    0.017952
  71 H :    0.021919
  72 H :    0.029709
  73 H :    0.031087
  74 H :    0.007669
  75 H :   -0.046759
  76 H :   -0.025598
  77 H :   -0.019545
  78 H :   -0.022489
  79 H :   -0.002570
  80 H :   -0.012145
  81 H :   -0.011588
  82 H :   -0.002817
  83 H :    0.014228
  84 H :    0.011678
  85 H :   -0.036655
  86 H :    0.013653
  87 H :    0.016433
Sum of atomic charges:   -0.0000000

LOEWDIN ATOMIC CHARGES
----------------------
   0 C :   -0.001570
   1 C :   -0.013233
   2 C :   -0.010675
   3 N :   -0.027271
   4 C :    0.007643
   5 C :    0.007639
   6 N :   -0.035696
   7 C :   -0.004032
   8 C :   -0.011312
   9 C :   -0.013242
  10 N :   -0.034756
  11 C :    0.006498
  12 C :    0.006803
  13 N :   -0.029326
  14 C :   -0.036926
  15 C :    0.033839
  16 C :   -0.054317
  17 C :    0.020495
  18 N :   -0.071462
  19 C :    0.037333
  20 C :   -0.020222
  21 C :   -0.042154
  22 C :   -0.178420
  23 S :    0.472410
  24 C :   -0.181888
  25 C :   -0.040479
  26 C :   -0.045501
  27 C :   -0.005702
  28 C :   -0.029881
  29 C :   -0.021459
  30 C :   -0.037898
  31 C :   -0.014287
  32 C :   -0.044864
  33 C :   -0.030054
  34 C :   -0.038967
  35 C :   -0.031381
  36 C :   -0.045213
  37 C :    0.012491
  38 C :   -0.044870
  39 C :    0.024874
  40 N :   -0.065871
  41 C :    0.013839
  42 C :    0.003460
  43 C :   -0.025305
  44 C :   -0.006253
  45 C :   -0.010767
  46 C :   -0.011858
  47 N :   -0.032911
  48 C :    0.004546
  49 C :    0.007038
  50 N :   -0.025330
  51 C :   -0.006598
  52 C :   -0.014098
  53 C :   -0.009777
  54 N :   -0.031077
  55 C :    0.006219
  56 C :    0.006055
  57 N :   -0.035305
  58 H :    0.042441
  59 H :    0.028094
  60 H :    0.027495
  61 H :    0.027511
  62 H :    0.027761
  63 H :    0.024502
  64 H :    0.017620
  65 H :    0.017469
  66 H :    0.028796
  67 H :    0.025946
  68 H :    0.027895
  69 H :    0.027622
  70 H :    0.020652
  71 H :    0.024883
  72 H :    0.035408
  73 H :    0.034551
  74 H :    0.029660
  75 H :    0.023191
  76 H :    0.023684
  77 H :    0.026217
  78 H :    0.025508
  79 H :    0.020082
  80 H :    0.016671
  81 H :    0.022488
  82 H :    0.027285
  83 H :    0.026810
  84 H :    0.025540
  85 H :    0.041104
  86 H :    0.026914
  87 H :    0.027224

  Mayer bond orders larger than 0.100000
B(  0-C ,  1-C ) :   1.2426 B(  0-C ,  7-C ) :   0.1443 B(  0-C ,  9-C ) :   1.2416
B(  0-C , 58-H ) :   1.0603 B(  1-C ,  2-C ) :   1.1671 B(  1-C ,  6-N ) :   1.3690
B(  2-C ,  3-N ) :   1.4331 B(  2-C ,  7-C ) :   1.3198 B(  3-N ,  4-C ) :   1.7150
B(  4-C ,  5-C ) :   1.1683 B(  4-C , 59-H ) :   0.9733 B(  5-C ,  6-N ) :   1.7295
B(  5-C , 60-H ) :   0.9728 B(  7-C ,  8-C ) :   1.3251 B(  7-C , 14-C ) :   0.9537
B(  8-C ,  9-C ) :   1.1734 B(  8-C , 13-N ) :   1.4257 B(  9-C , 10-N ) :   1.3674
B( 10-N , 11-C ) :   1.7306 B( 11-C , 12-C ) :   1.1699 B( 11-C , 61-H ) :   0.9729
B( 12-C , 13-N ) :   1.7093 B( 12-C , 62-H ) :   0.9732 B( 14-C , 15-C ) :   1.4219
B( 14-C , 19-C ) :   1.3409 B( 15-C , 16-C ) :   1.3653 B( 15-C , 63-H ) :   0.9710
B( 16-C , 17-C ) :   1.3175 B( 16-C , 20-C ) :   1.0645 B( 17-C , 18-N ) :   1.5624
B( 17-C , 64-H ) :   0.9885 B( 18-N , 19-C ) :   1.5643 B( 19-C , 65-H ) :   0.9802
B( 20-C , 21-C ) :   1.7082 B( 20-C , 66-H ) :   0.9769 B( 21-C , 22-C ) :   1.1141
B( 21-C , 67-H ) :   0.9464 B( 22-C , 23-S ) :   1.1616 B( 22-C , 24-C ) :   0.1120
B( 22-C , 26-C ) :   1.3350 B( 23-S , 24-C ) :   1.1487 B( 24-C , 25-C ) :   1.3427
B( 24-C , 34-C ) :   1.1368 B( 25-C , 26-C ) :   1.2104 B( 25-C , 33-C ) :   1.1805
B( 26-C , 27-C ) :   1.1935 B( 27-C , 28-C ) :   1.5124 B( 27-C , 68-H ) :   0.9918
B( 28-C , 29-C ) :   1.0307 B( 28-C , 31-C ) :   1.1975 B( 29-C , 30-C ) :   1.9750
B( 29-C , 69-H ) :   0.9520 B( 30-C , 70-H ) :   0.9574 B( 30-C , 71-H ) :   0.9495
B( 31-C , 32-C ) :   1.0877 B( 31-C , 33-C ) :   1.5596 B( 32-C , 72-H ) :   0.9431
B( 32-C , 73-H ) :   0.9402 B( 32-C , 74-H ) :   0.9534 B( 33-C , 75-H ) :   0.9904
B( 34-C , 35-C ) :   1.6969 B( 34-C , 76-H ) :   0.9373 B( 35-C , 36-C ) :   1.0665
B( 35-C , 77-H ) :   0.9775 B( 36-C , 37-C ) :   1.3405 B( 36-C , 41-C ) :   1.3144
B( 37-C , 38-C ) :   1.3789 B( 37-C , 78-H ) :   0.9904 B( 38-C , 39-C ) :   1.3133
B( 38-C , 42-C ) :   1.0342 B( 39-C , 40-N ) :   1.5730 B( 39-C , 79-H ) :   0.9824
B( 40-N , 41-C ) :   1.5579 B( 41-C , 80-H ) :   0.9867 B( 42-C , 43-C ) :   1.6636
B( 42-C , 81-H ) :   0.9643 B( 43-C , 44-C ) :   1.1465 B( 43-C , 82-H ) :   0.9533
B( 44-C , 45-C ) :   1.2417 B( 44-C , 51-C ) :   0.1379 B( 44-C , 53-C ) :   1.2568
B( 45-C , 46-C ) :   1.1705 B( 45-C , 50-N ) :   1.4322 B( 46-C , 47-N ) :   1.3716
B( 46-C , 51-C ) :   1.2462 B( 47-N , 48-C ) :   1.7236 B( 48-C , 49-C ) :   1.1787
B( 48-C , 83-H ) :   0.9741 B( 49-C , 50-N ) :   1.6903 B( 49-C , 84-H ) :   0.9728
B( 51-C , 52-C ) :   1.2490 B( 51-C , 85-H ) :   1.0547 B( 52-C , 53-C ) :   1.1732
B( 52-C , 57-N ) :   1.3715 B( 53-C , 54-N ) :   1.4371 B( 54-N , 55-C ) :   1.7109
B( 55-C , 56-C ) :   1.1726 B( 55-C , 86-H ) :   0.9744 B( 56-C , 57-N ) :   1.7256
B( 56-C , 87-H ) :   0.9738

-----------------------------------------------------------------------------
         ABSORPTION SPECTRUM VIA TRANSITION ELECTRIC DIPOLE MOMENTS
-----------------------------------------------------------------------------
State   Energy  Wavelength   fosc         T2         TX        TY        TZ
        (cm-1)    (nm)                  (au**2)     (au)      (au)      (au)
-----------------------------------------------------------------------------
   0   19333.6    517.2   0.021500402   0.36611  -0.03529  -0.49381   0.34787
   1   20196.1    495.1   0.621405138  10.12936  -1.81615  -2.50624  -0.74143
   2   20807.4    480.6   0.690919624  10.93164  -1.64630  -2.69544   0.97772
   3   22250.0    449.4   0.243545859   3.60352  -0.02114   0.34650  -1.86628
   4   25868.8    386.6   0.015129108   0.19254  -0.32300   0.17461  -0.24025
   5   25913.8    385.9   0.124195871   1.57780  -0.58204   0.46332  -1.01211
   6   26966.9    370.8   0.010005276   0.12214  -0.17014  -0.25660  -0.16539
   7   27376.5    365.3   0.001006492   0.01210  -0.07799   0.04063   0.06610
   8   27851.9    359.0   0.051315510   0.60655  -0.30045   0.35312  -0.62577
   9   29149.2    343.1   0.148013131   1.67166  -0.51623  -1.02092  -0.60242
  10   30965.6    322.9   0.040203645   0.42743   0.13995   0.46649   0.43616
  11   31426.6    318.2   0.101566370   1.06397  -0.63906  -0.77735   0.22649
  12   31460.5    317.9   0.046312571   0.48463  -0.38417  -0.52511   0.24758
  13   32379.1    308.8   0.002894301   0.02943   0.15781   0.02887   0.06075
  14   32488.5    307.8   0.040332993   0.40870  -0.59563  -0.00341   0.23221
  15   32677.3    306.0   0.068805201   0.69319   0.78423  -0.07648  -0.26893
  16   33120.1    301.9   0.573643696   5.70198   0.47120   1.26850   1.96745
  17   33575.2    297.8   0.028619601   0.28062   0.39075   0.29677   0.19966
  18   34055.8    293.6   0.187979671   1.81717  -0.27191  -0.28628  -1.28890
  19   34194.0    292.4   0.044597587   0.42938   0.09971   0.24105  -0.60110
  20   34222.7    292.2   0.102110765   0.98228   0.64272   0.70611   0.26570
  21   34332.4    291.3   0.000789120   0.00757   0.07415   0.01649   0.04239
  22   34471.9    290.1   0.023527766   0.22469   0.33254   0.33765   0.01013
  23   34510.4    289.8   0.022759835   0.21712   0.36797  -0.02915  -0.28437
  24   35088.8    285.0   0.013994456   0.13130   0.26724   0.17567  -0.17036
  25   35825.4    279.1   0.001608384   0.01478   0.08501   0.08639  -0.00949
  26   36250.6    275.9   0.230118752   2.08984  -0.83717  -1.15077   0.25440
  27   36381.4    274.9   0.086128130   0.77936  -0.40057  -0.32787   0.71513
  28   36770.2    272.0   0.014273223   0.12779  -0.05012  -0.08382  -0.34388
  29   37034.2    270.0   0.046927666   0.41716  -0.29528   0.17771  -0.54625
  30   37212.6    268.7   0.001573471   0.01392   0.07059   0.02754   0.09044
  31   37516.2    266.6   0.065061897   0.57093  -0.45022  -0.48710   0.36189
  32   37826.1    264.4   0.277436368   2.41461   0.26455   0.07718   1.52927
  33   38311.1    261.0   0.099222789   0.85263   0.09017  -0.00051   0.91897
  34   38526.5    259.6   0.017071490   0.14588   0.25803   0.28079   0.02135
  35   38817.8    257.6   0.002621464   0.02223   0.13913  -0.01114   0.05246
  36   39156.5    255.4   0.005935821   0.04991  -0.08991  -0.02747  -0.20265
  37   39741.8    251.6   0.005443158   0.04509  -0.13549  -0.03024   0.16068
  38   39784.5    251.4   0.005106002   0.04225   0.11707   0.01067  -0.16862
  39   40078.5    249.5   0.235731401   1.93634   0.92664   1.01805  -0.20308
  40   40192.3    248.8   0.009142906   0.07489   0.03239   0.01441   0.27135
  41   40274.6    248.3   0.829907856   6.78382  -1.65371  -1.82650   0.84436

FINAL SINGLE POINT ENERGY     -2751.595359642452

DIPOLE MOMENT
-------------
                                X             Y             Z
Electronic contribution:      5.11438       0.09970      35.34113
Nuclear contribution   :     -4.69443      -0.73822     -34.77641
                        -----------------------------------------
Total Dipole Moment    :      0.41995      -0.63853       0.56472
                        -----------------------------------------
Magnitude (a.u.)       :      0.95025
Magnitude (Debye)      :      2.41535

Rotational constants in cm-1:     0.001680     0.000440     0.000367
Rotational constants in MHz :    50.365885    13.202676    10.995300

                             ****ORCA TERMINATED NORMALLY****
TOTAL RUN TIME: 0 days 0 hours 6 minutes 34 seconds 395 msec
