                         Program Version 4.2.0 -  RELEASE  -
|  1> # ORCA input file
|  2> # SCF done       -175.824882089515          0.000793439801
|  3> ! CAM-B3LYP def2-SVP def2/J RIJCOSX Grid4 TightSCF
|  4> %maxcore 5000
|  5> %tddft
|  6>     Mode sTDDFT
|  7>     Ethresh 5.0
|  8>     maxcore 5000
|  9> end
| 10>
| 11> %pal
| 12>   nprocs 6
| 13>   end
| 14> * xyz 0 1
| 15>    C        0.54166         2.60293        -3.26199
| 16>    S        0.18799         2.71930        -1.59418
| 17>    C       -0.35282         4.36875        -1.77402
| 18>    C       -0.22520         4.78399        -3.08478
| 19>    C        0.26878         3.75959        -3.93738
| 20>    C        0.40114         3.93034        -5.39364
| 21>    O        0.89122         3.08127        -6.11267
| 22>    C       -0.16187         5.19747        -5.90287
| 23>    C       -0.30320         5.36279        -7.27847
| 24>    C       -0.84209         6.52316        -7.79879
| 25>    C       -1.24212         7.55928        -6.96013
| 26>    C       -1.78554         8.83972        -7.51995
| 27>    C       -0.65453         9.85398        -7.70852
| 28>    C       -1.07483         7.40780        -5.59002
| 29>    C       -0.55088         6.24132        -5.05029
| 30>    C       -0.39541         6.15951        -3.58138
| 31>    O       -0.32921         7.14239        -2.87155
| 32>    C       -1.01971         5.09831        -0.74156
| 33>    N       -0.74694         5.05029         0.60375
| 34>    C        0.36627         4.38070         1.23085
| 35>    C        1.68713         5.08281         0.93430
| 36>    C       -1.60931         5.89188         1.33257
| 37>    O       -1.53090         6.06832         2.53522
| 38>    C       -2.50379         6.42559         0.33819
| 39>    C       -2.10719         5.93460        -0.93037
| 40>    C       -3.00900         6.49055        -1.91525
| 41>    O       -3.11093         6.33059        -3.11373
| 42>    N       -3.87325         7.32352        -1.16973
| 43>    C       -4.88370         8.10870        -1.83352
| 44>    C       -4.37034         9.50740        -2.16875
| 45>    C       -3.58118         7.28874         0.17154
| 46>    C       -4.17324         7.93465         1.28609
| 47>    C       -5.00559         8.99816         1.40151
| 48>    C       -5.34948         9.53487         2.67435
| 49>    S       -6.74516        10.58133         2.83704
| 50>    C       -6.53939        10.71068         4.54813
| 51>    C       -5.45968        10.01631         4.95938
| 52>    C       -4.75379         9.35238         3.91879
| 53>    C       -3.56583         8.68137         4.35053
| 54>    C       -3.33967         8.68101         5.68225
| 55>    S       -4.62662         9.64777         6.51052
| 56>    O       -4.07058        10.83735         7.09174
| 57>    O       -5.46194         8.82617         7.34052
| 58>    C       -2.29334         8.06499         6.42050
| 59>    C       -1.41884         7.20231         5.85953
| 60>    C       -0.33363         6.50724         6.50676
| 61>    C        0.52860         5.74419         5.71151
| 62>    C        1.58260         5.05210         6.29327
| 63>    C        1.72764         5.15760         7.67909
| 64>    N        0.92216         5.87259         8.44369
| 65>    C       -0.07382         6.52963         7.88357
| 66>    C        2.51970         4.26184         5.47830
| 67>    C        2.05952         3.39579         4.47764
| 68>    O        0.70306         3.21759         4.25701
| 69>    C        0.03479         2.46961         5.25184
| 70>    C        2.97238         2.72346         3.65620
| 71>    C        4.34069         2.89191         3.87305
| 72>    C        4.80206         3.71133         4.89144
| 73>    C        3.88291         4.39989         5.68241
| 74>    O        6.11220         3.91962         5.19432
| 75>    C        7.09379         3.25954         4.43218
| 76>    C        2.46286         1.86412         2.59077
| 77>    C        3.13132         1.47198         1.51398
| 78>    H        0.92444         1.68962        -3.67351
| 79>    H        0.01287         4.55683        -7.92434
| 80>    H       -0.95693         6.62840        -8.86808
| 81>    H       -2.52898         9.25329        -6.83633
| 82>    H       -2.26694         8.65202        -8.48140
| 83>    H       -0.16342        10.05323        -6.75888
| 84>    H       -1.04615        10.78909        -8.10122
| 85>    H        0.08800         9.46864        -8.40372
| 86>    H       -1.36562         8.19422        -4.90956
| 87>    H        0.40621         3.34046         0.89851
| 88>    H        0.16843         4.38977         2.30545
| 89>    H        1.89206         5.08702        -0.13446
| 90>    H        2.49449         4.56719         1.44593
| 91>    H        1.65219         6.11238         1.28233
| 92>    H       -5.77752         8.14965        -1.20656
| 93>    H       -5.12362         7.57995        -2.76109
| 94>    H       -4.06270        10.03657        -1.26957
| 95>    H       -5.14724        10.07955        -2.66865
| 96>    H       -3.51107         9.42982        -2.83011
| 97>    H       -3.83052         7.48021         2.20291
| 98>    H       -5.44763         9.48529         0.54545
| 99>    H       -7.23081        11.29049         5.12537
|100>    H       -2.87441         8.22962         3.65933
|101>    H       -2.25814         8.31448         7.47121
|102>    H       -1.51565         6.97413         4.80561
|103>    H        0.36957         5.70327         4.64397
|104>    H        2.51821         4.62880         8.19553
|105>    H       -0.69762         7.09174         8.56442
|106>    H        0.14875         2.91516         6.24468
|107>    H        0.40527         1.43820         5.28156
|108>    H       -1.01756         2.47230         4.97392
|109>    H        5.02959         2.35188         3.24518
|110>    H        4.25644         5.06386         6.44575
|111>    H        8.04953         3.57722         4.84554
|112>    H        7.04393         3.54653         3.37696
|113>    H        7.00640         2.17173         4.51926
|114>    H        1.42771         1.57355         2.70677
|115>    H        4.15009         1.76277         1.32123
|116>    H        2.67266         0.84510         0.76878
|117> *
|118>
|119>                          ****END OF INPUT****

CARTESIAN COORDINATES (ANGSTROEM)
---------------------------------
  C      0.541660    2.602930   -3.261990
  S      0.187990    2.719300   -1.594180
  C     -0.352820    4.368750   -1.774020
  C     -0.225200    4.783990   -3.084780
  C      0.268780    3.759590   -3.937380
  C      0.401140    3.930340   -5.393640
  O      0.891220    3.081270   -6.112670
  C     -0.161870    5.197470   -5.902870
  C     -0.303200    5.362790   -7.278470
  C     -0.842090    6.523160   -7.798790
  C     -1.242120    7.559280   -6.960130
  C     -1.785540    8.839720   -7.519950
  C     -0.654530    9.853980   -7.708520
  C     -1.074830    7.407800   -5.590020
  C     -0.550880    6.241320   -5.050290
  C     -0.395410    6.159510   -3.581380
  O     -0.329210    7.142390   -2.871550
  C     -1.019710    5.098310   -0.741560
  N     -0.746940    5.050290    0.603750
  C      0.366270    4.380700    1.230850
  C      1.687130    5.082810    0.934300
  C     -1.609310    5.891880    1.332570
  O     -1.530900    6.068320    2.535220
  C     -2.503790    6.425590    0.338190
  C     -2.107190    5.934600   -0.930370
  C     -3.009000    6.490550   -1.915250
  O     -3.110930    6.330590   -3.113730
  N     -3.873250    7.323520   -1.169730
  C     -4.883700    8.108700   -1.833520
  C     -4.370340    9.507400   -2.168750
  C     -3.581180    7.288740    0.171540
  C     -4.173240    7.934650    1.286090
  C     -5.005590    8.998160    1.401510
  C     -5.349480    9.534870    2.674350
  S     -6.745160   10.581330    2.837040
  C     -6.539390   10.710680    4.548130
  C     -5.459680   10.016310    4.959380
  C     -4.753790    9.352380    3.918790
  C     -3.565830    8.681370    4.350530
  C     -3.339670    8.681010    5.682250
  S     -4.626620    9.647770    6.510520
  O     -4.070580   10.837350    7.091740
  O     -5.461940    8.826170    7.340520
  C     -2.293340    8.064990    6.420500
  C     -1.418840    7.202310    5.859530
  C     -0.333630    6.507240    6.506760
  C      0.528600    5.744190    5.711510
  C      1.582600    5.052100    6.293270
  C      1.727640    5.157600    7.679090
  N      0.922160    5.872590    8.443690
  C     -0.073820    6.529630    7.883570
  C      2.519700    4.261840    5.478300
  C      2.059520    3.395790    4.477640
  O      0.703060    3.217590    4.257010
  C      0.034790    2.469610    5.251840
  C      2.972380    2.723460    3.656200
  C      4.340690    2.891910    3.873050
  C      4.802060    3.711330    4.891440
  C      3.882910    4.399890    5.682410
  O      6.112200    3.919620    5.194320
  C      7.093790    3.259540    4.432180
  C      2.462860    1.864120    2.590770
  C      3.131320    1.471980    1.513980
  H      0.924440    1.689620   -3.673510
  H      0.012870    4.556830   -7.924340
  H     -0.956930    6.628400   -8.868080
  H     -2.528980    9.253290   -6.836330
  H     -2.266940    8.652020   -8.481400
  H     -0.163420   10.053230   -6.758880
  H     -1.046150   10.789090   -8.101220
  H      0.088000    9.468640   -8.403720
  H     -1.365620    8.194220   -4.909560
  H      0.406210    3.340460    0.898510
  H      0.168430    4.389770    2.305450
  H      1.892060    5.087020   -0.134460
  H      2.494490    4.567190    1.445930
  H      1.652190    6.112380    1.282330
  H     -5.777520    8.149650   -1.206560
  H     -5.123620    7.579950   -2.761090
  H     -4.062700   10.036570   -1.269570
  H     -5.147240   10.079550   -2.668650
  H     -3.511070    9.429820   -2.830110
  H     -3.830520    7.480210    2.202910
  H     -5.447630    9.485290    0.545450
  H     -7.230810   11.290490    5.125370
  H     -2.874410    8.229620    3.659330
  H     -2.258140    8.314480    7.471210
  H     -1.515650    6.974130    4.805610
  H      0.369570    5.703270    4.643970
  H      2.518210    4.628800    8.195530
  H     -0.697620    7.091740    8.564420
  H      0.148750    2.915160    6.244680
  H      0.405270    1.438200    5.281560
  H     -1.017560    2.472300    4.973920
  H      5.029590    2.351880    3.245180
  H      4.256440    5.063860    6.445750
  H      8.049530    3.577220    4.845540
  H      7.043930    3.546530    3.376960
  H      7.006400    2.171730    4.519260
  H      1.427710    1.573550    2.706770
  H      4.150090    1.762770    1.321230
  H      2.672660    0.845100    0.768780

 Total Charge           Charge          ....    0
 Multiplicity           Mult            ....    1
 Number of Electrons    NEL             ....  466
 Basis Dimension        Dim             .... 1089

ORBITAL ENERGIES
----------------

  NO   OCC          E(Eh)            E(eV)
   0   2.0000     -89.138501     -2425.5819
   1   2.0000     -88.985081     -2421.4071
   2   2.0000     -88.973746     -2421.0987
   3   2.0000     -19.243869      -523.6523
   4   2.0000     -19.237479      -523.4784
   5   2.0000     -19.206630      -522.6390
   6   2.0000     -19.205817      -522.6168
   7   2.0000     -19.198005      -522.4043
   8   2.0000     -19.196159      -522.3540
   9   2.0000     -19.188862      -522.1555
  10   2.0000     -19.188079      -522.1342
  11   2.0000     -14.458076      -393.4243
  12   2.0000     -14.457074      -393.3970
  13   2.0000     -14.396565      -391.7505
  14   2.0000     -10.379151      -282.4310
  15   2.0000     -10.377910      -282.3973
  16   2.0000     -10.362883      -281.9884
  17   2.0000     -10.362142      -281.9682
  18   2.0000     -10.346569      -281.5445
  19   2.0000     -10.344373      -281.4847
  20   2.0000     -10.332150      -281.1521
  21   2.0000     -10.329005      -281.0665
  22   2.0000     -10.323581      -280.9189
  23   2.0000     -10.323445      -280.9152
  24   2.0000     -10.322468      -280.8886
  25   2.0000     -10.321662      -280.8667
  26   2.0000     -10.318821      -280.7894
  27   2.0000     -10.315910      -280.7102
  28   2.0000     -10.313050      -280.6324
  29   2.0000     -10.310880      -280.5733
  30   2.0000     -10.305044      -280.4145
  31   2.0000     -10.302604      -280.3481
  32   2.0000     -10.299659      -280.2680
  33   2.0000     -10.299320      -280.2588
  34   2.0000     -10.298872      -280.2465
  35   2.0000     -10.298774      -280.2439
  36   2.0000     -10.297218      -280.2015
  37   2.0000     -10.296088      -280.1708
  38   2.0000     -10.295944      -280.1669
  39   2.0000     -10.291418      -280.0437
  40   2.0000     -10.284903      -279.8664
  41   2.0000     -10.283807      -279.8366
  42   2.0000     -10.283186      -279.8197
  43   2.0000     -10.283053      -279.8161
  44   2.0000     -10.282830      -279.8100
  45   2.0000     -10.282299      -279.7956
  46   2.0000     -10.282040      -279.7885
  47   2.0000     -10.281374      -279.7704
  48   2.0000     -10.280357      -279.7427
  49   2.0000     -10.280090      -279.7355
  50   2.0000     -10.276498      -279.6377
  51   2.0000     -10.276389      -279.6348
  52   2.0000     -10.275453      -279.6093
  53   2.0000     -10.272112      -279.5184
  54   2.0000     -10.272101      -279.5181
  55   2.0000     -10.269819      -279.4560
  56   2.0000     -10.269730      -279.4536
  57   2.0000     -10.268769      -279.4274
  58   2.0000     -10.267832      -279.4019
  59   2.0000     -10.263430      -279.2821
  60   2.0000     -10.262421      -279.2547
  61   2.0000     -10.259060      -279.1632
  62   2.0000     -10.254841      -279.0484
  63   2.0000      -8.203444      -223.2271
  64   2.0000      -8.080159      -219.8723
  65   2.0000      -8.069482      -219.5818
  66   2.0000      -6.172642      -167.9661
  67   2.0000      -6.171989      -167.9484
  68   2.0000      -6.171670      -167.9397
  69   2.0000      -6.049312      -164.6101
  70   2.0000      -6.044933      -164.4910
  71   2.0000      -6.042843      -164.4341
  72   2.0000      -6.038922      -164.3274
  73   2.0000      -6.034576      -164.2092
  74   2.0000      -6.031454      -164.1242
  75   2.0000      -1.194236       -32.4968
  76   2.0000      -1.148426       -31.2503
  77   2.0000      -1.138770       -30.9875
  78   2.0000      -1.138115       -30.9697
  79   2.0000      -1.131301       -30.7843
  80   2.0000      -1.123388       -30.5690
  81   2.0000      -1.120837       -30.4995
  82   2.0000      -1.072055       -29.1721
  83   2.0000      -1.068358       -29.0715
  84   2.0000      -1.059451       -28.8291
  85   2.0000      -1.031625       -28.0720
  86   2.0000      -1.009922       -27.4814
  87   2.0000      -1.004337       -27.3294
  88   2.0000      -0.963212       -26.2103
  89   2.0000      -0.956181       -26.0190
  90   2.0000      -0.947101       -25.7719
  91   2.0000      -0.932036       -25.3620
  92   2.0000      -0.917871       -24.9765
  93   2.0000      -0.912332       -24.8258
  94   2.0000      -0.903793       -24.5935
  95   2.0000      -0.900580       -24.5060
  96   2.0000      -0.883354       -24.0373
  97   2.0000      -0.875086       -23.8123
  98   2.0000      -0.870338       -23.6831
  99   2.0000      -0.865617       -23.5546
 100   2.0000      -0.858232       -23.3537
 101   2.0000      -0.849688       -23.1212
 102   2.0000      -0.843548       -22.9541
 103   2.0000      -0.836355       -22.7584
 104   2.0000      -0.820634       -22.3306
 105   2.0000      -0.819342       -22.2954
 106   2.0000      -0.816214       -22.2103
 107   2.0000      -0.805897       -21.9296
 108   2.0000      -0.800003       -21.7692
 109   2.0000      -0.795148       -21.6371
 110   2.0000      -0.785913       -21.3858
 111   2.0000      -0.761264       -20.7150
 112   2.0000      -0.760969       -20.7070
 113   2.0000      -0.754897       -20.5418
 114   2.0000      -0.747005       -20.3270
 115   2.0000      -0.744953       -20.2712
 116   2.0000      -0.737620       -20.0717
 117   2.0000      -0.721526       -19.6337
 118   2.0000      -0.714907       -19.4536
 119   2.0000      -0.713284       -19.4094
 120   2.0000      -0.707172       -19.2431
 121   2.0000      -0.701395       -19.0859
 122   2.0000      -0.688915       -18.7463
 123   2.0000      -0.686361       -18.6768
 124   2.0000      -0.675264       -18.3749
 125   2.0000      -0.669671       -18.2227
 126   2.0000      -0.665928       -18.1208
 127   2.0000      -0.662495       -18.0274
 128   2.0000      -0.653180       -17.7739
 129   2.0000      -0.650388       -17.6979
 130   2.0000      -0.645995       -17.5784
 131   2.0000      -0.640322       -17.4241
 132   2.0000      -0.624826       -17.0024
 133   2.0000      -0.617504       -16.8031
 134   2.0000      -0.615764       -16.7558
 135   2.0000      -0.602229       -16.3875
 136   2.0000      -0.598473       -16.2853
 137   2.0000      -0.595345       -16.2002
 138   2.0000      -0.594772       -16.1846
 139   2.0000      -0.590771       -16.0757
 140   2.0000      -0.589741       -16.0477
 141   2.0000      -0.579924       -15.7805
 142   2.0000      -0.577094       -15.7035
 143   2.0000      -0.573018       -15.5926
 144   2.0000      -0.567688       -15.4476
 145   2.0000      -0.566681       -15.4202
 146   2.0000      -0.557194       -15.1620
 147   2.0000      -0.554654       -15.0929
 148   2.0000      -0.552458       -15.0331
 149   2.0000      -0.550135       -14.9699
 150   2.0000      -0.546450       -14.8697
 151   2.0000      -0.539848       -14.6900
 152   2.0000      -0.539396       -14.6777
 153   2.0000      -0.538751       -14.6601
 154   2.0000      -0.535619       -14.5749
 155   2.0000      -0.533451       -14.5159
 156   2.0000      -0.531327       -14.4582
 157   2.0000      -0.529481       -14.4079
 158   2.0000      -0.527149       -14.3445
 159   2.0000      -0.525207       -14.2916
 160   2.0000      -0.524995       -14.2858
 161   2.0000      -0.522888       -14.2285
 162   2.0000      -0.518868       -14.1191
 163   2.0000      -0.513049       -13.9608
 164   2.0000      -0.511302       -13.9132
 165   2.0000      -0.510577       -13.8935
 166   2.0000      -0.510382       -13.8882
 167   2.0000      -0.509251       -13.8574
 168   2.0000      -0.508269       -13.8307
 169   2.0000      -0.502286       -13.6679
 170   2.0000      -0.500052       -13.6071
 171   2.0000      -0.497052       -13.5255
 172   2.0000      -0.495106       -13.4725
 173   2.0000      -0.494707       -13.4616
 174   2.0000      -0.492586       -13.4039
 175   2.0000      -0.491187       -13.3659
 176   2.0000      -0.488323       -13.2879
 177   2.0000      -0.484619       -13.1872
 178   2.0000      -0.483053       -13.1445
 179   2.0000      -0.477240       -12.9864
 180   2.0000      -0.475641       -12.9428
 181   2.0000      -0.474389       -12.9088
 182   2.0000      -0.473059       -12.8726
 183   2.0000      -0.466457       -12.6929
 184   2.0000      -0.464603       -12.6425
 185   2.0000      -0.461991       -12.5714
 186   2.0000      -0.458867       -12.4864
 187   2.0000      -0.457236       -12.4420
 188   2.0000      -0.456585       -12.4243
 189   2.0000      -0.451507       -12.2861
 190   2.0000      -0.450258       -12.2522
 191   2.0000      -0.449770       -12.2389
 192   2.0000      -0.447360       -12.1733
 193   2.0000      -0.441626       -12.0173
 194   2.0000      -0.439277       -11.9533
 195   2.0000      -0.437672       -11.9097
 196   2.0000      -0.436193       -11.8694
 197   2.0000      -0.434150       -11.8138
 198   2.0000      -0.433172       -11.7872
 199   2.0000      -0.429115       -11.6768
 200   2.0000      -0.427826       -11.6417
 201   2.0000      -0.421348       -11.4655
 202   2.0000      -0.418821       -11.3967
 203   2.0000      -0.417175       -11.3519
 204   2.0000      -0.411266       -11.1911
 205   2.0000      -0.408475       -11.1152
 206   2.0000      -0.407248       -11.0818
 207   2.0000      -0.397632       -10.8201
 208   2.0000      -0.396391       -10.7863
 209   2.0000      -0.392858       -10.6902
 210   2.0000      -0.388755       -10.5786
 211   2.0000      -0.381190       -10.3727
 212   2.0000      -0.380473       -10.3532
 213   2.0000      -0.358836        -9.7644
 214   2.0000      -0.356164        -9.6917
 215   2.0000      -0.355027        -9.6608
 216   2.0000      -0.351436        -9.5631
 217   2.0000      -0.344301        -9.3689
 218   2.0000      -0.341105        -9.2819
 219   2.0000      -0.339591        -9.2407
 220   2.0000      -0.336901        -9.1676
 221   2.0000      -0.332031        -9.0350
 222   2.0000      -0.329181        -8.9575
 223   2.0000      -0.325249        -8.8505
 224   2.0000      -0.323258        -8.7963
 225   2.0000      -0.319990        -8.7074
 226   2.0000      -0.315807        -8.5935
 227   2.0000      -0.315137        -8.5753
 228   2.0000      -0.310704        -8.4547
 229   2.0000      -0.297137        -8.0855
 230   2.0000      -0.278106        -7.5676
 231   2.0000      -0.268426        -7.3043
 232   2.0000      -0.241300        -6.5661
 233   0.0000      -0.092570        -2.5190
 234   0.0000      -0.057832        -1.5737
 235   0.0000      -0.046627        -1.2688
 236   0.0000      -0.028589        -0.7779
 237   0.0000      -0.010981        -0.2988

MULLIKEN ATOMIC CHARGES
-----------------------
   0 C :   -0.102918
   1 S :    0.168448
   2 C :   -0.235777
   3 C :    0.104351
   4 C :   -0.003066
   5 C :    0.145221
   6 O :   -0.154363
   7 C :   -0.033712
   8 C :   -0.011806
   9 C :    0.007998
  10 C :    0.001386
  11 C :    0.066422
  12 C :    0.022925
  13 C :   -0.055097
  14 C :    0.044403
  15 C :    0.106823
  16 O :   -0.157782
  17 C :    0.129239
  18 N :   -0.250860
  19 C :    0.070190
  20 C :    0.008506
  21 C :    0.165780
  22 O :   -0.205111
  23 C :   -0.078367
  24 C :   -0.008848
  25 C :    0.149855
  26 O :   -0.200971
  27 N :   -0.263876
  28 C :    0.106122
  29 C :   -0.001150
  30 C :    0.138177
  31 C :   -0.064918
  32 C :    0.060957
  33 C :   -0.156979
  34 S :    0.134942
  35 C :   -0.146433
  36 C :    0.050211
  37 C :    0.095117
  38 C :    0.001549
  39 C :   -0.057888
  40 S :    0.775988
  41 O :   -0.450206
  42 O :   -0.447574
  43 C :    0.072856
  44 C :    0.001575
  45 C :    0.055883
  46 C :    0.014048
  47 C :   -0.024624
  48 C :   -0.006443
  49 N :   -0.051781
  50 C :   -0.014052
  51 C :    0.106958
  52 C :    0.081690
  53 O :   -0.361862
  54 C :    0.204773
  55 C :    0.063840
  56 C :   -0.169482
  57 C :    0.276547
  58 C :   -0.098859
  59 O :   -0.311159
  60 C :    0.177869
  61 C :   -0.007815
  62 C :   -0.017065
  63 H :    0.041774
  64 H :   -0.006023
  65 H :   -0.021088
  66 H :    0.010742
  67 H :    0.003428
  68 H :    0.015213
  69 H :    0.018694
  70 H :    0.010900
  71 H :   -0.020700
  72 H :    0.018094
  73 H :    0.063740
  74 H :    0.019763
  75 H :    0.030296
  76 H :    0.022428
  77 H :    0.021988
  78 H :    0.040498
  79 H :    0.020475
  80 H :    0.022551
  81 H :    0.034530
  82 H :    0.014801
  83 H :   -0.014109
  84 H :    0.043467
  85 H :    0.012556
  86 H :   -0.001981
  87 H :    0.010363
  88 H :   -0.001454
  89 H :   -0.001834
  90 H :    0.001050
  91 H :    0.031380
  92 H :    0.010487
  93 H :    0.035284
  94 H :   -0.042724
  95 H :   -0.021142
  96 H :    0.038197
  97 H :    0.020925
  98 H :    0.023824
  99 H :    0.000289
 100 H :    0.013843
 101 H :    0.019668
Sum of atomic charges:   -0.0000000

LOEWDIN ATOMIC CHARGES
----------------------
   0 C :   -0.132888
   1 S :    0.491108
   2 C :   -0.160827
   3 C :   -0.061462
   4 C :   -0.091035
   5 C :    0.083267
   6 O :   -0.148648
   7 C :   -0.062175
   8 C :    0.017704
   9 C :   -0.014613
  10 C :    0.000328
  11 C :   -0.026913
  12 C :   -0.046806
  13 C :    0.015146
  14 C :   -0.034411
  15 C :    0.090188
  16 O :   -0.139492
  17 C :    0.061165
  18 N :    0.004280
  19 C :    0.026921
  20 C :   -0.060437
  21 C :    0.087902
  22 O :   -0.215509
  23 C :   -0.117542
  24 C :   -0.107893
  25 C :    0.090988
  26 O :   -0.188888
  27 N :   -0.000885
  28 C :    0.036610
  29 C :   -0.062776
  30 C :    0.076621
  31 C :   -0.032876
  32 C :   -0.017923
  33 C :   -0.172695
  34 S :    0.446023
  35 C :   -0.151694
  36 C :   -0.201484
  37 C :   -0.062677
  38 C :   -0.017140
  39 C :   -0.143224
  40 S :    1.169707
  41 O :   -0.495372
  42 O :   -0.495695
  43 C :   -0.042103
  44 C :    0.021732
  45 C :   -0.051409
  46 C :    0.029720
  47 C :   -0.044411
  48 C :    0.019865
  49 N :   -0.065646
  50 C :    0.031815
  51 C :   -0.027176
  52 C :    0.032453
  53 O :   -0.128897
  54 C :    0.078677
  55 C :   -0.035525
  56 C :   -0.064943
  57 C :    0.054577
  58 C :   -0.030136
  59 O :   -0.104912
  60 C :    0.075574
  61 C :   -0.014861
  62 C :   -0.047032
  63 H :    0.036402
  64 H :    0.035835
  65 H :    0.028761
  66 H :    0.029773
  67 H :    0.027053
  68 H :    0.025548
  69 H :    0.024515
  70 H :    0.024341
  71 H :    0.031515
  72 H :    0.008354
  73 H :    0.034079
  74 H :    0.021766
  75 H :    0.032490
  76 H :    0.029378
  77 H :    0.022973
  78 H :    0.036912
  79 H :    0.021975
  80 H :    0.029814
  81 H :    0.033971
  82 H :    0.046575
  83 H :    0.029381
  84 H :    0.036550
  85 H :    0.037597
  86 H :    0.032452
  87 H :    0.037101
  88 H :    0.035894
  89 H :    0.021037
  90 H :    0.021363
  91 H :    0.015624
  92 H :    0.010968
  93 H :    0.027000
  94 H :    0.025947
  95 H :    0.035328
  96 H :    0.029710
  97 H :    0.014247
  98 H :    0.015119
  99 H :    0.028872
 100 H :    0.018761
 101 H :    0.023677

  Mayer bond orders larger than 0.100000
B(  0-C ,  1-S ) :   1.1819 B(  0-C ,  4-C ) :   1.5338 B(  0-C , 63-H ) :   0.9668
B(  1-S ,  2-C ) :   1.1497 B(  2-C ,  3-C ) :   1.5147 B(  2-C , 17-C ) :   1.0713
B(  3-C ,  4-C ) :   1.2382 B(  3-C , 15-C ) :   0.9332 B(  4-C ,  5-C ) :   0.9354
B(  5-C ,  6-O ) :   2.2558 B(  5-C ,  7-C ) :   0.9456 B(  7-C ,  8-C ) :   1.3892
B(  7-C , 14-C ) :   1.3444 B(  8-C ,  9-C ) :   1.3565 B(  8-C , 64-H ) :   0.9958
B(  9-C , 10-C ) :   1.3660 B(  9-C , 65-H ) :   0.9966 B( 10-C , 11-C ) :   1.0356
B( 10-C , 13-C ) :   1.3336 B( 11-C , 12-C ) :   1.0999 B( 11-C , 66-H ) :   0.9356
B( 11-C , 67-H ) :   0.9341 B( 12-C , 68-H ) :   0.9709 B( 12-C , 69-H ) :   0.9691
B( 12-C , 70-H ) :   0.9689 B( 13-C , 14-C ) :   1.3939 B( 13-C , 71-H ) :   1.0005
B( 14-C , 15-C ) :   0.9206 B( 15-C , 16-O ) :   2.2325 B( 17-C , 18-N ) :   1.1973
B( 17-C , 24-C ) :   1.4305 B( 18-N , 19-C ) :   0.9305 B( 18-N , 21-C ) :   1.0524
B( 19-C , 20-C ) :   1.1156 B( 19-C , 72-H ) :   0.9389 B( 19-C , 73-H ) :   0.9177
B( 20-C , 74-H ) :   0.9635 B( 20-C , 75-H ) :   0.9662 B( 20-C , 76-H ) :   0.9624
B( 21-C , 22-O ) :   2.0183 B( 21-C , 23-C ) :   0.9995 B( 23-C , 24-C ) :   1.2230
B( 23-C , 30-C ) :   1.3511 B( 24-C , 25-C ) :   0.9665 B( 25-C , 26-O ) :   2.0957
B( 25-C , 27-N ) :   1.0380 B( 27-N , 28-C ) :   0.9455 B( 27-N , 30-C ) :   1.1729
B( 28-C , 29-C ) :   1.1182 B( 28-C , 77-H ) :   0.9508 B( 28-C , 78-H ) :   0.9284
B( 29-C , 79-H ) :   0.9658 B( 29-C , 80-H ) :   0.9680 B( 29-C , 81-H ) :   0.9623
B( 30-C , 31-C ) :   1.1736 B( 31-C , 32-C ) :   1.6099 B( 31-C , 82-H ) :   0.9413
B( 32-C , 33-C ) :   1.1275 B( 32-C , 83-H ) :   0.9622 B( 33-C , 34-S ) :   1.1094
B( 33-C , 37-C ) :   1.4513 B( 34-S , 35-C ) :   1.1606 B( 35-C , 36-C ) :   1.6257
B( 35-C , 84-H ) :   0.9763 B( 36-C , 37-C ) :   1.2482 B( 36-C , 40-S ) :   0.7655
B( 37-C , 38-C ) :   1.0856 B( 38-C , 39-C ) :   1.6814 B( 38-C , 85-H ) :   0.9714
B( 39-C , 40-S ) :   0.8325 B( 39-C , 43-C ) :   1.1163 B( 40-S , 41-O ) :   1.7305
B( 40-S , 42-O ) :   1.7401 B( 43-C , 44-C ) :   1.6912 B( 43-C , 86-H ) :   0.9589
B( 44-C , 45-C ) :   1.0772 B( 44-C , 87-H ) :   0.9718 B( 45-C , 46-C ) :   1.3514
B( 45-C , 50-C ) :   1.3163 B( 46-C , 47-C ) :   1.3904 B( 46-C , 88-H ) :   1.0005
B( 47-C , 48-C ) :   1.3571 B( 47-C , 51-C ) :   0.9174 B( 48-C , 49-N ) :   1.5465
B( 48-C , 89-H ) :   0.9870 B( 49-N , 50-C ) :   1.5816 B( 50-C , 90-H ) :   0.9844
B( 51-C , 52-C ) :   1.3525 B( 51-C , 58-C ) :   1.3833 B( 52-C , 53-O ) :   1.0721
B( 52-C , 55-C ) :   1.3828 B( 53-O , 54-C ) :   0.9391 B( 54-C , 91-H ) :   0.9671
B( 54-C , 92-H ) :   0.9659 B( 54-C , 93-H ) :   0.9819 B( 55-C , 56-C ) :   1.2968
B( 55-C , 61-C ) :   1.0611 B( 56-C , 57-C ) :   1.3129 B( 56-C , 94-H ) :   0.9989
B( 57-C , 58-C ) :   1.3092 B( 57-C , 59-O ) :   1.1371 B( 58-C , 95-H ) :   1.0079
B( 59-O , 60-C ) :   0.9700 B( 60-C , 96-H ) :   0.9786 B( 60-C , 97-H ) :   0.9682
B( 60-C , 98-H ) :   0.9687 B( 61-C , 62-C ) :   1.9466 B( 61-C , 99-H ) :   0.9567
B( 62-C ,100-H ) :   0.9501 B( 62-C ,101-H ) :   0.9501

-----------------------------------------------------------------------------
         ABSORPTION SPECTRUM VIA TRANSITION ELECTRIC DIPOLE MOMENTS
-----------------------------------------------------------------------------
State   Energy  Wavelength   fosc         T2         TX        TY        TZ
        (cm-1)    (nm)                  (au**2)     (au)      (au)      (au)
-----------------------------------------------------------------------------
   0   15503.3    645.0   0.366160830   7.77540  -1.40720   1.45397   1.91864
   1   21917.9    456.2   0.294696565   4.42641   1.34002  -0.44938   1.55847
   2   22324.0    447.9   0.007910930   0.11666  -0.12696   0.31696   0.00881
   3   25926.3    385.7   0.026358151   0.33470  -0.43049   0.35084   0.16213
   4   26536.0    376.8   0.283072401   3.51186   1.35514  -1.02308   0.79296
   5   27823.4    359.4   0.001212655   0.01435  -0.06794  -0.02374  -0.09576
   6   28093.6    356.0   0.047590379   0.55768  -0.67736   0.31122   0.04482
   7   29439.4    339.7   0.073398048   0.82079   0.58920  -0.51391   0.45774
   8   29598.3    337.9   0.087362045   0.97170   0.55644  -0.20757   0.78676
   9   30546.8    327.4   0.418059656   4.50555  -1.40033   1.29739   0.92813
  10   31557.0    316.9   0.001983855   0.02070  -0.04408   0.04963  -0.12763
  11   31713.9    315.3   0.034219948   0.35523  -0.33447   0.32370   0.37225
  12   31753.0    314.9   0.448866873   4.65381  -1.65714   1.15289  -0.76062
  13   32670.1    306.1   0.010645572   0.10727  -0.15846   0.26494   0.10942
  14   33043.2    302.6   0.007153835   0.07127  -0.00456   0.02490  -0.26577
  15   33711.3    296.6   0.083747721   0.81785   0.32971  -0.24401  -0.80598
  16   34153.4    292.8   0.007308918   0.07045  -0.11067   0.22713   0.08135
  17   34241.2    292.0   0.148221639   1.42508   0.08192   0.07936  -1.18831
  18   34909.7    286.5   0.015519012   0.14635   0.14670  -0.27059  -0.22718
  19   35285.9    283.4   0.220286170   2.05524   0.92560  -1.02356  -0.38837
  20   36052.2    277.4   0.087771860   0.80149   0.07371  -0.09081  -0.88759
  21   36229.7    276.0   0.030752695   0.27944   0.43223  -0.29403   0.07852
  22   36387.9    274.8   0.121850021   1.10241   0.05379  -0.38425  -0.97564
  23   36732.7    272.2   0.006268145   0.05618   0.00827  -0.03575  -0.23416
  24   36939.9    270.7   0.031325966   0.27918  -0.01490   0.13980   0.50933
  25   37674.9    265.4   0.005878713   0.05137   0.06855   0.17009   0.13319
  26   37752.9    264.9   0.001375436   0.01199   0.07508  -0.07973  -0.00102
  27   37931.2    263.6   0.007805021   0.06774   0.03258   0.17949   0.18564
  28   38073.3    262.7   0.200432189   1.73310   0.21398  -0.65268  -1.12308
  29   38457.5    260.0   0.018311854   0.15676   0.27815  -0.04888   0.27749
  30   38559.3    259.3   0.015263162   0.13031  -0.17815   0.28951  -0.12150
  31   38844.0    257.4   0.145872519   1.23630  -0.33028   0.72227  -0.77817
  32   39024.1    256.3   0.006564372   0.05538  -0.07623  -0.05709  -0.21519
  33   39195.1    255.1   0.024075802   0.20222  -0.28317   0.31230  -0.15655
  34   39730.2    251.7   0.063485276   0.52605   0.12490  -0.62540   0.34543
  35   40154.3    249.0   0.007196988   0.05901   0.19432   0.06492   0.13050
  36   40291.2    248.2   0.022674796   0.18527  -0.32409   0.15992   0.23381

FINAL SINGLE POINT ENERGY     -3847.546162905984

DIPOLE MOMENT
-------------
                                X             Y             Z
Electronic contribution:    -31.58685       6.59075      22.46998
Nuclear contribution   :     32.03224      -7.52034     -25.08392
                        -----------------------------------------
Total Dipole Moment    :      0.44539      -0.92958      -2.61394
                        -----------------------------------------
Magnitude (a.u.)       :      2.80983
Magnitude (Debye)      :      7.14203

Rotational constants in cm-1:     0.001159     0.000835     0.000520
Rotational constants in MHz :    34.750604    25.028896    15.583613

                             ****ORCA TERMINATED NORMALLY****
TOTAL RUN TIME: 0 days 0 hours 8 minutes 14 seconds 675 msec
