                         Program Version 4.2.0 -  RELEASE  -
|  1> # ORCA input file
|  2> # SCF done       -138.292631720717          0.000222699618
|  3> ! CAM-B3LYP def2-SVP def2/J RIJCOSX Grid4 TightSCF
|  4> %maxcore 5000
|  5> %tddft
|  6>     Mode sTDDFT
|  7>     Ethresh 5.0
|  8>     maxcore 5000
|  9> end
| 10>
| 11> %pal
| 12>   nprocs 6
| 13>   end
| 14> * xyz 0 1
| 15>    C       -0.96016        -7.12961         1.48707
| 16>    C       -0.63498        -7.18682         0.13789
| 17>    N       -0.96692        -6.21966        -0.69388
| 18>    C       -1.58671        -5.14882        -0.19852
| 19>    C       -1.85267        -5.07313         1.17893
| 20>    N       -1.55900        -6.06213         1.99480
| 21>    C       -1.92104        -4.07070        -1.11496
| 22>    C       -3.11954        -3.34184        -1.01518
| 23>    C       -3.45079        -2.35585        -1.99699
| 24>    N       -4.59094        -1.65738        -1.88885
| 25>    C       -5.38948        -1.89826        -0.88327
| 26>    C       -5.07987        -2.89198         0.06357
| 27>    N       -3.98125        -3.59293        -0.00409
| 28>    C       -2.61584        -2.10686        -3.12087
| 29>    C       -1.33860        -2.73104        -3.11603
| 30>    C       -1.01040        -3.71787        -2.13007
| 31>    N        0.20880        -4.29772        -2.13733
| 32>    C        1.06292        -3.93818        -3.05214
| 33>    C        0.76597        -2.91543        -3.97387
| 34>    N       -0.40074        -2.32984        -3.99206
| 35>    C       -3.05413        -1.21797        -4.13244
| 36>    S       -4.20390         0.01328        -3.73295
| 37>    C       -4.06974         0.76819        -5.29550
| 38>    C       -3.23278         0.00843        -6.14112
| 39>    C       -2.67914        -1.13112        -5.49400
| 40>    C       -1.96482        -2.05850        -6.26092
| 41>    C       -1.71254        -1.82994        -7.59802
| 42>    C       -0.97557        -2.82194        -8.37767
| 43>    C       -0.03141        -3.61487        -7.88730
| 44>    C       -2.19153        -0.64276        -8.21881
| 45>    C       -1.88440        -0.36291        -9.65824
| 46>    C       -2.95134         0.24154        -7.49526
| 47>    C       -4.74430         1.95088        -5.62554
| 48>    C       -5.64650         2.56277        -4.80229
| 49>    C       -6.37666         3.74950        -5.05812
| 50>    C       -6.24075         4.57203        -6.21093
| 51>    C       -7.00520         5.77737        -6.34598
| 52>    N       -6.91990         6.51563        -7.47295
| 53>    C       -6.05513         6.16348        -8.38017
| 54>    C       -5.25305         5.01743        -8.22288
| 55>    N       -5.37549         4.23223        -7.18688
| 56>    C       -7.88044         6.20742        -5.32956
| 57>    C       -8.05205         5.38779        -4.20025
| 58>    C       -7.31568         4.16935        -4.07013
| 59>    N       -7.49552         3.39124        -2.98469
| 60>    C       -8.32889         3.79115        -2.06272
| 61>    C       -9.02334         5.01117        -2.17283
| 62>    N       -8.89049         5.78437        -3.21395
| 63>    C       -8.56257         7.48309        -5.46883
| 64>    C       -9.90588         7.65714        -5.09422
| 65>    N      -10.50892         8.82038        -5.20536
| 66>    C       -9.82550         9.82729        -5.72984
| 67>    C       -8.52134         9.64583        -6.17209
| 68>    N       -7.89393         8.49703        -6.01701
| 69>    H       -0.74839        -7.93868         2.17161
| 70>    H       -0.12229        -8.03529        -0.29452
| 71>    H       -2.30315        -4.19538         1.61682
| 72>    H       -6.29109        -1.30551        -0.82265
| 73>    H       -5.74399        -3.11471         0.88779
| 74>    H        2.02961        -4.42316        -3.03463
| 75>    H        1.50454        -2.54291        -4.67134
| 76>    H       -1.64186        -2.98364        -5.81566
| 77>    H       -1.23014        -2.88938        -9.42684
| 78>    H        0.28186        -3.56116        -6.85808
| 79>    H        0.47468        -4.33858        -8.50332
| 80>    H       -2.39343        -1.07698       -10.30621
| 81>    H       -0.81477        -0.44157        -9.84555
| 82>    H       -2.21418         0.63650        -9.93048
| 83>    H       -3.35210         1.12294        -7.97298
| 84>    H       -4.53615         2.39492        -6.58741
| 85>    H       -5.87000         2.09955        -3.84906
| 86>    H       -6.01218         6.76779        -9.27630
| 87>    H       -4.53836         4.71580        -8.97750
| 88>    H       -8.45931         3.13857        -1.20991
| 89>    H       -9.69987         5.35143        -1.40016
| 90>    H      -10.49221         6.83760        -4.70725
| 91>    H      -10.33242        10.78010        -5.78706
| 92>    H       -7.95448        10.44303        -6.63341
| 93> *
| 94>
| 95>                          ****END OF INPUT****

CARTESIAN COORDINATES (ANGSTROEM)
---------------------------------
  C     -0.960160   -7.129610    1.487070
  C     -0.634980   -7.186820    0.137890
  N     -0.966920   -6.219660   -0.693880
  C     -1.586710   -5.148820   -0.198520
  C     -1.852670   -5.073130    1.178930
  N     -1.559000   -6.062130    1.994800
  C     -1.921040   -4.070700   -1.114960
  C     -3.119540   -3.341840   -1.015180
  C     -3.450790   -2.355850   -1.996990
  N     -4.590940   -1.657380   -1.888850
  C     -5.389480   -1.898260   -0.883270
  C     -5.079870   -2.891980    0.063570
  N     -3.981250   -3.592930   -0.004090
  C     -2.615840   -2.106860   -3.120870
  C     -1.338600   -2.731040   -3.116030
  C     -1.010400   -3.717870   -2.130070
  N      0.208800   -4.297720   -2.137330
  C      1.062920   -3.938180   -3.052140
  C      0.765970   -2.915430   -3.973870
  N     -0.400740   -2.329840   -3.992060
  C     -3.054130   -1.217970   -4.132440
  S     -4.203900    0.013280   -3.732950
  C     -4.069740    0.768190   -5.295500
  C     -3.232780    0.008430   -6.141120
  C     -2.679140   -1.131120   -5.494000
  C     -1.964820   -2.058500   -6.260920
  C     -1.712540   -1.829940   -7.598020
  C     -0.975570   -2.821940   -8.377670
  C     -0.031410   -3.614870   -7.887300
  C     -2.191530   -0.642760   -8.218810
  C     -1.884400   -0.362910   -9.658240
  C     -2.951340    0.241540   -7.495260
  C     -4.744300    1.950880   -5.625540
  C     -5.646500    2.562770   -4.802290
  C     -6.376660    3.749500   -5.058120
  C     -6.240750    4.572030   -6.210930
  C     -7.005200    5.777370   -6.345980
  N     -6.919900    6.515630   -7.472950
  C     -6.055130    6.163480   -8.380170
  C     -5.253050    5.017430   -8.222880
  N     -5.375490    4.232230   -7.186880
  C     -7.880440    6.207420   -5.329560
  C     -8.052050    5.387790   -4.200250
  C     -7.315680    4.169350   -4.070130
  N     -7.495520    3.391240   -2.984690
  C     -8.328890    3.791150   -2.062720
  C     -9.023340    5.011170   -2.172830
  N     -8.890490    5.784370   -3.213950
  C     -8.562570    7.483090   -5.468830
  C     -9.905880    7.657140   -5.094220
  N    -10.508920    8.820380   -5.205360
  C     -9.825500    9.827290   -5.729840
  C     -8.521340    9.645830   -6.172090
  N     -7.893930    8.497030   -6.017010
  H     -0.748390   -7.938680    2.171610
  H     -0.122290   -8.035290   -0.294520
  H     -2.303150   -4.195380    1.616820
  H     -6.291090   -1.305510   -0.822650
  H     -5.743990   -3.114710    0.887790
  H      2.029610   -4.423160   -3.034630
  H      1.504540   -2.542910   -4.671340
  H     -1.641860   -2.983640   -5.815660
  H     -1.230140   -2.889380   -9.426840
  H      0.281860   -3.561160   -6.858080
  H      0.474680   -4.338580   -8.503320
  H     -2.393430   -1.076980  -10.306210
  H     -0.814770   -0.441570   -9.845550
  H     -2.214180    0.636500   -9.930480
  H     -3.352100    1.122940   -7.972980
  H     -4.536150    2.394920   -6.587410
  H     -5.870000    2.099550   -3.849060
  H     -6.012180    6.767790   -9.276300
  H     -4.538360    4.715800   -8.977500
  H     -8.459310    3.138570   -1.209910
  H     -9.699870    5.351430   -1.400160
  H    -10.492210    6.837600   -4.707250
  H    -10.332420   10.780100   -5.787060
  H     -7.954480   10.443030   -6.633410

 Total Charge           Charge          ....    0
 Multiplicity           Mult            ....    1
 Number of Electrons    NEL             ....  370
 Basis Dimension        Dim             ....  880

ORBITAL ENERGIES
----------------

  NO   OCC          E(Eh)            E(eV)
   0   2.0000     -88.951438     -2420.4917
   1   2.0000     -14.431395      -392.6982
   2   2.0000     -14.427157      -392.5829
   3   2.0000     -14.425241      -392.5308
   4   2.0000     -14.423244      -392.4764
   5   2.0000     -14.422768      -392.4635
   6   2.0000     -14.421085      -392.4177
   7   2.0000     -14.416559      -392.2945
   8   2.0000     -14.415909      -392.2768
   9   2.0000     -14.400865      -391.8675
  10   2.0000     -14.400575      -391.8596
  11   2.0000     -14.400561      -391.8592
  12   2.0000     -14.400106      -391.8468
  13   2.0000     -10.325002      -280.9576
  14   2.0000     -10.324147      -280.9343
  15   2.0000     -10.322812      -280.8980
  16   2.0000     -10.321027      -280.8494
  17   2.0000     -10.320503      -280.8352
  18   2.0000     -10.319145      -280.7982
  19   2.0000     -10.319008      -280.7945
  20   2.0000     -10.318963      -280.7933
  21   2.0000     -10.318719      -280.7866
  22   2.0000     -10.318240      -280.7736
  23   2.0000     -10.316810      -280.7347
  24   2.0000     -10.316619      -280.7295
  25   2.0000     -10.316442      -280.7247
  26   2.0000     -10.316369      -280.7227
  27   2.0000     -10.315983      -280.7122
  28   2.0000     -10.315231      -280.6917
  29   2.0000     -10.305145      -280.4173
  30   2.0000     -10.304398      -280.3969
  31   2.0000     -10.301262      -280.3116
  32   2.0000     -10.297499      -280.2092
  33   2.0000     -10.294684      -280.1326
  34   2.0000     -10.294445      -280.1261
  35   2.0000     -10.293842      -280.1097
  36   2.0000     -10.293334      -280.0959
  37   2.0000     -10.293133      -280.0904
  38   2.0000     -10.293089      -280.0892
  39   2.0000     -10.292070      -280.0615
  40   2.0000     -10.287734      -279.9435
  41   2.0000     -10.282771      -279.8084
  42   2.0000     -10.281600      -279.7766
  43   2.0000     -10.272449      -279.5276
  44   2.0000     -10.270038      -279.4619
  45   2.0000     -10.268647      -279.4241
  46   2.0000     -10.268424      -279.4180
  47   2.0000     -10.266873      -279.3758
  48   2.0000     -10.266482      -279.3652
  49   2.0000     -10.262748      -279.2636
  50   2.0000     -10.261166      -279.2205
  51   2.0000     -10.259587      -279.1776
  52   2.0000     -10.259465      -279.1742
  53   2.0000     -10.258650      -279.1521
  54   2.0000      -8.044528      -218.9027
  55   2.0000      -6.013663      -163.6401
  56   2.0000      -6.009232      -163.5195
  57   2.0000      -6.007457      -163.4712
  58   2.0000      -1.088441       -29.6180
  59   2.0000      -1.083252       -29.4768
  60   2.0000      -1.077113       -29.3097
  61   2.0000      -1.075187       -29.2573
  62   2.0000      -1.058873       -28.8134
  63   2.0000      -1.058386       -28.8001
  64   2.0000      -1.012777       -27.5591
  65   2.0000      -1.005859       -27.3708
  66   2.0000      -1.000587       -27.2274
  67   2.0000      -0.999045       -27.1854
  68   2.0000      -0.983246       -26.7555
  69   2.0000      -0.977545       -26.6003
  70   2.0000      -0.977237       -26.5920
  71   2.0000      -0.947882       -25.7932
  72   2.0000      -0.945324       -25.7236
  73   2.0000      -0.930712       -25.3260
  74   2.0000      -0.897269       -24.4159
  75   2.0000      -0.884105       -24.0577
  76   2.0000      -0.867430       -23.6040
  77   2.0000      -0.866393       -23.5758
  78   2.0000      -0.864239       -23.5171
  79   2.0000      -0.862573       -23.4718
  80   2.0000      -0.846016       -23.0213
  81   2.0000      -0.841782       -22.9060
  82   2.0000      -0.823056       -22.3965
  83   2.0000      -0.808711       -22.0062
  84   2.0000      -0.793859       -21.6020
  85   2.0000      -0.789851       -21.4929
  86   2.0000      -0.775867       -21.1124
  87   2.0000      -0.766899       -20.8684
  88   2.0000      -0.761918       -20.7328
  89   2.0000      -0.757491       -20.6124
  90   2.0000      -0.748521       -20.3683
  91   2.0000      -0.731555       -19.9066
  92   2.0000      -0.724814       -19.7232
  93   2.0000      -0.723089       -19.6763
  94   2.0000      -0.722482       -19.6597
  95   2.0000      -0.721910       -19.6442
  96   2.0000      -0.712721       -19.3941
  97   2.0000      -0.707439       -19.2504
  98   2.0000      -0.683194       -18.5907
  99   2.0000      -0.674475       -18.3534
 100   2.0000      -0.671796       -18.2805
 101   2.0000      -0.654854       -17.8195
 102   2.0000      -0.650703       -17.7065
 103   2.0000      -0.642507       -17.4835
 104   2.0000      -0.635728       -17.2990
 105   2.0000      -0.631809       -17.1924
 106   2.0000      -0.625353       -17.0167
 107   2.0000      -0.615644       -16.7525
 108   2.0000      -0.604791       -16.4572
 109   2.0000      -0.594614       -16.1803
 110   2.0000      -0.592016       -16.1096
 111   2.0000      -0.590929       -16.0800
 112   2.0000      -0.589495       -16.0410
 113   2.0000      -0.586712       -15.9652
 114   2.0000      -0.584945       -15.9172
 115   2.0000      -0.581579       -15.8256
 116   2.0000      -0.572231       -15.5712
 117   2.0000      -0.571155       -15.5419
 118   2.0000      -0.570940       -15.5361
 119   2.0000      -0.562430       -15.3045
 120   2.0000      -0.556971       -15.1560
 121   2.0000      -0.549043       -14.9402
 122   2.0000      -0.540842       -14.7171
 123   2.0000      -0.538972       -14.6662
 124   2.0000      -0.535595       -14.5743
 125   2.0000      -0.532133       -14.4801
 126   2.0000      -0.522254       -14.2112
 127   2.0000      -0.521145       -14.1811
 128   2.0000      -0.518550       -14.1105
 129   2.0000      -0.513968       -13.9858
 130   2.0000      -0.511539       -13.9197
 131   2.0000      -0.509532       -13.8651
 132   2.0000      -0.507698       -13.8152
 133   2.0000      -0.505088       -13.7442
 134   2.0000      -0.500888       -13.6299
 135   2.0000      -0.499605       -13.5949
 136   2.0000      -0.497484       -13.5372
 137   2.0000      -0.495236       -13.4761
 138   2.0000      -0.494358       -13.4522
 139   2.0000      -0.489075       -13.3084
 140   2.0000      -0.484554       -13.1854
 141   2.0000      -0.481636       -13.1060
 142   2.0000      -0.477135       -12.9835
 143   2.0000      -0.465957       -12.6793
 144   2.0000      -0.462237       -12.5781
 145   2.0000      -0.457032       -12.4365
 146   2.0000      -0.455512       -12.3951
 147   2.0000      -0.453994       -12.3538
 148   2.0000      -0.448351       -12.2003
 149   2.0000      -0.446560       -12.1515
 150   2.0000      -0.441126       -12.0037
 151   2.0000      -0.436322       -11.8729
 152   2.0000      -0.427312       -11.6277
 153   2.0000      -0.421290       -11.4639
 154   2.0000      -0.417174       -11.3519
 155   2.0000      -0.413771       -11.2593
 156   2.0000      -0.410407       -11.1677
 157   2.0000      -0.408998       -11.1294
 158   2.0000      -0.405752       -11.0411
 159   2.0000      -0.402320       -10.9477
 160   2.0000      -0.392349       -10.6764
 161   2.0000      -0.391900       -10.6641
 162   2.0000      -0.384613       -10.4658
 163   2.0000      -0.379273       -10.3206
 164   2.0000      -0.376305       -10.2398
 165   2.0000      -0.372667       -10.1408
 166   2.0000      -0.366682        -9.9779
 167   2.0000      -0.357688        -9.7332
 168   2.0000      -0.355232        -9.6663
 169   2.0000      -0.353664        -9.6237
 170   2.0000      -0.340216        -9.2577
 171   2.0000      -0.333197        -9.0667
 172   2.0000      -0.331153        -9.0111
 173   2.0000      -0.328892        -8.9496
 174   2.0000      -0.324597        -8.8327
 175   2.0000      -0.322265        -8.7693
 176   2.0000      -0.319727        -8.7002
 177   2.0000      -0.315205        -8.5772
 178   2.0000      -0.312301        -8.4981
 179   2.0000      -0.291972        -7.9450
 180   2.0000      -0.289992        -7.8911
 181   2.0000      -0.287647        -7.8273
 182   2.0000      -0.283065        -7.7026
 183   2.0000      -0.268015        -7.2931
 184   2.0000      -0.213714        -5.8154
 185   0.0000      -0.098052        -2.6681
 186   0.0000      -0.072662        -1.9772
 187   0.0000      -0.030365        -0.8263
 188   0.0000      -0.007115        -0.1936
 189   0.0000      -0.004287        -0.1167

MULLIKEN ATOMIC CHARGES
-----------------------
   0 C :    0.020395
   1 C :    0.026225
   2 N :   -0.024503
   3 C :   -0.156867
   4 C :    0.066298
   5 N :   -0.056080
   6 C :    0.103671
   7 C :   -0.036654
   8 C :   -0.053734
   9 N :   -0.056504
  10 C :    0.040518
  11 C :    0.029166
  12 N :   -0.015451
  13 C :    0.163495
  14 C :   -0.111335
  15 C :   -0.037989
  16 N :    0.019688
  17 C :    0.025138
  18 C :    0.027794
  19 N :   -0.023137
  20 C :   -0.222809
  21 S :    0.183858
  22 C :   -0.049295
  23 C :    0.111467
  24 C :    0.174694
  25 C :   -0.070944
  26 C :    0.062785
  27 C :   -0.030337
  28 C :   -0.014333
  29 C :   -0.078069
  30 C :    0.102116
  31 C :   -0.101238
  32 C :    0.011697
  33 C :   -0.116636
  34 C :    0.126932
  35 C :   -0.051341
  36 C :   -0.048224
  37 N :    0.027084
  38 C :    0.022188
  39 C :    0.036510
  40 N :   -0.030925
  41 C :    0.099999
  42 C :   -0.033799
  43 C :   -0.059787
  44 N :   -0.012333
  45 C :    0.020914
  46 C :    0.032020
  47 N :   -0.019412
  48 C :   -0.153455
  49 C :    0.066299
  50 N :   -0.055702
  51 C :    0.021238
  52 C :    0.024425
  53 N :   -0.023329
  54 H :    0.004686
  55 H :   -0.000714
  56 H :   -0.007561
  57 H :    0.013999
  58 H :    0.017079
  59 H :    0.010991
  60 H :    0.019800
  61 H :   -0.034886
  62 H :   -0.008562
  63 H :    0.006148
  64 H :    0.019301
  65 H :    0.029570
  66 H :    0.027896
  67 H :    0.004753
  68 H :   -0.044144
  69 H :    0.005662
  70 H :   -0.005670
  71 H :    0.012166
  72 H :    0.007573
  73 H :    0.009923
  74 H :    0.014709
  75 H :   -0.008380
  76 H :    0.003991
  77 H :   -0.000722
Sum of atomic charges:   -0.0000000

LOEWDIN ATOMIC CHARGES
----------------------
   0 C :   -0.005126
   1 C :   -0.007843
   2 N :   -0.032072
   3 C :   -0.004342
   4 C :    0.018774
   5 N :   -0.052641
   6 C :   -0.040581
   7 C :   -0.002062
   8 C :   -0.017088
   9 N :   -0.045819
  10 C :    0.009797
  11 C :    0.011055
  12 N :   -0.030243
  13 C :   -0.024426
  14 C :   -0.017314
  15 C :    0.006583
  16 N :   -0.019916
  17 C :    0.008944
  18 C :   -0.000372
  19 N :   -0.024306
  20 C :   -0.167851
  21 S :    0.524764
  22 C :   -0.170689
  23 C :   -0.039338
  24 C :   -0.028584
  25 C :    0.009488
  26 C :   -0.032435
  27 C :   -0.018551
  28 C :   -0.043121
  29 C :   -0.018032
  30 C :   -0.045650
  31 C :   -0.028388
  32 C :   -0.012163
  33 C :   -0.032129
  34 C :   -0.007161
  35 C :   -0.011220
  36 C :    0.005421
  37 N :   -0.014197
  38 C :    0.005757
  39 C :    0.007611
  40 N :   -0.029636
  41 C :   -0.037402
  42 C :   -0.004308
  43 C :   -0.010808
  44 N :   -0.028037
  45 C :    0.000079
  46 C :    0.009675
  47 N :   -0.033371
  48 C :   -0.003717
  49 C :    0.020502
  50 N :   -0.053012
  51 C :   -0.004563
  52 C :   -0.008612
  53 N :   -0.031823
  54 H :    0.021985
  55 H :    0.021575
  56 H :    0.019325
  57 H :    0.027915
  58 H :    0.028428
  59 H :    0.026416
  60 H :    0.025958
  61 H :    0.023793
  62 H :    0.027142
  63 H :    0.018163
  64 H :    0.023569
  65 H :    0.033949
  66 H :    0.034216
  67 H :    0.028455
  68 H :    0.024919
  69 H :    0.027844
  70 H :    0.020364
  71 H :    0.026397
  72 H :    0.024220
  73 H :    0.025357
  74 H :    0.027678
  75 H :    0.019538
  76 H :    0.021863
  77 H :    0.021428

  Mayer bond orders larger than 0.100000
B(  0-C ,  1-C ) :   1.3574 B(  0-C ,  3-C ) :   0.1032 B(  0-C ,  5-N ) :   1.5334
B(  0-C , 54-H ) :   0.9775 B(  1-C ,  2-N ) :   1.5455 B(  1-C , 55-H ) :   0.9753
B(  2-N ,  3-C ) :   1.5675 B(  3-C ,  4-C ) :   1.3412 B(  3-C ,  6-C ) :   0.9431
B(  4-C ,  5-N ) :   1.5794 B(  4-C , 56-H ) :   0.9700 B(  6-C ,  7-C ) :   1.3199
B(  6-C , 13-C ) :   0.1338 B(  6-C , 15-C ) :   1.2953 B(  7-C ,  8-C ) :   1.1614
B(  7-C , 12-N ) :   1.4488 B(  8-C ,  9-N ) :   1.4292 B(  8-C , 13-C ) :   1.2280
B(  9-N , 10-C ) :   1.6454 B( 10-C , 11-C ) :   1.2065 B( 10-C , 57-H ) :   0.9741
B( 11-C , 12-N ) :   1.6770 B( 11-C , 58-H ) :   0.9753 B( 13-C , 14-C ) :   1.2354
B( 13-C , 20-C ) :   1.1835 B( 14-C , 15-C ) :   1.1293 B( 14-C , 19-N ) :   1.4757
B( 15-C , 16-N ) :   1.4711 B( 16-N , 17-C ) :   1.6954 B( 17-C , 18-C ) :   1.1895
B( 17-C , 59-H ) :   0.9749 B( 18-C , 19-N ) :   1.6676 B( 18-C , 60-H ) :   0.9659
B( 20-C , 21-S ) :   1.1652 B( 20-C , 22-C ) :   0.1015 B( 20-C , 24-C ) :   1.2770
B( 21-S , 22-C ) :   1.1080 B( 22-C , 23-C ) :   1.2632 B( 22-C , 32-C ) :   1.2048
B( 23-C , 24-C ) :   1.2247 B( 23-C , 31-C ) :   1.2095 B( 24-C , 25-C ) :   1.2195
B( 25-C , 26-C ) :   1.5115 B( 25-C , 61-H ) :   0.9761 B( 26-C , 27-C ) :   1.0295
B( 26-C , 29-C ) :   1.2124 B( 27-C , 28-C ) :   1.9769 B( 27-C , 62-H ) :   0.9523
B( 28-C , 63-H ) :   0.9523 B( 28-C , 64-H ) :   0.9494 B( 29-C , 30-C ) :   1.0878
B( 29-C , 31-C ) :   1.5319 B( 30-C , 65-H ) :   0.9404 B( 30-C , 66-H ) :   0.9436
B( 30-C , 67-H ) :   0.9537 B( 31-C , 68-H ) :   0.9911 B( 32-C , 33-C ) :   1.5380
B( 32-C , 69-H ) :   0.9471 B( 33-C , 34-C ) :   1.2284 B( 33-C , 70-H ) :   0.9548
B( 34-C , 35-C ) :   1.1983 B( 34-C , 41-C ) :   0.1409 B( 34-C , 43-C ) :   1.2118
B( 35-C , 36-C ) :   1.1503 B( 35-C , 40-N ) :   1.4556 B( 36-C , 37-N ) :   1.4750
B( 36-C , 41-C ) :   1.2957 B( 37-N , 38-C ) :   1.6936 B( 38-C , 39-C ) :   1.1931
B( 38-C , 71-H ) :   0.9747 B( 39-C , 40-N ) :   1.6648 B( 39-C , 72-H ) :   0.9723
B( 41-C , 42-C ) :   1.3228 B( 41-C , 48-C ) :   0.9420 B( 42-C , 43-C ) :   1.1541
B( 42-C , 47-N ) :   1.4446 B( 43-C , 44-N ) :   1.4718 B( 44-N , 45-C ) :   1.6827
B( 45-C , 46-C ) :   1.1921 B( 45-C , 73-H ) :   0.9752 B( 46-C , 47-N ) :   1.6875
B( 46-C , 74-H ) :   0.9746 B( 48-C , 49-C ) :   1.3395 B( 48-C , 51-C ) :   0.1034
B( 48-C , 53-N ) :   1.5675 B( 49-C , 50-N ) :   1.5826 B( 49-C , 75-H ) :   0.9709
B( 50-N , 51-C ) :   1.5320 B( 51-C , 52-C ) :   1.3581 B( 51-C , 76-H ) :   0.9778
B( 52-C , 53-N ) :   1.5434 B( 52-C , 77-H ) :   0.9754

-----------------------------------------------------------------------------
         ABSORPTION SPECTRUM VIA TRANSITION ELECTRIC DIPOLE MOMENTS
-----------------------------------------------------------------------------
State   Energy  Wavelength   fosc         T2         TX        TY        TZ
        (cm-1)    (nm)                  (au**2)     (au)      (au)      (au)
-----------------------------------------------------------------------------
   0   10236.4    976.9   0.739660742  23.78810  -2.20214   3.91848  -1.89319
   1   15138.1    660.6   0.160181561   3.48352   1.06973  -1.16754  -0.98795
   2   21606.0    462.8   0.041181598   0.62749  -0.44787   0.63174   0.16674
   3   21996.5    454.6   0.013138251   0.19663   0.05563  -0.41026  -0.15882
   4   22861.7    437.4   0.134178103   1.93219   0.85445  -0.89632  -0.63144
   5   23372.7    427.9   0.182135118   2.56544  -0.53941   1.25758  -0.83245
   6   23791.5    420.3   0.030288845   0.41912  -0.34031   0.46427  -0.29624
   7   24658.6    405.5   0.038747193   0.51731  -0.10894   0.38761  -0.59598
   8   26190.1    381.8   0.018897664   0.23755  -0.01596   0.02416   0.48653
   9   26500.0    377.4   0.004828906   0.05999   0.09485   0.14679  -0.17160
  10   27269.8    366.7   0.024358879   0.29407  -0.40234   0.35180  -0.09182
  11   27547.3    363.0   0.032056325   0.38310  -0.47513   0.33554   0.21157
  12   27905.3    358.4   0.060778169   0.71703   0.58176  -0.60664   0.10282
  13   28427.8    351.8   0.008974824   0.10393  -0.25728   0.19234  -0.02736
  14   28564.5    350.1   0.002437399   0.02809  -0.08149   0.14497  -0.02084
  15   28830.0    346.9   0.018938282   0.21626   0.11770  -0.42023  -0.16066
  16   29334.3    340.9   0.007423454   0.08331   0.08719   0.14180  -0.23580
  17   30163.4    331.5   0.020117617   0.21957  -0.19554   0.42573   0.00945
  18   31167.3    320.8   0.160152978   1.69165  -0.66253   0.73779   0.84165
  19   31806.5    314.4   0.064030528   0.66275  -0.29319   0.28768   0.70287
  20   32111.6    311.4   0.077961267   0.79927  -0.44787   0.77353  -0.01804
  21   32613.1    306.6   0.204177547   2.06106  -0.29779   1.10135  -0.87144
  22   33272.6    300.5   0.034099056   0.33739  -0.46253  -0.16097   0.31232
  23   33377.2    299.6   0.300108601   2.96008   1.59663  -0.60024  -0.22486
  24   33967.6    294.4   0.206756834   2.00388   0.73034   0.14961  -1.20337
  25   34247.7    292.0   0.037398668   0.35950  -0.29133   0.43544   0.29158
  26   34550.0    289.4   0.162832291   1.55156  -0.51351  -0.45656   1.03895
  27   34591.9    289.1   0.053593582   0.51005  -0.26199   0.20058   0.63339
  28   35069.7    285.1   0.038155864   0.35818  -0.19758   0.00313   0.56492
  29   35658.7    280.4   0.108121730   0.99821   0.66936  -0.34342  -0.65745
  30   35743.2    279.8   0.094630626   0.87159   0.36550  -0.85640  -0.06774
  31   36039.5    277.5   0.114177547   1.04298  -0.54479   0.02963   0.86332
  32   36378.0    274.9   0.010674173   0.09660   0.13285   0.18862  -0.20826
  33   37088.4    269.6   0.000433859   0.00385   0.03434   0.02999  -0.04210
  34   37186.0    268.9   0.016837849   0.14907   0.37903   0.00746  -0.07311
  35   37365.7    267.6   0.028387354   0.25011   0.14833   0.05450  -0.47449
  36   37611.0    265.9   0.087757820   0.76815   0.51285  -0.33763  -0.62542
  37   37678.2    265.4   0.017531706   0.15318   0.28464  -0.26829  -0.01366
  38   38317.6    261.0   0.008726566   0.07498   0.10662  -0.01387   0.25183
  39   38442.4    260.1   0.008072876   0.06913   0.07277   0.09414  -0.23447
  40   38697.5    258.4   0.001527369   0.01299   0.07135  -0.04509  -0.07662
  41   38856.8    257.4   0.044800714   0.37957   0.27316  -0.30396  -0.46104
  42   39086.7    255.8   0.008805324   0.07416   0.06821   0.14988  -0.21690
  43   39333.5    254.2   0.006266731   0.05245   0.22651  -0.03336   0.00553
  44   39363.5    254.0   0.011690411   0.09777  -0.05124   0.09715  -0.29276
  45   39708.4    251.8   0.011686491   0.09689   0.19972  -0.22709  -0.07372

FINAL SINGLE POINT ENERGY     -2629.014653634921

DIPOLE MOMENT
-------------
                                X             Y             Z
Electronic contribution:    -11.82713       7.00303      20.66118
Nuclear contribution   :     12.24901      -7.20245     -21.39430
                        -----------------------------------------
Total Dipole Moment    :      0.42188      -0.19942      -0.73312
                        -----------------------------------------
Magnitude (a.u.)       :      0.86903
Magnitude (Debye)      :      2.20890

Rotational constants in cm-1:     0.003178     0.000717     0.000598
Rotational constants in MHz :    95.285454    21.493781    17.924670

                             ****ORCA TERMINATED NORMALLY****
TOTAL RUN TIME: 0 days 0 hours 5 minutes 52 seconds 224 msec
