                         Program Version 4.2.0 -  RELEASE  -
|  1> # ORCA input file
|  2> # SCF done       -111.424159621684          0.000517264732
|  3> ! CAM-B3LYP def2-SVP def2/J RIJCOSX Grid4 TightSCF
|  4> %maxcore 5000
|  5> %tddft
|  6>     Mode sTDDFT
|  7>     Ethresh 5.0
|  8>     maxcore 5000
|  9> end
| 10>
| 11> %pal
| 12>   nprocs 6
| 13>   end
| 14> * xyz 0 1
| 15>    C       -4.43373         0.19464         2.23021
| 16>    S       -3.20294        -0.45531         1.24573
| 17>    C       -3.54413        -2.07451         1.76521
| 18>    C       -4.61208        -2.08783         2.66077
| 19>    C       -5.10941        -0.77047         2.94543
| 20>    C       -6.20153        -0.60093         3.85135
| 21>    C       -6.68740         0.73593         4.16066
| 22>    C       -7.91717         1.02934         4.56591
| 23>    C       -6.74038        -1.73257         4.41283
| 24>    C       -6.23695        -3.01945         4.14265
| 25>    C       -5.18767        -3.21003         3.29196
| 26>    C       -2.79565        -3.19170         1.28499
| 27>    C       -1.28892        -3.24801         1.05511
| 28>    N       -0.88026        -4.36419         0.52768
| 29>    C       -2.01262        -5.12705         0.39893
| 30>    C       -2.62403        -6.24845        -0.06392
| 31>    S       -4.26664        -5.80507         0.47158
| 32>    C       -3.17204        -4.42910         0.91553
| 33>    C       -0.40185        -2.18848         1.47087
| 34>    C       -0.71226        -1.39869         2.57365
| 35>    C        0.10639        -0.32730         2.92207
| 36>    C        1.27070        -0.14946         2.17212
| 37>    N        1.60182        -0.92568         1.15543
| 38>    C        0.79341        -1.90074         0.79722
| 39>    C       -0.33443         0.52841         4.00714
| 40>    C        0.43180         1.15557         4.90778
| 41>    C       -0.12614         1.94117         5.97337
| 42>    C       -1.47983         1.74263         6.65111
| 43>    N       -1.77861         2.69501         7.50218
| 44>    C       -0.70580         3.53784         7.47980
| 45>    C       -0.11650         4.69376         7.87717
| 46>    S        1.37529         4.48319         6.90929
| 47>    C        0.32074         3.05505         6.57319
| 48>    C       -2.32537         0.60854         6.50124
| 49>    S       -1.62900        -0.97067         6.26870
| 50>    C       -3.10541        -1.75198         6.57390
| 51>    C       -4.12694        -0.86355         6.84415
| 52>    C       -3.69818         0.50386         6.76148
| 53>    C       -4.66128         1.53670         6.93000
| 54>    C       -4.42283         2.93496         6.57710
| 55>    C       -3.82592         3.33261         5.46325
| 56>    C       -5.91703         1.17541         7.36097
| 57>    C       -6.30659        -0.16635         7.52549
| 58>    C       -5.44966        -1.18209         7.22609
| 59>    H       -4.60757         1.25168         2.20606
| 60>    H       -5.97022         1.53587         4.03473
| 61>    H       -8.68153         0.27938         4.67717
| 62>    H       -8.20836         2.04223         4.78360
| 63>    H       -7.56299        -1.63786         5.10412
| 64>    H       -6.69699        -3.86798         4.62702
| 65>    H       -4.79957        -4.19544         3.08567
| 66>    H       -2.33021        -7.12134        -0.61185
| 67>    H       -1.56320        -1.63332         3.19687
| 68>    H        1.95686         0.65769         2.39099
| 69>    H        1.08730        -2.48744        -0.06111
| 70>    H       -1.41080         0.62628         4.07738
| 71>    H        1.51110         1.11302         4.84814
| 72>    H       -0.37374         5.52017         8.50883
| 73>    H       -3.15540        -2.82287         6.56800
| 74>    H       -4.86377         3.66540         7.24174
| 75>    H       -3.40134         2.63197         4.76193
| 76>    H       -3.72787         4.37459         5.21256
| 77>    H       -6.65049         1.94937         7.53397
| 78>    H       -7.31174        -0.37905         7.85758
| 79>    H       -5.74279        -2.21813         7.29259
| 80> *
| 81>
| 82>                          ****END OF INPUT****

CARTESIAN COORDINATES (ANGSTROEM)
---------------------------------
  C     -4.433730    0.194640    2.230210
  S     -3.202940   -0.455310    1.245730
  C     -3.544130   -2.074510    1.765210
  C     -4.612080   -2.087830    2.660770
  C     -5.109410   -0.770470    2.945430
  C     -6.201530   -0.600930    3.851350
  C     -6.687400    0.735930    4.160660
  C     -7.917170    1.029340    4.565910
  C     -6.740380   -1.732570    4.412830
  C     -6.236950   -3.019450    4.142650
  C     -5.187670   -3.210030    3.291960
  C     -2.795650   -3.191700    1.284990
  C     -1.288920   -3.248010    1.055110
  N     -0.880260   -4.364190    0.527680
  C     -2.012620   -5.127050    0.398930
  C     -2.624030   -6.248450   -0.063920
  S     -4.266640   -5.805070    0.471580
  C     -3.172040   -4.429100    0.915530
  C     -0.401850   -2.188480    1.470870
  C     -0.712260   -1.398690    2.573650
  C      0.106390   -0.327300    2.922070
  C      1.270700   -0.149460    2.172120
  N      1.601820   -0.925680    1.155430
  C      0.793410   -1.900740    0.797220
  C     -0.334430    0.528410    4.007140
  C      0.431800    1.155570    4.907780
  C     -0.126140    1.941170    5.973370
  C     -1.479830    1.742630    6.651110
  N     -1.778610    2.695010    7.502180
  C     -0.705800    3.537840    7.479800
  C     -0.116500    4.693760    7.877170
  S      1.375290    4.483190    6.909290
  C      0.320740    3.055050    6.573190
  C     -2.325370    0.608540    6.501240
  S     -1.629000   -0.970670    6.268700
  C     -3.105410   -1.751980    6.573900
  C     -4.126940   -0.863550    6.844150
  C     -3.698180    0.503860    6.761480
  C     -4.661280    1.536700    6.930000
  C     -4.422830    2.934960    6.577100
  C     -3.825920    3.332610    5.463250
  C     -5.917030    1.175410    7.360970
  C     -6.306590   -0.166350    7.525490
  C     -5.449660   -1.182090    7.226090
  H     -4.607570    1.251680    2.206060
  H     -5.970220    1.535870    4.034730
  H     -8.681530    0.279380    4.677170
  H     -8.208360    2.042230    4.783600
  H     -7.562990   -1.637860    5.104120
  H     -6.696990   -3.867980    4.627020
  H     -4.799570   -4.195440    3.085670
  H     -2.330210   -7.121340   -0.611850
  H     -1.563200   -1.633320    3.196870
  H      1.956860    0.657690    2.390990
  H      1.087300   -2.487440   -0.061110
  H     -1.410800    0.626280    4.077380
  H      1.511100    1.113020    4.848140
  H     -0.373740    5.520170    8.508830
  H     -3.155400   -2.822870    6.568000
  H     -4.863770    3.665400    7.241740
  H     -3.401340    2.631970    4.761930
  H     -3.727870    4.374590    5.212560
  H     -6.650490    1.949370    7.533970
  H     -7.311740   -0.379050    7.857580
  H     -5.742790   -2.218130    7.292590

 Total Charge           Charge          ....    0
 Multiplicity           Mult            ....    1
 Number of Electrons    NEL             ....  328
 Basis Dimension        Dim             ....  737

ORBITAL ENERGIES
----------------

  NO   OCC          E(Eh)            E(eV)
   0   2.0000     -88.970868     -2421.0204
   1   2.0000     -88.970705     -2421.0160
   2   2.0000     -88.947123     -2420.3743
   3   2.0000     -88.937999     -2420.1260
   4   2.0000     -14.402908      -391.9231
   5   2.0000     -14.398839      -391.8123
   6   2.0000     -14.389002      -391.5447
   7   2.0000     -10.328279      -281.0468
   8   2.0000     -10.324156      -280.9346
   9   2.0000     -10.322527      -280.8902
  10   2.0000     -10.312464      -280.6164
  11   2.0000     -10.304584      -280.4020
  12   2.0000     -10.304083      -280.3884
  13   2.0000     -10.302823      -280.3541
  14   2.0000     -10.302414      -280.3429
  15   2.0000     -10.300297      -280.2853
  16   2.0000     -10.299808      -280.2720
  17   2.0000     -10.298877      -280.2467
  18   2.0000     -10.297584      -280.2115
  19   2.0000     -10.297440      -280.2076
  20   2.0000     -10.291937      -280.0578
  21   2.0000     -10.291623      -280.0493
  22   2.0000     -10.290941      -280.0307
  23   2.0000     -10.288991      -279.9777
  24   2.0000     -10.285403      -279.8800
  25   2.0000     -10.284466      -279.8545
  26   2.0000     -10.283266      -279.8219
  27   2.0000     -10.282303      -279.7957
  28   2.0000     -10.281901      -279.7847
  29   2.0000     -10.280917      -279.7580
  30   2.0000     -10.280598      -279.7493
  31   2.0000     -10.278863      -279.7021
  32   2.0000     -10.278395      -279.6893
  33   2.0000     -10.274308      -279.5781
  34   2.0000     -10.272623      -279.5323
  35   2.0000     -10.272228      -279.5215
  36   2.0000     -10.272083      -279.5176
  37   2.0000     -10.269425      -279.4453
  38   2.0000     -10.268419      -279.4179
  39   2.0000     -10.267891      -279.4035
  40   2.0000     -10.267532      -279.3938
  41   2.0000     -10.262956      -279.2692
  42   2.0000     -10.261663      -279.2341
  43   2.0000     -10.250617      -278.9335
  44   2.0000      -8.065278      -219.4674
  45   2.0000      -8.064896      -219.4570
  46   2.0000      -8.041584      -218.8226
  47   2.0000      -8.032745      -218.5821
  48   2.0000      -6.034234      -164.1999
  49   2.0000      -6.033817      -164.1885
  50   2.0000      -6.029849      -164.0805
  51   2.0000      -6.029428      -164.0691
  52   2.0000      -6.028554      -164.0453
  53   2.0000      -6.028249      -164.0370
  54   2.0000      -6.012325      -163.6037
  55   2.0000      -6.008549      -163.5009
  56   2.0000      -6.003512      -163.3639
  57   2.0000      -6.000417      -163.2796
  58   2.0000      -5.999747      -163.2614
  59   2.0000      -5.991463      -163.0360
  60   2.0000      -1.064409       -28.9640
  61   2.0000      -1.054103       -28.6836
  62   2.0000      -1.034537       -28.1512
  63   2.0000      -0.995914       -27.1002
  64   2.0000      -0.992726       -27.0135
  65   2.0000      -0.963452       -26.2169
  66   2.0000      -0.951914       -25.9029
  67   2.0000      -0.934769       -25.4364
  68   2.0000      -0.929896       -25.3038
  69   2.0000      -0.921888       -25.0859
  70   2.0000      -0.898781       -24.4571
  71   2.0000      -0.889107       -24.1938
  72   2.0000      -0.880818       -23.9683
  73   2.0000      -0.872541       -23.7431
  74   2.0000      -0.866344       -23.5744
  75   2.0000      -0.833583       -22.6829
  76   2.0000      -0.827959       -22.5299
  77   2.0000      -0.825557       -22.4646
  78   2.0000      -0.819345       -22.2955
  79   2.0000      -0.812462       -22.1082
  80   2.0000      -0.801141       -21.8001
  81   2.0000      -0.782040       -21.2804
  82   2.0000      -0.774114       -21.0647
  83   2.0000      -0.751402       -20.4467
  84   2.0000      -0.746873       -20.3234
  85   2.0000      -0.728074       -19.8119
  86   2.0000      -0.716421       -19.4948
  87   2.0000      -0.715616       -19.4729
  88   2.0000      -0.709210       -19.2986
  89   2.0000      -0.705425       -19.1956
  90   2.0000      -0.691842       -18.8260
  91   2.0000      -0.670303       -18.2399
  92   2.0000      -0.667410       -18.1612
  93   2.0000      -0.666547       -18.1377
  94   2.0000      -0.660777       -17.9806
  95   2.0000      -0.648987       -17.6598
  96   2.0000      -0.639921       -17.4131
  97   2.0000      -0.628496       -17.1023
  98   2.0000      -0.611214       -16.6320
  99   2.0000      -0.607192       -16.5225
 100   2.0000      -0.603102       -16.4112
 101   2.0000      -0.599750       -16.3200
 102   2.0000      -0.594910       -16.1883
 103   2.0000      -0.578393       -15.7389
 104   2.0000      -0.570774       -15.5315
 105   2.0000      -0.558819       -15.2062
 106   2.0000      -0.556429       -15.1412
 107   2.0000      -0.554289       -15.0830
 108   2.0000      -0.552929       -15.0460
 109   2.0000      -0.550932       -14.9916
 110   2.0000      -0.544281       -14.8106
 111   2.0000      -0.537168       -14.6171
 112   2.0000      -0.530014       -14.4224
 113   2.0000      -0.522981       -14.2310
 114   2.0000      -0.517928       -14.0935
 115   2.0000      -0.511531       -13.9195
 116   2.0000      -0.509141       -13.8544
 117   2.0000      -0.505871       -13.7655
 118   2.0000      -0.504697       -13.7335
 119   2.0000      -0.500285       -13.6134
 120   2.0000      -0.498640       -13.5687
 121   2.0000      -0.494185       -13.4475
 122   2.0000      -0.491510       -13.3747
 123   2.0000      -0.489069       -13.3083
 124   2.0000      -0.480549       -13.0764
 125   2.0000      -0.476129       -12.9561
 126   2.0000      -0.473516       -12.8850
 127   2.0000      -0.469978       -12.7888
 128   2.0000      -0.466913       -12.7053
 129   2.0000      -0.463953       -12.6248
 130   2.0000      -0.454009       -12.3542
 131   2.0000      -0.450768       -12.2660
 132   2.0000      -0.444176       -12.0867
 133   2.0000      -0.443876       -12.0785
 134   2.0000      -0.437237       -11.8978
 135   2.0000      -0.434947       -11.8355
 136   2.0000      -0.433059       -11.7841
 137   2.0000      -0.427220       -11.6252
 138   2.0000      -0.426445       -11.6042
 139   2.0000      -0.417304       -11.3554
 140   2.0000      -0.415077       -11.2948
 141   2.0000      -0.408171       -11.1069
 142   2.0000      -0.407138       -11.0788
 143   2.0000      -0.404358       -11.0032
 144   2.0000      -0.399786       -10.8787
 145   2.0000      -0.395260       -10.7556
 146   2.0000      -0.386895       -10.5279
 147   2.0000      -0.380856       -10.3636
 148   2.0000      -0.372109       -10.1256
 149   2.0000      -0.354454        -9.6452
 150   2.0000      -0.353347        -9.6151
 151   2.0000      -0.341306        -9.2874
 152   2.0000      -0.337604        -9.1867
 153   2.0000      -0.331873        -9.0307
 154   2.0000      -0.322467        -8.7748
 155   2.0000      -0.318322        -8.6620
 156   2.0000      -0.313367        -8.5272
 157   2.0000      -0.309213        -8.4141
 158   2.0000      -0.301674        -8.2090
 159   2.0000      -0.284463        -7.7406
 160   2.0000      -0.268390        -7.3033
 161   2.0000      -0.264412        -7.1950
 162   2.0000      -0.250272        -6.8103
 163   2.0000      -0.240240        -6.5373
 164   0.0000      -0.068587        -1.8664
 165   0.0000      -0.063801        -1.7361
 166   0.0000      -0.039041        -1.0624
 167   0.0000      -0.033837        -0.9207
 168   0.0000      -0.003584        -0.0975

MULLIKEN ATOMIC CHARGES
-----------------------
   0 C :   -0.162523
   1 S :    0.186906
   2 C :   -0.245065
   3 C :    0.169779
   4 C :    0.070543
   5 C :    0.094606
   6 C :   -0.015599
   7 C :   -0.018389
   8 C :   -0.020575
   9 C :    0.020566
  10 C :   -0.036116
  11 C :   -0.068410
  12 C :   -0.015449
  13 N :   -0.050630
  14 C :    0.194847
  15 C :   -0.159439
  16 S :    0.064783
  17 C :   -0.026290
  18 C :   -0.011341
  19 C :   -0.015968
  20 C :    0.044664
  21 C :   -0.000926
  22 N :   -0.055482
  23 C :    0.028245
  24 C :   -0.026007
  25 C :    0.015138
  26 C :   -0.088327
  27 C :   -0.033714
  28 N :   -0.054112
  29 C :    0.196490
  30 C :   -0.178122
  31 S :    0.048442
  32 C :    0.006553
  33 C :   -0.265248
  34 S :    0.179410
  35 C :   -0.119962
  36 C :    0.069166
  37 C :    0.194688
  38 C :    0.025891
  39 C :   -0.015936
  40 C :   -0.005914
  41 C :   -0.007456
  42 C :    0.020770
  43 C :    0.038206
  44 H :    0.024245
  45 H :   -0.004578
  46 H :    0.014912
  47 H :    0.020296
  48 H :   -0.033071
  49 H :   -0.018865
  50 H :   -0.029034
  51 H :    0.029356
  52 H :    0.011206
  53 H :   -0.002665
  54 H :    0.005212
  55 H :    0.023616
  56 H :    0.002487
  57 H :    0.021502
  58 H :    0.022523
  59 H :   -0.002217
  60 H :    0.006934
  61 H :    0.018729
  62 H :   -0.029945
  63 H :   -0.020163
  64 H :   -0.033173
Sum of atomic charges:   -0.0000000

LOEWDIN ATOMIC CHARGES
----------------------
   0 C :   -0.200098
   1 S :    0.515397
   2 C :   -0.201840
   3 C :   -0.037454
   4 C :   -0.045630
   5 C :   -0.014031
   6 C :   -0.012584
   7 C :   -0.034943
   8 C :   -0.015910
   9 C :   -0.025391
  10 C :   -0.023522
  11 C :   -0.075578
  12 C :    0.048913
  13 N :   -0.095231
  14 C :   -0.065409
  15 C :   -0.073044
  16 S :    0.281526
  17 C :   -0.122494
  18 C :   -0.072995
  19 C :    0.012477
  20 C :   -0.052421
  21 C :    0.033846
  22 N :   -0.066911
  23 C :    0.049393
  24 C :   -0.024522
  25 C :   -0.027018
  26 C :   -0.066238
  27 C :    0.028537
  28 N :   -0.096261
  29 C :   -0.063227
  30 C :   -0.087122
  31 S :    0.271352
  32 C :   -0.117902
  33 C :   -0.211724
  34 S :    0.522831
  35 C :   -0.180458
  36 C :   -0.051334
  37 C :   -0.016183
  38 C :   -0.016212
  39 C :   -0.002375
  40 C :   -0.056133
  41 C :   -0.005866
  42 C :   -0.029005
  43 C :   -0.006220
  44 H :    0.023652
  45 H :    0.029117
  46 H :    0.019629
  47 H :    0.024341
  48 H :    0.023951
  49 H :    0.028143
  50 H :    0.026248
  51 H :    0.024333
  52 H :    0.026915
  53 H :    0.021401
  54 H :    0.026970
  55 H :    0.025167
  56 H :    0.034951
  57 H :    0.020811
  58 H :    0.026251
  59 H :    0.030007
  60 H :    0.014550
  61 H :    0.022586
  62 H :    0.026544
  63 H :    0.026569
  64 H :    0.026877

  Mayer bond orders larger than 0.100000
B(  0-C ,  1-S ) :   1.2011 B(  0-C ,  2-C ) :   0.1223 B(  0-C ,  4-C ) :   1.4372
B(  0-C , 44-H ) :   0.9567 B(  1-S ,  2-C ) :   1.1935 B(  2-C ,  3-C ) :   1.3807
B(  2-C , 11-C ) :   1.0082 B(  3-C ,  4-C ) :   1.1904 B(  3-C , 10-C ) :   1.1905
B(  4-C ,  5-C ) :   1.1431 B(  5-C ,  6-C ) :   1.0635 B(  5-C ,  8-C ) :   1.5551
B(  6-C ,  7-C ) :   1.9597 B(  6-C , 45-H ) :   0.9520 B(  7-C , 46-H ) :   0.9546
B(  7-C , 47-H ) :   0.9475 B(  8-C ,  9-C ) :   1.1968 B(  8-C , 48-H ) :   0.9781
B(  9-C , 10-C ) :   1.5312 B(  9-C , 49-H ) :   0.9861 B( 10-C , 50-H ) :   0.9969
B( 11-C , 12-C ) :   1.0090 B( 11-C , 17-C ) :   1.8328 B( 12-C , 13-N ) :   1.8227
B( 12-C , 18-C ) :   0.9934 B( 13-N , 14-C ) :   1.1987 B( 14-C , 15-C ) :   1.5539
B( 14-C , 17-C ) :   1.0649 B( 15-C , 16-S ) :   0.9894 B( 15-C , 51-H ) :   1.0126
B( 16-S , 17-C ) :   0.9018 B( 18-C , 19-C ) :   1.3804 B( 18-C , 23-C ) :   1.3416
B( 19-C , 20-C ) :   1.3644 B( 19-C , 52-H ) :   0.9858 B( 20-C , 21-C ) :   1.3559
B( 20-C , 24-C ) :   1.0242 B( 21-C , 22-N ) :   1.5493 B( 21-C , 53-H ) :   0.9873
B( 22-N , 23-C ) :   1.5611 B( 23-C , 54-H ) :   0.9866 B( 24-C , 25-C ) :   1.7671
B( 24-C , 55-H ) :   0.9625 B( 25-C , 26-C ) :   1.0666 B( 25-C , 56-H ) :   0.9691
B( 26-C , 27-C ) :   0.9832 B( 26-C , 32-C ) :   1.7809 B( 27-C , 28-N ) :   1.7713
B( 27-C , 33-C ) :   1.0950 B( 28-N , 29-C ) :   1.2156 B( 29-C , 30-C ) :   1.5566
B( 29-C , 32-C ) :   1.0581 B( 30-C , 31-S ) :   0.9762 B( 30-C , 57-H ) :   1.0149
B( 31-S , 32-C ) :   0.9120 B( 33-C , 34-S ) :   1.1707 B( 33-C , 35-C ) :   0.1219
B( 33-C , 37-C ) :   1.3474 B( 34-S , 35-C ) :   1.2275 B( 35-C , 36-C ) :   1.3809
B( 35-C , 58-H ) :   0.9711 B( 36-C , 37-C ) :   1.2093 B( 36-C , 43-C ) :   1.1867
B( 37-C , 38-C ) :   1.2044 B( 38-C , 39-C ) :   1.0313 B( 38-C , 41-C ) :   1.5318
B( 39-C , 40-C ) :   1.9860 B( 39-C , 59-H ) :   0.9584 B( 40-C , 60-H ) :   0.9439
B( 40-C , 61-H ) :   0.9525 B( 41-C , 42-C ) :   1.1981 B( 41-C , 62-H ) :   0.9871
B( 42-C , 43-C ) :   1.5414 B( 42-C , 63-H ) :   0.9886 B( 43-C , 64-H ) :   0.9923

-----------------------------------------------------------------------------
         ABSORPTION SPECTRUM VIA TRANSITION ELECTRIC DIPOLE MOMENTS
-----------------------------------------------------------------------------
State   Energy  Wavelength   fosc         T2         TX        TY        TZ
        (cm-1)    (nm)                  (au**2)     (au)      (au)      (au)
-----------------------------------------------------------------------------
   0   19003.4    526.2   0.112703368   1.95245   0.96052   1.01482   0.00200
   1   20077.8    498.1   0.055471988   0.90956  -0.93639   0.06167   0.17011
   2   22550.8    443.4   0.188049731   2.74528  -0.01716   1.49432   0.71554
   3   23657.1    422.7   0.086209068   1.19969  -0.81715  -0.66783  -0.29318
   4   24653.6    405.6   0.007003421   0.09352  -0.07398   0.14355   0.25969
   5   25248.8    396.1   0.010660595   0.13900   0.11555   0.35405   0.01725
   6   27198.7    367.7   0.119063936   1.44114  -0.74819  -0.92835  -0.13971
   7   28044.6    356.6   0.090488923   1.06224  -0.25866   0.98569   0.15408
   8   28492.3    351.0   0.034481900   0.39842  -0.15082   0.58514  -0.18243
   9   28811.0    347.1   0.101255446   1.15701   0.70253  -0.51249  -0.63310
  10   29294.5    341.4   0.136505835   1.53406  -0.05308  -1.12684  -0.51134
  11   29676.1    337.0   0.065896326   0.73102   0.10112   0.72045   0.44917
  12   30459.0    328.3   0.006507292   0.07033  -0.01090   0.24487  -0.10127
  13   30553.7    327.3   0.009139154   0.09847  -0.21096   0.22361   0.06297
  14   31643.0    316.0   0.040876795   0.42528   0.36823   0.34336   0.41448
  15   31976.1    312.7   0.024500398   0.25225   0.14891   0.23059   0.42060
  16   32211.5    310.4   0.029173919   0.29817  -0.28558  -0.37754  -0.27217
  17   32465.2    308.0   0.014604249   0.14809   0.20500   0.30660   0.10983
  18   33727.1    296.5   0.057581036   0.56205  -0.37908  -0.43021  -0.48297
  19   34169.3    292.7   0.014036131   0.13523   0.15528   0.33335  -0.00068
  20   34429.8    290.4   0.089421577   0.85503  -0.09689  -0.89414  -0.21486
  21   34757.6    287.7   0.025157262   0.23828   0.33254   0.30059   0.19325
  22   35200.7    284.1   0.044910350   0.42002   0.47487   0.26953   0.34910
  23   35346.7    282.9   0.062877018   0.58562   0.34718  -0.64946   0.20807
  24   35487.8    281.8   0.048891274   0.45355   0.32800  -0.50446  -0.30248
  25   36289.6    275.6   0.097497261   0.88448  -0.35402  -0.75894  -0.42796
  26   36661.1    272.8   0.000680305   0.00611   0.04505   0.05843   0.02578
  27   36950.3    270.6   0.165207786   1.47193  -0.30319  -0.75771  -0.89771
  28   37194.3    268.9   0.165571859   1.46550   0.86179   0.79335   0.30563
  29   37286.6    268.2   0.023618373   0.20853  -0.13330  -0.36516  -0.23963
  30   38233.9    261.5   0.085759262   0.73843  -0.09807  -0.60106  -0.60624
  31   38402.3    260.4   0.034037456   0.29179  -0.09645  -0.40126  -0.34854
  32   38817.8    257.6   0.031490724   0.26707  -0.35511  -0.18734   0.32538
  33   39096.2    255.8   0.036166933   0.30455   0.52668   0.16364   0.01939
  34   39307.0    254.4   0.080246468   0.67210  -0.36443  -0.69051  -0.24997
  35   39504.1    253.1   0.099071773   0.82563  -0.57409   0.41177   0.57139
  36   39629.6    252.3   0.039613424   0.32908   0.33824  -0.35450  -0.29833
  37   39925.3    250.5   0.395059610   3.25754   0.24037   1.54512   0.90132

FINAL SINGLE POINT ENERGY     -3176.775340716864

DIPOLE MOMENT
-------------
                                X             Y             Z
Electronic contribution:     23.08317      -9.68513      -9.92509
Nuclear contribution   :    -24.55591       9.53347      10.42665
                        -----------------------------------------
Total Dipole Moment    :     -1.47274      -0.15166       0.50156
                        -----------------------------------------
Magnitude (a.u.)       :      1.56318
Magnitude (Debye)      :      3.97329

Rotational constants in cm-1:     0.003349     0.001855     0.001361
Rotational constants in MHz :   100.400943    55.607570    40.809234

                             ****ORCA TERMINATED NORMALLY****
TOTAL RUN TIME: 0 days 0 hours 5 minutes 18 seconds 497 msec
