                         Program Version 4.2.0 -  RELEASE  -
|  1> # ORCA input file
|  2> # SCF done       -175.439546201330          0.000387418223
|  3> ! CAM-B3LYP def2-SVP def2/J RIJCOSX Grid4 TightSCF
|  4> %maxcore 5000
|  5> %tddft
|  6>     Mode sTDDFT
|  7>     Ethresh 5.0
|  8>     maxcore 5000
|  9> end
| 10>
| 11> %pal
| 12>   nprocs 6
| 13>   end
| 14> * xyz 0 1
| 15>    C      -18.43201        12.60905         3.66956
| 16>    N      -18.55589        13.85883         3.13413
| 17>    C      -17.64007        14.04571         2.14470
| 18>    C      -16.90603        12.88671         2.03849
| 19>    C      -17.41824        11.98291         3.01077
| 20>    S      -16.47734        10.47438         2.89645
| 21>    O      -17.29547         9.38494         2.43622
| 22>    O      -15.70248        10.25612         4.08787
| 23>    C      -15.44345        11.12799         1.54590
| 24>    C      -15.82124        12.38779         1.24460
| 25>    C      -14.42960        10.32443         0.97436
| 26>    C      -14.16163         9.07340         1.41350
| 27>    C      -13.15237         8.25973         0.83546
| 28>    N      -12.39029         8.58659        -0.16872
| 29>    C      -11.53724         7.60684        -0.47790
| 30>    C      -11.61726         6.47404         0.30768
| 31>    S      -12.84593         6.62885         1.48286
| 32>    C      -10.71894         5.45092        -0.25886
| 33>    C       -9.65249         6.35605        -0.90246
| 34>    C      -10.48404         7.50249        -1.56275
| 35>    C      -11.12177         7.04058        -2.88478
| 36>    C      -12.18049         8.00287        -3.41102
| 37>    C       -9.76262         8.85246        -1.69788
| 38>    C       -8.88829         9.02580        -2.93512
| 39>    N       -8.77207         5.46549        -1.63171
| 40>    C       -8.89493         4.11482        -1.11941
| 41>    S       -9.69258         4.18402         0.54547
| 42>    C       -7.47133         5.85467        -1.96752
| 43>    C       -6.77081         5.07078        -2.88361
| 44>    C       -5.48309         5.42578        -3.28619
| 45>    C       -4.93462         6.57295        -2.69527
| 46>    N       -5.58500         7.31730        -1.82699
| 47>    C       -6.81538         6.98861        -1.47766
| 48>    C       -4.80614         4.62300        -4.27749
| 49>    C       -3.63035         4.90735        -4.86684
| 50>    C       -3.06441         4.07388        -5.87437
| 51>    N       -3.57074         2.96353        -6.32046
| 52>    C       -2.82775         2.43955        -7.30048
| 53>    C       -1.69187         3.15173        -7.63106
| 54>    S       -1.54049         4.54835        -6.66231
| 55>    C       -0.91297         2.40213        -8.63636
| 56>    C       -2.05789         1.62620        -9.29261
| 57>    C       -2.96948         1.17095        -8.11971
| 58>    C       -2.39216         0.00269        -7.29887
| 59>    C       -2.35111        -1.33141        -8.03385
| 60>    C       -4.40885         0.92365        -8.58592
| 61>    C       -5.37835         0.62698        -7.44752
| 62>    N       -1.45290         0.70948       -10.25182
| 63>    C       -0.18111         1.28091       -10.69997
| 64>    S       -0.01786         3.01523       -10.09907
| 65>    C       -2.31880         0.35701       -11.29165
| 66>    N       -2.26945        -0.90717       -11.82187
| 67>    C       -3.20652        -1.04814       -12.80367
| 68>    C       -3.87485         0.14766       -12.90976
| 69>    C       -3.31073         1.03203       -11.94937
| 70>    S       -4.09579         2.61292       -12.15298
| 71>    O       -3.16279         3.56649       -12.68615
| 72>    O       -4.84129         3.01359       -10.98775
| 73>    C       -5.19847         1.99604       -13.45414
| 74>    C       -4.92915         0.70597       -13.71288
| 75>    C       -6.14581         2.92091       -14.00114
| 76>    C       -7.01071         2.66510       -14.98126
| 77>    H      -19.06523        12.26915         4.46336
| 78>    H      -19.23026        14.54615         3.43064
| 79>    H      -17.57844        14.96739         1.60195
| 80>    H      -15.35766        12.98629         0.47561
| 81>    H      -13.85102        10.73184         0.15483
| 82>    H      -14.72526         8.65500         2.23407
| 83>    H      -11.27753         4.88326        -1.01464
| 84>    H       -9.10635         6.82173        -0.06367
| 85>    H      -10.32953         6.90526        -3.62184
| 86>    H      -11.59158         6.06720        -2.73087
| 87>    H      -11.74693         8.95896        -3.68780
| 88>    H      -12.94059         8.18158        -2.65451
| 89>    H      -12.65965         7.57824        -4.29050
| 90>    H      -10.53323         9.62557        -1.69447
| 91>    H       -9.15804         9.00887        -0.80130
| 92>    H       -9.48765         9.09918        -3.83800
| 93>    H       -8.19141         8.20088        -3.05086
| 94>    H       -8.31073         9.94250        -2.84078
| 95>    H       -7.92605         3.62672        -1.01858
| 96>    H       -9.55070         3.50703        -1.75184
| 97>    H       -7.23970         4.19168        -3.30266
| 98>    H       -3.93172         6.90206        -2.92461
| 99>    H       -7.27620         7.65679        -0.76641
|100>    H       -5.31695         3.72160        -4.58923
|101>    H       -3.06743         5.79513        -4.62093
|102>    H       -0.19612         1.74043        -8.13289
|103>    H       -2.65528         2.37106        -9.84816
|104>    H       -1.37874         0.26060        -6.98299
|105>    H       -2.99273        -0.09444        -6.39346
|106>    H       -1.73344        -1.25099        -8.92326
|107>    H       -3.34742        -1.65058        -8.32580
|108>    H       -1.92714        -2.09318        -7.38267
|109>    H       -4.75085         1.81423        -9.11581
|110>    H       -4.41047         0.09972        -9.30348
|111>    H       -5.18181        -0.34234        -6.99530
|112>    H       -6.39629         0.62254        -7.82960
|113>    H       -5.29612         1.39556        -6.68452
|114>    H       -0.09398         1.28657       -11.78624
|115>    H        0.64597         0.71235       -10.26312
|116>    H       -1.62782        -1.62204       -11.51804
|117>    H       -3.31835        -1.96644       -13.34376
|118>    H       -5.44045         0.11138       -14.45351
|119>    H       -6.11012         3.89973       -13.54115
|120>    H       -7.06452         1.70036       -15.45637
|121>    H       -7.69167         3.41711       -15.33840
|122> *
|123>
|124>                          ****END OF INPUT****

CARTESIAN COORDINATES (ANGSTROEM)
---------------------------------
  C    -18.432010   12.609050    3.669560
  N    -18.555890   13.858830    3.134130
  C    -17.640070   14.045710    2.144700
  C    -16.906030   12.886710    2.038490
  C    -17.418240   11.982910    3.010770
  S    -16.477340   10.474380    2.896450
  O    -17.295470    9.384940    2.436220
  O    -15.702480   10.256120    4.087870
  C    -15.443450   11.127990    1.545900
  C    -15.821240   12.387790    1.244600
  C    -14.429600   10.324430    0.974360
  C    -14.161630    9.073400    1.413500
  C    -13.152370    8.259730    0.835460
  N    -12.390290    8.586590   -0.168720
  C    -11.537240    7.606840   -0.477900
  C    -11.617260    6.474040    0.307680
  S    -12.845930    6.628850    1.482860
  C    -10.718940    5.450920   -0.258860
  C     -9.652490    6.356050   -0.902460
  C    -10.484040    7.502490   -1.562750
  C    -11.121770    7.040580   -2.884780
  C    -12.180490    8.002870   -3.411020
  C     -9.762620    8.852460   -1.697880
  C     -8.888290    9.025800   -2.935120
  N     -8.772070    5.465490   -1.631710
  C     -8.894930    4.114820   -1.119410
  S     -9.692580    4.184020    0.545470
  C     -7.471330    5.854670   -1.967520
  C     -6.770810    5.070780   -2.883610
  C     -5.483090    5.425780   -3.286190
  C     -4.934620    6.572950   -2.695270
  N     -5.585000    7.317300   -1.826990
  C     -6.815380    6.988610   -1.477660
  C     -4.806140    4.623000   -4.277490
  C     -3.630350    4.907350   -4.866840
  C     -3.064410    4.073880   -5.874370
  N     -3.570740    2.963530   -6.320460
  C     -2.827750    2.439550   -7.300480
  C     -1.691870    3.151730   -7.631060
  S     -1.540490    4.548350   -6.662310
  C     -0.912970    2.402130   -8.636360
  C     -2.057890    1.626200   -9.292610
  C     -2.969480    1.170950   -8.119710
  C     -2.392160    0.002690   -7.298870
  C     -2.351110   -1.331410   -8.033850
  C     -4.408850    0.923650   -8.585920
  C     -5.378350    0.626980   -7.447520
  N     -1.452900    0.709480  -10.251820
  C     -0.181110    1.280910  -10.699970
  S     -0.017860    3.015230  -10.099070
  C     -2.318800    0.357010  -11.291650
  N     -2.269450   -0.907170  -11.821870
  C     -3.206520   -1.048140  -12.803670
  C     -3.874850    0.147660  -12.909760
  C     -3.310730    1.032030  -11.949370
  S     -4.095790    2.612920  -12.152980
  O     -3.162790    3.566490  -12.686150
  O     -4.841290    3.013590  -10.987750
  C     -5.198470    1.996040  -13.454140
  C     -4.929150    0.705970  -13.712880
  C     -6.145810    2.920910  -14.001140
  C     -7.010710    2.665100  -14.981260
  H    -19.065230   12.269150    4.463360
  H    -19.230260   14.546150    3.430640
  H    -17.578440   14.967390    1.601950
  H    -15.357660   12.986290    0.475610
  H    -13.851020   10.731840    0.154830
  H    -14.725260    8.655000    2.234070
  H    -11.277530    4.883260   -1.014640
  H     -9.106350    6.821730   -0.063670
  H    -10.329530    6.905260   -3.621840
  H    -11.591580    6.067200   -2.730870
  H    -11.746930    8.958960   -3.687800
  H    -12.940590    8.181580   -2.654510
  H    -12.659650    7.578240   -4.290500
  H    -10.533230    9.625570   -1.694470
  H     -9.158040    9.008870   -0.801300
  H     -9.487650    9.099180   -3.838000
  H     -8.191410    8.200880   -3.050860
  H     -8.310730    9.942500   -2.840780
  H     -7.926050    3.626720   -1.018580
  H     -9.550700    3.507030   -1.751840
  H     -7.239700    4.191680   -3.302660
  H     -3.931720    6.902060   -2.924610
  H     -7.276200    7.656790   -0.766410
  H     -5.316950    3.721600   -4.589230
  H     -3.067430    5.795130   -4.620930
  H     -0.196120    1.740430   -8.132890
  H     -2.655280    2.371060   -9.848160
  H     -1.378740    0.260600   -6.982990
  H     -2.992730   -0.094440   -6.393460
  H     -1.733440   -1.250990   -8.923260
  H     -3.347420   -1.650580   -8.325800
  H     -1.927140   -2.093180   -7.382670
  H     -4.750850    1.814230   -9.115810
  H     -4.410470    0.099720   -9.303480
  H     -5.181810   -0.342340   -6.995300
  H     -6.396290    0.622540   -7.829600
  H     -5.296120    1.395560   -6.684520
  H     -0.093980    1.286570  -11.786240
  H      0.645970    0.712350  -10.263120
  H     -1.627820   -1.622040  -11.518040
  H     -3.318350   -1.966440  -13.343760
  H     -5.440450    0.111380  -14.453510
  H     -6.110120    3.899730  -13.541150
  H     -7.064520    1.700360  -15.456370
  H     -7.691670    3.417110  -15.338400

 Total Charge           Charge          ....    0
 Multiplicity           Mult            ....    1
 Number of Electrons    NEL             ....  492
 Basis Dimension        Dim             .... 1117

ORBITAL ENERGIES
----------------

  NO   OCC          E(Eh)            E(eV)
   0   2.0000     -89.133875     -2425.4560
   1   2.0000     -89.132877     -2425.4289
   2   2.0000     -88.959331     -2420.7065
   3   2.0000     -88.956304     -2420.6241
   4   2.0000     -88.910561     -2419.3794
   5   2.0000     -88.909786     -2419.3583
   6   2.0000     -19.186896      -522.1020
   7   2.0000     -19.180992      -521.9413
   8   2.0000     -19.180631      -521.9315
   9   2.0000     -19.180446      -521.9265
  10   2.0000     -14.483095      -394.1051
  11   2.0000     -14.477637      -393.9565
  12   2.0000     -14.428963      -392.6320
  13   2.0000     -14.421496      -392.4288
  14   2.0000     -14.401441      -391.8831
  15   2.0000     -14.397910      -391.7870
  16   2.0000     -14.391413      -391.6103
  17   2.0000     -10.349036      -281.6116
  18   2.0000     -10.327075      -281.0140
  19   2.0000     -10.325425      -280.9691
  20   2.0000     -10.324632      -280.9475
  21   2.0000     -10.322013      -280.8763
  22   2.0000     -10.320325      -280.8303
  23   2.0000     -10.313829      -280.6535
  24   2.0000     -10.313564      -280.6464
  25   2.0000     -10.307073      -280.4697
  26   2.0000     -10.305609      -280.4299
  27   2.0000     -10.304019      -280.3866
  28   2.0000     -10.302834      -280.3544
  29   2.0000     -10.300362      -280.2871
  30   2.0000     -10.299409      -280.2612
  31   2.0000     -10.297039      -280.1967
  32   2.0000     -10.295893      -280.1655
  33   2.0000     -10.295364      -280.1511
  34   2.0000     -10.291291      -280.0403
  35   2.0000     -10.289121      -279.9812
  36   2.0000     -10.288847      -279.9738
  37   2.0000     -10.288024      -279.9514
  38   2.0000     -10.287720      -279.9431
  39   2.0000     -10.287246      -279.9302
  40   2.0000     -10.282365      -279.7974
  41   2.0000     -10.281671      -279.7785
  42   2.0000     -10.280299      -279.7411
  43   2.0000     -10.278823      -279.7010
  44   2.0000     -10.277994      -279.6784
  45   2.0000     -10.277816      -279.6736
  46   2.0000     -10.276961      -279.6503
  47   2.0000     -10.276289      -279.6320
  48   2.0000     -10.275607      -279.6135
  49   2.0000     -10.275004      -279.5971
  50   2.0000     -10.274349      -279.5793
  51   2.0000     -10.274317      -279.5784
  52   2.0000     -10.272882      -279.5393
  53   2.0000     -10.271768      -279.5090
  54   2.0000     -10.253489      -279.0116
  55   2.0000     -10.252218      -278.9770
  56   2.0000     -10.249254      -278.8964
  57   2.0000     -10.244133      -278.7570
  58   2.0000     -10.239459      -278.6299
  59   2.0000     -10.238427      -278.6018
  60   2.0000     -10.236186      -278.5408
  61   2.0000     -10.227836      -278.3136
  62   2.0000      -8.198270      -223.0863
  63   2.0000      -8.197098      -223.0544
  64   2.0000      -8.054361      -219.1703
  65   2.0000      -8.051585      -219.0948
  66   2.0000      -8.006753      -217.8748
  67   2.0000      -8.006027      -217.8551
  68   2.0000      -6.167513      -167.8266
  69   2.0000      -6.167022      -167.8132
  70   2.0000      -6.166320      -167.7941
  71   2.0000      -6.166130      -167.7889
  72   2.0000      -6.165799      -167.7799
  73   2.0000      -6.165440      -167.7702
  74   2.0000      -6.023383      -163.9046
  75   2.0000      -6.020601      -163.8289
  76   2.0000      -6.019472      -163.7981
  77   2.0000      -6.016871      -163.7274
  78   2.0000      -6.016756      -163.7243
  79   2.0000      -6.014017      -163.6497
  80   2.0000      -5.976938      -162.6408
  81   2.0000      -5.976354      -162.6248
  82   2.0000      -5.974072      -162.5628
  83   2.0000      -5.973254      -162.5405
  84   2.0000      -5.965560      -162.3312
  85   2.0000      -5.964727      -162.3085
  86   2.0000      -1.188877       -32.3510
  87   2.0000      -1.186444       -32.2848
  88   2.0000      -1.103250       -30.0210
  89   2.0000      -1.094071       -29.7712
  90   2.0000      -1.066105       -29.0102
  91   2.0000      -1.063685       -28.9443
  92   2.0000      -1.061000       -28.8713
  93   2.0000      -1.057093       -28.7650
  94   2.0000      -1.051174       -28.6039
  95   2.0000      -1.041055       -28.3285
  96   2.0000      -1.020488       -27.7689
  97   2.0000      -0.956248       -26.0208
  98   2.0000      -0.955334       -25.9960
  99   2.0000      -0.947275       -25.7767
 100   2.0000      -0.944462       -25.7001
 101   2.0000      -0.908775       -24.7290
 102   2.0000      -0.904293       -24.6071
 103   2.0000      -0.899448       -24.4752
 104   2.0000      -0.897007       -24.4088
 105   2.0000      -0.889800       -24.2127
 106   2.0000      -0.882571       -24.0160
 107   2.0000      -0.875908       -23.8347
 108   2.0000      -0.860464       -23.4144
 109   2.0000      -0.854670       -23.2567
 110   2.0000      -0.842216       -22.9179
 111   2.0000      -0.838857       -22.8265
 112   2.0000      -0.834213       -22.7001
 113   2.0000      -0.832090       -22.6423
 114   2.0000      -0.823863       -22.4185
 115   2.0000      -0.820193       -22.3186
 116   2.0000      -0.819534       -22.3007
 117   2.0000      -0.817223       -22.2378
 118   2.0000      -0.793797       -21.6003
 119   2.0000      -0.783867       -21.3301
 120   2.0000      -0.770406       -20.9638
 121   2.0000      -0.769338       -20.9347
 122   2.0000      -0.761375       -20.7181
 123   2.0000      -0.755336       -20.5537
 124   2.0000      -0.744297       -20.2533
 125   2.0000      -0.737094       -20.0573
 126   2.0000      -0.731189       -19.8967
 127   2.0000      -0.717979       -19.5372
 128   2.0000      -0.701826       -19.0977
 129   2.0000      -0.698044       -18.9948
 130   2.0000      -0.694398       -18.8955
 131   2.0000      -0.686529       -18.6814
 132   2.0000      -0.684666       -18.6307
 133   2.0000      -0.678802       -18.4711
 134   2.0000      -0.675258       -18.3747
 135   2.0000      -0.668321       -18.1859
 136   2.0000      -0.665392       -18.1062
 137   2.0000      -0.657431       -17.8896
 138   2.0000      -0.653178       -17.7739
 139   2.0000      -0.650558       -17.7026
 140   2.0000      -0.647222       -17.6118
 141   2.0000      -0.636643       -17.3239
 142   2.0000      -0.623557       -16.9679
 143   2.0000      -0.616010       -16.7625
 144   2.0000      -0.609503       -16.5854
 145   2.0000      -0.607738       -16.5374
 146   2.0000      -0.605797       -16.4846
 147   2.0000      -0.600506       -16.3406
 148   2.0000      -0.593535       -16.1509
 149   2.0000      -0.591763       -16.1027
 150   2.0000      -0.587511       -15.9870
 151   2.0000      -0.582387       -15.8476
 152   2.0000      -0.578527       -15.7425
 153   2.0000      -0.577699       -15.7200
 154   2.0000      -0.573752       -15.6126
 155   2.0000      -0.568188       -15.4612
 156   2.0000      -0.562198       -15.2982
 157   2.0000      -0.553778       -15.0691
 158   2.0000      -0.551701       -15.0125
 159   2.0000      -0.549412       -14.9503
 160   2.0000      -0.544369       -14.8130
 161   2.0000      -0.539532       -14.6814
 162   2.0000      -0.535845       -14.5811
 163   2.0000      -0.533351       -14.5132
 164   2.0000      -0.532487       -14.4897
 165   2.0000      -0.531225       -14.4554
 166   2.0000      -0.528723       -14.3873
 167   2.0000      -0.524786       -14.2802
 168   2.0000      -0.521682       -14.1957
 169   2.0000      -0.521300       -14.1853
 170   2.0000      -0.517309       -14.0767
 171   2.0000      -0.514309       -13.9951
 172   2.0000      -0.513455       -13.9718
 173   2.0000      -0.510248       -13.8846
 174   2.0000      -0.504937       -13.7400
 175   2.0000      -0.503362       -13.6972
 176   2.0000      -0.502447       -13.6723
 177   2.0000      -0.501233       -13.6392
 178   2.0000      -0.500773       -13.6267
 179   2.0000      -0.497527       -13.5384
 180   2.0000      -0.490200       -13.3390
 181   2.0000      -0.488975       -13.3057
 182   2.0000      -0.487062       -13.2536
 183   2.0000      -0.484247       -13.1770
 184   2.0000      -0.481625       -13.1057
 185   2.0000      -0.480251       -13.0683
 186   2.0000      -0.475727       -12.9452
 187   2.0000      -0.474523       -12.9124
 188   2.0000      -0.467593       -12.7238
 189   2.0000      -0.467244       -12.7144
 190   2.0000      -0.464707       -12.6453
 191   2.0000      -0.462312       -12.5802
 192   2.0000      -0.460324       -12.5260
 193   2.0000      -0.457218       -12.4415
 194   2.0000      -0.454872       -12.3777
 195   2.0000      -0.450305       -12.2534
 196   2.0000      -0.448145       -12.1947
 197   2.0000      -0.444601       -12.0982
 198   2.0000      -0.440024       -11.9737
 199   2.0000      -0.439222       -11.9518
 200   2.0000      -0.438733       -11.9385
 201   2.0000      -0.438284       -11.9263
 202   2.0000      -0.433003       -11.7826
 203   2.0000      -0.431865       -11.7516
 204   2.0000      -0.427911       -11.6440
 205   2.0000      -0.426540       -11.6067
 206   2.0000      -0.417835       -11.3699
 207   2.0000      -0.415779       -11.3139
 208   2.0000      -0.413834       -11.2610
 209   2.0000      -0.411304       -11.1921
 210   2.0000      -0.406035       -11.0488
 211   2.0000      -0.403787       -10.9876
 212   2.0000      -0.399116       -10.8605
 213   2.0000      -0.394385       -10.7318
 214   2.0000      -0.391449       -10.6519
 215   2.0000      -0.389055       -10.5867
 216   2.0000      -0.388218       -10.5640
 217   2.0000      -0.385870       -10.5000
 218   2.0000      -0.383432       -10.4337
 219   2.0000      -0.381674       -10.3859
 220   2.0000      -0.371233       -10.1018
 221   2.0000      -0.369776       -10.0621
 222   2.0000      -0.367674       -10.0049
 223   2.0000      -0.366744        -9.9796
 224   2.0000      -0.363304        -9.8860
 225   2.0000      -0.360655        -9.8139
 226   2.0000      -0.355390        -9.6707
 227   2.0000      -0.354530        -9.6473
 228   2.0000      -0.350579        -9.5397
 229   2.0000      -0.347150        -9.4464
 230   2.0000      -0.346205        -9.4207
 231   2.0000      -0.345814        -9.4101
 232   2.0000      -0.337764        -9.1910
 233   2.0000      -0.332553        -9.0492
 234   2.0000      -0.328795        -8.9470
 235   2.0000      -0.324269        -8.8238
 236   2.0000      -0.317151        -8.6301
 237   2.0000      -0.314942        -8.5700
 238   2.0000      -0.303392        -8.2557
 239   2.0000      -0.296384        -8.0650
 240   2.0000      -0.288570        -7.8524
 241   2.0000      -0.287111        -7.8127
 242   2.0000      -0.273417        -7.4401
 243   2.0000      -0.271323        -7.3831
 244   2.0000      -0.253537        -6.8991
 245   2.0000      -0.249243        -6.7822
 246   0.0000      -0.047422        -1.2904
 247   0.0000      -0.034067        -0.9270
 248   0.0000      -0.030935        -0.8418
 249   0.0000       0.023955         0.6518
 250   0.0000       0.025648         0.6979

MULLIKEN ATOMIC CHARGES
-----------------------
   0 C :   -0.038689
   1 N :   -0.049888
   2 C :   -0.002700
   3 C :    0.019320
   4 C :    0.019331
   5 S :    0.771524
   6 O :   -0.460328
   7 O :   -0.459455
   8 C :   -0.012321
   9 C :    0.052913
  10 C :    0.006079
  11 C :    0.072678
  12 C :   -0.117341
  13 N :   -0.043895
  14 C :   -0.048485
  15 C :   -0.058652
  16 S :    0.149295
  17 C :   -0.142007
  18 C :    0.102095
  19 C :   -0.151217
  20 C :    0.056396
  21 C :    0.038233
  22 C :    0.038726
  23 C :    0.042169
  24 N :   -0.273950
  25 C :    0.109655
  26 S :   -0.027743
  27 C :    0.123362
  28 C :   -0.029318
  29 C :    0.076094
  30 C :   -0.025732
  31 N :   -0.034415
  32 C :   -0.056712
  33 C :    0.006678
  34 C :    0.073651
  35 C :   -0.112171
  36 N :   -0.030935
  37 C :   -0.024836
  38 C :   -0.067567
  39 S :    0.128026
  40 C :   -0.113056
  41 C :    0.048603
  42 C :   -0.172791
  43 C :    0.063014
  44 C :    0.050769
  45 C :    0.039294
  46 C :    0.030434
  47 N :   -0.271384
  48 C :    0.107510
  49 S :   -0.013270
  50 C :   -0.031848
  51 N :   -0.028020
  52 C :   -0.006280
  53 C :    0.030204
  54 C :   -0.040337
  55 S :    0.804895
  56 O :   -0.452503
  57 O :   -0.443697
  58 C :   -0.078960
  59 C :    0.045473
  60 C :    0.063503
  61 C :   -0.014278
  62 H :    0.014218
  63 H :    0.137259
  64 H :   -0.000348
  65 H :   -0.009888
  66 H :    0.002384
  67 H :    0.011651
  68 H :    0.065943
  69 H :    0.019012
  70 H :    0.008019
  71 H :   -0.018080
  72 H :    0.005718
  73 H :    0.020308
  74 H :    0.007269
  75 H :    0.015129
  76 H :   -0.009139
  77 H :    0.003131
  78 H :    0.027288
  79 H :    0.012224
  80 H :    0.051745
  81 H :    0.044902
  82 H :   -0.015838
  83 H :   -0.009749
  84 H :   -0.010976
  85 H :    0.001928
  86 H :   -0.014034
  87 H :    0.056996
  88 H :    0.039640
  89 H :   -0.017900
  90 H :    0.007832
  91 H :   -0.010014
  92 H :    0.004746
  93 H :    0.004629
  94 H :    0.026654
  95 H :   -0.000626
  96 H :   -0.006400
  97 H :    0.001861
  98 H :    0.024421
  99 H :    0.058381
 100 H :    0.042943
 101 H :    0.132195
 102 H :   -0.005973
 103 H :   -0.014874
 104 H :    0.009298
 105 H :    0.016302
 106 H :    0.034669
Sum of atomic charges:   -0.0000000

LOEWDIN ATOMIC CHARGES
----------------------
   0 C :    0.005862
   1 N :    0.102250
   2 C :   -0.006625
   3 C :   -0.090273
   4 C :   -0.218980
   5 S :    1.176471
   6 O :   -0.503448
   7 O :   -0.502786
   8 C :   -0.156130
   9 C :   -0.003744
  10 C :   -0.011888
  11 C :   -0.044791
  12 C :   -0.121272
  13 N :   -0.090461
  14 C :   -0.029394
  15 C :   -0.219311
  16 S :    0.434147
  17 C :   -0.134121
  18 C :    0.032819
  19 C :   -0.043555
  20 C :   -0.020669
  21 C :   -0.055220
  22 C :   -0.026526
  23 C :   -0.058757
  24 N :   -0.088330
  25 C :   -0.043645
  26 S :    0.205106
  27 C :    0.001881
  28 C :   -0.012899
  29 C :   -0.043237
  30 C :    0.007244
  31 N :   -0.058365
  32 C :   -0.014120
  33 C :    0.011772
  34 C :   -0.053309
  35 C :   -0.117564
  36 N :   -0.086826
  37 C :   -0.019034
  38 C :   -0.220044
  39 S :    0.420932
  40 C :   -0.133771
  41 C :    0.029355
  42 C :   -0.041790
  43 C :   -0.020065
  44 C :   -0.062869
  45 C :   -0.031623
  46 C :   -0.061791
  47 N :   -0.106404
  48 C :   -0.050494
  49 S :    0.219189
  50 C :    0.027046
  51 N :    0.096873
  52 C :   -0.006556
  53 C :   -0.086609
  54 C :   -0.245946
  55 S :    1.180302
  56 O :   -0.498391
  57 O :   -0.489737
  58 C :   -0.163779
  59 C :    0.004168
  60 C :   -0.035577
  61 C :   -0.023357
  62 H :    0.030712
  63 H :    0.096601
  64 H :    0.024887
  65 H :    0.036648
  66 H :    0.040942
  67 H :    0.027228
  68 H :    0.028131
  69 H :    0.015009
  70 H :    0.022779
  71 H :    0.017402
  72 H :    0.020161
  73 H :    0.024602
  74 H :    0.023877
  75 H :    0.025638
  76 H :    0.019610
  77 H :    0.020098
  78 H :    0.023087
  79 H :    0.028736
  80 H :    0.023437
  81 H :    0.011183
  82 H :    0.030209
  83 H :    0.016244
  84 H :    0.018226
  85 H :    0.035196
  86 H :    0.027495
  87 H :    0.025075
  88 H :    0.014746
  89 H :    0.017243
  90 H :    0.025567
  91 H :    0.010409
  92 H :    0.019621
  93 H :    0.022869
  94 H :    0.026100
  95 H :    0.015030
  96 H :    0.012694
  97 H :    0.022788
  98 H :    0.021657
  99 H :    0.024332
 100 H :    0.010297
 101 H :    0.094623
 102 H :    0.024019
 103 H :    0.035035
 104 H :    0.036097
 105 H :    0.021605
 106 H :    0.030723

  Mayer bond orders larger than 0.100000
B(  0-C ,  1-N ) :   1.2409 B(  0-C ,  4-C ) :   1.5435 B(  0-C , 62-H ) :   0.9997
B(  1-N ,  2-C ) :   1.2306 B(  1-N , 63-H ) :   0.9395 B(  2-C ,  3-C ) :   1.4581
B(  2-C , 64-H ) :   0.9887 B(  3-C ,  4-C ) :   1.3234 B(  3-C ,  9-C ) :   1.0504
B(  4-C ,  5-S ) :   0.7794 B(  5-S ,  6-O ) :   1.7089 B(  5-S ,  7-O ) :   1.7048
B(  5-S ,  8-C ) :   0.8227 B(  8-C ,  9-C ) :   1.6614 B(  8-C , 10-C ) :   1.1694
B(  9-C , 65-H ) :   0.9989 B( 10-C , 11-C ) :   1.6884 B( 10-C , 66-H ) :   0.9882
B( 11-C , 12-C ) :   1.0996 B( 11-C , 67-H ) :   0.9317 B( 12-C , 13-N ) :   1.6705
B( 12-C , 16-S ) :   1.1000 B( 13-N , 14-C ) :   1.3694 B( 13-N , 16-S ) :   0.1026
B( 14-C , 15-C ) :   1.5430 B( 14-C , 19-C ) :   0.9580 B( 15-C , 16-S ) :   1.1186
B( 15-C , 17-C ) :   1.0421 B( 17-C , 18-C ) :   0.9737 B( 17-C , 26-S ) :   1.0003
B( 17-C , 68-H ) :   0.8792 B( 18-C , 19-C ) :   0.9710 B( 18-C , 24-N ) :   1.0195
B( 18-C , 69-H ) :   0.9156 B( 19-C , 20-C ) :   1.0105 B( 19-C , 22-C ) :   1.0379
B( 20-C , 21-C ) :   1.1118 B( 20-C , 70-H ) :   0.9328 B( 20-C , 71-H ) :   0.9350
B( 21-C , 72-H ) :   0.9598 B( 21-C , 73-H ) :   0.9582 B( 21-C , 74-H ) :   0.9634
B( 22-C , 23-C ) :   1.1140 B( 22-C , 75-H ) :   0.9282 B( 22-C , 76-H ) :   0.9341
B( 23-C , 77-H ) :   0.9491 B( 23-C , 78-H ) :   0.9598 B( 23-C , 79-H ) :   0.9592
B( 24-N , 25-C ) :   0.9771 B( 24-N , 27-C ) :   1.0449 B( 25-C , 26-S ) :   1.0048
B( 25-C , 80-H ) :   0.9477 B( 25-C , 81-H ) :   0.9499 B( 27-C , 28-C ) :   1.3685
B( 27-C , 32-C ) :   1.3282 B( 28-C , 29-C ) :   1.3624 B( 28-C , 82-H ) :   0.9934
B( 29-C , 30-C ) :   1.3139 B( 29-C , 33-C ) :   1.0459 B( 30-C , 31-N ) :   1.5948
B( 30-C , 83-H ) :   0.9818 B( 31-N , 32-C ) :   1.5451 B( 32-C , 84-H ) :   0.9890
B( 33-C , 34-C ) :   1.7387 B( 33-C , 85-H ) :   0.9880 B( 34-C , 35-C ) :   1.0825
B( 34-C , 86-H ) :   0.9456 B( 35-C , 36-N ) :   1.6846 B( 35-C , 39-S ) :   1.0957
B( 36-N , 37-C ) :   1.3908 B( 36-N , 39-S ) :   0.1016 B( 37-C , 38-C ) :   1.5601
B( 37-C , 42-C ) :   0.9607 B( 38-C , 39-S ) :   1.1099 B( 38-C , 40-C ) :   1.0470
B( 40-C , 41-C ) :   0.9733 B( 40-C , 49-S ) :   1.0071 B( 40-C , 87-H ) :   0.8744
B( 41-C , 42-C ) :   0.9752 B( 41-C , 47-N ) :   1.0046 B( 41-C , 88-H ) :   0.9143
B( 42-C , 43-C ) :   1.0065 B( 42-C , 45-C ) :   1.0485 B( 43-C , 44-C ) :   1.1056
B( 43-C , 89-H ) :   0.9358 B( 43-C , 90-H ) :   0.9353 B( 44-C , 91-H ) :   0.9543
B( 44-C , 92-H ) :   0.9609 B( 44-C , 93-H ) :   0.9595 B( 45-C , 46-C ) :   1.1007
B( 45-C , 94-H ) :   0.9203 B( 45-C , 95-H ) :   0.9341 B( 46-C , 96-H ) :   0.9586
B( 46-C , 97-H ) :   0.9596 B( 46-C , 98-H ) :   0.9573 B( 47-N , 48-C ) :   0.9514
B( 47-N , 50-C ) :   1.1149 B( 48-C , 49-S ) :   1.0151 B( 48-C , 99-H ) :   0.9479
B( 48-C ,100-H ) :   0.9560 B( 50-C , 51-N ) :   1.2621 B( 50-C , 54-C ) :   1.5472
B( 51-N , 52-C ) :   1.1989 B( 51-N ,101-H ) :   0.9287 B( 52-C , 53-C ) :   1.4753
B( 52-C ,102-H ) :   0.9895 B( 53-C , 54-C ) :   1.3090 B( 53-C , 59-C ) :   1.0555
B( 54-C , 55-S ) :   0.7971 B( 55-S , 56-O ) :   1.7378 B( 55-S , 57-O ) :   1.6678
B( 55-S , 58-C ) :   0.8392 B( 58-C , 59-C ) :   1.7232 B( 58-C , 60-C ) :   1.0977
B( 59-C ,103-H ) :   0.9931 B( 60-C , 61-C ) :   1.9509 B( 60-C ,104-H ) :   0.9472
B( 61-C ,105-H ) :   0.9549 B( 61-C ,106-H ) :   0.9501

-----------------------------------------------------------------------------
         ABSORPTION SPECTRUM VIA TRANSITION ELECTRIC DIPOLE MOMENTS
-----------------------------------------------------------------------------
State   Energy  Wavelength   fosc         T2         TX        TY        TZ
        (cm-1)    (nm)                  (au**2)     (au)      (au)      (au)
-----------------------------------------------------------------------------
   0   28426.9    351.8   1.680091223  19.45715  -2.80313   3.23070   1.07803
   1   31177.6    320.7   0.799761231   8.44487   1.52758  -1.04892  -2.23856
   2   33459.3    298.9   0.255674379   2.51562   1.07309   0.03064  -1.16755
   3   34346.8    291.1   0.010132088   0.09712   0.09307  -0.29298  -0.05116
   4   34612.4    288.9   0.505969257   4.81247  -1.53275   1.48448  -0.50940
   5   36054.3    277.4   0.005830432   0.05324  -0.19477   0.10351  -0.06775
   6   36850.4    271.4   0.005713264   0.05104  -0.17934   0.02204   0.13561
   7   36957.7    270.6   0.026160177   0.23303  -0.28003   0.38943   0.05436
   8   37851.7    264.2   0.002721146   0.02367  -0.12391   0.06041   0.06830
   9   38483.3    259.9   0.017479097   0.14953  -0.17026   0.14384   0.31599
  10   38516.5    259.6   0.001855825   0.01586  -0.10774   0.04043  -0.05118
  11   38683.4    258.5   0.136505730   1.16172   0.74924  -0.51913   0.57522
  12   39019.3    256.3   0.033644291   0.28386  -0.43937   0.13186   0.27098
  13   39230.2    254.9   0.004619638   0.03877  -0.15247  -0.07529   0.09925
  14   39525.8    253.0   0.013473769   0.11222  -0.18920  -0.16299   0.22330

FINAL SINGLE POINT ENERGY     -4811.121427625228

DIPOLE MOMENT
-------------
                                X             Y             Z
Electronic contribution:    -13.74165      23.47280      31.23519
Nuclear contribution   :     12.72161     -23.93489     -32.85742
                        -----------------------------------------
Total Dipole Moment    :     -1.02004      -0.46209      -1.62222
                        -----------------------------------------
Magnitude (a.u.)       :      1.97120
Magnitude (Debye)      :      5.01038

Rotational constants in cm-1:     0.002465     0.000250     0.000241
Rotational constants in MHz :    73.900516     7.491385     7.223087

                             ****ORCA TERMINATED NORMALLY****
TOTAL RUN TIME: 0 days 0 hours 8 minutes 21 seconds 183 msec
