                         Program Version 4.2.0 -  RELEASE  -
|  1> # ORCA input file
|  2> # SCF done       -193.706581566754          0.000564124703
|  3> ! CAM-B3LYP def2-SVP def2/J RIJCOSX Grid4 TightSCF
|  4> %maxcore 5000
|  5> %tddft
|  6>     Mode sTDDFT
|  7>     Ethresh 5.0
|  8>     maxcore 5000
|  9> end
| 10>
| 11> %pal
| 12>   nprocs 6
| 13>   end
| 14> * xyz 0 1
| 15>    C       -0.14577        -0.52706        -2.54399
| 16>    S        0.99844         0.63870        -3.01739
| 17>    C        1.63435        -0.38233        -4.26699
| 18>    C        0.98495        -1.61393        -4.28506
| 19>    C       -0.05579        -1.68089        -3.28598
| 20>    C       -0.89374        -2.83341        -3.16554
| 21>    C       -1.92543        -2.88651        -2.13959
| 22>    C       -3.04291        -3.59955        -2.21771
| 23>    C       -0.67071        -3.86586        -4.03826
| 24>    C        0.33725        -3.80257        -5.01424
| 25>    C        1.16534        -2.72297        -5.16360
| 26>    C        2.21784        -2.76543        -6.22243
| 27>    C        2.70700         0.16217        -5.06494
| 28>    S        4.26661        -0.62880        -5.10398
| 29>    C        4.91095         0.59320        -6.10963
| 30>    C        4.00255         1.57190        -6.38104
| 31>    C        2.74019         1.34136        -5.76804
| 32>    C        1.65957         2.38198        -5.92078
| 33>    C        1.83470         3.08064        -7.27992
| 34>    C        3.18734         3.77831        -7.31227
| 35>    C        4.32872         2.77009        -7.23111
| 36>    N        5.52805         3.38777        -6.59304
| 37>    O        5.35357         4.10537        -5.64148
| 38>    O        6.60082         3.07627        -7.04887
| 39>    N        0.30154         1.93226        -5.71459
| 40>    C       -0.27115         0.80152        -6.19360
| 41>    C        0.17525        -0.02539        -7.15897
| 42>    C       -0.52654        -1.22270        -7.49835
| 43>    S       -1.92361        -1.73621        -6.58672
| 44>    C       -2.10611        -3.13695        -7.56127
| 45>    C       -1.15860        -3.20822        -8.53618
| 46>    C       -0.24202        -2.12785        -8.49760
| 47>    C        0.85773        -1.95841        -9.50495
| 48>    C        1.06672        -3.23629       -10.33265
| 49>    C       -0.25088        -3.87239       -10.75893
| 50>    C       -1.06638        -4.31213        -9.53620
| 51>    N       -0.38227        -5.49024        -8.93400
| 52>    O        0.51024        -5.28436        -8.14715
| 53>    O       -0.75250        -6.57874        -9.29863
| 54>    N        0.55777        -0.82265       -10.36264
| 55>    C        1.38875         0.24251       -10.46367
| 56>    C        1.04006         1.46324       -10.91353
| 57>    C        1.96421         2.54192       -11.04154
| 58>    S        3.66299         2.31840       -10.70668
| 59>    C        3.98799         3.98486       -10.97195
| 60>    C        2.86351         4.67161       -11.31375
| 61>    C        1.70770         3.85135       -11.37891
| 62>    C        0.35863         4.38237       -11.78129
| 63>    C        0.47538         5.81743       -12.32842
| 64>    C        1.38512         6.66524       -11.44965
| 65>    C        2.82428         6.15099       -11.54790
| 66>    N        3.61708         6.83212       -10.49350
| 67>    O        3.39752         6.50902        -9.34962
| 68>    O        4.40522         7.67291       -10.84396
| 69>    N       -0.29584         3.49339       -12.72273
| 70>    C        0.26447         3.08902       -13.90955
| 71>    C        1.52682         3.27646       -14.32653
| 72>    C        2.02804         2.77952       -15.57964
| 73>    S        3.02638         3.85925       -16.50465
| 74>    C        3.06017         2.80578       -17.84779
| 75>    C        2.35369         1.65075       -17.61279
| 76>    C        1.78870         1.60784       -16.28674
| 77>    C        1.14835         0.40684       -15.84600
| 78>    C        0.80384         0.19493       -14.44460
| 79>    C       -0.18643        -0.57300       -14.00788
| 80>    C        0.98068        -0.59981       -16.76307
| 81>    C        1.44801        -0.50569       -18.08911
| 82>    C        2.15516         0.57458       -18.52600
| 83>    C        2.72566         0.65587       -19.90620
| 84>    H       -0.82208        -0.29411        -1.74692
| 85>    H       -1.74455        -2.28477        -1.25873
| 86>    H       -3.28770        -4.18823        -3.08534
| 87>    H       -3.76401        -3.60719        -1.41870
| 88>    H       -1.26647        -4.76304        -3.96941
| 89>    H        0.46268        -4.64380        -5.68029
| 90>    H        1.97463        -3.54166        -6.94336
| 91>    H        3.18686        -3.00095        -5.78229
| 92>    H        2.29980        -1.80941        -6.73182
| 93>    H        5.92795         0.53090        -6.44422
| 94>    H        1.84176         3.13881        -5.14486
| 95>    H        1.04028         3.81635        -7.40592
| 96>    H        1.75743         2.35743        -8.09246
| 97>    H        3.26148         4.45345        -6.45625
| 98>    H        3.28486         4.38045        -8.21582
| 99>    H        4.65462         2.43705        -8.22229
|100>    H       -0.18579         2.37563        -4.95548
|101>    H       -1.22129         0.57031        -5.72662
|102>    H        1.09481         0.17277        -7.68584
|103>    H       -2.90879        -3.81936        -7.36575
|104>    H        1.80026        -1.73555        -8.99339
|105>    H        1.64208        -3.94394        -9.73353
|106>    H        1.65434        -2.98500       -11.21647
|107>    H       -0.06497        -4.73454       -11.40301
|108>    H       -0.84580        -3.15307       -11.32448
|109>    H       -2.05443        -4.66919        -9.84345
|110>    H       -0.42273        -0.63882       -10.51887
|111>    H        2.41622         0.04174       -10.18593
|112>    H        0.01838         1.66964       -11.19200
|113>    H        4.98700         4.35446       -10.85166
|114>    H       -0.28172         4.40149       -10.88656
|115>    H       -0.51869         6.26617       -12.37095
|116>    H        0.87100         5.78267       -13.34486
|117>    H        1.05842         6.59566       -10.40846
|118>    H        1.34505         7.71121       -11.75898
|119>    H        3.27396         6.42833       -12.50814
|120>    H       -1.30098         3.56628       -12.73599
|121>    H       -0.41230         2.50769       -14.52105
|122>    H        2.20543         3.91403       -13.78154
|123>    H        3.58846         3.09994       -18.73135
|124>    H        1.44195         0.69426       -13.72764
|125>    H       -0.87253        -1.06455       -14.67762
|126>    H       -0.34901        -0.72693       -12.95535
|127>    H        0.52055        -1.52522       -16.45038
|128>    H        1.27410        -1.33843       -18.75603
|129>    H        2.46866        -0.23079       -20.48030
|130>    H        3.81131         0.74159       -19.86378
|131>    H        2.34222         1.53349       -20.42627
|132> *
|133>
|134>                          ****END OF INPUT****

CARTESIAN COORDINATES (ANGSTROEM)
---------------------------------
  C     -0.145770   -0.527060   -2.543990
  S      0.998440    0.638700   -3.017390
  C      1.634350   -0.382330   -4.266990
  C      0.984950   -1.613930   -4.285060
  C     -0.055790   -1.680890   -3.285980
  C     -0.893740   -2.833410   -3.165540
  C     -1.925430   -2.886510   -2.139590
  C     -3.042910   -3.599550   -2.217710
  C     -0.670710   -3.865860   -4.038260
  C      0.337250   -3.802570   -5.014240
  C      1.165340   -2.722970   -5.163600
  C      2.217840   -2.765430   -6.222430
  C      2.707000    0.162170   -5.064940
  S      4.266610   -0.628800   -5.103980
  C      4.910950    0.593200   -6.109630
  C      4.002550    1.571900   -6.381040
  C      2.740190    1.341360   -5.768040
  C      1.659570    2.381980   -5.920780
  C      1.834700    3.080640   -7.279920
  C      3.187340    3.778310   -7.312270
  C      4.328720    2.770090   -7.231110
  N      5.528050    3.387770   -6.593040
  O      5.353570    4.105370   -5.641480
  O      6.600820    3.076270   -7.048870
  N      0.301540    1.932260   -5.714590
  C     -0.271150    0.801520   -6.193600
  C      0.175250   -0.025390   -7.158970
  C     -0.526540   -1.222700   -7.498350
  S     -1.923610   -1.736210   -6.586720
  C     -2.106110   -3.136950   -7.561270
  C     -1.158600   -3.208220   -8.536180
  C     -0.242020   -2.127850   -8.497600
  C      0.857730   -1.958410   -9.504950
  C      1.066720   -3.236290  -10.332650
  C     -0.250880   -3.872390  -10.758930
  C     -1.066380   -4.312130   -9.536200
  N     -0.382270   -5.490240   -8.934000
  O      0.510240   -5.284360   -8.147150
  O     -0.752500   -6.578740   -9.298630
  N      0.557770   -0.822650  -10.362640
  C      1.388750    0.242510  -10.463670
  C      1.040060    1.463240  -10.913530
  C      1.964210    2.541920  -11.041540
  S      3.662990    2.318400  -10.706680
  C      3.987990    3.984860  -10.971950
  C      2.863510    4.671610  -11.313750
  C      1.707700    3.851350  -11.378910
  C      0.358630    4.382370  -11.781290
  C      0.475380    5.817430  -12.328420
  C      1.385120    6.665240  -11.449650
  C      2.824280    6.150990  -11.547900
  N      3.617080    6.832120  -10.493500
  O      3.397520    6.509020   -9.349620
  O      4.405220    7.672910  -10.843960
  N     -0.295840    3.493390  -12.722730
  C      0.264470    3.089020  -13.909550
  C      1.526820    3.276460  -14.326530
  C      2.028040    2.779520  -15.579640
  S      3.026380    3.859250  -16.504650
  C      3.060170    2.805780  -17.847790
  C      2.353690    1.650750  -17.612790
  C      1.788700    1.607840  -16.286740
  C      1.148350    0.406840  -15.846000
  C      0.803840    0.194930  -14.444600
  C     -0.186430   -0.573000  -14.007880
  C      0.980680   -0.599810  -16.763070
  C      1.448010   -0.505690  -18.089110
  C      2.155160    0.574580  -18.526000
  C      2.725660    0.655870  -19.906200
  H     -0.822080   -0.294110   -1.746920
  H     -1.744550   -2.284770   -1.258730
  H     -3.287700   -4.188230   -3.085340
  H     -3.764010   -3.607190   -1.418700
  H     -1.266470   -4.763040   -3.969410
  H      0.462680   -4.643800   -5.680290
  H      1.974630   -3.541660   -6.943360
  H      3.186860   -3.000950   -5.782290
  H      2.299800   -1.809410   -6.731820
  H      5.927950    0.530900   -6.444220
  H      1.841760    3.138810   -5.144860
  H      1.040280    3.816350   -7.405920
  H      1.757430    2.357430   -8.092460
  H      3.261480    4.453450   -6.456250
  H      3.284860    4.380450   -8.215820
  H      4.654620    2.437050   -8.222290
  H     -0.185790    2.375630   -4.955480
  H     -1.221290    0.570310   -5.726620
  H      1.094810    0.172770   -7.685840
  H     -2.908790   -3.819360   -7.365750
  H      1.800260   -1.735550   -8.993390
  H      1.642080   -3.943940   -9.733530
  H      1.654340   -2.985000  -11.216470
  H     -0.064970   -4.734540  -11.403010
  H     -0.845800   -3.153070  -11.324480
  H     -2.054430   -4.669190   -9.843450
  H     -0.422730   -0.638820  -10.518870
  H      2.416220    0.041740  -10.185930
  H      0.018380    1.669640  -11.192000
  H      4.987000    4.354460  -10.851660
  H     -0.281720    4.401490  -10.886560
  H     -0.518690    6.266170  -12.370950
  H      0.871000    5.782670  -13.344860
  H      1.058420    6.595660  -10.408460
  H      1.345050    7.711210  -11.758980
  H      3.273960    6.428330  -12.508140
  H     -1.300980    3.566280  -12.735990
  H     -0.412300    2.507690  -14.521050
  H      2.205430    3.914030  -13.781540
  H      3.588460    3.099940  -18.731350
  H      1.441950    0.694260  -13.727640
  H     -0.872530   -1.064550  -14.677620
  H     -0.349010   -0.726930  -12.955350
  H      0.520550   -1.525220  -16.450380
  H      1.274100   -1.338430  -18.756030
  H      2.468660   -0.230790  -20.480300
  H      3.811310    0.741590  -19.863780
  H      2.342220    1.533490  -20.426270

 Total Charge           Charge          ....    0
 Multiplicity           Mult            ....    1
 Number of Electrons    NEL             ....  530
 Basis Dimension        Dim             .... 1226

ORBITAL ENERGIES
----------------

  NO   OCC          E(Eh)            E(eV)
   0   2.0000     -88.961368     -2420.7619
   1   2.0000     -88.955002     -2420.5887
   2   2.0000     -88.954759     -2420.5821
   3   2.0000     -88.947763     -2420.3917
   4   2.0000     -88.943833     -2420.2847
   5   2.0000     -19.247036      -523.7385
   6   2.0000     -19.246706      -523.7295
   7   2.0000     -19.245976      -523.7096
   8   2.0000     -19.244249      -523.6626
   9   2.0000     -19.234527      -523.3981
  10   2.0000     -19.233938      -523.3821
  11   2.0000     -14.642243      -398.4357
  12   2.0000     -14.641550      -398.4168
  13   2.0000     -14.630110      -398.1055
  14   2.0000     -14.433205      -392.7475
  15   2.0000     -14.429710      -392.6524
  16   2.0000     -14.428671      -392.6241
  17   2.0000     -10.333839      -281.1981
  18   2.0000     -10.332150      -281.1521
  19   2.0000     -10.321459      -280.8612
  20   2.0000     -10.320713      -280.8409
  21   2.0000     -10.319624      -280.8113
  22   2.0000     -10.315879      -280.7093
  23   2.0000     -10.314210      -280.6639
  24   2.0000     -10.312525      -280.6181
  25   2.0000     -10.304350      -280.3956
  26   2.0000     -10.301528      -280.3188
  27   2.0000     -10.300294      -280.2852
  28   2.0000     -10.299292      -280.2580
  29   2.0000     -10.297065      -280.1974
  30   2.0000     -10.292365      -280.0695
  31   2.0000     -10.290430      -280.0168
  32   2.0000     -10.290344      -280.0145
  33   2.0000     -10.289593      -279.9941
  34   2.0000     -10.288086      -279.9531
  35   2.0000     -10.287402      -279.9344
  36   2.0000     -10.286120      -279.8996
  37   2.0000     -10.284189      -279.8470
  38   2.0000     -10.282848      -279.8105
  39   2.0000     -10.282496      -279.8010
  40   2.0000     -10.280609      -279.7496
  41   2.0000     -10.278892      -279.7029
  42   2.0000     -10.274164      -279.5742
  43   2.0000     -10.272480      -279.5284
  44   2.0000     -10.271453      -279.5004
  45   2.0000     -10.271283      -279.4958
  46   2.0000     -10.269918      -279.4587
  47   2.0000     -10.267954      -279.4052
  48   2.0000     -10.266983      -279.3788
  49   2.0000     -10.266711      -279.3714
  50   2.0000     -10.266603      -279.3685
  51   2.0000     -10.265965      -279.3511
  52   2.0000     -10.264818      -279.3199
  53   2.0000     -10.262805      -279.2651
  54   2.0000     -10.262663      -279.2613
  55   2.0000     -10.259965      -279.1878
  56   2.0000     -10.259559      -279.1768
  57   2.0000     -10.258829      -279.1569
  58   2.0000     -10.257641      -279.1246
  59   2.0000     -10.256675      -279.0983
  60   2.0000     -10.255640      -279.0702
  61   2.0000     -10.254273      -279.0330
  62   2.0000     -10.254165      -279.0300
  63   2.0000     -10.252011      -278.9714
  64   2.0000     -10.251417      -278.9552
  65   2.0000     -10.251174      -278.9486
  66   2.0000     -10.250766      -278.9375
  67   2.0000     -10.249780      -278.9107
  68   2.0000     -10.245682      -278.7992
  69   2.0000      -8.056550      -219.2299
  70   2.0000      -8.050096      -219.0543
  71   2.0000      -8.049873      -219.0482
  72   2.0000      -8.042905      -218.8586
  73   2.0000      -8.039547      -218.7672
  74   2.0000      -6.025489      -163.9619
  75   2.0000      -6.021244      -163.8464
  76   2.0000      -6.019617      -163.8021
  77   2.0000      -6.019388      -163.7959
  78   2.0000      -6.019147      -163.7893
  79   2.0000      -6.015070      -163.6784
  80   2.0000      -6.015057      -163.6780
  81   2.0000      -6.012359      -163.6046
  82   2.0000      -6.012198      -163.6002
  83   2.0000      -6.012146      -163.5988
  84   2.0000      -6.008487      -163.4992
  85   2.0000      -6.008020      -163.4865
  86   2.0000      -6.005151      -163.4085
  87   2.0000      -6.004334      -163.3862
  88   2.0000      -6.002513      -163.3367
  89   2.0000      -1.326158       -36.0866
  90   2.0000      -1.326007       -36.0825
  91   2.0000      -1.314870       -35.7794
  92   2.0000      -1.146619       -31.2011
  93   2.0000      -1.146412       -31.1955
  94   2.0000      -1.135641       -30.9024
  95   2.0000      -1.039081       -28.2748
  96   2.0000      -1.037524       -28.2325
  97   2.0000      -1.033252       -28.1162
  98   2.0000      -0.994242       -27.0547
  99   2.0000      -0.987955       -26.8836
 100   2.0000      -0.984267       -26.7833
 101   2.0000      -0.980216       -26.6730
 102   2.0000      -0.974395       -26.5146
 103   2.0000      -0.944473       -25.7004
 104   2.0000      -0.941413       -25.6172
 105   2.0000      -0.933477       -25.4012
 106   2.0000      -0.921868       -25.0853
 107   2.0000      -0.916178       -24.9305
 108   2.0000      -0.892433       -24.2843
 109   2.0000      -0.888993       -24.1907
 110   2.0000      -0.886842       -24.1322
 111   2.0000      -0.885170       -24.0867
 112   2.0000      -0.880160       -23.9504
 113   2.0000      -0.860595       -23.4180
 114   2.0000      -0.851165       -23.1614
 115   2.0000      -0.847171       -23.0527
 116   2.0000      -0.843009       -22.9394
 117   2.0000      -0.832979       -22.6665
 118   2.0000      -0.829082       -22.5605
 119   2.0000      -0.828544       -22.5458
 120   2.0000      -0.823526       -22.4093
 121   2.0000      -0.817589       -22.2477
 122   2.0000      -0.816109       -22.2074
 123   2.0000      -0.807422       -21.9711
 124   2.0000      -0.792739       -21.5715
 125   2.0000      -0.789743       -21.4900
 126   2.0000      -0.783936       -21.3320
 127   2.0000      -0.782180       -21.2842
 128   2.0000      -0.764331       -20.7985
 129   2.0000      -0.759018       -20.6539
 130   2.0000      -0.756060       -20.5734
 131   2.0000      -0.746215       -20.3055
 132   2.0000      -0.745457       -20.2849
 133   2.0000      -0.712387       -19.3850
 134   2.0000      -0.701639       -19.0926
 135   2.0000      -0.700279       -19.0556
 136   2.0000      -0.698005       -18.9937
 137   2.0000      -0.691887       -18.8272
 138   2.0000      -0.690086       -18.7782
 139   2.0000      -0.686096       -18.6696
 140   2.0000      -0.683676       -18.6038
 141   2.0000      -0.679450       -18.4888
 142   2.0000      -0.675853       -18.3909
 143   2.0000      -0.674822       -18.3629
 144   2.0000      -0.671621       -18.2757
 145   2.0000      -0.661217       -17.9926
 146   2.0000      -0.653560       -17.7843
 147   2.0000      -0.652418       -17.7532
 148   2.0000      -0.649118       -17.6634
 149   2.0000      -0.643959       -17.5230
 150   2.0000      -0.638423       -17.3724
 151   2.0000      -0.635167       -17.2838
 152   2.0000      -0.634121       -17.2553
 153   2.0000      -0.630860       -17.1666
 154   2.0000      -0.627115       -17.0647
 155   2.0000      -0.623126       -16.9561
 156   2.0000      -0.618772       -16.8376
 157   2.0000      -0.616774       -16.7833
 158   2.0000      -0.615178       -16.7399
 159   2.0000      -0.611140       -16.6300
 160   2.0000      -0.603753       -16.4289
 161   2.0000      -0.601462       -16.3666
 162   2.0000      -0.598112       -16.2755
 163   2.0000      -0.591305       -16.0902
 164   2.0000      -0.589501       -16.0411
 165   2.0000      -0.585458       -15.9311
 166   2.0000      -0.583579       -15.8800
 167   2.0000      -0.579434       -15.7672
 168   2.0000      -0.576179       -15.6786
 169   2.0000      -0.570911       -15.5353
 170   2.0000      -0.570656       -15.5283
 171   2.0000      -0.559857       -15.2345
 172   2.0000      -0.554542       -15.0899
 173   2.0000      -0.547601       -14.9010
 174   2.0000      -0.545084       -14.8325
 175   2.0000      -0.541799       -14.7431
 176   2.0000      -0.537962       -14.6387
 177   2.0000      -0.533779       -14.5249
 178   2.0000      -0.533231       -14.5100
 179   2.0000      -0.529162       -14.3992
 180   2.0000      -0.527144       -14.3443
 181   2.0000      -0.525313       -14.2945
 182   2.0000      -0.524235       -14.2652
 183   2.0000      -0.519068       -14.1245
 184   2.0000      -0.517540       -14.0830
 185   2.0000      -0.516253       -14.0480
 186   2.0000      -0.513672       -13.9777
 187   2.0000      -0.511608       -13.9216
 188   2.0000      -0.509573       -13.8662
 189   2.0000      -0.502396       -13.6709
 190   2.0000      -0.501160       -13.6373
 191   2.0000      -0.496549       -13.5118
 192   2.0000      -0.495682       -13.4882
 193   2.0000      -0.491643       -13.3783
 194   2.0000      -0.491060       -13.3624
 195   2.0000      -0.489629       -13.3235
 196   2.0000      -0.488711       -13.2985
 197   2.0000      -0.487677       -13.2704
 198   2.0000      -0.485143       -13.2014
 199   2.0000      -0.482995       -13.1430
 200   2.0000      -0.481965       -13.1149
 201   2.0000      -0.481004       -13.0888
 202   2.0000      -0.473944       -12.8967
 203   2.0000      -0.468325       -12.7438
 204   2.0000      -0.467553       -12.7228
 205   2.0000      -0.466353       -12.6901
 206   2.0000      -0.464944       -12.6518
 207   2.0000      -0.462665       -12.5898
 208   2.0000      -0.460086       -12.5196
 209   2.0000      -0.456918       -12.4334
 210   2.0000      -0.455253       -12.3881
 211   2.0000      -0.454309       -12.3624
 212   2.0000      -0.449031       -12.2188
 213   2.0000      -0.448430       -12.2024
 214   2.0000      -0.447669       -12.1817
 215   2.0000      -0.440215       -11.9788
 216   2.0000      -0.439260       -11.9529
 217   2.0000      -0.437819       -11.9137
 218   2.0000      -0.435208       -11.8426
 219   2.0000      -0.434018       -11.8102
 220   2.0000      -0.432000       -11.7553
 221   2.0000      -0.431507       -11.7419
 222   2.0000      -0.425305       -11.5731
 223   2.0000      -0.420295       -11.4368
 224   2.0000      -0.418191       -11.3796
 225   2.0000      -0.416186       -11.3250
 226   2.0000      -0.415482       -11.3058
 227   2.0000      -0.414312       -11.2740
 228   2.0000      -0.412480       -11.2242
 229   2.0000      -0.410956       -11.1827
 230   2.0000      -0.408477       -11.1152
 231   2.0000      -0.406648       -11.0654
 232   2.0000      -0.405354       -11.0303
 233   2.0000      -0.401723       -10.9314
 234   2.0000      -0.398526       -10.8445
 235   2.0000      -0.395027       -10.7492
 236   2.0000      -0.391677       -10.6581
 237   2.0000      -0.389663       -10.6033
 238   2.0000      -0.386374       -10.5138
 239   2.0000      -0.383629       -10.4391
 240   2.0000      -0.383008       -10.4222
 241   2.0000      -0.377294       -10.2667
 242   2.0000      -0.376605       -10.2479
 243   2.0000      -0.373521       -10.1640
 244   2.0000      -0.370345       -10.0776
 245   2.0000      -0.369129       -10.0445
 246   2.0000      -0.367231        -9.9929
 247   2.0000      -0.360844        -9.8191
 248   2.0000      -0.356687        -9.7059
 249   2.0000      -0.353443        -9.6177
 250   2.0000      -0.342228        -9.3125
 251   2.0000      -0.330784        -9.0011
 252   2.0000      -0.325681        -8.8622
 253   2.0000      -0.323985        -8.8161
 254   2.0000      -0.314628        -8.5615
 255   2.0000      -0.311561        -8.4780
 256   2.0000      -0.311067        -8.4646
 257   2.0000      -0.301302        -8.1989
 258   2.0000      -0.296243        -8.0612
 259   2.0000      -0.295774        -8.0484
 260   2.0000      -0.275011        -7.4834
 261   2.0000      -0.247721        -6.7408
 262   2.0000      -0.241072        -6.5599
 263   2.0000      -0.232324        -6.3219
 264   2.0000      -0.221208        -6.0194
 265   0.0000      -0.034147        -0.9292
 266   0.0000      -0.018228        -0.4960
 267   0.0000      -0.017769        -0.4835
 268   0.0000      -0.017352        -0.4722
 269   0.0000      -0.007202        -0.1960

MULLIKEN ATOMIC CHARGES
-----------------------
   0 C :   -0.173687
   1 S :    0.147818
   2 C :   -0.263430
   3 C :    0.184424
   4 C :    0.061092
   5 C :    0.109298
   6 C :   -0.039849
   7 C :   -0.013776
   8 C :   -0.060795
   9 C :   -0.028719
  10 C :   -0.084484
  11 C :    0.099128
  12 C :   -0.231492
  13 S :    0.161991
  14 C :   -0.120481
  15 C :   -0.076946
  16 C :    0.071586
  17 C :    0.075452
  18 C :    0.062969
  19 C :    0.065686
  20 C :    0.156157
  21 N :    0.195286
  22 O :   -0.225286
  23 O :   -0.237359
  24 N :   -0.093075
  25 C :    0.045651
  26 C :   -0.038953
  27 C :   -0.117233
  28 S :    0.108571
  29 C :   -0.137123
  30 C :   -0.008194
  31 C :   -0.030412
  32 C :    0.096671
  33 C :    0.087871
  34 C :    0.059856
  35 C :    0.110994
  36 N :    0.208429
  37 O :   -0.220280
  38 O :   -0.227956
  39 N :   -0.124784
  40 C :    0.038439
  41 C :   -0.012774
  42 C :   -0.136951
  43 S :    0.083794
  44 C :   -0.141626
  45 C :   -0.021736
  46 C :   -0.032910
  47 C :    0.105469
  48 C :    0.067755
  49 C :    0.067603
  50 C :    0.150116
  51 N :    0.190632
  52 O :   -0.222211
  53 O :   -0.223445
  54 N :   -0.138835
  55 C :    0.062990
  56 C :   -0.024697
  57 C :   -0.195075
  58 S :    0.125231
  59 C :   -0.177414
  60 C :    0.071268
  61 C :    0.129952
  62 C :    0.061627
  63 C :   -0.043382
  64 C :   -0.031327
  65 C :   -0.054946
  66 C :   -0.045921
  67 C :   -0.049510
  68 C :    0.097966
  69 H :    0.013392
  70 H :   -0.009715
  71 H :    0.012170
  72 H :    0.018846
  73 H :   -0.033469
  74 H :   -0.026418
  75 H :    0.024333
  76 H :    0.028987
  77 H :    0.023389
  78 H :    0.028958
  79 H :    0.018669
  80 H :   -0.000477
  81 H :    0.016812
  82 H :    0.022128
  83 H :    0.037825
  84 H :    0.009368
  85 H :    0.122535
  86 H :    0.010212
  87 H :   -0.007293
  88 H :    0.008422
  89 H :   -0.000926
  90 H :    0.023527
  91 H :    0.007661
  92 H :    0.024176
  93 H :    0.021093
  94 H :    0.017726
  95 H :    0.127826
  96 H :    0.010914
  97 H :   -0.035556
  98 H :    0.022880
  99 H :    0.003743
 100 H :   -0.001188
 101 H :    0.015372
 102 H :    0.021812
 103 H :    0.021675
 104 H :    0.028732
 105 H :    0.118664
 106 H :    0.014650
 107 H :   -0.017476
 108 H :    0.006946
 109 H :    0.026510
 110 H :    0.008672
 111 H :   -0.012494
 112 H :   -0.038296
 113 H :   -0.039886
 114 H :    0.003453
 115 H :    0.025047
 116 H :    0.021371
Sum of atomic charges:   -0.0000000

LOEWDIN ATOMIC CHARGES
----------------------
   0 C :   -0.213158
   1 S :    0.483930
   2 C :   -0.210501
   3 C :   -0.040159
   4 C :   -0.045709
   5 C :   -0.032741
   6 C :   -0.019031
   7 C :   -0.044299
   8 C :   -0.020539
   9 C :   -0.030842
  10 C :   -0.013688
  11 C :   -0.057639
  12 C :   -0.198040
  13 S :    0.480678
  14 C :   -0.181742
  15 C :   -0.083914
  16 C :   -0.064222
  17 C :    0.030296
  18 C :   -0.023808
  19 C :   -0.033863
  20 C :    0.017902
  21 N :    0.276777
  22 O :   -0.194883
  23 O :   -0.208948
  24 N :    0.001608
  25 C :    0.043881
  26 C :   -0.144862
  27 C :   -0.137697
  28 S :    0.450044
  29 C :   -0.194532
  30 C :   -0.086394
  31 C :   -0.100602
  32 C :    0.041349
  33 C :   -0.034539
  34 C :   -0.019141
  35 C :    0.017133
  36 N :    0.276073
  37 O :   -0.195273
  38 O :   -0.197449
  39 N :    0.002086
  40 C :    0.037360
  41 C :   -0.141753
  42 C :   -0.141294
  43 S :    0.440716
  44 C :   -0.197332
  45 C :   -0.081124
  46 C :   -0.096597
  47 C :    0.033777
  48 C :   -0.031757
  49 C :   -0.021454
  50 C :    0.019785
  51 N :    0.275829
  52 O :   -0.201013
  53 O :   -0.191946
  54 N :   -0.013201
  55 C :    0.039028
  56 C :   -0.141687
  57 C :   -0.167409
  58 S :    0.455611
  59 C :   -0.222197
  60 C :   -0.050529
  61 C :   -0.057414
  62 C :   -0.030627
  63 C :   -0.005989
  64 C :   -0.068589
  65 C :   -0.028431
  66 C :   -0.044888
  67 C :   -0.016659
  68 C :   -0.044941
  69 H :    0.019225
  70 H :    0.025752
  71 H :    0.019215
  72 H :    0.023192
  73 H :    0.025039
  74 H :    0.026787
  75 H :    0.031714
  76 H :    0.024060
  77 H :    0.019558
  78 H :    0.026685
  79 H :    0.037797
  80 H :    0.027265
  81 H :    0.023633
  82 H :    0.029636
  83 H :    0.032278
  84 H :    0.020738
  85 H :    0.069893
  86 H :    0.019916
  87 H :    0.021452
  88 H :    0.020215
  89 H :    0.028244
  90 H :    0.025056
  91 H :    0.030461
  92 H :    0.034145
  93 H :    0.031629
  94 H :    0.040573
  95 H :    0.073565
  96 H :    0.017845
  97 H :    0.020900
  98 H :    0.023906
  99 H :    0.030482
 100 H :    0.026914
 101 H :    0.028623
 102 H :    0.029506
 103 H :    0.032719
 104 H :    0.040193
 105 H :    0.074458
 106 H :    0.030790
 107 H :    0.020475
 108 H :    0.016706
 109 H :    0.034182
 110 H :    0.016316
 111 H :    0.009890
 112 H :    0.022695
 113 H :    0.022456
 114 H :    0.028689
 115 H :    0.033622
 116 H :    0.032094

  Mayer bond orders larger than 0.100000
B(  0-C ,  1-S ) :   1.1880 B(  0-C ,  2-C ) :   0.1281 B(  0-C ,  4-C ) :   1.4504
B(  0-C , 69-H ) :   0.9559 B(  1-S ,  2-C ) :   1.1904 B(  2-C ,  3-C ) :   1.4097
B(  2-C , 12-C ) :   1.0089 B(  3-C ,  4-C ) :   1.1786 B(  3-C , 10-C ) :   1.1769
B(  4-C ,  5-C ) :   1.1405 B(  5-C ,  6-C ) :   1.0447 B(  5-C ,  8-C ) :   1.5311
B(  6-C ,  7-C ) :   1.9710 B(  6-C , 70-H ) :   0.9578 B(  7-C , 71-H ) :   0.9554
B(  7-C , 72-H ) :   0.9491 B(  8-C ,  9-C ) :   1.1745 B(  8-C , 73-H ) :   0.9937
B(  9-C , 10-C ) :   1.5706 B(  9-C , 74-H ) :   0.9820 B( 10-C , 11-C ) :   1.0927
B( 11-C , 75-H ) :   0.9345 B( 11-C , 76-H ) :   0.9288 B( 11-C , 77-H ) :   0.9352
B( 12-C , 13-S ) :   1.1665 B( 12-C , 16-C ) :   1.5654 B( 13-S , 14-C ) :   1.1784
B( 14-C , 15-C ) :   1.5691 B( 14-C , 78-H ) :   0.9649 B( 15-C , 16-C ) :   1.2850
B( 15-C , 20-C ) :   0.9879 B( 16-C , 17-C ) :   0.9633 B( 17-C , 18-C ) :   1.0478
B( 17-C , 24-N ) :   1.0145 B( 17-C , 79-H ) :   0.8977 B( 18-C , 19-C ) :   1.1006
B( 18-C , 80-H ) :   0.9207 B( 18-C , 81-H ) :   0.9324 B( 19-C , 20-C ) :   1.0475
B( 19-C , 82-H ) :   0.9025 B( 19-C , 83-H ) :   0.9137 B( 20-C , 21-N ) :   0.8276
B( 20-C , 84-H ) :   0.8822 B( 21-N , 22-O ) :   1.5867 B( 21-N , 23-O ) :   1.5581
B( 22-O , 23-O ) :   0.2640 B( 24-N , 25-C ) :   1.2294 B( 24-N , 85-H ) :   0.9295
B( 25-C , 26-C ) :   1.6593 B( 25-C , 86-H ) :   0.9582 B( 26-C , 27-C ) :   1.1741
B( 26-C , 87-H ) :   0.9307 B( 27-C , 28-S ) :   1.1424 B( 27-C , 31-C ) :   1.5095
B( 28-S , 29-C ) :   1.1452 B( 29-C , 30-C ) :   1.5730 B( 29-C , 88-H ) :   0.9726
B( 30-C , 31-C ) :   1.2724 B( 30-C , 35-C ) :   0.9561 B( 31-C , 32-C ) :   1.0063
B( 32-C , 33-C ) :   1.0512 B( 32-C , 39-N ) :   1.0160 B( 32-C , 89-H ) :   0.8941
B( 33-C , 34-C ) :   1.0543 B( 33-C , 90-H ) :   0.9317 B( 33-C , 91-H ) :   0.9232
B( 34-C , 35-C ) :   1.0727 B( 34-C , 92-H ) :   0.9287 B( 34-C , 93-H ) :   0.9448
B( 35-C , 36-N ) :   0.8382 B( 35-C , 94-H ) :   0.9139 B( 36-N , 37-O ) :   1.5511
B( 36-N , 38-O ) :   1.5692 B( 37-O , 38-O ) :   0.2652 B( 39-N , 40-C ) :   1.2247
B( 39-N , 95-H ) :   0.9210 B( 40-C , 41-C ) :   1.5995 B( 40-C , 96-H ) :   0.9608
B( 41-C , 42-C ) :   1.1735 B( 41-C , 97-H ) :   0.9473 B( 42-C , 43-S ) :   1.1308
B( 42-C , 46-C ) :   1.5272 B( 43-S , 44-C ) :   1.1296 B( 44-C , 45-C ) :   1.5838
B( 44-C , 98-H ) :   0.9740 B( 45-C , 46-C ) :   1.2936 B( 45-C , 50-C ) :   0.9496
B( 46-C , 47-C ) :   0.9781 B( 47-C , 48-C ) :   1.0662 B( 47-C , 54-N ) :   1.0318
B( 47-C , 99-H ) :   0.8840 B( 48-C , 49-C ) :   1.0863 B( 48-C ,100-H ) :   0.9207
B( 48-C ,101-H ) :   0.9258 B( 49-C , 50-C ) :   1.0693 B( 49-C ,102-H ) :   0.9246
B( 49-C ,103-H ) :   0.9290 B( 50-C , 51-N ) :   0.8403 B( 50-C ,104-H ) :   0.9017
B( 51-N , 52-O ) :   1.5532 B( 51-N , 53-O ) :   1.5622 B( 52-O , 53-O ) :   0.2717
B( 54-N , 55-C ) :   1.1686 B( 54-N ,105-H ) :   0.9350 B( 55-C , 56-C ) :   1.7397
B( 55-C ,106-H ) :   0.9502 B( 56-C , 57-C ) :   1.0608 B( 56-C ,107-H ) :   0.9319
B( 57-C , 58-S ) :   1.1858 B( 57-C , 59-C ) :   0.1110 B( 57-C , 61-C ) :   1.4219
B( 58-S , 59-C ) :   1.1646 B( 59-C , 60-C ) :   1.4700 B( 59-C ,108-H ) :   0.9571
B( 60-C , 61-C ) :   1.1822 B( 60-C , 67-C ) :   1.1671 B( 61-C , 62-C ) :   1.1525
B( 62-C , 63-C ) :   1.0449 B( 62-C , 65-C ) :   1.5595 B( 63-C , 64-C ) :   1.9712
B( 63-C ,109-H ) :   0.9481 B( 64-C ,110-H ) :   0.9536 B( 64-C ,111-H ) :   0.9378
B( 65-C , 66-C ) :   1.1680 B( 65-C ,112-H ) :   0.9852 B( 66-C , 67-C ) :   1.5828
B( 66-C ,113-H ) :   0.9868 B( 67-C , 68-C ) :   1.0893 B( 68-C ,114-H ) :   0.9542
B( 68-C ,115-H ) :   0.9442 B( 68-C ,116-H ) :   0.9447

-----------------------------------------------------------------------------
         ABSORPTION SPECTRUM VIA TRANSITION ELECTRIC DIPOLE MOMENTS
-----------------------------------------------------------------------------
State   Energy  Wavelength   fosc         T2         TX        TY        TZ
        (cm-1)    (nm)                  (au**2)     (au)      (au)      (au)
-----------------------------------------------------------------------------
   0   24581.0    406.8   0.071470207   0.95720  -0.00441  -0.32083   0.92426
   1   27118.8    368.7   0.348487334   4.23051  -0.91431   0.17112   1.83446
   2   27987.4    357.3   0.370749810   4.36107  -1.57670  -0.56142   1.24896
   3   28459.2    351.4   0.006584680   0.07617  -0.09755  -0.22868   0.11982
   4   28569.3    350.0   0.009506710   0.10955   0.07329   0.25806   0.19386
   5   29250.4    341.9   0.007049825   0.07935  -0.13426  -0.01049   0.24740
   6   30522.9    327.6   0.001491891   0.01609   0.05215   0.09430  -0.06693
   7   31046.0    322.1   0.010334258   0.10958   0.12401   0.03021  -0.30544
   8   31717.8    315.3   0.026806048   0.27823   0.00544  -0.30197   0.43246
   9   32154.1    311.0   0.079875688   0.81781  -0.60723  -0.66796  -0.05393
  10   32282.0    309.8   0.003020977   0.03081  -0.16451  -0.04006  -0.04624
  11   32384.8    308.8   0.089018726   0.90493   0.64582   0.51548  -0.47130
  12   32586.9    306.9   0.036525555   0.36900  -0.30610  -0.51215  -0.11404
  13   33546.7    298.1   0.001553309   0.01524  -0.00774  -0.11876  -0.03287
  14   33746.2    296.3   0.013076894   0.12757  -0.21139   0.14125   0.25087
  15   33892.2    295.1   0.026298277   0.25545   0.02274  -0.38709  -0.32418
  16   34458.6    290.2   0.046563284   0.44486   0.41749   0.31349  -0.41507
  17   34581.9    289.2   0.004544365   0.04326   0.19549   0.05360  -0.04661
  18   34651.1    288.6   0.123296713   1.17141   0.47770  -0.28943  -0.92707
  19   35342.4    282.9   0.008414345   0.07838   0.15012   0.23482  -0.02650
  20   35650.0    280.5   0.313034165   2.89073  -0.81028  -1.49280   0.07572
  21   35967.8    278.0   0.011509789   0.10535  -0.20792  -0.12374  -0.21634
  22   36145.0    276.7   0.156816594   1.42830  -0.49570  -1.01370  -0.39370
  23   36610.3    273.1   0.007706766   0.06930   0.11559   0.21884   0.08972
  24   36874.7    271.2   0.017127176   0.15291  -0.17670  -0.34791  -0.02533
  25   37416.1    267.3   0.006533426   0.05749  -0.15071  -0.18460  -0.02635
  26   37562.4    266.2   0.018978919   0.16634  -0.00085  -0.37323   0.16443
  27   37604.0    265.9   0.033392986   0.29235   0.10838   0.51529  -0.12279
  28   37670.0    265.5   0.067946603   0.59381  -0.36090  -0.68077   0.01075
  29   37942.4    263.6   0.041047475   0.35615   0.33140   0.49319  -0.05564
  30   38093.5    262.5   0.000423829   0.00366   0.02551  -0.05259   0.01570
  31   38971.9    256.6   0.001124084   0.00950  -0.05253  -0.08185  -0.00614
  32   39722.1    251.7   0.067684287   0.56096  -0.33766  -0.63320  -0.21447
  33   39950.1    250.3   0.173161217   1.42695  -0.31617  -1.07710  -0.40846
  34   40229.9    248.6   0.089270531   0.73052   0.21240   0.77870   0.28113

FINAL SINGLE POINT ENERGY     -4776.800194114429

DIPOLE MOMENT
-------------
                                X             Y             Z
Electronic contribution:     21.99512       8.75881      34.02506
Nuclear contribution   :    -25.30930      -8.28851     -34.83618
                        -----------------------------------------
Total Dipole Moment    :     -3.31418       0.47030      -0.81112
                        -----------------------------------------
Magnitude (a.u.)       :      3.44425
Magnitude (Debye)      :      8.75459

Rotational constants in cm-1:     0.001359     0.000679     0.000515
Rotational constants in MHz :    40.736935    20.364900    15.438829

                             ****ORCA TERMINATED NORMALLY****
TOTAL RUN TIME: 0 days 0 hours 12 minutes 45 seconds 704 msec
