                         Program Version 4.2.0 -  RELEASE  -
|  1> # ORCA input file
|  2> # SCF done       -150.707619500412          0.000863237912
|  3> ! CAM-B3LYP def2-SVP def2/J RIJCOSX Grid4 TightSCF
|  4> %maxcore 5000
|  5> %tddft
|  6>     Mode sTDDFT
|  7>     Ethresh 5.0
|  8>     maxcore 5000
|  9> end
| 10>
| 11> %pal
| 12>   nprocs 6
| 13>   end
| 14> * xyz 0 1
| 15>    C       11.66840         1.30603        -2.65984
| 16>    C       12.31791         2.26775        -3.37118
| 17>    S       11.24604         3.07315        -4.45672
| 18>    C        9.88913         2.09766        -3.94277
| 19>   Cl        8.34704         2.30506        -4.61176
| 20>    C       10.27777         1.20770        -2.98669
| 21>    C        9.64353         0.16284        -2.17747
| 22>    O        8.47151        -0.13460        -2.15100
| 23>    C       10.75013        -0.39330        -1.33647
| 24>    C       11.98548         0.32520        -1.64257
| 25>    C       13.23491         0.11840        -1.12623
| 26>    C       14.33794         0.89349        -1.54590
| 27>    N       15.24415         1.51537        -1.87406
| 28>    C       13.58507        -0.84778        -0.16127
| 29>    N       13.94155        -1.61340         0.61624
| 30>    C       10.59735        -1.32408        -0.36501
| 31>    C        9.40205        -2.08769        -0.08689
| 32>    C        8.63456        -2.69517        -1.07952
| 33>    C        7.50084        -3.42308        -0.72825
| 34>    C        7.19734        -3.51319         0.63558
| 35>    N        7.92235        -2.95097         1.58250
| 36>    C        8.99343        -2.26697         1.24351
| 37>    C        6.67071        -4.06649        -1.73084
| 38>    C        6.09487        -5.30936        -1.63938
| 39>    C        5.30582        -5.55885        -2.83888
| 40>    C        5.45126        -4.40774        -3.64132
| 41>    C        4.84876        -4.22765        -4.88307
| 42>    C        5.10874        -2.99003        -5.51591
| 43>    C        5.89808        -2.05221        -4.89389
| 44>    C        6.48854        -2.25641        -3.63055
| 45>    C        6.27720        -3.45943        -3.00203
| 46>    C        4.05471        -5.30551        -5.34004
| 47>    C        3.91370        -6.43429        -4.56812
| 48>    C        4.53020        -6.58903        -3.31118
| 49>    C        6.29556        -6.26768        -0.56675
| 50>    C        7.47718        -6.81612        -0.15449
| 51>    O        7.28885        -7.64690         0.88356
| 52>    C        5.98641        -7.62079         1.17995
| 53>    C        5.30508        -6.80063         0.32148
| 54>    C        3.86722        -6.45899         0.35922
| 55>    O        3.11834        -6.56134        -0.59067
| 56>    C        3.41912        -5.93889         1.64892
| 57>    C        2.13158        -5.62458         2.01640
| 58>    C        2.03864        -5.08403         3.30071
| 59>    C        3.26067        -4.97432         3.92665
| 60>    S        4.54392        -5.54388         2.90790
| 61>    C        3.56002        -4.41210         5.21078
| 62>    S        4.93216        -3.36945         5.38216
| 63>    C        4.57710        -3.03547         7.01161
| 64>    C        3.45259        -3.70241         7.44250
| 65>    C        2.86656        -4.51843         6.41264
| 66>    C        1.76376        -5.35176         6.75522
| 67>    C        1.24081        -6.32015         5.87015
| 68>    N        0.79868        -7.15712         5.22250
| 69>    C        1.22711        -5.28876         8.02530
| 70>    C        1.75589        -4.43724         9.00519
| 71>    C        2.86363        -3.66539         8.73984
| 72>    C        3.43410        -2.84495         9.73637
| 73>    N        3.90001        -2.17870        10.54522
| 74>    H       13.34747         2.56378        -3.33413
| 75>    H       11.42539        -1.50997         0.30865
| 76>    H        8.94745        -2.65185        -2.11138
| 77>    H        6.32876        -4.06139         0.97440
| 78>    H        9.54249        -1.81071         2.05631
| 79>    H        4.67805        -2.78268        -6.48520
| 80>    H        6.07577        -1.10720        -5.38797
| 81>    H        7.07684        -1.46879        -3.18388
| 82>    H        3.55824        -5.23552        -6.29746
| 83>    H        3.29885        -7.24431        -4.93372
| 84>    H        4.36853        -7.49083        -2.74174
| 85>    H        8.47501        -6.69875        -0.52758
| 86>    H        5.64284        -8.24840         1.97875
| 87>    H        1.29439        -5.78557         1.36167
| 88>    H        1.11673        -4.75357         3.74325
| 89>    H        5.19585        -2.37017         7.58082
| 90>    H        0.39088        -5.92503         8.27472
| 91>    H        1.30393        -4.40938         9.98511
| 92> *
| 93>
| 94>                          ****END OF INPUT****

CARTESIAN COORDINATES (ANGSTROEM)
---------------------------------
  C     11.668400    1.306030   -2.659840
  C     12.317910    2.267750   -3.371180
  S     11.246040    3.073150   -4.456720
  C      9.889130    2.097660   -3.942770
  Cl     8.347040    2.305060   -4.611760
  C     10.277770    1.207700   -2.986690
  C      9.643530    0.162840   -2.177470
  O      8.471510   -0.134600   -2.151000
  C     10.750130   -0.393300   -1.336470
  C     11.985480    0.325200   -1.642570
  C     13.234910    0.118400   -1.126230
  C     14.337940    0.893490   -1.545900
  N     15.244150    1.515370   -1.874060
  C     13.585070   -0.847780   -0.161270
  N     13.941550   -1.613400    0.616240
  C     10.597350   -1.324080   -0.365010
  C      9.402050   -2.087690   -0.086890
  C      8.634560   -2.695170   -1.079520
  C      7.500840   -3.423080   -0.728250
  C      7.197340   -3.513190    0.635580
  N      7.922350   -2.950970    1.582500
  C      8.993430   -2.266970    1.243510
  C      6.670710   -4.066490   -1.730840
  C      6.094870   -5.309360   -1.639380
  C      5.305820   -5.558850   -2.838880
  C      5.451260   -4.407740   -3.641320
  C      4.848760   -4.227650   -4.883070
  C      5.108740   -2.990030   -5.515910
  C      5.898080   -2.052210   -4.893890
  C      6.488540   -2.256410   -3.630550
  C      6.277200   -3.459430   -3.002030
  C      4.054710   -5.305510   -5.340040
  C      3.913700   -6.434290   -4.568120
  C      4.530200   -6.589030   -3.311180
  C      6.295560   -6.267680   -0.566750
  C      7.477180   -6.816120   -0.154490
  O      7.288850   -7.646900    0.883560
  C      5.986410   -7.620790    1.179950
  C      5.305080   -6.800630    0.321480
  C      3.867220   -6.458990    0.359220
  O      3.118340   -6.561340   -0.590670
  C      3.419120   -5.938890    1.648920
  C      2.131580   -5.624580    2.016400
  C      2.038640   -5.084030    3.300710
  C      3.260670   -4.974320    3.926650
  S      4.543920   -5.543880    2.907900
  C      3.560020   -4.412100    5.210780
  S      4.932160   -3.369450    5.382160
  C      4.577100   -3.035470    7.011610
  C      3.452590   -3.702410    7.442500
  C      2.866560   -4.518430    6.412640
  C      1.763760   -5.351760    6.755220
  C      1.240810   -6.320150    5.870150
  N      0.798680   -7.157120    5.222500
  C      1.227110   -5.288760    8.025300
  C      1.755890   -4.437240    9.005190
  C      2.863630   -3.665390    8.739840
  C      3.434100   -2.844950    9.736370
  N      3.900010   -2.178700   10.545220
  H     13.347470    2.563780   -3.334130
  H     11.425390   -1.509970    0.308650
  H      8.947450   -2.651850   -2.111380
  H      6.328760   -4.061390    0.974400
  H      9.542490   -1.810710    2.056310
  H      4.678050   -2.782680   -6.485200
  H      6.075770   -1.107200   -5.387970
  H      7.076840   -1.468790   -3.183880
  H      3.558240   -5.235520   -6.297460
  H      3.298850   -7.244310   -4.933720
  H      4.368530   -7.490830   -2.741740
  H      8.475010   -6.698750   -0.527580
  H      5.642840   -8.248400    1.978750
  H      1.294390   -5.785570    1.361670
  H      1.116730   -4.753570    3.743250
  H      5.195850   -2.370170    7.580820
  H      0.390880   -5.925030    8.274720
  H      1.303930   -4.409380    9.985110

 Total Charge           Charge          ....    0
 Multiplicity           Mult            ....    1
 Number of Electrons    NEL             ....  424
 Basis Dimension        Dim             ....  932

ORBITAL ENERGIES
----------------

  NO   OCC          E(Eh)            E(eV)
   0   2.0000    -101.625743     -2765.3771
   1   2.0000     -89.001667     -2421.8585
   2   2.0000     -88.992613     -2421.6121
   3   2.0000     -88.972238     -2421.0577
   4   2.0000     -19.298668      -525.1434
   5   2.0000     -19.232015      -523.3297
   6   2.0000     -19.206368      -522.6318
   7   2.0000     -14.428091      -392.6083
   8   2.0000     -14.426767      -392.5723
   9   2.0000     -14.419767      -392.3818
  10   2.0000     -14.416605      -392.2958
  11   2.0000     -14.405803      -392.0018
  12   2.0000     -10.389014      -282.6995
  13   2.0000     -10.384382      -282.5734
  14   2.0000     -10.367791      -282.1219
  15   2.0000     -10.356636      -281.8184
  16   2.0000     -10.355930      -281.7992
  17   2.0000     -10.337746      -281.3044
  18   2.0000     -10.337285      -281.2918
  19   2.0000     -10.336925      -281.2820
  20   2.0000     -10.333739      -281.1953
  21   2.0000     -10.331729      -281.1406
  22   2.0000     -10.329948      -281.0922
  23   2.0000     -10.329834      -281.0891
  24   2.0000     -10.328593      -281.0553
  25   2.0000     -10.324308      -280.9387
  26   2.0000     -10.322679      -280.8944
  27   2.0000     -10.320417      -280.8328
  28   2.0000     -10.318260      -280.7741
  29   2.0000     -10.317693      -280.7587
  30   2.0000     -10.316892      -280.7369
  31   2.0000     -10.316062      -280.7143
  32   2.0000     -10.315844      -280.7084
  33   2.0000     -10.315410      -280.6966
  34   2.0000     -10.314830      -280.6808
  35   2.0000     -10.314576      -280.6739
  36   2.0000     -10.313677      -280.6494
  37   2.0000     -10.308589      -280.5110
  38   2.0000     -10.307903      -280.4923
  39   2.0000     -10.301362      -280.3143
  40   2.0000     -10.297739      -280.2157
  41   2.0000     -10.296534      -280.1829
  42   2.0000     -10.289734      -279.9979
  43   2.0000     -10.286977      -279.9229
  44   2.0000     -10.286344      -279.9057
  45   2.0000     -10.283183      -279.8196
  46   2.0000     -10.279371      -279.7159
  47   2.0000     -10.279297      -279.7139
  48   2.0000     -10.277322      -279.6602
  49   2.0000     -10.271199      -279.4935
  50   2.0000     -10.270402      -279.4718
  51   2.0000     -10.270161      -279.4653
  52   2.0000     -10.269909      -279.4584
  53   2.0000     -10.266472      -279.3649
  54   2.0000     -10.265521      -279.3390
  55   2.0000     -10.263874      -279.2942
  56   2.0000     -10.263842      -279.2933
  57   2.0000     -10.260907      -279.2135
  58   2.0000     -10.243555      -278.7413
  59   2.0000      -9.580460      -260.6976
  60   2.0000      -8.097357      -220.3403
  61   2.0000      -8.087817      -220.0807
  62   2.0000      -8.066757      -219.5076
  63   2.0000      -7.351094      -200.0334
  64   2.0000      -7.340491      -199.7449
  65   2.0000      -7.339974      -199.7308
  66   2.0000      -6.066727      -165.0840
  67   2.0000      -6.062101      -164.9582
  68   2.0000      -6.059645      -164.8913
  69   2.0000      -6.056652      -164.8099
  70   2.0000      -6.052233      -164.6896
  71   2.0000      -6.051146      -164.6601
  72   2.0000      -6.035951      -164.2466
  73   2.0000      -6.031733      -164.1318
  74   2.0000      -6.029230      -164.0637
  75   2.0000      -1.218608       -33.1600
  76   2.0000      -1.149506       -31.2797
  77   2.0000      -1.122812       -30.5533
  78   2.0000      -1.046259       -28.4702
  79   2.0000      -1.043516       -28.3955
  80   2.0000      -1.031687       -28.0736
  81   2.0000      -1.024796       -27.8861
  82   2.0000      -1.005824       -27.3699
  83   2.0000      -1.005080       -27.3496
  84   2.0000      -1.001553       -27.2536
  85   2.0000      -0.996081       -27.1047
  86   2.0000      -0.991799       -26.9882
  87   2.0000      -0.985027       -26.8039
  88   2.0000      -0.963282       -26.2122
  89   2.0000      -0.963130       -26.2081
  90   2.0000      -0.933304       -25.3965
  91   2.0000      -0.928586       -25.2681
  92   2.0000      -0.915819       -24.9207
  93   2.0000      -0.913390       -24.8546
  94   2.0000      -0.909262       -24.7423
  95   2.0000      -0.903344       -24.5812
  96   2.0000      -0.882676       -24.0188
  97   2.0000      -0.870570       -23.6894
  98   2.0000      -0.863563       -23.4987
  99   2.0000      -0.855197       -23.2711
 100   2.0000      -0.853024       -23.2120
 101   2.0000      -0.840557       -22.8727
 102   2.0000      -0.837684       -22.7945
 103   2.0000      -0.824341       -22.4315
 104   2.0000      -0.809987       -22.0409
 105   2.0000      -0.805615       -21.9219
 106   2.0000      -0.795270       -21.6404
 107   2.0000      -0.789886       -21.4939
 108   2.0000      -0.785442       -21.3730
 109   2.0000      -0.763102       -20.7651
 110   2.0000      -0.752636       -20.4803
 111   2.0000      -0.738764       -20.1028
 112   2.0000      -0.728762       -19.8306
 113   2.0000      -0.718960       -19.5639
 114   2.0000      -0.713952       -19.4276
 115   2.0000      -0.707664       -19.2565
 116   2.0000      -0.699083       -19.0230
 117   2.0000      -0.692464       -18.8429
 118   2.0000      -0.685091       -18.6423
 119   2.0000      -0.681909       -18.5557
 120   2.0000      -0.675187       -18.3728
 121   2.0000      -0.667622       -18.1669
 122   2.0000      -0.660204       -17.9651
 123   2.0000      -0.653774       -17.7901
 124   2.0000      -0.649083       -17.6624
 125   2.0000      -0.646481       -17.5916
 126   2.0000      -0.627022       -17.0621
 127   2.0000      -0.623407       -16.9638
 128   2.0000      -0.619630       -16.8610
 129   2.0000      -0.613769       -16.7015
 130   2.0000      -0.607059       -16.5189
 131   2.0000      -0.601120       -16.3573
 132   2.0000      -0.594313       -16.1721
 133   2.0000      -0.589601       -16.0438
 134   2.0000      -0.584617       -15.9082
 135   2.0000      -0.580119       -15.7858
 136   2.0000      -0.570989       -15.5374
 137   2.0000      -0.564189       -15.3524
 138   2.0000      -0.560238       -15.2449
 139   2.0000      -0.558580       -15.1997
 140   2.0000      -0.556593       -15.1457
 141   2.0000      -0.548501       -14.9255
 142   2.0000      -0.544895       -14.8273
 143   2.0000      -0.543054       -14.7772
 144   2.0000      -0.539146       -14.6709
 145   2.0000      -0.533836       -14.5264
 146   2.0000      -0.532010       -14.4767
 147   2.0000      -0.530040       -14.4231
 148   2.0000      -0.525768       -14.3069
 149   2.0000      -0.522898       -14.2288
 150   2.0000      -0.517509       -14.0821
 151   2.0000      -0.516527       -14.0554
 152   2.0000      -0.512441       -13.9442
 153   2.0000      -0.511115       -13.9082
 154   2.0000      -0.507399       -13.8070
 155   2.0000      -0.503070       -13.6892
 156   2.0000      -0.499426       -13.5901
 157   2.0000      -0.495980       -13.4963
 158   2.0000      -0.494478       -13.4554
 159   2.0000      -0.493824       -13.4376
 160   2.0000      -0.492751       -13.4084
 161   2.0000      -0.490177       -13.3384
 162   2.0000      -0.486335       -13.2338
 163   2.0000      -0.485083       -13.1998
 164   2.0000      -0.483236       -13.1495
 165   2.0000      -0.478920       -13.0321
 166   2.0000      -0.473497       -12.8845
 167   2.0000      -0.471617       -12.8334
 168   2.0000      -0.468130       -12.7385
 169   2.0000      -0.463468       -12.6116
 170   2.0000      -0.460570       -12.5328
 171   2.0000      -0.459291       -12.4979
 172   2.0000      -0.458944       -12.4885
 173   2.0000      -0.454026       -12.3547
 174   2.0000      -0.452762       -12.3203
 175   2.0000      -0.452487       -12.3128
 176   2.0000      -0.451149       -12.2764
 177   2.0000      -0.447476       -12.1764
 178   2.0000      -0.442942       -12.0531
 179   2.0000      -0.442265       -12.0346
 180   2.0000      -0.439996       -11.9729
 181   2.0000      -0.438687       -11.9373
 182   2.0000      -0.433841       -11.8054
 183   2.0000      -0.429881       -11.6976
 184   2.0000      -0.423340       -11.5197
 185   2.0000      -0.422946       -11.5089
 186   2.0000      -0.422326       -11.4921
 187   2.0000      -0.418431       -11.3861
 188   2.0000      -0.414038       -11.2665
 189   2.0000      -0.411481       -11.1970
 190   2.0000      -0.407830       -11.0976
 191   2.0000      -0.407304       -11.0833
 192   2.0000      -0.403418       -10.9776
 193   2.0000      -0.395802       -10.7703
 194   2.0000      -0.385679       -10.4948
 195   2.0000      -0.373750       -10.1703
 196   2.0000      -0.362553        -9.8656
 197   2.0000      -0.357210        -9.7202
 198   2.0000      -0.347551        -9.4573
 199   2.0000      -0.345544        -9.4027
 200   2.0000      -0.344280        -9.3683
 201   2.0000      -0.336732        -9.1629
 202   2.0000      -0.333964        -9.0876
 203   2.0000      -0.330913        -9.0046
 204   2.0000      -0.327418        -8.9095
 205   2.0000      -0.326157        -8.8752
 206   2.0000      -0.311676        -8.4811
 207   2.0000      -0.306790        -8.3482
 208   2.0000      -0.301920        -8.2157
 209   2.0000      -0.282965        -7.6999
 210   2.0000      -0.274978        -7.4825
 211   2.0000      -0.265364        -7.2209
 212   0.0000      -0.098452        -2.6790
 213   0.0000      -0.084251        -2.2926
 214   0.0000      -0.060436        -1.6445
 215   0.0000      -0.048871        -1.3298
 216   0.0000      -0.041652        -1.1334

MULLIKEN ATOMIC CHARGES
-----------------------
   0 C :    0.030970
   1 C :   -0.127649
   2 S :    0.193799
   3 C :   -0.167160
   4 Cl:    0.001617
   5 C :    0.072671
   6 C :    0.155087
   7 O :   -0.125185
   8 C :   -0.088580
   9 C :    0.292560
  10 C :   -0.322758
  11 C :   -0.193562
  12 N :    0.160638
  13 C :   -0.188866
  14 N :    0.163415
  15 C :   -0.023004
  16 C :    0.024095
  17 C :    0.064538
  18 C :   -0.060847
  19 C :    0.027056
  20 N :   -0.051393
  21 C :    0.002234
  22 C :    0.088319
  23 C :    0.029621
  24 C :    0.107332
  25 C :   -0.054772
  26 C :    0.121256
  27 C :   -0.025270
  28 C :    0.045106
  29 C :   -0.090945
  30 C :    0.105045
  31 C :   -0.021915
  32 C :    0.034913
  33 C :   -0.039681
  34 C :   -0.030381
  35 C :    0.072165
  36 O :   -0.164347
  37 C :    0.086240
  38 C :   -0.084826
  39 C :    0.178114
  40 O :   -0.160390
  41 C :   -0.143939
  42 C :    0.031537
  43 C :    0.075548
  44 C :   -0.128687
  45 S :    0.165650
  46 C :   -0.181409
  47 S :    0.231253
  48 C :   -0.133823
  49 C :    0.083480
  50 C :    0.195045
  51 C :   -0.092860
  52 C :   -0.205940
  53 N :    0.135022
  54 C :    0.016445
  55 C :    0.019189
  56 C :   -0.049882
  57 C :   -0.188315
  58 N :    0.129392
  59 H :    0.056914
  60 H :    0.038982
  61 H :   -0.010305
  62 H :   -0.012980
  63 H :   -0.000409
  64 H :   -0.030109
  65 H :   -0.023424
  66 H :   -0.034297
  67 H :   -0.029855
  68 H :   -0.015642
  69 H :   -0.022849
  70 H :    0.005996
  71 H :    0.018676
  72 H :    0.010725
  73 H :   -0.000773
  74 H :    0.044998
  75 H :    0.007019
  76 H :    0.004370
Sum of atomic charges:   -0.0000000

LOEWDIN ATOMIC CHARGES
----------------------
   0 C :   -0.059623
   1 C :   -0.147183
   2 S :    0.482265
   3 C :   -0.271134
   4 Cl:    0.193661
   5 C :   -0.117910
   6 C :    0.088296
   7 O :   -0.123483
   8 C :   -0.084902
   9 C :    0.074735
  10 C :   -0.130834
  11 C :   -0.014995
  12 N :   -0.046814
  13 C :   -0.024346
  14 N :   -0.039617
  15 C :    0.088674
  16 C :   -0.064266
  17 C :    0.043764
  18 C :   -0.037897
  19 C :    0.044135
  20 N :   -0.068301
  21 C :    0.032270
  22 C :   -0.019136
  23 C :   -0.015333
  24 C :   -0.016193
  25 C :   -0.021698
  26 C :   -0.027311
  27 C :   -0.000526
  28 C :   -0.030998
  29 C :    0.000305
  30 C :   -0.019219
  31 C :   -0.000504
  32 C :   -0.026934
  33 C :    0.022852
  34 C :   -0.058481
  35 C :    0.040869
  36 O :    0.037781
  37 C :    0.037736
  38 C :   -0.116162
  39 C :    0.065711
  40 O :   -0.136994
  41 C :   -0.217998
  42 C :   -0.001563
  43 C :   -0.034353
  44 C :   -0.192583
  45 S :    0.472580
  46 C :   -0.198156
  47 S :    0.537294
  48 C :   -0.186464
  49 C :   -0.039141
  50 C :   -0.035014
  51 C :   -0.048199
  52 C :   -0.028902
  53 N :   -0.044749
  54 C :    0.013750
  55 C :    0.009506
  56 C :   -0.044489
  57 C :   -0.027355
  58 N :   -0.042551
  59 H :    0.038750
  60 H :    0.049007
  61 H :    0.032674
  62 H :    0.014374
  63 H :    0.022286
  64 H :    0.026588
  65 H :    0.026060
  66 H :    0.026355
  67 H :    0.026792
  68 H :    0.028807
  69 H :    0.029738
  70 H :    0.025986
  71 H :    0.024975
  72 H :    0.043233
  73 H :    0.033903
  74 H :    0.035547
  75 H :    0.045836
  76 H :    0.045216

  Mayer bond orders larger than 0.100000
B(  0-C ,  1-C ) :   1.5422 B(  0-C ,  5-C ) :   1.2200 B(  0-C ,  9-C ) :   1.0038
B(  1-C ,  2-S ) :   1.1655 B(  1-C , 59-H ) :   0.9531 B(  2-S ,  3-C ) :   1.1540
B(  3-C ,  4-Cl) :   1.1264 B(  3-C ,  5-C ) :   1.4749 B(  5-C ,  6-C ) :   0.9539
B(  6-C ,  7-O ) :   2.1683 B(  6-C ,  8-C ) :   0.9299 B(  8-C ,  9-C ) :   1.0446
B(  8-C , 15-C ) :   1.7160 B(  9-C , 10-C ) :   1.6730 B( 10-C , 11-C ) :   1.1442
B( 10-C , 13-C ) :   1.1337 B( 11-C , 12-N ) :   2.9916 B( 13-C , 14-N ) :   2.9749
B( 15-C , 16-C ) :   1.0242 B( 15-C , 60-H ) :   0.9400 B( 16-C , 17-C ) :   1.3567
B( 16-C , 21-C ) :   1.3181 B( 17-C , 18-C ) :   1.4206 B( 17-C , 61-H ) :   0.9852
B( 18-C , 19-C ) :   1.3526 B( 18-C , 22-C ) :   0.9350 B( 19-C , 20-N ) :   1.5532
B( 19-C , 62-H ) :   0.9831 B( 20-N , 21-C ) :   1.5636 B( 21-C , 63-H ) :   0.9901
B( 22-C , 23-C ) :   1.7062 B( 22-C , 30-C ) :   1.0248 B( 23-C , 24-C ) :   1.0560
B( 23-C , 34-C ) :   0.9111 B( 24-C , 25-C ) :   1.2341 B( 24-C , 33-C ) :   1.4469
B( 25-C , 26-C ) :   1.3044 B( 25-C , 30-C ) :   1.2431 B( 26-C , 27-C ) :   1.1868
B( 26-C , 31-C ) :   1.1883 B( 27-C , 28-C ) :   1.4999 B( 27-C , 64-H ) :   0.9925
B( 28-C , 29-C ) :   1.2481 B( 28-C , 65-H ) :   0.9831 B( 29-C , 30-C ) :   1.4234
B( 29-C , 66-H ) :   0.9914 B( 31-C , 32-C ) :   1.5000 B( 31-C , 67-H ) :   0.9923
B( 32-C , 33-C ) :   1.2502 B( 32-C , 68-H ) :   0.9826 B( 33-C , 69-H ) :   0.9891
B( 34-C , 35-C ) :   1.5642 B( 34-C , 38-C ) :   1.3212 B( 35-C , 36-O ) :   1.1503
B( 35-C , 70-H ) :   1.0156 B( 36-O , 37-C ) :   1.1842 B( 37-C , 38-C ) :   1.5049
B( 37-C , 71-H ) :   1.0083 B( 38-C , 39-C ) :   0.8804 B( 39-C , 40-O ) :   2.2190
B( 39-C , 41-C ) :   1.0042 B( 41-C , 42-C ) :   1.5002 B( 41-C , 44-C ) :   0.1083
B( 41-C , 45-S ) :   1.1193 B( 42-C , 43-C ) :   1.2707 B( 42-C , 72-H ) :   1.0043
B( 43-C , 44-C ) :   1.5008 B( 43-C , 73-H ) :   0.9942 B( 44-C , 45-S ) :   1.1560
B( 44-C , 46-C ) :   1.0462 B( 46-C , 47-S ) :   1.2127 B( 46-C , 48-C ) :   0.1187
B( 46-C , 50-C ) :   1.4138 B( 47-S , 48-C ) :   1.2106 B( 48-C , 49-C ) :   1.4554
B( 48-C , 74-H ) :   0.9499 B( 49-C , 50-C ) :   1.1752 B( 49-C , 56-C ) :   1.1835
B( 50-C , 51-C ) :   1.1943 B( 51-C , 52-C ) :   1.0925 B( 51-C , 54-C ) :   1.5493
B( 52-C , 53-N ) :   3.0227 B( 54-C , 55-C ) :   1.1802 B( 54-C , 75-H ) :   0.9935
B( 55-C , 56-C ) :   1.5461 B( 55-C , 76-H ) :   0.9959 B( 56-C , 57-C ) :   1.0774
B( 57-C , 58-N ) :   3.0394

-----------------------------------------------------------------------------
         ABSORPTION SPECTRUM VIA TRANSITION ELECTRIC DIPOLE MOMENTS
-----------------------------------------------------------------------------
State   Energy  Wavelength   fosc         T2         TX        TY        TZ
        (cm-1)    (nm)                  (au**2)     (au)      (au)      (au)
-----------------------------------------------------------------------------
   0   21260.4    470.4   0.033760214   0.52277   0.47732   0.38931  -0.37864
   1   23421.5    427.0   0.271775908   3.82008  -0.26707  -0.82612  -1.75108
   2   26293.1    380.3   0.330334734   4.13606  -1.56061  -1.29038   0.18834
   3   26577.1    376.3   0.001126120   0.01395  -0.08038  -0.02865  -0.08166
   4   26933.3    371.3   0.034473606   0.42138   0.58198   0.10415  -0.26801
   5   27349.3    365.6   0.004533666   0.05457   0.09325  -0.03781  -0.21083
   6   28872.1    346.4   0.000170821   0.00195   0.03126   0.01001  -0.02951
   7   29561.4    338.3   0.007200347   0.08019   0.22921   0.14277  -0.08524
   8   29778.0    335.8   0.048695388   0.53835   0.69140   0.23723  -0.06352
   9   30530.6    327.5   0.037956314   0.40928  -0.31550   0.32342  -0.45292
  10   31076.8    321.8   0.023321658   0.24706  -0.38907  -0.27710   0.13745
  11   31672.8    315.7   0.144939923   1.50653   1.12223   0.47689  -0.14040
  12   31853.2    313.9   0.032717534   0.33814  -0.33009  -0.47869   0.00650
  13   32041.2    312.1   0.486489377   4.99850   0.07201  -0.43411  -2.19200
  14   32710.4    305.7   0.038146444   0.38392  -0.07193  -0.30152  -0.53650
  15   32881.7    304.1   0.019387408   0.19411  -0.25126  -0.05540   0.35764
  16   32980.5    303.2   0.178780024   1.78459   0.69330   0.04266   1.14110
  17   33571.5    297.9   0.008206771   0.08048   0.27729  -0.01248  -0.05858
  18   33650.1    297.2   0.025054103   0.24511  -0.38625   0.30764   0.03580
  19   34297.3    291.6   0.000579109   0.00556   0.06440   0.03706   0.00617
  20   34705.5    288.1   0.288746717   2.73902  -0.58043  -1.53369   0.22342
  21   35004.5    285.7   0.015862649   0.14919  -0.38563  -0.00564  -0.02109
  22   35216.9    284.0   0.005217910   0.04878  -0.16729  -0.14281   0.01986
  23   35242.6    283.7   0.156290555   1.45996  -0.13004  -0.69382   0.98064
  24   36434.3    274.5   0.041948601   0.37904   0.41121   0.25698  -0.37934
  25   36480.2    274.1   0.000689117   0.00622   0.06864  -0.03846  -0.00534
  26   36937.5    270.7   0.410731593   3.66071  -1.34855   0.79312  -1.10140
  27   37311.5    268.0   0.034888050   0.30783  -0.00940   0.35411  -0.42702
  28   37450.0    267.0   0.105282082   0.92551   0.11419  -0.57562   0.76232
  29   37630.1    265.7   0.001763593   0.01543   0.12187  -0.00150  -0.02398
  30   38004.4    263.1   0.015223381   0.13187   0.11819  -0.34017  -0.04681
  31   38238.5    261.5   0.191399847   1.64785  -0.15056   1.04115  -0.73565
  32   38509.8    259.7   0.027697461   0.23678   0.28018  -0.24312   0.31491
  33   38602.8    259.0   0.167577422   1.42913  -0.03116   0.44755  -1.10809
  34   38642.6    258.8   0.214076818   1.82381  -1.05984   0.15301   0.82288
  35   38722.8    258.2   0.000581946   0.00495   0.00921   0.02643   0.06453
  36   39146.3    255.5   0.065713542   0.55264   0.59607   0.42302   0.13561
  37   39713.7    251.8   0.081351729   0.67438  -0.47504  -0.13860  -0.65537
  38   40196.3    248.8   0.001684889   0.01380  -0.05994  -0.00891  -0.10064

FINAL SINGLE POINT ENERGY     -3952.525625035771

DIPOLE MOMENT
-------------
                                X             Y             Z
Electronic contribution:     18.56503      23.98531      -0.93834
Nuclear contribution   :    -19.43285     -23.12877      -0.05762
                        -----------------------------------------
Total Dipole Moment    :     -0.86782       0.85654      -0.99597
                        -----------------------------------------
Magnitude (a.u.)       :      1.57440
Magnitude (Debye)      :      4.00180

Rotational constants in cm-1:     0.001716     0.000643     0.000531
Rotational constants in MHz :    51.444386    19.273420    15.914097

                             ****ORCA TERMINATED NORMALLY****
TOTAL RUN TIME: 0 days 0 hours 6 minutes 3 seconds 195 msec
