                         Program Version 4.2.0 -  RELEASE  -
|  1> # ORCA input file
|  2> # SCF done       -208.699297654918          0.000600094699
|  3> ! CAM-B3LYP def2-SVP def2/J RIJCOSX Grid4 TightSCF
|  4> %maxcore 5000
|  5> %tddft
|  6>     Mode sTDDFT
|  7>     Ethresh 5.0
|  8>     maxcore 5000
|  9> end
| 10>
| 11> %pal
| 12>   nprocs 6
| 13>   end
| 14> * xyz 0 1
| 15>    C       -2.36973        -0.76498        -4.43145
| 16>    N       -2.68835         0.27235        -5.25272
| 17>    C       -2.84231         0.19958        -6.68374
| 18>    C       -4.12495        -0.52896        -7.07576
| 19>    C       -2.92240         1.45473        -4.51928
| 20>    O       -3.21843         2.51687        -5.04092
| 21>    C       -2.71375         1.06501        -3.14906
| 22>    C       -2.37076        -0.32377        -3.13805
| 23>    C       -2.16626        -0.72170        -1.75716
| 24>    O       -1.86762        -1.78012        -1.25162
| 25>    N       -2.41123         0.45426        -1.02344
| 26>    C       -2.25253         0.49012         0.41100
| 27>    C       -0.90592         1.08421         0.81482
| 28>    C       -2.73008         1.51999        -1.83407
| 29>    C       -3.03651         2.81102        -1.33961
| 30>    C       -3.31043         3.85765        -2.16628
| 31>    C       -3.64312         5.14056        -1.67492
| 32>    N       -3.90313         6.22288        -2.48387
| 33>    C       -3.92312         6.23142        -3.92756
| 34>    C       -5.21451         5.63741        -4.48272
| 35>    C       -4.21918         7.37103        -1.74374
| 36>    O       -4.47619         8.44885        -2.24655
| 37>    C       -4.13937         6.94314        -0.36403
| 38>    C       -3.77813         5.57359        -0.35416
| 39>    C       -3.71261         5.14107         1.02240
| 40>    O       -3.44474         4.06618         1.52941
| 41>    N       -4.05487         6.28153         1.76342
| 42>    C       -4.05484         6.26245         3.20562
| 43>    C       -2.79238         6.89777         3.78338
| 44>    C       -4.31024         7.36817         0.95338
| 45>    C       -4.70132         8.63644         1.44196
| 46>    C       -4.90388         9.70302         0.62268
| 47>    C       -5.32206        10.98372         1.06263
| 48>    S       -5.47109        12.28522        -0.09091
| 49>    C       -6.01735        13.39095         1.12777
| 50>    C       -6.04825        12.76685         2.38364
| 51>    C       -5.66915        11.41786         2.32639
| 52>    C       -6.28182        13.43665         3.65633
| 53>    O       -6.56918        12.87999         4.68801
| 54>    C       -6.40062        14.70127         0.75547
| 55>    C       -7.28434        15.47463         1.44419
| 56>    C       -7.60269        16.79829         1.05916
| 57>    N       -8.53893        17.57567         1.70102
| 58>    C       -9.40054        17.17447         2.78581
| 59>    C      -10.56392        16.31392         2.29893
| 60>    C       -8.64613        18.85722         1.12864
| 61>    O       -9.43443        19.69579         1.51058
| 62>    C       -7.66278        18.85492         0.06756
| 63>    C       -7.05599        17.57561         0.03720
| 64>    C       -6.10425        17.55866        -1.04970
| 65>    O       -5.35662        16.69362        -1.46653
| 66>    N       -6.19331        18.84135        -1.60914
| 67>    C       -5.40790        19.20540        -2.76257
| 68>    C       -6.21913        19.12246        -4.05364
| 69>    C       -7.11399        19.63270        -0.95137
| 70>    C       -7.37935        20.97517        -1.30677
| 71>    C       -8.17122        21.79323        -0.55897
| 72>    C       -8.51042        23.14625        -0.80702
| 73>    N       -8.42827        23.87253        -1.98212
| 74>    C       -8.11302        23.40863        -3.31219
| 75>    C       -9.13717        22.40616        -3.83639
| 76>    C       -8.88615        25.19361        -1.81180
| 77>    O       -8.92580        26.00443        -2.71762
| 78>    C       -9.24081        25.28209        -0.41613
| 79>    C       -9.00735        24.00921         0.16521
| 80>    C       -9.31169        24.09662         1.57616
| 81>    O       -9.22678        23.31103         2.49187
| 82>    N       -9.74858        25.43525         1.74497
| 83>    C      -10.21350        25.89983         3.02834
| 84>    C      -11.73832        25.90740         3.10979
| 85>    C       -9.70827        26.14142         0.57201
| 86>    C      -10.08116        27.52265         0.46502
| 87>    C      -10.04839        28.19432        -0.68826
| 88>    H       -2.15828        -1.74033        -4.82862
| 89>    H       -1.97170        -0.30352        -7.11559
| 90>    H       -2.87394         1.23204        -7.04217
| 91>    H       -4.11203        -1.55393        -6.71212
| 92>    H       -4.22559        -0.54380        -8.15728
| 93>    H       -4.98795        -0.02120        -6.65214
| 94>    H       -2.31405        -0.54833         0.74790
| 95>    H       -3.06881         1.06175         0.85874
| 96>    H       -0.09505         0.50407         0.38057
| 97>    H       -0.80926         1.06639         1.89640
| 98>    H       -0.82309         2.11419         0.47656
| 99>    H       -3.06128         2.95701        -0.26937
|100>    H       -3.27707         3.71277        -3.23646
|101>    H       -3.05880         5.68363        -4.31026
|102>    H       -3.84286         7.28144        -4.22279
|103>    H       -5.29819         4.58493        -4.22475
|104>    H       -5.21854         5.72682        -5.56505
|105>    H       -6.07430         6.17051        -4.08339
|106>    H       -4.09904         5.20808         3.49296
|107>    H       -4.95066         6.76599         3.57996
|108>    H       -1.91441         6.35780         3.43741
|109>    H       -2.82169         6.85485         4.86862
|110>    H       -2.70244         7.93713         3.47520
|111>    H       -4.84306         8.74214         2.50730
|112>    H       -4.74287         9.58733        -0.44117
|113>    H       -5.63988        10.80314         3.20776
|114>    H       -6.12541        14.53263         3.62478
|115>    H       -5.98338        15.08039        -0.16895
|116>    H       -7.79469        15.06897         2.30579
|117>    H       -9.78681        18.10101         3.21995
|118>    H       -8.81704        16.64600         3.54496
|119>    H      -11.16095        16.87135         1.58137
|120>    H      -11.19579        16.04020         3.13912
|121>    H      -10.20484        15.40543         1.81992
|122>    H       -4.58383        18.48770        -2.80465
|123>    H       -4.99272        20.20766        -2.62357
|124>    H       -6.57623        18.10626        -4.19908
|125>    H       -5.59430        19.39525        -4.89930
|126>    H       -7.07816        19.78872        -4.02259
|127>    H       -6.88619        21.34561        -2.19086
|128>    H       -8.57995        21.41218         0.36951
|129>    H       -7.10079        22.99563        -3.34151
|130>    H       -8.12780        24.30696        -3.93815
|131>    H       -9.18591        21.52354        -3.20260
|132>    H       -8.87050        22.10283        -4.84549
|133>    H      -10.12265        22.86483        -3.86184
|134>    H       -9.80623        26.89415         3.23191
|135>    H       -9.81211        25.19702         3.76430
|136>    H      -12.16650        26.56576         2.35689
|137>    H      -12.05333        26.24640         4.09283
|138>    H      -12.12102        24.90266         2.94900
|139>    H      -10.39581        28.01532         1.37475
|140>    H       -9.73837        27.72341        -1.60626
|141>    H      -10.33066        29.23191        -0.73650
|142> *
|143>
|144>                          ****END OF INPUT****

CARTESIAN COORDINATES (ANGSTROEM)
---------------------------------
  C     -2.369730   -0.764980   -4.431450
  N     -2.688350    0.272350   -5.252720
  C     -2.842310    0.199580   -6.683740
  C     -4.124950   -0.528960   -7.075760
  C     -2.922400    1.454730   -4.519280
  O     -3.218430    2.516870   -5.040920
  C     -2.713750    1.065010   -3.149060
  C     -2.370760   -0.323770   -3.138050
  C     -2.166260   -0.721700   -1.757160
  O     -1.867620   -1.780120   -1.251620
  N     -2.411230    0.454260   -1.023440
  C     -2.252530    0.490120    0.411000
  C     -0.905920    1.084210    0.814820
  C     -2.730080    1.519990   -1.834070
  C     -3.036510    2.811020   -1.339610
  C     -3.310430    3.857650   -2.166280
  C     -3.643120    5.140560   -1.674920
  N     -3.903130    6.222880   -2.483870
  C     -3.923120    6.231420   -3.927560
  C     -5.214510    5.637410   -4.482720
  C     -4.219180    7.371030   -1.743740
  O     -4.476190    8.448850   -2.246550
  C     -4.139370    6.943140   -0.364030
  C     -3.778130    5.573590   -0.354160
  C     -3.712610    5.141070    1.022400
  O     -3.444740    4.066180    1.529410
  N     -4.054870    6.281530    1.763420
  C     -4.054840    6.262450    3.205620
  C     -2.792380    6.897770    3.783380
  C     -4.310240    7.368170    0.953380
  C     -4.701320    8.636440    1.441960
  C     -4.903880    9.703020    0.622680
  C     -5.322060   10.983720    1.062630
  S     -5.471090   12.285220   -0.090910
  C     -6.017350   13.390950    1.127770
  C     -6.048250   12.766850    2.383640
  C     -5.669150   11.417860    2.326390
  C     -6.281820   13.436650    3.656330
  O     -6.569180   12.879990    4.688010
  C     -6.400620   14.701270    0.755470
  C     -7.284340   15.474630    1.444190
  C     -7.602690   16.798290    1.059160
  N     -8.538930   17.575670    1.701020
  C     -9.400540   17.174470    2.785810
  C    -10.563920   16.313920    2.298930
  C     -8.646130   18.857220    1.128640
  O     -9.434430   19.695790    1.510580
  C     -7.662780   18.854920    0.067560
  C     -7.055990   17.575610    0.037200
  C     -6.104250   17.558660   -1.049700
  O     -5.356620   16.693620   -1.466530
  N     -6.193310   18.841350   -1.609140
  C     -5.407900   19.205400   -2.762570
  C     -6.219130   19.122460   -4.053640
  C     -7.113990   19.632700   -0.951370
  C     -7.379350   20.975170   -1.306770
  C     -8.171220   21.793230   -0.558970
  C     -8.510420   23.146250   -0.807020
  N     -8.428270   23.872530   -1.982120
  C     -8.113020   23.408630   -3.312190
  C     -9.137170   22.406160   -3.836390
  C     -8.886150   25.193610   -1.811800
  O     -8.925800   26.004430   -2.717620
  C     -9.240810   25.282090   -0.416130
  C     -9.007350   24.009210    0.165210
  C     -9.311690   24.096620    1.576160
  O     -9.226780   23.311030    2.491870
  N     -9.748580   25.435250    1.744970
  C    -10.213500   25.899830    3.028340
  C    -11.738320   25.907400    3.109790
  C     -9.708270   26.141420    0.572010
  C    -10.081160   27.522650    0.465020
  C    -10.048390   28.194320   -0.688260
  H     -2.158280   -1.740330   -4.828620
  H     -1.971700   -0.303520   -7.115590
  H     -2.873940    1.232040   -7.042170
  H     -4.112030   -1.553930   -6.712120
  H     -4.225590   -0.543800   -8.157280
  H     -4.987950   -0.021200   -6.652140
  H     -2.314050   -0.548330    0.747900
  H     -3.068810    1.061750    0.858740
  H     -0.095050    0.504070    0.380570
  H     -0.809260    1.066390    1.896400
  H     -0.823090    2.114190    0.476560
  H     -3.061280    2.957010   -0.269370
  H     -3.277070    3.712770   -3.236460
  H     -3.058800    5.683630   -4.310260
  H     -3.842860    7.281440   -4.222790
  H     -5.298190    4.584930   -4.224750
  H     -5.218540    5.726820   -5.565050
  H     -6.074300    6.170510   -4.083390
  H     -4.099040    5.208080    3.492960
  H     -4.950660    6.765990    3.579960
  H     -1.914410    6.357800    3.437410
  H     -2.821690    6.854850    4.868620
  H     -2.702440    7.937130    3.475200
  H     -4.843060    8.742140    2.507300
  H     -4.742870    9.587330   -0.441170
  H     -5.639880   10.803140    3.207760
  H     -6.125410   14.532630    3.624780
  H     -5.983380   15.080390   -0.168950
  H     -7.794690   15.068970    2.305790
  H     -9.786810   18.101010    3.219950
  H     -8.817040   16.646000    3.544960
  H    -11.160950   16.871350    1.581370
  H    -11.195790   16.040200    3.139120
  H    -10.204840   15.405430    1.819920
  H     -4.583830   18.487700   -2.804650
  H     -4.992720   20.207660   -2.623570
  H     -6.576230   18.106260   -4.199080
  H     -5.594300   19.395250   -4.899300
  H     -7.078160   19.788720   -4.022590
  H     -6.886190   21.345610   -2.190860
  H     -8.579950   21.412180    0.369510
  H     -7.100790   22.995630   -3.341510
  H     -8.127800   24.306960   -3.938150
  H     -9.185910   21.523540   -3.202600
  H     -8.870500   22.102830   -4.845490
  H    -10.122650   22.864830   -3.861840
  H     -9.806230   26.894150    3.231910
  H     -9.812110   25.197020    3.764300
  H    -12.166500   26.565760    2.356890
  H    -12.053330   26.246400    4.092830
  H    -12.121020   24.902660    2.949000
  H    -10.395810   28.015320    1.374750
  H     -9.738370   27.723410   -1.606260
  H    -10.330660   29.231910   -0.736500

 Total Charge           Charge          ....    0
 Multiplicity           Mult            ....    1
 Number of Electrons    NEL             ....  528
 Basis Dimension        Dim             .... 1296

ORBITAL ENERGIES
----------------

  NO   OCC          E(Eh)            E(eV)
   0   2.0000     -88.970186     -2421.0018
   1   2.0000     -19.212765      -522.8059
   2   2.0000     -19.193627      -522.2851
   3   2.0000     -19.191016      -522.2141
   4   2.0000     -19.190489      -522.1997
   5   2.0000     -19.188336      -522.1412
   6   2.0000     -19.187073      -522.1068
   7   2.0000     -19.185955      -522.0764
   8   2.0000     -19.184763      -522.0439
   9   2.0000     -19.179957      -521.9132
  10   2.0000     -14.453545      -393.3010
  11   2.0000     -14.452885      -393.2830
  12   2.0000     -14.452284      -393.2666
  13   2.0000     -14.451248      -393.2384
  14   2.0000     -14.450256      -393.2115
  15   2.0000     -14.448970      -393.1765
  16   2.0000     -14.448041      -393.1512
  17   2.0000     -14.443897      -393.0384
  18   2.0000     -10.375027      -282.3188
  19   2.0000     -10.373199      -282.2691
  20   2.0000     -10.373151      -282.2678
  21   2.0000     -10.370290      -282.1899
  22   2.0000     -10.369175      -282.1596
  23   2.0000     -10.369021      -282.1554
  24   2.0000     -10.368840      -282.1505
  25   2.0000     -10.366358      -282.0830
  26   2.0000     -10.358742      -281.8757
  27   2.0000     -10.342835      -281.4428
  28   2.0000     -10.338909      -281.3360
  29   2.0000     -10.338674      -281.3296
  30   2.0000     -10.336655      -281.2747
  31   2.0000     -10.335068      -281.2315
  32   2.0000     -10.332506      -281.1618
  33   2.0000     -10.331715      -281.1403
  34   2.0000     -10.324884      -280.9544
  35   2.0000     -10.324438      -280.9422
  36   2.0000     -10.314776      -280.6793
  37   2.0000     -10.309259      -280.5292
  38   2.0000     -10.308971      -280.5214
  39   2.0000     -10.307670      -280.4859
  40   2.0000     -10.306650      -280.4582
  41   2.0000     -10.306060      -280.4421
  42   2.0000     -10.304424      -280.3976
  43   2.0000     -10.299416      -280.2614
  44   2.0000     -10.298128      -280.2263
  45   2.0000     -10.297271      -280.2030
  46   2.0000     -10.296833      -280.1911
  47   2.0000     -10.294578      -280.1297
  48   2.0000     -10.293588      -280.1028
  49   2.0000     -10.292214      -280.0654
  50   2.0000     -10.291358      -280.0421
  51   2.0000     -10.290428      -280.0168
  52   2.0000     -10.290086      -280.0075
  53   2.0000     -10.289998      -280.0051
  54   2.0000     -10.288533      -279.9652
  55   2.0000     -10.285577      -279.8848
  56   2.0000     -10.283054      -279.8161
  57   2.0000     -10.265810      -279.3469
  58   2.0000     -10.264335      -279.3067
  59   2.0000     -10.263726      -279.2902
  60   2.0000     -10.263639      -279.2878
  61   2.0000     -10.263372      -279.2805
  62   2.0000     -10.261726      -279.2358
  63   2.0000     -10.261661      -279.2340
  64   2.0000     -10.261492      -279.2294
  65   2.0000     -10.261203      -279.2215
  66   2.0000     -10.260964      -279.2150
  67   2.0000     -10.258643      -279.1519
  68   2.0000     -10.256898      -279.1044
  69   2.0000     -10.255167      -279.0573
  70   2.0000     -10.254923      -279.0506
  71   2.0000     -10.250494      -278.9301
  72   2.0000     -10.249994      -278.9165
  73   2.0000      -8.065914      -219.4847
  74   2.0000      -6.034987      -164.2203
  75   2.0000      -6.030857      -164.1080
  76   2.0000      -6.028327      -164.0391
  77   2.0000      -1.132644       -30.8208
  78   2.0000      -1.132206       -30.8089
  79   2.0000      -1.131648       -30.7937
  80   2.0000      -1.126861       -30.6635
  81   2.0000      -1.125378       -30.6231
  82   2.0000      -1.125220       -30.6188
  83   2.0000      -1.123673       -30.5767
  84   2.0000      -1.123253       -30.5653
  85   2.0000      -1.119013       -30.4499
  86   2.0000      -1.062306       -28.9068
  87   2.0000      -1.062081       -28.9007
  88   2.0000      -1.061669       -28.8895
  89   2.0000      -1.057364       -28.7723
  90   2.0000      -1.054135       -28.6845
  91   2.0000      -1.052260       -28.6335
  92   2.0000      -1.049883       -28.5688
  93   2.0000      -1.047938       -28.5158
  94   2.0000      -0.999962       -27.2103
  95   2.0000      -0.930069       -25.3085
  96   2.0000      -0.927257       -25.2319
  97   2.0000      -0.926567       -25.2132
  98   2.0000      -0.922507       -25.1027
  99   2.0000      -0.920948       -25.0603
 100   2.0000      -0.909108       -24.7381
 101   2.0000      -0.906578       -24.6692
 102   2.0000      -0.899524       -24.4773
 103   2.0000      -0.893836       -24.3225
 104   2.0000      -0.872765       -23.7492
 105   2.0000      -0.869545       -23.6615
 106   2.0000      -0.868914       -23.6444
 107   2.0000      -0.865009       -23.5381
 108   2.0000      -0.858868       -23.3710
 109   2.0000      -0.847678       -23.0665
 110   2.0000      -0.831187       -22.6178
 111   2.0000      -0.828248       -22.5378
 112   2.0000      -0.820199       -22.3187
 113   2.0000      -0.818763       -22.2797
 114   2.0000      -0.815683       -22.1959
 115   2.0000      -0.813640       -22.1403
 116   2.0000      -0.802136       -21.8272
 117   2.0000      -0.791346       -21.5336
 118   2.0000      -0.785559       -21.3761
 119   2.0000      -0.768347       -20.9078
 120   2.0000      -0.760527       -20.6950
 121   2.0000      -0.759427       -20.6650
 122   2.0000      -0.756134       -20.5754
 123   2.0000      -0.754331       -20.5264
 124   2.0000      -0.751502       -20.4494
 125   2.0000      -0.746500       -20.3133
 126   2.0000      -0.730596       -19.8805
 127   2.0000      -0.715689       -19.4749
 128   2.0000      -0.709338       -19.3021
 129   2.0000      -0.708498       -19.2792
 130   2.0000      -0.704479       -19.1698
 131   2.0000      -0.702555       -19.1175
 132   2.0000      -0.701974       -19.1017
 133   2.0000      -0.692669       -18.8485
 134   2.0000      -0.690031       -18.7767
 135   2.0000      -0.680930       -18.5291
 136   2.0000      -0.672489       -18.2993
 137   2.0000      -0.663001       -18.0412
 138   2.0000      -0.657362       -17.8877
 139   2.0000      -0.653316       -17.7776
 140   2.0000      -0.649945       -17.6859
 141   2.0000      -0.646685       -17.5972
 142   2.0000      -0.645694       -17.5702
 143   2.0000      -0.644162       -17.5285
 144   2.0000      -0.640287       -17.4231
 145   2.0000      -0.617453       -16.8017
 146   2.0000      -0.615691       -16.7538
 147   2.0000      -0.608844       -16.5675
 148   2.0000      -0.602913       -16.4061
 149   2.0000      -0.597128       -16.2487
 150   2.0000      -0.590030       -16.0555
 151   2.0000      -0.588930       -16.0256
 152   2.0000      -0.586445       -15.9580
 153   2.0000      -0.584107       -15.8944
 154   2.0000      -0.582395       -15.8478
 155   2.0000      -0.577632       -15.7182
 156   2.0000      -0.577142       -15.7048
 157   2.0000      -0.573198       -15.5975
 158   2.0000      -0.569180       -15.4882
 159   2.0000      -0.567835       -15.4516
 160   2.0000      -0.566234       -15.4080
 161   2.0000      -0.563706       -15.3392
 162   2.0000      -0.561782       -15.2869
 163   2.0000      -0.557556       -15.1719
 164   2.0000      -0.549131       -14.9426
 165   2.0000      -0.546893       -14.8817
 166   2.0000      -0.546667       -14.8756
 167   2.0000      -0.546390       -14.8680
 168   2.0000      -0.544477       -14.8160
 169   2.0000      -0.535998       -14.5853
 170   2.0000      -0.532441       -14.4885
 171   2.0000      -0.530357       -14.4318
 172   2.0000      -0.529475       -14.4077
 173   2.0000      -0.528471       -14.3804
 174   2.0000      -0.526205       -14.3188
 175   2.0000      -0.523544       -14.2463
 176   2.0000      -0.521675       -14.1955
 177   2.0000      -0.521631       -14.1943
 178   2.0000      -0.520673       -14.1682
 179   2.0000      -0.519790       -14.1442
 180   2.0000      -0.517892       -14.0925
 181   2.0000      -0.515363       -14.0237
 182   2.0000      -0.513714       -13.9789
 183   2.0000      -0.512902       -13.9568
 184   2.0000      -0.511081       -13.9072
 185   2.0000      -0.508009       -13.8236
 186   2.0000      -0.507742       -13.8164
 187   2.0000      -0.504235       -13.7209
 188   2.0000      -0.503771       -13.7083
 189   2.0000      -0.502074       -13.6621
 190   2.0000      -0.500194       -13.6110
 191   2.0000      -0.497757       -13.5447
 192   2.0000      -0.497166       -13.5286
 193   2.0000      -0.496619       -13.5137
 194   2.0000      -0.495691       -13.4884
 195   2.0000      -0.489252       -13.3132
 196   2.0000      -0.477766       -13.0007
 197   2.0000      -0.476515       -12.9666
 198   2.0000      -0.474729       -12.9180
 199   2.0000      -0.474418       -12.9096
 200   2.0000      -0.472600       -12.8601
 201   2.0000      -0.469658       -12.7800
 202   2.0000      -0.468903       -12.7595
 203   2.0000      -0.467032       -12.7086
 204   2.0000      -0.465245       -12.6600
 205   2.0000      -0.463660       -12.6168
 206   2.0000      -0.462577       -12.5874
 207   2.0000      -0.460844       -12.5402
 208   2.0000      -0.459094       -12.4926
 209   2.0000      -0.458081       -12.4650
 210   2.0000      -0.457703       -12.4547
 211   2.0000      -0.455016       -12.3816
 212   2.0000      -0.454442       -12.3660
 213   2.0000      -0.453838       -12.3495
 214   2.0000      -0.451763       -12.2931
 215   2.0000      -0.450563       -12.2605
 216   2.0000      -0.448069       -12.1926
 217   2.0000      -0.447607       -12.1800
 218   2.0000      -0.446120       -12.1395
 219   2.0000      -0.444691       -12.1007
 220   2.0000      -0.443295       -12.0627
 221   2.0000      -0.441639       -12.0176
 222   2.0000      -0.441063       -12.0019
 223   2.0000      -0.439013       -11.9462
 224   2.0000      -0.436885       -11.8883
 225   2.0000      -0.435343       -11.8463
 226   2.0000      -0.434084       -11.8120
 227   2.0000      -0.432770       -11.7763
 228   2.0000      -0.431159       -11.7324
 229   2.0000      -0.429782       -11.6950
 230   2.0000      -0.429546       -11.6886
 231   2.0000      -0.424940       -11.5632
 232   2.0000      -0.422319       -11.4919
 233   2.0000      -0.420828       -11.4513
 234   2.0000      -0.419490       -11.4149
 235   2.0000      -0.417826       -11.3696
 236   2.0000      -0.415155       -11.2970
 237   2.0000      -0.408003       -11.1023
 238   2.0000      -0.403805       -10.9881
 239   2.0000      -0.400510       -10.8984
 240   2.0000      -0.391337       -10.6488
 241   2.0000      -0.355433        -9.6718
 242   2.0000      -0.351249        -9.5580
 243   2.0000      -0.348001        -9.4696
 244   2.0000      -0.346666        -9.4332
 245   2.0000      -0.344888        -9.3849
 246   2.0000      -0.342173        -9.3110
 247   2.0000      -0.341865        -9.3026
 248   2.0000      -0.338683        -9.2160
 249   2.0000      -0.334884        -9.1126
 250   2.0000      -0.331243        -9.0136
 251   2.0000      -0.330267        -8.9870
 252   2.0000      -0.329470        -8.9653
 253   2.0000      -0.328164        -8.9298
 254   2.0000      -0.323970        -8.8157
 255   2.0000      -0.314645        -8.5619
 256   2.0000      -0.313984        -8.5439
 257   2.0000      -0.312969        -8.5163
 258   2.0000      -0.307974        -8.3804
 259   2.0000      -0.296343        -8.0639
 260   2.0000      -0.261334        -7.1113
 261   2.0000      -0.256540        -6.9808
 262   2.0000      -0.232955        -6.3390
 263   2.0000      -0.222267        -6.0482
 264   0.0000      -0.103590        -2.8188
 265   0.0000      -0.088286        -2.4024
 266   0.0000      -0.060750        -1.6531
 267   0.0000      -0.039863        -1.0847
 268   0.0000      -0.019438        -0.5289

MULLIKEN ATOMIC CHARGES
-----------------------
   0 C :    0.038119
   1 N :   -0.255329
   2 C :    0.113334
   3 C :   -0.005150
   4 C :    0.171449
   5 O :   -0.223275
   6 C :   -0.103983
   7 C :    0.002083
   8 C :    0.163673
   9 O :   -0.184404
  10 N :   -0.266202
  11 C :    0.096619
  12 C :    0.009229
  13 C :    0.159550
  14 C :   -0.023572
  15 C :   -0.011383
  16 C :    0.135682
  17 N :   -0.254225
  18 C :    0.098941
  19 C :    0.010860
  20 C :    0.163707
  21 O :   -0.213966
  22 C :   -0.071862
  23 C :   -0.064466
  24 C :    0.165588
  25 O :   -0.216774
  26 N :   -0.259049
  27 C :    0.098396
  28 C :    0.002695
  29 C :    0.143523
  30 C :   -0.033851
  31 C :    0.085518
  32 C :   -0.077314
  33 S :    0.200000
  34 C :   -0.099599
  35 C :    0.022822
  36 C :   -0.019191
  37 C :    0.116182
  38 O :   -0.187350
  39 C :    0.050078
  40 C :   -0.043090
  41 C :    0.125006
  42 N :   -0.261065
  43 C :    0.095987
  44 C :    0.005143
  45 C :    0.159175
  46 O :   -0.192336
  47 C :   -0.057890
  48 C :   -0.066655
  49 C :    0.164913
  50 O :   -0.214781
  51 N :   -0.260571
  52 C :    0.100131
  53 C :    0.006974
  54 C :    0.132426
  55 C :   -0.014920
  56 C :   -0.027182
  57 C :    0.098572
  58 N :   -0.271414
  59 C :    0.100305
  60 C :   -0.006064
  61 C :    0.160047
  62 O :   -0.216356
  63 C :   -0.071042
  64 C :   -0.018384
  65 C :    0.149447
  66 O :   -0.164651
  67 N :   -0.267466
  68 C :    0.098146
  69 C :    0.004879
  70 C :    0.125328
  71 C :   -0.039556
  72 C :    0.021248
  73 H :    0.014455
  74 H :    0.018753
  75 H :    0.040930
  76 H :    0.015969
  77 H :    0.024384
  78 H :    0.029080
  79 H :    0.037033
  80 H :    0.040227
  81 H :    0.021899
  82 H :    0.023553
  83 H :    0.017144
  84 H :   -0.004275
  85 H :   -0.002343
  86 H :    0.036684
  87 H :    0.036989
  88 H :    0.022958
  89 H :    0.023483
  90 H :    0.018573
  91 H :    0.042570
  92 H :    0.024834
  93 H :    0.028383
  94 H :    0.026302
  95 H :    0.017572
  96 H :   -0.025787
  97 H :    0.011289
  98 H :   -0.003864
  99 H :   -0.000280
 100 H :    0.023957
 101 H :   -0.010666
 102 H :    0.048452
 103 H :    0.024305
 104 H :    0.029616
 105 H :    0.024919
 106 H :    0.015400
 107 H :    0.043420
 108 H :    0.023229
 109 H :    0.029907
 110 H :    0.023438
 111 H :    0.008634
 112 H :   -0.047333
 113 H :    0.036824
 114 H :    0.020572
 115 H :    0.045874
 116 H :    0.033235
 117 H :    0.022425
 118 H :    0.024165
 119 H :    0.022768
 120 H :    0.045104
 121 H :    0.014866
 122 H :    0.022140
 123 H :    0.031614
 124 H :   -0.017025
 125 H :    0.059304
 126 H :    0.032931
Sum of atomic charges:   -0.0000000

LOEWDIN ATOMIC CHARGES
----------------------
   0 C :    0.087514
   1 N :    0.000700
   2 C :    0.038011
   3 C :   -0.060779
   4 C :    0.076440
   5 O :   -0.213794
   6 C :   -0.128533
   7 C :   -0.125350
   8 C :    0.081459
   9 O :   -0.189437
  10 N :   -0.003944
  11 C :    0.036736
  12 C :   -0.059236
  13 C :    0.082299
  14 C :   -0.009508
  15 C :    0.002409
  16 C :    0.066515
  17 N :    0.006036
  18 C :    0.037629
  19 C :   -0.058756
  20 C :    0.077981
  21 O :   -0.205713
  22 C :   -0.122639
  23 C :   -0.112815
  24 C :    0.081952
  25 O :   -0.206074
  26 N :   -0.000417
  27 C :    0.036083
  28 C :   -0.061185
  29 C :    0.079418
  30 C :   -0.047701
  31 C :    0.014902
  32 C :   -0.171370
  33 S :    0.488891
  34 C :   -0.148377
  35 C :   -0.109264
  36 C :   -0.012910
  37 C :    0.097571
  38 O :   -0.139848
  39 C :    0.000793
  40 C :   -0.039777
  41 C :    0.071277
  42 N :   -0.000683
  43 C :    0.036122
  44 C :   -0.060770
  45 C :    0.078120
  46 O :   -0.184923
  47 C :   -0.115238
  48 C :   -0.118189
  49 C :    0.078743
  50 O :   -0.204783
  51 N :   -0.001489
  52 C :    0.036154
  53 C :   -0.061900
  54 C :    0.071640
  55 C :   -0.044173
  56 C :    0.016723
  57 C :    0.056386
  58 N :   -0.007768
  59 C :    0.034315
  60 C :   -0.064227
  61 C :    0.080110
  62 O :   -0.206207
  63 C :   -0.133147
  64 C :   -0.093894
  65 C :    0.083764
  66 O :   -0.168485
  67 N :   -0.003574
  68 C :    0.035522
  69 C :   -0.060591
  70 C :    0.093422
  71 C :   -0.055727
  72 C :    0.034376
  73 H :    0.032093
  74 H :    0.024311
  75 H :    0.035527
  76 H :    0.022532
  77 H :    0.030413
  78 H :    0.031197
  79 H :    0.035410
  80 H :    0.029883
  81 H :    0.028150
  82 H :    0.031364
  83 H :    0.023405
  84 H :    0.035029
  85 H :    0.036566
  86 H :    0.029290
  87 H :    0.035165
  88 H :    0.025016
  89 H :    0.031895
  90 H :    0.026984
  91 H :    0.037408
  92 H :    0.023272
  93 H :    0.031860
  94 H :    0.031470
  95 H :    0.022754
  96 H :    0.028536
  97 H :    0.037435
  98 H :    0.035424
  99 H :   -0.000530
 100 H :    0.039862
 101 H :    0.030622
 102 H :    0.039978
 103 H :    0.023126
 104 H :    0.032294
 105 H :    0.031432
 106 H :    0.021725
 107 H :    0.038117
 108 H :    0.022751
 109 H :    0.032958
 110 H :    0.030702
 111 H :    0.020548
 112 H :    0.025947
 113 H :    0.051903
 114 H :    0.016321
 115 H :    0.037625
 116 H :    0.022971
 117 H :    0.029511
 118 H :    0.031982
 119 H :    0.022549
 120 H :    0.038136
 121 H :    0.021771
 122 H :    0.030293
 123 H :    0.033116
 124 H :    0.030343
 125 H :    0.033905
 126 H :    0.030833

  Mayer bond orders larger than 0.100000
B(  0-C ,  1-N ) :   1.1829 B(  0-C ,  7-C ) :   1.4621 B(  0-C , 73-H ) :   0.9897
B(  1-N ,  2-C ) :   0.9437 B(  1-N ,  4-C ) :   1.0653 B(  2-C ,  3-C ) :   1.1182
B(  2-C , 74-H ) :   0.9540 B(  2-C , 75-H ) :   0.9344 B(  3-C , 76-H ) :   0.9696
B(  3-C , 77-H ) :   0.9687 B(  3-C , 78-H ) :   0.9674 B(  4-C ,  5-O ) :   2.0003
B(  4-C ,  6-C ) :   1.0117 B(  5-O , 85-H ) :   0.1046 B(  6-C ,  7-C ) :   1.2086
B(  6-C , 13-C ) :   1.3543 B(  7-C ,  8-C ) :   0.9420 B(  8-C ,  9-O ) :   2.1800
B(  8-C , 10-N ) :   1.0240 B( 10-N , 11-C ) :   0.9411 B( 10-N , 13-C ) :   1.1629
B( 11-C , 12-C ) :   1.1258 B( 11-C , 79-H ) :   0.9282 B( 11-C , 80-H ) :   0.9472
B( 12-C , 81-H ) :   0.9646 B( 12-C , 82-H ) :   0.9675 B( 12-C , 83-H ) :   0.9667
B( 13-C , 14-C ) :   1.1509 B( 14-C , 15-C ) :   1.5439 B( 14-C , 84-H ) :   0.9487
B( 15-C , 16-C ) :   1.1546 B( 15-C , 85-H ) :   0.9491 B( 16-C , 17-N ) :   1.1614
B( 16-C , 23-C ) :   1.3230 B( 17-N , 18-C ) :   0.9392 B( 17-N , 20-C ) :   1.0711
B( 18-C , 19-C ) :   1.1272 B( 18-C , 86-H ) :   0.9472 B( 18-C , 87-H ) :   0.9283
B( 19-C , 88-H ) :   0.9659 B( 19-C , 89-H ) :   0.9671 B( 19-C , 90-H ) :   0.9632
B( 20-C , 21-O ) :   2.0208 B( 20-C , 22-C ) :   0.9857 B( 21-O , 97-H ) :   0.1172
B( 22-C , 23-C ) :   1.2614 B( 22-C , 29-C ) :   1.3278 B( 23-C , 24-C ) :   0.9883
B( 24-C , 25-O ) :   2.0157 B( 24-C , 26-N ) :   1.0676 B( 25-O , 84-H ) :   0.1055
B( 26-N , 27-C ) :   0.9466 B( 26-N , 29-C ) :   1.1507 B( 27-C , 28-C ) :   1.1211
B( 27-C , 91-H ) :   0.9280 B( 27-C , 92-H ) :   0.9494 B( 28-C , 93-H ) :   0.9636
B( 28-C , 94-H ) :   0.9679 B( 28-C , 95-H ) :   0.9684 B( 29-C , 30-C ) :   1.1765
B( 30-C , 31-C ) :   1.6130 B( 30-C , 96-H ) :   0.9618 B( 31-C , 32-C ) :   1.1287
B( 31-C , 97-H ) :   0.9374 B( 32-C , 33-S ) :   1.1176 B( 32-C , 36-C ) :   1.4490
B( 33-S , 34-C ) :   1.1696 B( 34-C , 35-C ) :   1.3735 B( 34-C , 39-C ) :   1.1348
B( 35-C , 36-C ) :   1.2884 B( 35-C , 37-C ) :   0.9733 B( 36-C , 98-H ) :   1.0015
B( 37-C , 38-O ) :   2.1704 B( 37-C , 99-H ) :   0.9583 B( 39-C , 40-C ) :   1.6012
B( 39-C ,100-H ) :   0.9308 B( 40-C , 41-C ) :   1.1778 B( 40-C ,101-H ) :   0.9585
B( 41-C , 42-N ) :   1.1627 B( 41-C , 48-C ) :   1.3296 B( 42-N , 43-C ) :   0.9463
B( 42-N , 45-C ) :   1.0464 B( 43-C , 44-C ) :   1.1210 B( 43-C ,102-H ) :   0.9274
B( 43-C ,103-H ) :   0.9495 B( 44-C ,104-H ) :   0.9634 B( 44-C ,105-H ) :   0.9678
B( 44-C ,106-H ) :   0.9683 B( 45-C , 46-O ) :   2.0649 B( 45-C , 47-C ) :   0.9787
B( 47-C , 48-C ) :   1.2600 B( 47-C , 54-C ) :   1.3375 B( 48-C , 49-C ) :   0.9854
B( 49-C , 50-O ) :   2.0242 B( 49-C , 51-N ) :   1.0667 B( 50-O ,100-H ) :   0.1100
B( 51-N , 52-C ) :   0.9483 B( 51-N , 54-C ) :   1.1470 B( 52-C , 53-C ) :   1.1200
B( 52-C ,107-H ) :   0.9270 B( 52-C ,108-H ) :   0.9493 B( 53-C ,109-H ) :   0.9620
B( 53-C ,110-H ) :   0.9673 B( 53-C ,111-H ) :   0.9680 B( 54-C , 55-C ) :   1.1646
B( 55-C , 56-C ) :   1.5214 B( 55-C ,112-H ) :   0.9624 B( 56-C , 57-C ) :   1.1806
B( 56-C ,113-H ) :   0.9346 B( 57-C , 58-N ) :   1.1487 B( 57-C , 64-C ) :   1.3669
B( 58-N , 59-C ) :   0.9499 B( 58-N , 61-C ) :   1.0615 B( 59-C , 60-C ) :   1.1175
B( 59-C ,114-H ) :   0.9485 B( 59-C ,115-H ) :   0.9205 B( 60-C ,116-H ) :   0.9638
B( 60-C ,117-H ) :   0.9661 B( 60-C ,118-H ) :   0.9597 B( 61-C , 62-O ) :   2.0315
B( 61-C , 63-C ) :   0.9924 B( 63-C , 64-C ) :   1.2385 B( 63-C , 70-C ) :   1.3434
B( 64-C , 65-C ) :   0.9639 B( 65-C , 66-O ) :   2.1583 B( 65-C , 67-N ) :   1.0129
B( 67-N , 68-C ) :   0.9468 B( 67-N , 70-C ) :   1.1895 B( 68-C , 69-C ) :   1.1182
B( 68-C ,119-H ) :   0.9509 B( 68-C ,120-H ) :   0.9275 B( 69-C ,121-H ) :   0.9689
B( 69-C ,122-H ) :   0.9684 B( 69-C ,123-H ) :   0.9643 B( 70-C , 71-C ) :   1.1285
B( 71-C , 72-C ) :   1.8838 B( 71-C ,124-H ) :   0.9540 B( 72-C ,125-H ) :   0.9253
B( 72-C ,126-H ) :   0.9443

-----------------------------------------------------------------------------
         ABSORPTION SPECTRUM VIA TRANSITION ELECTRIC DIPOLE MOMENTS
-----------------------------------------------------------------------------
State   Energy  Wavelength   fosc         T2         TX        TY        TZ
        (cm-1)    (nm)                  (au**2)     (au)      (au)      (au)
-----------------------------------------------------------------------------
   0   11898.0    840.5   1.576458266  43.62000  -1.44885   6.38185   0.89039
   1   14549.6    687.3   0.235041682   5.31826   0.31373  -0.44129  -2.24167
   2   18327.4    545.6   0.025096747   0.45081   0.13424  -0.07992  -0.65299
   3   19071.9    524.3   0.164709283   2.84315   0.36805  -0.18688  -1.63486
   4   19685.3    508.0   0.026724783   0.44694  -0.53438   0.25534   0.31012
   5   20286.9    492.9   0.065277509   1.05931   0.07389  -0.16137   1.01381
   6   23025.5    434.3   0.108694651   1.55408  -0.62846   0.65813   0.85205
   7   24602.7    406.5   0.027794005   0.37192   0.11390   0.34059  -0.49289
   8   26276.6    380.6   0.023637632   0.29615   0.01664   0.32876  -0.43335
   9   26291.3    380.4   0.082675455   1.03524  -0.45659   0.90706   0.06332
  10   26614.4    375.7   0.203580514   2.51822   0.59882  -1.46274  -0.14152
  11   26921.3    371.5   0.003421176   0.04184   0.03484  -0.09165  -0.17951
  12   27049.6    369.7   0.003260941   0.03969  -0.10392   0.11716   0.12314
  13   27198.7    367.7   0.010019372   0.12127   0.13099  -0.11187  -0.30266
  14   27626.4    362.0   0.164647452   1.96203   0.29563  -1.21282   0.63538
  15   27924.9    358.1   0.006803700   0.08021  -0.02920  -0.26262   0.10192
  16   28300.0    353.4   0.001809785   0.02105  -0.00102   0.14419  -0.01618
  17   28649.9    349.0   0.028181397   0.32383  -0.17987   0.46595  -0.27270
  18   28688.4    348.6   0.023084414   0.26490  -0.04983   0.43385  -0.27239
  19   29165.8    342.9   0.001246966   0.01408  -0.09009  -0.06755  -0.03738
  20   29466.3    339.4   0.161930730   1.80917   0.77125  -1.02291  -0.40987
  21   30477.3    328.1   0.034843851   0.37638  -0.22270   0.56458   0.08963
  22   30860.8    324.0   0.038263774   0.40818  -0.26851   0.53733   0.21763
  23   31288.9    319.6   0.003759689   0.03956   0.03909  -0.17398   0.08810
  24   31591.2    316.5   0.013758316   0.14338  -0.13517   0.19976  -0.29189
  25   32003.2    312.5   0.015551519   0.15998  -0.21408   0.30221  -0.15105
  26   32207.3    310.5   0.046659976   0.47694  -0.29964   0.38580  -0.48818
  27   32309.6    309.5   0.003623979   0.03693   0.04159   0.02366   0.18611
  28   32549.5    307.2   0.023792531   0.24064  -0.23763   0.27754   0.32733
  29   33000.4    303.0   0.003213108   0.03205  -0.05048   0.17058   0.02024
  30   33721.9    296.5   0.144863299   1.41423   0.15988  -1.16881   0.15016
  31   34253.1    291.9   0.109098390   1.04856  -0.50050   0.86958   0.20466
  32   35275.0    283.5   0.065436505   0.61070  -0.04120   0.39645   0.67219
  33   36129.6    276.8   0.039276012   0.35788  -0.04118   0.59671   0.01105
  34   36312.1    275.4   0.307625856   2.78899  -0.44276   1.51750  -0.53866
  35   36475.8    274.2   0.115435078   1.04186  -0.40174   0.92035   0.18281
  36   36842.0    271.4   0.102726407   0.91794  -0.36326   0.87942   0.11229
  37   36951.0    270.6   0.014310806   0.12750   0.11488  -0.32083   0.10666
  38   37160.9    269.1   0.055044679   0.48765   0.18681  -0.51315   0.43523
  39   37236.6    268.6   0.097854464   0.86514   0.46917  -0.79909  -0.08044
  40   37583.6    266.1   0.074950912   0.65653  -0.50701   0.53088   0.34297
  41   38229.1    261.6   0.001786527   0.01538   0.02386   0.08393   0.08815
  42   38333.1    260.9   0.012693257   0.10901   0.09233  -0.30784  -0.07565
  43   38819.8    257.6   0.057694586   0.48928  -0.27107   0.63990  -0.07952
  44   38867.0    257.3   0.013013312   0.11023  -0.05844  -0.06754   0.31976
  45   39325.3    254.3   0.006586387   0.05514  -0.09804   0.21044  -0.03525
  46   39416.1    253.7   0.000126681   0.00106  -0.00037  -0.02776   0.01694
  47   39801.1    251.2   0.196058031   1.62168   0.45266  -1.18993  -0.02918
  48   40037.6    249.8   0.076809255   0.63157  -0.22764   0.75612  -0.08962

FINAL SINGLE POINT ENERGY     -3637.517817217796

DIPOLE MOMENT
-------------
                                X             Y             Z
Electronic contribution:     12.26856      -4.81890      12.72085
Nuclear contribution   :    -12.82389       6.44611     -13.39888
                        -----------------------------------------
Total Dipole Moment    :     -0.55533       1.62721      -0.67803
                        -----------------------------------------
Magnitude (a.u.)       :      1.84822
Magnitude (Debye)      :      4.69781

Rotational constants in cm-1:     0.002473     0.000188     0.000178
Rotational constants in MHz :    74.129665     5.636239     5.326830

                             ****ORCA TERMINATED NORMALLY****
TOTAL RUN TIME: 0 days 0 hours 11 minutes 41 seconds 925 msec
