                         Program Version 4.2.0 -  RELEASE  -
|  1> # ORCA input file
|  2> # SCF done       -213.068214271730          0.000665539609
|  3> ! CAM-B3LYP def2-SVP def2/J RIJCOSX Grid4 TightSCF
|  4> %maxcore 5000
|  5> %tddft
|  6>     Mode sTDDFT
|  7>     Ethresh 5.0
|  8>     maxcore 5000
|  9> end
| 10>
| 11> %pal
| 12>   nprocs 6
| 13>   end
| 14> * xyz 0 1
| 15>    C       -0.81780         5.10211         3.59901
| 16>    C       -0.99849         4.76203         2.30194
| 17>    C       -0.31960         3.56953         1.93135
| 18>    C        0.38880         3.03405         2.99212
| 19>    S        0.20878         3.99738         4.42601
| 20>    C        1.20827         1.88580         2.97864
| 21>    C        1.26924         0.90689         1.99785
| 22>    C        0.49071         0.75112         0.76017
| 23>    O        0.47905        -0.33902         0.21938
| 24>    N       -0.17476         1.81188         0.15777
| 25>    C       -0.40546         3.13336         0.53487
| 26>    O       -0.77759         3.92779        -0.30760
| 27>    C       -0.66575         1.50042        -1.19268
| 28>    C        0.41551         1.72606        -2.24071
| 29>    C        2.18253        -0.11570         2.32696
| 30>    C        2.82110         0.05893         3.52952
| 31>    S        2.27930         1.52881         4.29531
| 32>    C        3.78711        -0.75844         4.18376
| 33>    C        4.24383        -1.92970         3.68966
| 34>    C        5.20358        -2.77572         4.31346
| 35>    S        5.20250        -4.46837         3.86018
| 36>    C        6.39833        -4.84857         5.05227
| 37>    N        6.86613        -6.11701         5.17356
| 38>    C        6.48734        -7.12446         4.21437
| 39>    C        6.79178        -3.72347         5.77693
| 40>    C        6.12758        -2.54775         5.30849
| 41>    C        6.48723        -1.20249         5.81208
| 42>    O        6.63434        -0.90829         6.97157
| 43>    O        6.68966        -0.34815         4.79932
| 44>    C        7.04693         0.97797         5.16428
| 45>    C        7.76233        -3.69732         6.82877
| 46>    C        8.15064        -4.75165         7.58501
| 47>    C        9.15159        -4.73028         8.59403
| 48>    S        9.12432        -5.98847         9.78893
| 49>    C       10.49032        -5.35841        10.64711
| 50>    C       10.96962        -4.20629        10.01347
| 51>    C       10.22106        -3.85896         8.83440
| 52>    C       10.65283        -2.77986         8.04292
| 53>    C       11.72403        -2.01632         8.44019
| 54>    C       12.14966        -0.93767         7.63513
| 55>    N       12.47016        -0.06665         6.96182
| 56>    C       12.40916        -2.30820         9.66136
| 57>    C       13.48471        -1.49099        10.07238
| 58>    N       14.36532        -0.84374        10.41878
| 59>    C       12.04159        -3.39180        10.42063
| 60>    C       10.99749        -6.04758        11.78100
| 61>    S       12.69653        -5.94682        12.22437
| 62>    C       12.49840        -7.14089        13.46189
| 63>    N       13.52733        -7.45530        14.28045
| 64>    C       14.87820        -7.04667        13.99780
| 65>    C       11.18512        -7.59561        13.54709
| 66>    C       10.35390        -6.96472        12.58051
| 67>    C        8.90651        -7.27076        12.43990
| 68>    O        8.01366        -6.48288        12.61729
| 69>    O        8.72387        -8.54693        12.08250
| 70>    C        7.37514        -8.97777        11.96942
| 71>    C       10.75689        -8.57762        14.50482
| 72>    C        9.50671        -8.68298        14.99547
| 73>    C        9.07148        -9.71085        15.88420
| 74>    C        9.72969       -10.82372        16.34249
| 75>    C        8.96035       -11.64562        17.19165
| 76>    C        7.68715       -11.13676        17.39798
| 77>    S        7.45326        -9.65156        16.53121
| 78>    C        6.68418       -11.66895        18.23161
| 79>    C        6.63268       -12.94302        18.77730
| 80>    C        7.53598       -14.08535        18.59705
| 81>    O        7.12638       -15.19966        18.86322
| 82>    N        8.86220       -13.92948        18.20080
| 83>    C        9.60092       -12.83725        17.76091
| 84>    O       10.81612       -12.90867        17.75470
| 85>    C        9.66473       -15.15028        18.36345
| 86>    C       10.19565       -15.27874        19.78456
| 87>    C        5.46568       -13.13897        19.54997
| 88>    C        4.64068       -12.05001        19.61223
| 89>    S        5.29300       -10.73439        18.67572
| 90>    C        3.39047       -11.87312        20.30284
| 91>    C        2.79571       -12.80052        21.04908
| 92>    H       -1.22190         5.94093         4.12942
| 93>    H       -1.59287         5.31867         1.60095
| 94>    H       -1.51991         2.14873        -1.38977
| 95>    H       -0.98159         0.45655        -1.19124
| 96>    H        0.73217         2.76610        -2.23335
| 97>    H        0.02259         1.48621        -3.22468
| 98>    H        1.27260         1.08718        -2.04088
| 99>    H        2.34053        -0.95382         1.67410
|100>    H        4.13921        -0.40107         5.14063
|101>    H        3.82519        -2.31143         2.76863
|102>    H        7.80369        -6.18812         5.54687
|103>    H        5.39979        -7.20126         4.19018
|104>    H        6.90268        -8.08045         4.52359
|105>    H        6.83649        -6.88880         3.20255
|106>    H        7.11399         1.53832         4.23581
|107>    H        8.00660         0.98436         5.68543
|108>    H        6.28843         1.40985         5.82073
|109>    H        8.14258        -2.71646         7.06689
|110>    H        7.61508        -5.68896         7.50973
|111>    H       10.16588        -2.55616         7.10784
|112>    H       12.57715        -3.60670        11.33197
|113>    H       13.40098        -8.26626        14.86672
|114>    H       14.89460        -5.97303        13.80402
|115>    H       15.29117        -7.55958        13.12225
|116>    H       15.50182        -7.25865        14.86267
|117>    H        6.78993        -8.24456        11.41085
|118>    H        6.93636        -9.10004        12.96233
|119>    H        7.40114        -9.93117        11.44848
|120>    H       11.51173        -9.27359        14.84781
|121>    H        8.76235        -7.94378        14.73591
|122>    H       10.74086       -11.07871        16.08504
|123>    H       10.49302       -15.09580        17.65649
|124>    H        9.02133       -15.99677        18.12045
|125>    H       10.82803       -14.42794        20.02614
|126>    H       10.78278       -16.18859        19.87190
|127>    H        9.37051       -15.32595        20.49135
|128>    H        5.26658       -14.07629        20.03537
|129>    H        2.93287       -10.90014        20.18008
|130>    H        3.21894       -13.77953        21.18998
|131>    H        1.85815       -12.60505        21.53831
|132> *
|133>
|134>                          ****END OF INPUT****

CARTESIAN COORDINATES (ANGSTROEM)
---------------------------------
  C     -0.817800    5.102110    3.599010
  C     -0.998490    4.762030    2.301940
  C     -0.319600    3.569530    1.931350
  C      0.388800    3.034050    2.992120
  S      0.208780    3.997380    4.426010
  C      1.208270    1.885800    2.978640
  C      1.269240    0.906890    1.997850
  C      0.490710    0.751120    0.760170
  O      0.479050   -0.339020    0.219380
  N     -0.174760    1.811880    0.157770
  C     -0.405460    3.133360    0.534870
  O     -0.777590    3.927790   -0.307600
  C     -0.665750    1.500420   -1.192680
  C      0.415510    1.726060   -2.240710
  C      2.182530   -0.115700    2.326960
  C      2.821100    0.058930    3.529520
  S      2.279300    1.528810    4.295310
  C      3.787110   -0.758440    4.183760
  C      4.243830   -1.929700    3.689660
  C      5.203580   -2.775720    4.313460
  S      5.202500   -4.468370    3.860180
  C      6.398330   -4.848570    5.052270
  N      6.866130   -6.117010    5.173560
  C      6.487340   -7.124460    4.214370
  C      6.791780   -3.723470    5.776930
  C      6.127580   -2.547750    5.308490
  C      6.487230   -1.202490    5.812080
  O      6.634340   -0.908290    6.971570
  O      6.689660   -0.348150    4.799320
  C      7.046930    0.977970    5.164280
  C      7.762330   -3.697320    6.828770
  C      8.150640   -4.751650    7.585010
  C      9.151590   -4.730280    8.594030
  S      9.124320   -5.988470    9.788930
  C     10.490320   -5.358410   10.647110
  C     10.969620   -4.206290   10.013470
  C     10.221060   -3.858960    8.834400
  C     10.652830   -2.779860    8.042920
  C     11.724030   -2.016320    8.440190
  C     12.149660   -0.937670    7.635130
  N     12.470160   -0.066650    6.961820
  C     12.409160   -2.308200    9.661360
  C     13.484710   -1.490990   10.072380
  N     14.365320   -0.843740   10.418780
  C     12.041590   -3.391800   10.420630
  C     10.997490   -6.047580   11.781000
  S     12.696530   -5.946820   12.224370
  C     12.498400   -7.140890   13.461890
  N     13.527330   -7.455300   14.280450
  C     14.878200   -7.046670   13.997800
  C     11.185120   -7.595610   13.547090
  C     10.353900   -6.964720   12.580510
  C      8.906510   -7.270760   12.439900
  O      8.013660   -6.482880   12.617290
  O      8.723870   -8.546930   12.082500
  C      7.375140   -8.977770   11.969420
  C     10.756890   -8.577620   14.504820
  C      9.506710   -8.682980   14.995470
  C      9.071480   -9.710850   15.884200
  C      9.729690  -10.823720   16.342490
  C      8.960350  -11.645620   17.191650
  C      7.687150  -11.136760   17.397980
  S      7.453260   -9.651560   16.531210
  C      6.684180  -11.668950   18.231610
  C      6.632680  -12.943020   18.777300
  C      7.535980  -14.085350   18.597050
  O      7.126380  -15.199660   18.863220
  N      8.862200  -13.929480   18.200800
  C      9.600920  -12.837250   17.760910
  O     10.816120  -12.908670   17.754700
  C      9.664730  -15.150280   18.363450
  C     10.195650  -15.278740   19.784560
  C      5.465680  -13.138970   19.549970
  C      4.640680  -12.050010   19.612230
  S      5.293000  -10.734390   18.675720
  C      3.390470  -11.873120   20.302840
  C      2.795710  -12.800520   21.049080
  H     -1.221900    5.940930    4.129420
  H     -1.592870    5.318670    1.600950
  H     -1.519910    2.148730   -1.389770
  H     -0.981590    0.456550   -1.191240
  H      0.732170    2.766100   -2.233350
  H      0.022590    1.486210   -3.224680
  H      1.272600    1.087180   -2.040880
  H      2.340530   -0.953820    1.674100
  H      4.139210   -0.401070    5.140630
  H      3.825190   -2.311430    2.768630
  H      7.803690   -6.188120    5.546870
  H      5.399790   -7.201260    4.190180
  H      6.902680   -8.080450    4.523590
  H      6.836490   -6.888800    3.202550
  H      7.113990    1.538320    4.235810
  H      8.006600    0.984360    5.685430
  H      6.288430    1.409850    5.820730
  H      8.142580   -2.716460    7.066890
  H      7.615080   -5.688960    7.509730
  H     10.165880   -2.556160    7.107840
  H     12.577150   -3.606700   11.331970
  H     13.400980   -8.266260   14.866720
  H     14.894600   -5.973030   13.804020
  H     15.291170   -7.559580   13.122250
  H     15.501820   -7.258650   14.862670
  H      6.789930   -8.244560   11.410850
  H      6.936360   -9.100040   12.962330
  H      7.401140   -9.931170   11.448480
  H     11.511730   -9.273590   14.847810
  H      8.762350   -7.943780   14.735910
  H     10.740860  -11.078710   16.085040
  H     10.493020  -15.095800   17.656490
  H      9.021330  -15.996770   18.120450
  H     10.828030  -14.427940   20.026140
  H     10.782780  -16.188590   19.871900
  H      9.370510  -15.325950   20.491350
  H      5.266580  -14.076290   20.035370
  H      2.932870  -10.900140   20.180080
  H      3.218940  -13.779530   21.189980
  H      1.858150  -12.605050   21.538310

 Total Charge           Charge          ....    0
 Multiplicity           Mult            ....    1
 Number of Electrons    NEL             ....  594
 Basis Dimension        Dim             .... 1306

ORBITAL ENERGIES
----------------

  NO   OCC          E(Eh)            E(eV)
   0   2.0000     -88.976281     -2421.1677
   1   2.0000     -88.973747     -2421.0987
   2   2.0000     -88.970864     -2421.0203
   3   2.0000     -88.969406     -2420.9806
   4   2.0000     -88.968637     -2420.9597
   5   2.0000     -88.968533     -2420.9569
   6   2.0000     -88.968311     -2420.9508
   7   2.0000     -19.267605      -524.2982
   8   2.0000     -19.260317      -524.0999
   9   2.0000     -19.212621      -522.8020
  10   2.0000     -19.209446      -522.7156
  11   2.0000     -19.197937      -522.4024
  12   2.0000     -19.195126      -522.3259
  13   2.0000     -19.193735      -522.2881
  14   2.0000     -19.192706      -522.2601
  15   2.0000     -14.458438      -393.4341
  16   2.0000     -14.456499      -393.3813
  17   2.0000     -14.455564      -393.3559
  18   2.0000     -14.453075      -393.2882
  19   2.0000     -14.400234      -391.8503
  20   2.0000     -14.399588      -391.8327
  21   2.0000     -10.409661      -283.2613
  22   2.0000     -10.404713      -283.1266
  23   2.0000     -10.392026      -282.7814
  24   2.0000     -10.390600      -282.7426
  25   2.0000     -10.388731      -282.6917
  26   2.0000     -10.388284      -282.6796
  27   2.0000     -10.355936      -281.7994
  28   2.0000     -10.352311      -281.7007
  29   2.0000     -10.327635      -281.0292
  30   2.0000     -10.327129      -281.0155
  31   2.0000     -10.326411      -280.9959
  32   2.0000     -10.325194      -280.9628
  33   2.0000     -10.324884      -280.9544
  34   2.0000     -10.322466      -280.8886
  35   2.0000     -10.321535      -280.8632
  36   2.0000     -10.320963      -280.8477
  37   2.0000     -10.320764      -280.8423
  38   2.0000     -10.320035      -280.8224
  39   2.0000     -10.318683      -280.7856
  40   2.0000     -10.316634      -280.7299
  41   2.0000     -10.315951      -280.7113
  42   2.0000     -10.313112      -280.6341
  43   2.0000     -10.310778      -280.5705
  44   2.0000     -10.309209      -280.5278
  45   2.0000     -10.308182      -280.4999
  46   2.0000     -10.304047      -280.3874
  47   2.0000     -10.303834      -280.3816
  48   2.0000     -10.301471      -280.3173
  49   2.0000     -10.299345      -280.2594
  50   2.0000     -10.298946      -280.2486
  51   2.0000     -10.298158      -280.2271
  52   2.0000     -10.296695      -280.1873
  53   2.0000     -10.296087      -280.1708
  54   2.0000     -10.295971      -280.1676
  55   2.0000     -10.294141      -280.1178
  56   2.0000     -10.293682      -280.1053
  57   2.0000     -10.291743      -280.0526
  58   2.0000     -10.291358      -280.0421
  59   2.0000     -10.291213      -280.0381
  60   2.0000     -10.290307      -280.0135
  61   2.0000     -10.288928      -279.9760
  62   2.0000     -10.288552      -279.9657
  63   2.0000     -10.287884      -279.9475
  64   2.0000     -10.287794      -279.9451
  65   2.0000     -10.286257      -279.9033
  66   2.0000     -10.286168      -279.9009
  67   2.0000     -10.285562      -279.8844
  68   2.0000     -10.284647      -279.8595
  69   2.0000     -10.284024      -279.8425
  70   2.0000     -10.280650      -279.7507
  71   2.0000     -10.279269      -279.7131
  72   2.0000     -10.279247      -279.7125
  73   2.0000     -10.278023      -279.6792
  74   2.0000     -10.273610      -279.5591
  75   2.0000     -10.248182      -278.8672
  76   2.0000     -10.244907      -278.7781
  77   2.0000      -8.071096      -219.6257
  78   2.0000      -8.069119      -219.5719
  79   2.0000      -8.066612      -219.5037
  80   2.0000      -8.065360      -219.4696
  81   2.0000      -8.064551      -219.4476
  82   2.0000      -8.064481      -219.4457
  83   2.0000      -8.064459      -219.4451
  84   2.0000      -6.040134      -164.3604
  85   2.0000      -6.038700      -164.3214
  86   2.0000      -6.035937      -164.2462
  87   2.0000      -6.035886      -164.2448
  88   2.0000      -6.034610      -164.2101
  89   2.0000      -6.034506      -164.2073
  90   2.0000      -6.033936      -164.1917
  91   2.0000      -6.033894      -164.1906
  92   2.0000      -6.033830      -164.1889
  93   2.0000      -6.033770      -164.1872
  94   2.0000      -6.031750      -164.1323
  95   2.0000      -6.030646      -164.1022
  96   2.0000      -6.030464      -164.0973
  97   2.0000      -6.029715      -164.0769
  98   2.0000      -6.029630      -164.0746
  99   2.0000      -6.029458      -164.0699
 100   2.0000      -6.028684      -164.0488
 101   2.0000      -6.027462      -164.0156
 102   2.0000      -6.026719      -163.9954
 103   2.0000      -6.026546      -163.9907
 104   2.0000      -6.026229      -163.9820
 105   2.0000      -1.200305       -32.6620
 106   2.0000      -1.194038       -32.4914
 107   2.0000      -1.149951       -31.2918
 108   2.0000      -1.147058       -31.2130
 109   2.0000      -1.127733       -30.6872
 110   2.0000      -1.124933       -30.6110
 111   2.0000      -1.105917       -30.0935
 112   2.0000      -1.100591       -29.9486
 113   2.0000      -1.064099       -28.9556
 114   2.0000      -1.061245       -28.8779
 115   2.0000      -1.019905       -27.7530
 116   2.0000      -1.016809       -27.6688
 117   2.0000      -1.015300       -27.6277
 118   2.0000      -1.010160       -27.4879
 119   2.0000      -1.007654       -27.4197
 120   2.0000      -0.994245       -27.0548
 121   2.0000      -0.986288       -26.8383
 122   2.0000      -0.983769       -26.7697
 123   2.0000      -0.980971       -26.6936
 124   2.0000      -0.980325       -26.6760
 125   2.0000      -0.979538       -26.6546
 126   2.0000      -0.951038       -25.8791
 127   2.0000      -0.920595       -25.0507
 128   2.0000      -0.913852       -24.8672
 129   2.0000      -0.905116       -24.6294
 130   2.0000      -0.895867       -24.3778
 131   2.0000      -0.884548       -24.0698
 132   2.0000      -0.873257       -23.7625
 133   2.0000      -0.871949       -23.7269
 134   2.0000      -0.870919       -23.6989
 135   2.0000      -0.865317       -23.5465
 136   2.0000      -0.864568       -23.5261
 137   2.0000      -0.862550       -23.4712
 138   2.0000      -0.854588       -23.2545
 139   2.0000      -0.848226       -23.0814
 140   2.0000      -0.844642       -22.9839
 141   2.0000      -0.839907       -22.8550
 142   2.0000      -0.833917       -22.6920
 143   2.0000      -0.826687       -22.4953
 144   2.0000      -0.825260       -22.4565
 145   2.0000      -0.816834       -22.2272
 146   2.0000      -0.811026       -22.0691
 147   2.0000      -0.803885       -21.8748
 148   2.0000      -0.801420       -21.8077
 149   2.0000      -0.791663       -21.5423
 150   2.0000      -0.776473       -21.1289
 151   2.0000      -0.771261       -20.9871
 152   2.0000      -0.750505       -20.4223
 153   2.0000      -0.749032       -20.3822
 154   2.0000      -0.746992       -20.3267
 155   2.0000      -0.738786       -20.1034
 156   2.0000      -0.735678       -20.0188
 157   2.0000      -0.733353       -19.9555
 158   2.0000      -0.731572       -19.9071
 159   2.0000      -0.716203       -19.4889
 160   2.0000      -0.708817       -19.2879
 161   2.0000      -0.697910       -18.9911
 162   2.0000      -0.697279       -18.9739
 163   2.0000      -0.694456       -18.8971
 164   2.0000      -0.687501       -18.7078
 165   2.0000      -0.687291       -18.7021
 166   2.0000      -0.679114       -18.4796
 167   2.0000      -0.670589       -18.2476
 168   2.0000      -0.669555       -18.2195
 169   2.0000      -0.664748       -18.0887
 170   2.0000      -0.659701       -17.9514
 171   2.0000      -0.653460       -17.7815
 172   2.0000      -0.650429       -17.6991
 173   2.0000      -0.646216       -17.5844
 174   2.0000      -0.643323       -17.5057
 175   2.0000      -0.640596       -17.4315
 176   2.0000      -0.628208       -17.0944
 177   2.0000      -0.623235       -16.9591
 178   2.0000      -0.621031       -16.8991
 179   2.0000      -0.610276       -16.6065
 180   2.0000      -0.608777       -16.5657
 181   2.0000      -0.604174       -16.4404
 182   2.0000      -0.601806       -16.3760
 183   2.0000      -0.597456       -16.2576
 184   2.0000      -0.589196       -16.0328
 185   2.0000      -0.578667       -15.7463
 186   2.0000      -0.574629       -15.6364
 187   2.0000      -0.572496       -15.5784
 188   2.0000      -0.568272       -15.4635
 189   2.0000      -0.567329       -15.4378
 190   2.0000      -0.565006       -15.3746
 191   2.0000      -0.562844       -15.3158
 192   2.0000      -0.560273       -15.2458
 193   2.0000      -0.557837       -15.1795
 194   2.0000      -0.555378       -15.1126
 195   2.0000      -0.553873       -15.0717
 196   2.0000      -0.552518       -15.0348
 197   2.0000      -0.550978       -14.9929
 198   2.0000      -0.548039       -14.9129
 199   2.0000      -0.546275       -14.8649
 200   2.0000      -0.544208       -14.8087
 201   2.0000      -0.542517       -14.7626
 202   2.0000      -0.540819       -14.7164
 203   2.0000      -0.539672       -14.6852
 204   2.0000      -0.537305       -14.6208
 205   2.0000      -0.534868       -14.5545
 206   2.0000      -0.533484       -14.5168
 207   2.0000      -0.522324       -14.2131
 208   2.0000      -0.521823       -14.1995
 209   2.0000      -0.520610       -14.1665
 210   2.0000      -0.518361       -14.1053
 211   2.0000      -0.511699       -13.9240
 212   2.0000      -0.510683       -13.8964
 213   2.0000      -0.507850       -13.8193
 214   2.0000      -0.507211       -13.8019
 215   2.0000      -0.503210       -13.6930
 216   2.0000      -0.501947       -13.6587
 217   2.0000      -0.501273       -13.6403
 218   2.0000      -0.499107       -13.5814
 219   2.0000      -0.498939       -13.5768
 220   2.0000      -0.497088       -13.5264
 221   2.0000      -0.496587       -13.5128
 222   2.0000      -0.495258       -13.4766
 223   2.0000      -0.494446       -13.4546
 224   2.0000      -0.493474       -13.4281
 225   2.0000      -0.492655       -13.4058
 226   2.0000      -0.491482       -13.3739
 227   2.0000      -0.489055       -13.3079
 228   2.0000      -0.488275       -13.2866
 229   2.0000      -0.486837       -13.2475
 230   2.0000      -0.483637       -13.1604
 231   2.0000      -0.479463       -13.0468
 232   2.0000      -0.477209       -12.9855
 233   2.0000      -0.473920       -12.8960
 234   2.0000      -0.470681       -12.8079
 235   2.0000      -0.469821       -12.7845
 236   2.0000      -0.465036       -12.6543
 237   2.0000      -0.459540       -12.5047
 238   2.0000      -0.455206       -12.3868
 239   2.0000      -0.454068       -12.3558
 240   2.0000      -0.452303       -12.3078
 241   2.0000      -0.450797       -12.2668
 242   2.0000      -0.450061       -12.2468
 243   2.0000      -0.448540       -12.2054
 244   2.0000      -0.446389       -12.1469
 245   2.0000      -0.444695       -12.1008
 246   2.0000      -0.443318       -12.0633
 247   2.0000      -0.442286       -12.0352
 248   2.0000      -0.441761       -12.0209
 249   2.0000      -0.440402       -11.9839
 250   2.0000      -0.438024       -11.9192
 251   2.0000      -0.436781       -11.8854
 252   2.0000      -0.435062       -11.8386
 253   2.0000      -0.433944       -11.8082
 254   2.0000      -0.433304       -11.7908
 255   2.0000      -0.429714       -11.6931
 256   2.0000      -0.427602       -11.6356
 257   2.0000      -0.427505       -11.6330
 258   2.0000      -0.426172       -11.5967
 259   2.0000      -0.423704       -11.5296
 260   2.0000      -0.423688       -11.5291
 261   2.0000      -0.417342       -11.3565
 262   2.0000      -0.414528       -11.2799
 263   2.0000      -0.412012       -11.2114
 264   2.0000      -0.411088       -11.1863
 265   2.0000      -0.407776       -11.0962
 266   2.0000      -0.405114       -11.0237
 267   2.0000      -0.403613       -10.9829
 268   2.0000      -0.401631       -10.9289
 269   2.0000      -0.390686       -10.6311
 270   2.0000      -0.386133       -10.5072
 271   2.0000      -0.380634       -10.3576
 272   2.0000      -0.378561       -10.3012
 273   2.0000      -0.377399       -10.2696
 274   2.0000      -0.366585        -9.9753
 275   2.0000      -0.363486        -9.8910
 276   2.0000      -0.362699        -9.8695
 277   2.0000      -0.359654        -9.7867
 278   2.0000      -0.353240        -9.6121
 279   2.0000      -0.344737        -9.3808
 280   2.0000      -0.342596        -9.3225
 281   2.0000      -0.340889        -9.2761
 282   2.0000      -0.338756        -9.2180
 283   2.0000      -0.337244        -9.1769
 284   2.0000      -0.332947        -9.0599
 285   2.0000      -0.329059        -8.9542
 286   2.0000      -0.328505        -8.9391
 287   2.0000      -0.327492        -8.9115
 288   2.0000      -0.324635        -8.8338
 289   2.0000      -0.324197        -8.8218
 290   2.0000      -0.321471        -8.7477
 291   2.0000      -0.312089        -8.4924
 292   2.0000      -0.295032        -8.0282
 293   2.0000      -0.281468        -7.6591
 294   2.0000      -0.258823        -7.0429
 295   2.0000      -0.242808        -6.6071
 296   2.0000      -0.221002        -6.0138
 297   0.0000      -0.071035        -1.9329
 298   0.0000      -0.059410        -1.6166
 299   0.0000      -0.058086        -1.5806
 300   0.0000      -0.023807        -0.6478
 301   0.0000      -0.020832        -0.5669

MULLIKEN ATOMIC CHARGES
-----------------------
   0 C :   -0.053533
   1 C :    0.036523
   2 C :    0.011698
   3 C :   -0.102394
   4 S :    0.139532
   5 C :   -0.098646
   6 C :    0.026439
   7 C :    0.151961
   8 O :   -0.218397
   9 N :   -0.263270
  10 C :    0.153765
  11 O :   -0.216008
  12 C :    0.124153
  13 C :    0.004745
  14 C :   -0.036902
  15 C :   -0.052306
  16 S :    0.146369
  17 C :    0.061217
  18 C :    0.046918
  19 C :   -0.106423
  20 S :    0.099437
  21 C :   -0.122924
  22 N :   -0.162574
  23 C :    0.096252
  24 C :    0.109973
  25 C :    0.065950
  26 C :    0.101439
  27 O :   -0.206261
  28 O :   -0.287086
  29 C :    0.185781
  30 C :   -0.034823
  31 C :   -0.004978
  32 C :   -0.107579
  33 S :    0.157865
  34 C :   -0.121236
  35 C :    0.117370
  36 C :    0.112798
  37 C :   -0.052977
  38 C :   -0.078079
  39 C :   -0.177775
  40 N :    0.161383
  41 C :   -0.070040
  42 C :   -0.180617
  43 N :    0.162820
  44 C :   -0.063184
  45 C :   -0.092667
  46 S :    0.090120
  47 C :   -0.106895
  48 N :   -0.145117
  49 C :    0.096290
  50 C :    0.136555
  51 C :    0.058549
  52 C :    0.073693
  53 O :   -0.192605
  54 O :   -0.282813
  55 C :    0.189251
  56 C :   -0.055895
  57 C :    0.046113
  58 C :   -0.049516
  59 C :   -0.037728
  60 C :    0.037688
  61 C :   -0.094419
  62 S :    0.147227
  63 C :   -0.101778
  64 C :    0.021796
  65 C :    0.151893
  66 O :   -0.216106
  67 N :   -0.262612
  68 C :    0.149666
  69 O :   -0.219459
  70 C :    0.121058
  71 C :    0.001760
  72 C :   -0.022040
  73 C :   -0.058492
  74 S :    0.146088
  75 C :    0.048344
  76 C :   -0.013252
  77 H :    0.035351
  78 H :    0.009515
  79 H :    0.027223
  80 H :    0.034375
  81 H :    0.025258
  82 H :    0.016253
  83 H :    0.018859
  84 H :   -0.000450
  85 H :   -0.011979
  86 H :   -0.011129
  87 H :    0.138247
  88 H :    0.044738
  89 H :    0.036386
  90 H :    0.031704
  91 H :    0.040282
  92 H :    0.039914
  93 H :    0.029179
  94 H :    0.015889
  95 H :   -0.018459
  96 H :   -0.012555
  97 H :   -0.004987
  98 H :    0.129233
  99 H :    0.048175
 100 H :    0.035698
 101 H :    0.041012
 102 H :    0.036566
 103 H :    0.025350
 104 H :    0.036859
 105 H :   -0.020763
 106 H :    0.000764
 107 H :   -0.008135
 108 H :    0.026944
 109 H :    0.036087
 110 H :    0.024457
 111 H :    0.017454
 112 H :    0.022385
 113 H :   -0.003421
 114 H :   -0.008978
 115 H :    0.025318
 116 H :    0.030307
Sum of atomic charges:   -0.0000000

LOEWDIN ATOMIC CHARGES
----------------------
   0 C :   -0.174931
   1 C :   -0.028314
   2 C :   -0.096273
   3 C :   -0.174970
   4 S :    0.443690
   5 C :   -0.176693
   6 C :   -0.089722
   7 C :    0.096796
   8 O :   -0.185983
   9 N :   -0.028585
  10 C :    0.096001
  11 O :   -0.181138
  12 C :    0.045761
  13 C :   -0.058235
  14 C :   -0.026967
  15 C :   -0.159971
  16 S :    0.442585
  17 C :   -0.040705
  18 C :   -0.029706
  19 C :   -0.170609
  20 S :    0.429672
  21 C :   -0.098939
  22 N :   -0.029899
  23 C :    0.013478
  24 C :   -0.103897
  25 C :   -0.072561
  26 C :    0.080220
  27 O :   -0.165596
  28 O :   -0.082319
  29 C :    0.080222
  30 C :   -0.000290
  31 C :   -0.084273
  32 C :   -0.162558
  33 S :    0.510699
  34 C :   -0.185173
  35 C :   -0.050953
  36 C :   -0.050259
  37 C :    0.035531
  38 C :   -0.063568
  39 C :   -0.031398
  40 N :   -0.049179
  41 C :   -0.059924
  42 C :   -0.031595
  43 N :   -0.046296
  44 C :    0.021498
  45 C :   -0.194828
  46 S :    0.434671
  47 C :   -0.095207
  48 N :   -0.023142
  49 C :    0.017833
  50 C :   -0.112888
  51 C :   -0.066678
  52 C :    0.056900
  53 O :   -0.162667
  54 O :   -0.080881
  55 C :    0.080544
  56 C :   -0.008877
  57 C :   -0.055850
  58 C :   -0.158460
  59 C :   -0.033424
  60 C :   -0.088489
  61 C :   -0.179468
  62 S :    0.441074
  63 C :   -0.175271
  64 C :   -0.093980
  65 C :    0.096718
  66 O :   -0.183929
  67 N :   -0.028521
  68 C :    0.096022
  69 O :   -0.185056
  70 C :    0.045348
  71 C :   -0.058714
  72 C :   -0.021207
  73 C :   -0.166064
  74 S :    0.444082
  75 C :   -0.043527
  76 C :   -0.026491
  77 H :    0.028215
  78 H :    0.040370
  79 H :    0.025725
  80 H :    0.027053
  81 H :    0.026165
  82 H :    0.029158
  83 H :    0.023770
  84 H :    0.035626
  85 H :    0.027677
  86 H :    0.029711
  87 H :    0.081208
  88 H :    0.027111
  89 H :    0.033647
  90 H :    0.017539
  91 H :    0.028625
  92 H :    0.026942
  93 H :    0.020667
  94 H :    0.032317
  95 H :    0.021089
  96 H :    0.040262
  97 H :    0.026486
  98 H :    0.084029
  99 H :    0.027162
 100 H :    0.020519
 101 H :    0.035785
 102 H :    0.022541
 103 H :    0.020169
 104 H :    0.027340
 105 H :    0.022195
 106 H :    0.029195
 107 H :    0.032982
 108 H :    0.025255
 109 H :    0.027643
 110 H :    0.025836
 111 H :    0.029473
 112 H :    0.024721
 113 H :    0.037159
 114 H :    0.029191
 115 H :    0.025906
 116 H :    0.029294

  Mayer bond orders larger than 0.100000
B(  0-C ,  1-C ) :   1.5800 B(  0-C ,  4-S ) :   1.1292 B(  0-C , 77-H ) :   0.9722
B(  1-C ,  2-C ) :   1.2626 B(  1-C , 78-H ) :   0.9987 B(  2-C ,  3-C ) :   1.4875
B(  2-C , 10-C ) :   0.9666 B(  3-C ,  4-S ) :   1.1505 B(  3-C ,  5-C ) :   1.1799
B(  5-C ,  6-C ) :   1.4741 B(  5-C , 16-S ) :   1.1380 B(  6-C ,  7-C ) :   0.9465
B(  6-C , 14-C ) :   1.2725 B(  7-C ,  8-O ) :   2.0998 B(  7-C ,  9-N ) :   1.0735
B(  9-N , 10-C ) :   1.0515 B(  9-N , 12-C ) :   0.9190 B( 10-C , 11-O ) :   2.1062
B( 12-C , 13-C ) :   1.1305 B( 12-C , 79-H ) :   0.9370 B( 12-C , 80-H ) :   0.9320
B( 13-C , 81-H ) :   0.9676 B( 13-C , 82-H ) :   0.9693 B( 13-C , 83-H ) :   0.9649
B( 14-C , 15-C ) :   1.4906 B( 14-C , 84-H ) :   1.0002 B( 15-C , 16-S ) :   1.0929
B( 15-C , 17-C ) :   1.1163 B( 17-C , 18-C ) :   1.7320 B( 17-C , 85-H ) :   0.9518
B( 18-C , 19-C ) :   1.1297 B( 18-C , 86-H ) :   0.9466 B( 19-C , 20-S ) :   1.0596
B( 19-C , 25-C ) :   1.5325 B( 20-S , 21-C ) :   1.1354 B( 21-C , 22-N ) :   1.2392
B( 21-C , 24-C ) :   1.3635 B( 22-N , 23-C ) :   1.0090 B( 22-N , 87-H ) :   0.9107
B( 23-C , 88-H ) :   0.9665 B( 23-C , 89-H ) :   0.9761 B( 23-C , 90-H ) :   0.9654
B( 24-C , 25-C ) :   1.2545 B( 24-C , 30-C ) :   1.1428 B( 25-C , 26-C ) :   0.8986
B( 26-C , 27-O ) :   2.0645 B( 26-C , 28-O ) :   1.2369 B( 28-O , 29-C ) :   0.9194
B( 29-C , 91-H ) :   0.9800 B( 29-C , 92-H ) :   0.9774 B( 29-C , 93-H ) :   0.9717
B( 30-C , 31-C ) :   1.6441 B( 30-C , 94-H ) :   0.9376 B( 31-C , 32-C ) :   1.1392
B( 31-C , 95-H ) :   0.9458 B( 32-C , 33-S ) :   1.1627 B( 32-C , 34-C ) :   0.1044
B( 32-C , 36-C ) :   1.3445 B( 33-S , 34-C ) :   1.1722 B( 34-C , 35-C ) :   1.3588
B( 34-C , 45-C ) :   1.1438 B( 35-C , 36-C ) :   1.1777 B( 35-C , 44-C ) :   1.1790
B( 36-C , 37-C ) :   1.1950 B( 37-C , 38-C ) :   1.5643 B( 37-C , 96-H ) :   0.9913
B( 38-C , 39-C ) :   1.0787 B( 38-C , 41-C ) :   1.2315 B( 39-C , 40-N ) :   3.0421
B( 41-C , 42-C ) :   1.0776 B( 41-C , 44-C ) :   1.5851 B( 42-C , 43-N ) :   3.0415
B( 44-C , 97-H ) :   0.9781 B( 45-C , 46-S ) :   1.0560 B( 45-C , 51-C ) :   1.5746
B( 46-S , 47-C ) :   1.1250 B( 47-C , 48-N ) :   1.2730 B( 47-C , 50-C ) :   1.3549
B( 48-N , 49-C ) :   0.9984 B( 48-N , 98-H ) :   0.9264 B( 49-C , 99-H ) :   0.9638
B( 49-C ,100-H ) :   0.9697 B( 49-C ,101-H ) :   0.9762 B( 50-C , 51-C ) :   1.2678
B( 50-C , 56-C ) :   1.0776 B( 51-C , 52-C ) :   0.8560 B( 52-C , 53-O ) :   2.1086
B( 52-C , 54-O ) :   1.2261 B( 54-O , 55-C ) :   0.9203 B( 55-C ,102-H ) :   0.9686
B( 55-C ,103-H ) :   0.9756 B( 55-C ,104-H ) :   0.9808 B( 56-C , 57-C ) :   1.7485
B( 56-C ,105-H ) :   0.9565 B( 57-C , 58-C ) :   1.0952 B( 57-C ,106-H ) :   0.9410
B( 58-C , 59-C ) :   1.5002 B( 58-C , 62-S ) :   1.0942 B( 59-C , 60-C ) :   1.2667
B( 59-C ,107-H ) :   0.9996 B( 60-C , 61-C ) :   1.4768 B( 60-C , 68-C ) :   0.9473
B( 61-C , 62-S ) :   1.1316 B( 61-C , 63-C ) :   1.1770 B( 63-C , 64-C ) :   1.4720
B( 63-C , 74-S ) :   1.1449 B( 64-C , 65-C ) :   0.9518 B( 64-C , 72-C ) :   1.2666
B( 65-C , 66-O ) :   2.1060 B( 65-C , 67-N ) :   1.0612 B( 67-N , 68-C ) :   1.0621
B( 67-N , 70-C ) :   0.9209 B( 68-C , 69-O ) :   2.0991 B( 70-C , 71-C ) :   1.1290
B( 70-C ,108-H ) :   0.9372 B( 70-C ,109-H ) :   0.9324 B( 71-C ,110-H ) :   0.9678
B( 71-C ,111-H ) :   0.9694 B( 71-C ,112-H ) :   0.9652 B( 72-C , 73-C ) :   1.5232
B( 72-C ,113-H ) :   1.0022 B( 73-C , 74-S ) :   1.0918 B( 73-C , 75-C ) :   1.0818
B( 75-C , 76-C ) :   1.9578 B( 75-C ,114-H ) :   0.9547 B( 76-C ,115-H ) :   0.9546
B( 76-C ,116-H ) :   0.9493

-----------------------------------------------------------------------------
         ABSORPTION SPECTRUM VIA TRANSITION ELECTRIC DIPOLE MOMENTS
-----------------------------------------------------------------------------
State   Energy  Wavelength   fosc         T2         TX        TY        TZ
        (cm-1)    (nm)                  (au**2)     (au)      (au)      (au)
-----------------------------------------------------------------------------
   0   16503.5    605.9   1.048486398  20.91523  -1.80190   2.21412  -3.57296
   1   22137.0    451.7   0.779337438  11.58995  -3.32219   0.67526   0.31153
   2   22657.2    441.4   0.702991004  10.21453  -0.99394  -2.59274   1.58250
   3   23837.9    419.5   0.118384311   1.63494   0.65442  -1.09535  -0.08297
   4   26900.5    371.7   0.250471330   3.06530  -0.43820  -1.69120   0.11451
   5   27700.5    361.0   0.298880767   3.55211  -0.44336   1.53758  -0.99568
   6   27804.2    359.7   0.320991767   3.80066  -1.75998   0.11461   0.83065
   7   28112.2    355.7   0.214825932   2.51575   1.33942   0.37617  -0.76171
   8   29550.0    338.4   0.331529802   3.69352   1.08064  -0.30871   1.55898
   9   30526.9    327.6   0.056246504   0.60658  -0.47691   0.42185  -0.44854
  10   31516.1    317.3   0.085149559   0.88946   0.35112   0.79152  -0.37372
  11   32233.9    310.2   0.032385458   0.33076   0.23550  -0.00079  -0.52469
  12   32601.7    306.7   0.174032420   1.75738   0.76019   1.00999  -0.39925
  13   33338.9    299.9   0.066627842   0.65793  -0.61067   0.52761   0.08153
  14   34001.5    294.1   0.070870769   0.68619   0.60186   0.21221   0.52814
  15   34449.6    290.3   0.072442816   0.69229   0.64808   0.28958   0.43407
  16   34858.1    286.9   0.068828321   0.65004  -0.61863   0.49950  -0.13353
  17   35338.2    283.0   0.070670867   0.65837   0.32461   0.28415   0.68721
  18   35748.1    279.7   0.008702269   0.08014  -0.08043  -0.09908   0.25270
  19   36234.5    276.0   0.021328314   0.19378   0.04822  -0.32417   0.29389
  20   36278.6    275.6   0.063627571   0.57739  -0.16191   0.68833  -0.27817
  21   36605.8    273.2   0.121966394   1.09690  -0.14380  -0.91098   0.49633
  22   36834.3    271.5   0.074210442   0.66327  -0.37797  -0.63339   0.34529
  23   37278.9    268.2   0.031006472   0.27382  -0.18147  -0.49048  -0.01789
  24   37438.0    267.1   0.076465810   0.67240  -0.58647  -0.56818   0.07502
  25   38040.7    262.9   0.024206858   0.20949  -0.33589  -0.29967  -0.08285
  26   38372.6    260.6   0.032946707   0.28266  -0.51749   0.06563  -0.10278
  27   38504.3    259.7   0.032123011   0.27465   0.32270  -0.39419  -0.12302
  28   38980.8    256.5   0.074939654   0.63290  -0.69625   0.08300   0.37584
  29   39021.2    256.3   0.127067485   1.07204  -0.52870  -0.85099   0.26139
  30   39222.6    255.0   0.032926943   0.27637  -0.23297   0.45161  -0.13470
  31   39308.6    254.4   0.078938146   0.66111  -0.40042   0.15351  -0.69080
  32   39881.1    250.7   0.357967968   2.95497  -0.88301  -1.30294   0.69109
  33   40218.8    248.6   0.081704850   0.66880  -0.75769  -0.27397  -0.14017

FINAL SINGLE POINT ENERGY     -5871.006009156282

DIPOLE MOMENT
-------------
                                X             Y             Z
Electronic contribution:      1.57044      34.85625       0.19607
Nuclear contribution   :     -2.50356     -37.93444       0.43570
                        -----------------------------------------
Total Dipole Moment    :     -0.93312      -3.07818       0.63178
                        -----------------------------------------
Magnitude (a.u.)       :      3.27797
Magnitude (Debye)      :      8.33193

Rotational constants in cm-1:     0.000996     0.000190     0.000170
Rotational constants in MHz :    29.864565     5.684234     5.109211

                             ****ORCA TERMINATED NORMALLY****
TOTAL RUN TIME: 0 days 0 hours 10 minutes 48 seconds 192 msec
