                         Program Version 4.2.0 -  RELEASE  -
|  1> # ORCA input file
|  2> # SCF done       -184.704496563394          0.000404781920
|  3> ! CAM-B3LYP def2-SVP def2/J RIJCOSX Grid4 TightSCF
|  4> %maxcore 5000
|  5> %tddft
|  6>     Mode sTDDFT
|  7>     Ethresh 5.0
|  8>     maxcore 5000
|  9> end
| 10>
| 11> %pal
| 12>   nprocs 6
| 13>   end
| 14> * xyz 0 1
| 15>    C        1.64486        -3.82804         5.70634
| 16>    S        0.31996        -4.50299         4.87844
| 17>    C        1.17940        -4.55701         3.36638
| 18>    C        2.47936        -4.04797         3.53151
| 19>    C        2.73575        -3.63283         4.88346
| 20>    C        3.99388        -3.09836         5.23427
| 21>    C        4.96527        -2.98323         4.27366
| 22>    C        6.23423        -2.45203         4.60576
| 23>    N        7.25516        -2.02065         4.89484
| 24>    C        4.71213        -3.39808         2.92649
| 25>    C        5.73818        -3.27174         1.96259
| 26>    N        6.56079        -3.18015         1.17019
| 27>    C        3.49028        -3.91864         2.56678
| 28>    C        0.59579        -5.04846         2.18317
| 29>    C       -0.65554        -5.58893         2.11965
| 30>    C       -1.31752        -6.09510         0.98673
| 31>    S       -2.69398        -7.12395         1.26028
| 32>    C       -2.92526        -7.45110        -0.43025
| 33>    C       -1.97273        -6.73924        -1.19427
| 34>    C       -1.08078        -5.95389        -0.39758
| 35>    C       -0.16246        -5.10686        -1.03697
| 36>    C       -0.08342        -5.08844        -2.41220
| 37>    C        0.83490        -4.22120        -3.04854
| 38>    N        1.58545        -3.50785        -3.53860
| 39>    C       -0.92944        -5.92110        -3.19912
| 40>    C       -0.82437        -5.89656        -4.60879
| 41>    N       -0.75875        -5.89023        -5.75254
| 42>    C       -1.86961        -6.72369        -2.59087
| 43>    C       -3.93321        -8.29345        -0.90386
| 44>    C       -4.88655        -8.89184        -0.11957
| 45>    C       -5.89826        -9.72172        -0.60481
| 46>    S       -6.01049       -10.16102        -2.28646
| 47>    C       -7.45552       -11.10367        -2.05162
| 48>    C       -7.83885       -11.07920        -0.69064
| 49>    C       -6.95793       -10.30751         0.12486
| 50>    C       -7.20253       -10.19051         1.49886
| 51>    C       -8.29341       -10.82500         2.05383
| 52>    C       -8.54562       -10.70916         3.44006
| 53>    N       -8.73093       -10.60064         4.56557
| 54>    C       -9.17142       -11.59718         1.23995
| 55>    C      -10.28473       -12.24175         1.82585
| 56>    N      -11.19376       -12.77381         2.27709
| 57>    C       -8.94238       -11.71959        -0.11414
| 58>    C       -8.09810       -11.75558        -3.10405
| 59>    C       -7.62896       -11.80018        -4.39348
| 60>    C       -8.28399       -12.42313        -5.45583
| 61>    S       -9.86086       -13.14131        -5.28464
| 62>    C       -9.93922       -13.61842        -6.95477
| 63>    C       -8.75446       -13.24611        -7.62762
| 64>    C       -7.82420       -12.56616        -6.78476
| 65>    C       -6.59881       -12.13021        -7.30377
| 66>    C       -6.29878       -12.36211        -8.62877
| 67>    C       -5.05945       -11.93136        -9.15626
| 68>    N       -4.04808       -11.57487        -9.55947
| 69>    C       -7.22734       -13.03828        -9.47182
| 70>    C       -6.89853       -13.26223       -10.82922
| 71>    N       -6.64869       -13.44948       -11.93129
| 72>    C       -8.43690       -13.47171        -8.97444
| 73>    C      -11.05908       -14.26488        -7.49568
| 74>    C      -12.20569       -14.50494        -6.78965
| 75>    C      -13.38845       -15.12360        -7.22958
| 76>    S      -14.80185       -14.91182        -6.23541
| 77>    C      -15.83161       -15.76778        -7.32098
| 78>    C      -15.09951       -16.24140        -8.41830
| 79>    C      -13.70730       -15.89520        -8.36540
| 80>    C      -12.84429       -16.38508        -9.35728
| 81>    C      -13.34350       -17.13567       -10.39817
| 82>    C      -12.46625       -17.62885       -11.39067
| 83>    N      -11.73434       -18.01550       -12.18305
| 84>    C      -14.73762       -17.43021       -10.47870
| 85>    C      -15.22965       -18.18982       -11.56554
| 86>    N      -15.64913       -18.80376       -12.43703
| 87>    C      -15.59455       -16.99876        -9.49540
| 88>    C      -17.22882       -15.93112        -7.06885
| 89>    C      -17.86660       -15.46009        -5.99492
| 90>    H        1.56679        -3.60629         6.75195
| 91>    H        4.18340        -2.78616         6.25001
| 92>    H        3.32447        -4.22444         1.54479
| 93>    H        1.22060        -5.01589         1.30433
| 94>    H       -1.19791        -5.69776         3.05221
| 95>    H        0.46084        -4.43520        -0.47003
| 96>    H       -2.52742        -7.32559        -3.19863
| 97>    H       -3.96336        -8.46990        -1.97084
| 98>    H       -4.87325        -8.70063         0.94524
| 99>    H       -6.54657        -9.60987         2.12905
|100>    H       -9.61593       -12.30902        -0.71703
|101>    H       -9.02607       -12.26301        -2.87625
|102>    H       -6.68149       -11.32546        -4.61174
|103>    H       -5.88461       -11.61768        -6.67789
|104>    H       -9.12600       -13.98306        -9.62893
|105>    H      -10.99488       -14.52973        -8.53906
|106>    H      -12.24460       -14.12693        -5.77389
|107>    H      -11.78221       -16.21097        -9.30462
|108>    H      -16.64209       -17.25107        -9.55270
|109>    H      -17.77891       -16.47900        -7.82143
|110>    H      -17.34903       -14.90951        -5.22653
|111>    H      -18.92135       -15.61293        -5.85651
|112> *
|113>
|114>                          ****END OF INPUT****

CARTESIAN COORDINATES (ANGSTROEM)
---------------------------------
  C      1.644860   -3.828040    5.706340
  S      0.319960   -4.502990    4.878440
  C      1.179400   -4.557010    3.366380
  C      2.479360   -4.047970    3.531510
  C      2.735750   -3.632830    4.883460
  C      3.993880   -3.098360    5.234270
  C      4.965270   -2.983230    4.273660
  C      6.234230   -2.452030    4.605760
  N      7.255160   -2.020650    4.894840
  C      4.712130   -3.398080    2.926490
  C      5.738180   -3.271740    1.962590
  N      6.560790   -3.180150    1.170190
  C      3.490280   -3.918640    2.566780
  C      0.595790   -5.048460    2.183170
  C     -0.655540   -5.588930    2.119650
  C     -1.317520   -6.095100    0.986730
  S     -2.693980   -7.123950    1.260280
  C     -2.925260   -7.451100   -0.430250
  C     -1.972730   -6.739240   -1.194270
  C     -1.080780   -5.953890   -0.397580
  C     -0.162460   -5.106860   -1.036970
  C     -0.083420   -5.088440   -2.412200
  C      0.834900   -4.221200   -3.048540
  N      1.585450   -3.507850   -3.538600
  C     -0.929440   -5.921100   -3.199120
  C     -0.824370   -5.896560   -4.608790
  N     -0.758750   -5.890230   -5.752540
  C     -1.869610   -6.723690   -2.590870
  C     -3.933210   -8.293450   -0.903860
  C     -4.886550   -8.891840   -0.119570
  C     -5.898260   -9.721720   -0.604810
  S     -6.010490  -10.161020   -2.286460
  C     -7.455520  -11.103670   -2.051620
  C     -7.838850  -11.079200   -0.690640
  C     -6.957930  -10.307510    0.124860
  C     -7.202530  -10.190510    1.498860
  C     -8.293410  -10.825000    2.053830
  C     -8.545620  -10.709160    3.440060
  N     -8.730930  -10.600640    4.565570
  C     -9.171420  -11.597180    1.239950
  C    -10.284730  -12.241750    1.825850
  N    -11.193760  -12.773810    2.277090
  C     -8.942380  -11.719590   -0.114140
  C     -8.098100  -11.755580   -3.104050
  C     -7.628960  -11.800180   -4.393480
  C     -8.283990  -12.423130   -5.455830
  S     -9.860860  -13.141310   -5.284640
  C     -9.939220  -13.618420   -6.954770
  C     -8.754460  -13.246110   -7.627620
  C     -7.824200  -12.566160   -6.784760
  C     -6.598810  -12.130210   -7.303770
  C     -6.298780  -12.362110   -8.628770
  C     -5.059450  -11.931360   -9.156260
  N     -4.048080  -11.574870   -9.559470
  C     -7.227340  -13.038280   -9.471820
  C     -6.898530  -13.262230  -10.829220
  N     -6.648690  -13.449480  -11.931290
  C     -8.436900  -13.471710   -8.974440
  C    -11.059080  -14.264880   -7.495680
  C    -12.205690  -14.504940   -6.789650
  C    -13.388450  -15.123600   -7.229580
  S    -14.801850  -14.911820   -6.235410
  C    -15.831610  -15.767780   -7.320980
  C    -15.099510  -16.241400   -8.418300
  C    -13.707300  -15.895200   -8.365400
  C    -12.844290  -16.385080   -9.357280
  C    -13.343500  -17.135670  -10.398170
  C    -12.466250  -17.628850  -11.390670
  N    -11.734340  -18.015500  -12.183050
  C    -14.737620  -17.430210  -10.478700
  C    -15.229650  -18.189820  -11.565540
  N    -15.649130  -18.803760  -12.437030
  C    -15.594550  -16.998760   -9.495400
  C    -17.228820  -15.931120   -7.068850
  C    -17.866600  -15.460090   -5.994920
  H      1.566790   -3.606290    6.751950
  H      4.183400   -2.786160    6.250010
  H      3.324470   -4.224440    1.544790
  H      1.220600   -5.015890    1.304330
  H     -1.197910   -5.697760    3.052210
  H      0.460840   -4.435200   -0.470030
  H     -2.527420   -7.325590   -3.198630
  H     -3.963360   -8.469900   -1.970840
  H     -4.873250   -8.700630    0.945240
  H     -6.546570   -9.609870    2.129050
  H     -9.615930  -12.309020   -0.717030
  H     -9.026070  -12.263010   -2.876250
  H     -6.681490  -11.325460   -4.611740
  H     -5.884610  -11.617680   -6.677890
  H     -9.126000  -13.983060   -9.628930
  H    -10.994880  -14.529730   -8.539060
  H    -12.244600  -14.126930   -5.773890
  H    -11.782210  -16.210970   -9.304620
  H    -16.642090  -17.251070   -9.552700
  H    -17.778910  -16.479000   -7.821430
  H    -17.349030  -14.909510   -5.226530
  H    -18.921350  -15.612930   -5.856510

 Total Charge           Charge          ....    0
 Multiplicity           Mult            ....    1
 Number of Electrons    NEL             ....  532
 Basis Dimension        Dim             .... 1180

ORBITAL ENERGIES
----------------

  NO   OCC          E(Eh)            E(eV)
   0   2.0000     -89.007162     -2422.0080
   1   2.0000     -89.006504     -2421.9901
   2   2.0000     -89.005808     -2421.9712
   3   2.0000     -89.004799     -2421.9437
   4   2.0000     -89.004056     -2421.9235
   5   2.0000     -14.426003      -392.5515
   6   2.0000     -14.425904      -392.5488
   7   2.0000     -14.422648      -392.4602
   8   2.0000     -14.422362      -392.4524
   9   2.0000     -14.421171      -392.4200
  10   2.0000     -14.421160      -392.4197
  11   2.0000     -14.420511      -392.4021
  12   2.0000     -14.419783      -392.3823
  13   2.0000     -14.417495      -392.3200
  14   2.0000     -14.417229      -392.3127
  15   2.0000     -10.351994      -281.6921
  16   2.0000     -10.351291      -281.6729
  17   2.0000     -10.351211      -281.6708
  18   2.0000     -10.350944      -281.6635
  19   2.0000     -10.350757      -281.6584
  20   2.0000     -10.350685      -281.6565
  21   2.0000     -10.349402      -281.6215
  22   2.0000     -10.348956      -281.6094
  23   2.0000     -10.348929      -281.6087
  24   2.0000     -10.348189      -281.5885
  25   2.0000     -10.348082      -281.5856
  26   2.0000     -10.347246      -281.5629
  27   2.0000     -10.347135      -281.5599
  28   2.0000     -10.346700      -281.5480
  29   2.0000     -10.346149      -281.5330
  30   2.0000     -10.345387      -281.5123
  31   2.0000     -10.344154      -281.4788
  32   2.0000     -10.343879      -281.4712
  33   2.0000     -10.343318      -281.4560
  34   2.0000     -10.337546      -281.2989
  35   2.0000     -10.335297      -281.2377
  36   2.0000     -10.335123      -281.2330
  37   2.0000     -10.333179      -281.1801
  38   2.0000     -10.332633      -281.1652
  39   2.0000     -10.331786      -281.1422
  40   2.0000     -10.331613      -281.1375
  41   2.0000     -10.331299      -281.1289
  42   2.0000     -10.330977      -281.1202
  43   2.0000     -10.330768      -281.1145
  44   2.0000     -10.330628      -281.1107
  45   2.0000     -10.330415      -281.1049
  46   2.0000     -10.330369      -281.1036
  47   2.0000     -10.329367      -281.0764
  48   2.0000     -10.328720      -281.0588
  49   2.0000     -10.328409      -281.0503
  50   2.0000     -10.328229      -281.0454
  51   2.0000     -10.327974      -281.0385
  52   2.0000     -10.327648      -281.0296
  53   2.0000     -10.327334      -281.0211
  54   2.0000     -10.327313      -281.0205
  55   2.0000     -10.327244      -281.0186
  56   2.0000     -10.326466      -280.9974
  57   2.0000     -10.326266      -280.9920
  58   2.0000     -10.325813      -280.9796
  59   2.0000     -10.325531      -280.9720
  60   2.0000     -10.324684      -280.9489
  61   2.0000     -10.324365      -280.9402
  62   2.0000     -10.324202      -280.9358
  63   2.0000     -10.324016      -280.9308
  64   2.0000     -10.323136      -280.9068
  65   2.0000     -10.320380      -280.8318
  66   2.0000     -10.320082      -280.8237
  67   2.0000     -10.318953      -280.7930
  68   2.0000     -10.318901      -280.7916
  69   2.0000     -10.318501      -280.7807
  70   2.0000     -10.317461      -280.7524
  71   2.0000     -10.315629      -280.7025
  72   2.0000     -10.315045      -280.6867
  73   2.0000     -10.315009      -280.6857
  74   2.0000     -10.301860      -280.3279
  75   2.0000      -8.102373      -220.4768
  76   2.0000      -8.101599      -220.4557
  77   2.0000      -8.100629      -220.4293
  78   2.0000      -8.099734      -220.4050
  79   2.0000      -8.099409      -220.3961
  80   2.0000      -6.071199      -165.2057
  81   2.0000      -6.070522      -165.1873
  82   2.0000      -6.069610      -165.1625
  83   2.0000      -6.068686      -165.1373
  84   2.0000      -6.068228      -165.1249
  85   2.0000      -6.066958      -165.0903
  86   2.0000      -6.066539      -165.0789
  87   2.0000      -6.065732      -165.0570
  88   2.0000      -6.065590      -165.0531
  89   2.0000      -6.064808      -165.0318
  90   2.0000      -6.064370      -165.0199
  91   2.0000      -6.064189      -165.0150
  92   2.0000      -6.063226      -164.9888
  93   2.0000      -6.062387      -164.9659
  94   2.0000      -6.062360      -164.9652
  95   2.0000      -1.046209       -28.4688
  96   2.0000      -1.043940       -28.4070
  97   2.0000      -1.042872       -28.3780
  98   2.0000      -1.040563       -28.3152
  99   2.0000      -1.038559       -28.2606
 100   2.0000      -1.019912       -27.7532
 101   2.0000      -1.017011       -27.6743
 102   2.0000      -1.015815       -27.6417
 103   2.0000      -1.014636       -27.6096
 104   2.0000      -1.011998       -27.5379
 105   2.0000      -1.006337       -27.3838
 106   2.0000      -1.002792       -27.2874
 107   2.0000      -1.001123       -27.2419
 108   2.0000      -1.000696       -27.2303
 109   2.0000      -0.997620       -27.1466
 110   2.0000      -0.982911       -26.7464
 111   2.0000      -0.980068       -26.6690
 112   2.0000      -0.978830       -26.6353
 113   2.0000      -0.976882       -26.5823
 114   2.0000      -0.974347       -26.5133
 115   2.0000      -0.963223       -26.2106
 116   2.0000      -0.954023       -25.9603
 117   2.0000      -0.943522       -25.6745
 118   2.0000      -0.932175       -25.3658
 119   2.0000      -0.922099       -25.0916
 120   2.0000      -0.910189       -24.7675
 121   2.0000      -0.905915       -24.6512
 122   2.0000      -0.902628       -24.5618
 123   2.0000      -0.900852       -24.5134
 124   2.0000      -0.897986       -24.4354
 125   2.0000      -0.893757       -24.3204
 126   2.0000      -0.891280       -24.2530
 127   2.0000      -0.889041       -24.1920
 128   2.0000      -0.886325       -24.1181
 129   2.0000      -0.884384       -24.0653
 130   2.0000      -0.870598       -23.6902
 131   2.0000      -0.856396       -23.3037
 132   2.0000      -0.842207       -22.9176
 133   2.0000      -0.827170       -22.5084
 134   2.0000      -0.813528       -22.1372
 135   2.0000      -0.791957       -21.5502
 136   2.0000      -0.781452       -21.2644
 137   2.0000      -0.778918       -21.1954
 138   2.0000      -0.778162       -21.1749
 139   2.0000      -0.775552       -21.1038
 140   2.0000      -0.774985       -21.0884
 141   2.0000      -0.773718       -21.0539
 142   2.0000      -0.772049       -21.0085
 143   2.0000      -0.769697       -20.9445
 144   2.0000      -0.749991       -20.4083
 145   2.0000      -0.741674       -20.1820
 146   2.0000      -0.726729       -19.7753
 147   2.0000      -0.722426       -19.6582
 148   2.0000      -0.717783       -19.5319
 149   2.0000      -0.713475       -19.4146
 150   2.0000      -0.699718       -19.0403
 151   2.0000      -0.696815       -18.9613
 152   2.0000      -0.691862       -18.8265
 153   2.0000      -0.685117       -18.6430
 154   2.0000      -0.680145       -18.5077
 155   2.0000      -0.664521       -18.0825
 156   2.0000      -0.659859       -17.9557
 157   2.0000      -0.653489       -17.7823
 158   2.0000      -0.651321       -17.7233
 159   2.0000      -0.644544       -17.5389
 160   2.0000      -0.640238       -17.4218
 161   2.0000      -0.635555       -17.2943
 162   2.0000      -0.631308       -17.1788
 163   2.0000      -0.628465       -17.1014
 164   2.0000      -0.628115       -17.0919
 165   2.0000      -0.626589       -17.0504
 166   2.0000      -0.625283       -17.0148
 167   2.0000      -0.620957       -16.8971
 168   2.0000      -0.616128       -16.7657
 169   2.0000      -0.613622       -16.6975
 170   2.0000      -0.595543       -16.2055
 171   2.0000      -0.589342       -16.0368
 172   2.0000      -0.586032       -15.9467
 173   2.0000      -0.578401       -15.7391
 174   2.0000      -0.575666       -15.6647
 175   2.0000      -0.569265       -15.4905
 176   2.0000      -0.568949       -15.4819
 177   2.0000      -0.568214       -15.4619
 178   2.0000      -0.565934       -15.3998
 179   2.0000      -0.564073       -15.3492
 180   2.0000      -0.556346       -15.1390
 181   2.0000      -0.555546       -15.1172
 182   2.0000      -0.554006       -15.0753
 183   2.0000      -0.552010       -15.0210
 184   2.0000      -0.551317       -15.0021
 185   2.0000      -0.549795       -14.9607
 186   2.0000      -0.549176       -14.9438
 187   2.0000      -0.546271       -14.8648
 188   2.0000      -0.545618       -14.8470
 189   2.0000      -0.543154       -14.7800
 190   2.0000      -0.540386       -14.7046
 191   2.0000      -0.537578       -14.6283
 192   2.0000      -0.530956       -14.4481
 193   2.0000      -0.522183       -14.2093
 194   2.0000      -0.516633       -14.0583
 195   2.0000      -0.512473       -13.9451
 196   2.0000      -0.509051       -13.8520
 197   2.0000      -0.507102       -13.7989
 198   2.0000      -0.504819       -13.7368
 199   2.0000      -0.503372       -13.6974
 200   2.0000      -0.501865       -13.6565
 201   2.0000      -0.500195       -13.6110
 202   2.0000      -0.498418       -13.5626
 203   2.0000      -0.496706       -13.5161
 204   2.0000      -0.491451       -13.3731
 205   2.0000      -0.488899       -13.3036
 206   2.0000      -0.485072       -13.1995
 207   2.0000      -0.479369       -13.0443
 208   2.0000      -0.477508       -12.9936
 209   2.0000      -0.475796       -12.9471
 210   2.0000      -0.474918       -12.9232
 211   2.0000      -0.472769       -12.8647
 212   2.0000      -0.466273       -12.6879
 213   2.0000      -0.463851       -12.6220
 214   2.0000      -0.461381       -12.5548
 215   2.0000      -0.457914       -12.4605
 216   2.0000      -0.456550       -12.4234
 217   2.0000      -0.455825       -12.4036
 218   2.0000      -0.455001       -12.3812
 219   2.0000      -0.454439       -12.3659
 220   2.0000      -0.454083       -12.3562
 221   2.0000      -0.453016       -12.3272
 222   2.0000      -0.452063       -12.3013
 223   2.0000      -0.451056       -12.2738
 224   2.0000      -0.449342       -12.2272
 225   2.0000      -0.447755       -12.1840
 226   2.0000      -0.447251       -12.1703
 227   2.0000      -0.446543       -12.1511
 228   2.0000      -0.445715       -12.1285
 229   2.0000      -0.445596       -12.1253
 230   2.0000      -0.443865       -12.0782
 231   2.0000      -0.443796       -12.0763
 232   2.0000      -0.443351       -12.0642
 233   2.0000      -0.443012       -12.0550
 234   2.0000      -0.435913       -11.8618
 235   2.0000      -0.432772       -11.7763
 236   2.0000      -0.429119       -11.6769
 237   2.0000      -0.428431       -11.6582
 238   2.0000      -0.427851       -11.6424
 239   2.0000      -0.427730       -11.6391
 240   2.0000      -0.427218       -11.6252
 241   2.0000      -0.424927       -11.5629
 242   2.0000      -0.424207       -11.5433
 243   2.0000      -0.423347       -11.5199
 244   2.0000      -0.422517       -11.4973
 245   2.0000      -0.421889       -11.4802
 246   2.0000      -0.420609       -11.4453
 247   2.0000      -0.418750       -11.3948
 248   2.0000      -0.418532       -11.3888
 249   2.0000      -0.416458       -11.3324
 250   2.0000      -0.408788       -11.1237
 251   2.0000      -0.375703       -10.2234
 252   2.0000      -0.374480       -10.1901
 253   2.0000      -0.372780       -10.1439
 254   2.0000      -0.371398       -10.1063
 255   2.0000      -0.370561       -10.0835
 256   2.0000      -0.354018        -9.6333
 257   2.0000      -0.351725        -9.5709
 258   2.0000      -0.350715        -9.5434
 259   2.0000      -0.348520        -9.4837
 260   2.0000      -0.346313        -9.4236
 261   2.0000      -0.329337        -8.9617
 262   2.0000      -0.313058        -8.5187
 263   2.0000      -0.291233        -7.9249
 264   2.0000      -0.264852        -7.2070
 265   2.0000      -0.234519        -6.3816
 266   0.0000      -0.140837        -3.8324
 267   0.0000      -0.113547        -3.0898
 268   0.0000      -0.093640        -2.5481
 269   0.0000      -0.079481        -2.1628
 270   0.0000      -0.072461        -1.9718

MULLIKEN ATOMIC CHARGES
-----------------------
   0 C :   -0.107113
   1 S :    0.176615
   2 C :   -0.126844
   3 C :    0.144800
   4 C :    0.100043
   5 C :   -0.013433
   6 C :   -0.075208
   7 C :   -0.175299
   8 N :    0.180242
   9 C :   -0.065377
  10 C :   -0.178032
  11 N :    0.181444
  12 C :   -0.047747
  13 C :   -0.007409
  14 C :    0.032917
  15 C :   -0.111874
  16 S :    0.163901
  17 C :   -0.082096
  18 C :    0.126514
  19 C :    0.132155
  20 C :   -0.061700
  21 C :   -0.065001
  22 C :   -0.181350
  23 N :    0.185169
  24 C :   -0.062327
  25 C :   -0.182482
  26 N :    0.183247
  27 C :   -0.052889
  28 C :   -0.014098
  29 C :   -0.021331
  30 C :   -0.071743
  31 S :    0.132472
  32 C :   -0.065673
  33 C :    0.131906
  34 C :    0.134276
  35 C :   -0.053318
  36 C :   -0.065556
  37 C :   -0.181081
  38 N :    0.178083
  39 C :   -0.070900
  40 C :   -0.179928
  41 N :    0.180172
  42 C :   -0.054053
  43 C :   -0.024125
  44 C :   -0.018184
  45 C :   -0.072606
  46 S :    0.136133
  47 C :   -0.078123
  48 C :    0.129427
  49 C :    0.137034
  50 C :   -0.057382
  51 C :   -0.069397
  52 C :   -0.178900
  53 N :    0.187978
  54 C :   -0.067830
  55 C :   -0.177607
  56 N :    0.186445
  57 C :   -0.054461
  58 C :   -0.022931
  59 C :    0.049464
  60 C :   -0.130015
  61 S :    0.180554
  62 C :   -0.112822
  63 C :    0.121445
  64 C :    0.139513
  65 C :   -0.063084
  66 C :   -0.066427
  67 C :   -0.178957
  68 N :    0.183029
  69 C :   -0.065557
  70 C :   -0.178982
  71 N :    0.180379
  72 C :   -0.048791
  73 C :   -0.000949
  74 C :   -0.012009
  75 H :    0.037053
  76 H :   -0.001376
  77 H :   -0.002077
  78 H :   -0.000766
  79 H :   -0.005004
  80 H :   -0.006468
  81 H :   -0.004625
  82 H :    0.001818
  83 H :   -0.000852
  84 H :   -0.004686
  85 H :   -0.005958
  86 H :   -0.000908
  87 H :    0.000920
  88 H :   -0.005646
  89 H :    0.000187
  90 H :   -0.005135
  91 H :   -0.007032
  92 H :   -0.009699
  93 H :   -0.001181
  94 H :    0.006082
  95 H :    0.030900
  96 H :    0.042098
Sum of atomic charges:   -0.0000000

LOEWDIN ATOMIC CHARGES
----------------------
   0 C :   -0.172664
   1 S :    0.510453
   2 C :   -0.173665
   3 C :   -0.041136
   4 C :   -0.051058
   5 C :    0.038324
   6 C :   -0.053075
   7 C :   -0.033036
   8 N :   -0.029537
   9 C :   -0.049079
  10 C :   -0.034751
  11 N :   -0.026842
  12 C :    0.029865
  13 C :   -0.030175
  14 C :   -0.054037
  15 C :   -0.155913
  16 S :    0.488982
  17 C :   -0.166617
  18 C :   -0.036297
  19 C :   -0.042983
  20 C :    0.028836
  21 C :   -0.048062
  22 C :   -0.035273
  23 N :   -0.025283
  24 C :   -0.048296
  25 C :   -0.034855
  26 N :   -0.024824
  27 C :    0.031937
  28 C :   -0.041943
  29 C :   -0.046273
  30 C :   -0.157775
  31 S :    0.475080
  32 C :   -0.155882
  33 C :   -0.040865
  34 C :   -0.039878
  35 C :    0.032625
  36 C :   -0.050722
  37 C :   -0.033633
  38 N :   -0.031012
  39 C :   -0.051670
  40 C :   -0.033807
  41 N :   -0.031705
  42 C :    0.033090
  43 C :   -0.049059
  44 C :   -0.039863
  45 C :   -0.162781
  46 S :    0.477650
  47 C :   -0.151996
  48 C :   -0.041893
  49 C :   -0.037004
  50 C :    0.030683
  51 C :   -0.047197
  52 C :   -0.034629
  53 N :   -0.025245
  54 C :   -0.048674
  55 C :   -0.034841
  56 N :   -0.024177
  57 C :    0.033160
  58 C :   -0.047349
  59 C :   -0.040103
  60 C :   -0.167685
  61 S :    0.509093
  62 C :   -0.161333
  63 C :   -0.042526
  64 C :   -0.039942
  65 C :    0.026766
  66 C :   -0.047777
  67 C :   -0.035009
  68 N :   -0.027003
  69 C :   -0.051891
  70 C :   -0.033511
  71 N :   -0.028717
  72 C :    0.036538
  73 C :   -0.043854
  74 C :   -0.021617
  75 H :    0.032705
  76 H :    0.046677
  77 H :    0.042590
  78 H :    0.034760
  79 H :    0.024353
  80 H :    0.040885
  81 H :    0.042619
  82 H :    0.028374
  83 H :    0.028778
  84 H :    0.042531
  85 H :    0.042288
  86 H :    0.028172
  87 H :    0.028927
  88 H :    0.042316
  89 H :    0.043596
  90 H :    0.033769
  91 H :    0.023336
  92 H :    0.039897
  93 H :    0.044143
  94 H :    0.038583
  95 H :    0.021170
  96 H :    0.034747

  Mayer bond orders larger than 0.100000
B(  0-C ,  1-S ) :   1.2127 B(  0-C ,  4-C ) :   1.4087 B(  0-C , 75-H ) :   0.9687
B(  1-S ,  2-C ) :   1.1586 B(  2-C ,  3-C ) :   1.2995 B(  2-C , 13-C ) :   1.2215
B(  3-C ,  4-C ) :   1.1943 B(  3-C , 12-C ) :   1.2010 B(  4-C ,  5-C ) :   1.1562
B(  5-C ,  6-C ) :   1.5777 B(  5-C , 76-H ) :   1.0071 B(  6-C ,  7-C ) :   1.0791
B(  6-C ,  9-C ) :   1.2273 B(  7-C ,  8-N ) :   3.0497 B(  9-C , 10-C ) :   1.0829
B(  9-C , 12-C ) :   1.5742 B( 10-C , 11-N ) :   3.0423 B( 12-C , 77-H ) :   0.9948
B( 13-C , 14-C ) :   1.5997 B( 13-C , 78-H ) :   0.9609 B( 14-C , 15-C ) :   1.1998
B( 14-C , 79-H ) :   0.9448 B( 15-C , 16-S ) :   1.1531 B( 15-C , 19-C ) :   1.2899
B( 16-S , 17-C ) :   1.1288 B( 17-C , 18-C ) :   1.2620 B( 17-C , 28-C ) :   1.2611
B( 18-C , 19-C ) :   1.2119 B( 18-C , 27-C ) :   1.2195 B( 19-C , 20-C ) :   1.2038
B( 20-C , 21-C ) :   1.5553 B( 20-C , 80-H ) :   0.9919 B( 21-C , 22-C ) :   1.0763
B( 21-C , 24-C ) :   1.2562 B( 22-C , 23-N ) :   3.0464 B( 24-C , 25-C ) :   1.0778
B( 24-C , 27-C ) :   1.5493 B( 25-C , 26-N ) :   3.0438 B( 27-C , 81-H ) :   0.9955
B( 28-C , 29-C ) :   1.5287 B( 28-C , 82-H ) :   0.9635 B( 29-C , 30-C ) :   1.2709
B( 29-C , 83-H ) :   0.9650 B( 30-C , 31-S ) :   1.1203 B( 30-C , 34-C ) :   1.2624
B( 31-S , 32-C ) :   1.1215 B( 32-C , 33-C ) :   1.2607 B( 32-C , 43-C ) :   1.2736
B( 33-C , 34-C ) :   1.2087 B( 33-C , 42-C ) :   1.2167 B( 34-C , 35-C ) :   1.2155
B( 35-C , 36-C ) :   1.5462 B( 35-C , 84-H ) :   0.9961 B( 36-C , 37-C ) :   1.0811
B( 36-C , 39-C ) :   1.2539 B( 37-C , 38-N ) :   3.0435 B( 39-C , 40-C ) :   1.0803
B( 39-C , 42-C ) :   1.5469 B( 40-C , 41-N ) :   3.0448 B( 42-C , 85-H ) :   0.9962
B( 43-C , 44-C ) :   1.5170 B( 43-C , 86-H ) :   0.9643 B( 44-C , 45-C ) :   1.2740
B( 44-C , 87-H ) :   0.9640 B( 45-C , 46-S ) :   1.1170 B( 45-C , 49-C ) :   1.2650
B( 46-S , 47-C ) :   1.1317 B( 47-C , 48-C ) :   1.2701 B( 47-C , 58-C ) :   1.2561
B( 48-C , 49-C ) :   1.2083 B( 48-C , 57-C ) :   1.2101 B( 49-C , 50-C ) :   1.2143
B( 50-C , 51-C ) :   1.5530 B( 50-C , 88-H ) :   0.9954 B( 51-C , 52-C ) :   1.0791
B( 51-C , 54-C ) :   1.2536 B( 52-C , 53-N ) :   3.0465 B( 54-C , 55-C ) :   1.0809
B( 54-C , 57-C ) :   1.5529 B( 55-C , 56-N ) :   3.0442 B( 57-C , 89-H ) :   0.9949
B( 58-C , 59-C ) :   1.5654 B( 58-C , 90-H ) :   0.9601 B( 59-C , 60-C ) :   1.2114
B( 59-C , 91-H ) :   0.9417 B( 60-C , 61-S ) :   1.1563 B( 60-C , 64-C ) :   1.2965
B( 61-S , 62-C ) :   1.1644 B( 62-C , 63-C ) :   1.3239 B( 62-C , 73-C ) :   1.1442
B( 63-C , 64-C ) :   1.2020 B( 63-C , 72-C ) :   1.1927 B( 64-C , 65-C ) :   1.2020
B( 65-C , 66-C ) :   1.5582 B( 65-C , 92-H ) :   0.9934 B( 66-C , 67-C ) :   1.0776
B( 66-C , 69-C ) :   1.2448 B( 67-C , 68-N ) :   3.0429 B( 69-C , 70-C ) :   1.0774
B( 69-C , 72-C ) :   1.5670 B( 70-C , 71-N ) :   3.0458 B( 72-C , 93-H ) :   0.9971
B( 73-C , 74-C ) :   1.9010 B( 73-C , 94-H ) :   0.9581 B( 74-C , 95-H ) :   0.9589
B( 74-C , 96-H ) :   0.9482

-----------------------------------------------------------------------------
         ABSORPTION SPECTRUM VIA TRANSITION ELECTRIC DIPOLE MOMENTS
-----------------------------------------------------------------------------
State   Energy  Wavelength   fosc         T2         TX        TY        TZ
        (cm-1)    (nm)                  (au**2)     (au)      (au)      (au)
-----------------------------------------------------------------------------
   0    8104.0   1234.0   1.667680117  67.74680   5.63610   4.25699   4.22602
   1   14096.5    709.4   0.005795100   0.13534  -0.18303  -0.31837   0.02196
   2   14928.4    669.9   0.016303778   0.35954  -0.38199  -0.44512   0.12449
   3   17662.0    566.2   0.122233365   2.27838  -1.42963  -0.40826  -0.26052
   4   19953.9    501.2   0.183939771   3.03476  -1.50145  -0.49574  -0.73120
   5   20381.4    490.6   0.252246350   4.07442  -1.79430  -0.43934   0.81357
   6   21349.5    468.4   0.076043335   1.17260   0.49670   0.11015   0.95591
   7   22776.9    439.0   0.007804330   0.11280  -0.18758  -0.24817  -0.12660
   8   24504.2    408.1   0.661987635   8.89376  -1.36800  -0.49992   2.60239
   9   25788.1    387.8   0.229635069   2.93153   0.93943   0.43843  -1.36264
  10   26474.7    377.7   0.098650960   1.22672   0.74242   0.41932  -0.70690
  11   26894.6    371.8   0.014585193   0.17854   0.07180   0.35965   0.20983
  12   27603.1    362.3   0.101148203   1.20636  -0.45391  -0.29958  -0.95424
  13   27823.4    359.4   0.077494596   0.91693   0.50889   0.64260   0.49501
  14   27894.6    358.5   0.034354105   0.40545   0.53276   0.34607  -0.04309
  15   28607.0    349.6   0.039083913   0.44978   0.52131   0.35764  -0.22384
  16   28836.0    346.8   0.085463936   0.97572  -0.63825  -0.35870  -0.66309
  17   29861.6    334.9   0.058120002   0.64075  -0.60393  -0.32391   0.41364
  18   30543.6    327.4   0.012785197   0.13780   0.29375   0.11528  -0.19552
  19   31139.8    321.1   0.020674927   0.21858  -0.32486   0.04346  -0.33339
  20   31646.9    316.0   0.011803313   0.12279   0.29162   0.04158   0.18977
  21   32277.0    309.8   0.042719030   0.43572  -0.62283  -0.16908   0.13861
  22   32570.1    307.0   0.506504348   5.11964  -1.41375  -0.54319   1.68105
  23   33023.0    302.8   0.067647138   0.67439  -0.12484   0.18593  -0.79008
  24   33336.0    300.0   0.185991512   1.83677  -0.74894  -0.67420   0.90626
  25   33609.9    297.5   0.105567148   1.03404   0.55562   0.25458  -0.81272
  26   33711.3    296.6   0.269065650   2.62760   1.02754  -0.41877  -1.18169
  27   34254.9    291.9   0.217368887   2.08906  -0.75836  -0.06620   1.22864
  28   34529.1    289.6   0.006733138   0.06420  -0.17537  -0.15015  -0.10437
  29   35033.2    285.4   0.059285682   0.55712  -0.22184   0.29937   0.64675
  30   35397.5    282.5   0.161963325   1.50633   1.09607   0.41575  -0.36348
  31   35638.9    280.6   0.048204259   0.44528  -0.05527  -0.16537  -0.64411
  32   35669.2    280.4   0.018658091   0.17221   0.32907   0.17024  -0.18691
  33   35748.1    279.7   0.018597327   0.17127   0.07439  -0.17145  -0.36924
  34   35800.8    279.3   0.030637849   0.28174  -0.44833   0.00698   0.28406
  35   36211.9    276.2   0.014430712   0.13119   0.24668   0.24900   0.09134
  36   36365.4    275.0   0.022358807   0.20241   0.22571  -0.12261  -0.36937
  37   36702.0    272.5   0.024216631   0.21722  -0.10795   0.10982   0.43989
  38   36951.6    270.6   0.104699088   0.93279   0.83986   0.38977  -0.27477
  39   37417.8    267.3   0.052641666   0.46316  -0.38270  -0.44487  -0.34465
  40   37607.3    265.9   0.015218408   0.13322  -0.30826  -0.08922  -0.17390
  41   37779.2    264.7   0.027699331   0.24138  -0.10854   0.24937   0.40916
  42   38038.7    262.9   0.022302239   0.19302  -0.28087   0.15902   0.29806
  43   38272.2    261.3   0.069024551   0.59374  -0.76705   0.00384  -0.07325
  44   38741.4    258.1   0.060110269   0.51080   0.04481  -0.13435  -0.70053
  45   39136.5    255.5   0.150266442   1.26403   0.38680   0.11309  -1.04958
  46   39362.5    254.0   0.094301342   0.78870  -0.63523  -0.40110   0.47360
  47   39582.6    252.6   0.062970098   0.52373   0.62077   0.32883   0.17392
  48   39768.6    251.5   0.062257404   0.51538  -0.52249  -0.19817   0.45068
  49   39878.0    250.8   0.054739986   0.45190   0.53746   0.13724  -0.37974
  50   40079.1    249.5   0.012831054   0.10539   0.24380   0.09042   0.19437

FINAL SINGLE POINT ENERGY     -4833.630312491726

DIPOLE MOMENT
-------------
                                X             Y             Z
Electronic contribution:     19.27837       7.32566       1.86035
Nuclear contribution   :    -24.41001      -7.35874       3.56357
                        -----------------------------------------
Total Dipole Moment    :     -5.13164      -0.03309       5.42392
                        -----------------------------------------
Magnitude (a.u.)       :      7.46684
Magnitude (Debye)      :     18.97920

Rotational constants in cm-1:     0.001480     0.000201     0.000179
Rotational constants in MHz :    44.358838     6.020112     5.369717

                             ****ORCA TERMINATED NORMALLY****
TOTAL RUN TIME: 0 days 0 hours 8 minutes 47 seconds 866 msec
