                         Program Version 4.2.0 -  RELEASE  -
|  1> # ORCA input file
|  2> # SCF done       -196.112995560826          0.000201374292
|  3> ! CAM-B3LYP def2-SVP def2/J RIJCOSX Grid4 TightSCF
|  4> %maxcore 5000
|  5> %tddft
|  6>     Mode sTDDFT
|  7>     Ethresh 5.0
|  8>     maxcore 5000
|  9> end
| 10>
| 11> %pal
| 12>   nprocs 6
| 13>   end
| 14> * xyz 0 1
| 15>    C        4.89191        -2.96244        -5.81896
| 16>    S        3.35282        -3.68884        -5.83237
| 17>    C        3.33458        -3.86297        -4.09781
| 18>    C        4.51843        -3.34368        -3.54645
| 19>    C        5.40658        -2.82944        -4.54277
| 20>    C        6.64162        -2.27177        -4.15381
| 21>    C        6.98780        -2.21116        -2.82720
| 22>    C        8.27516        -1.64179        -2.42762
| 23>    C        8.86821        -0.62469        -3.03702
| 24>    C        6.09375        -2.71511        -1.83008
| 25>    C        6.45755        -2.62157        -0.38174
| 26>    C        4.89281        -3.26518        -2.19444
| 27>    C        2.26516        -4.44043        -3.39670
| 28>    C        1.11995        -4.92740        -3.95837
| 29>    C        0.03366        -5.48624        -3.26055
| 30>    S       -1.10775        -6.46492        -4.13689
| 31>    C       -2.01550        -6.90580        -2.71231
| 32>    C       -1.43447        -6.29570        -1.57943
| 33>    C       -0.30809        -5.46142        -1.89795
| 34>    C        0.27400        -4.69086        -0.88076
| 35>    C       -0.10868        -4.85705         0.42575
| 36>    N        0.43155        -3.94241         1.39903
| 37>    O        1.56221        -3.54581         1.20327
| 38>    O       -0.29690        -3.58606         2.29515
| 39>    C       -1.09169        -5.82452         0.75969
| 40>    N       -1.30649        -6.24216         2.12064
| 41>    O       -0.35464        -6.17990         2.86784
| 42>    O       -2.39475        -6.69668         2.39762
| 43>    C       -1.76579        -6.49402        -0.23230
| 44>    C       -3.15433        -7.72158        -2.77903
| 45>    S       -4.32814        -7.71115        -1.49114
| 46>    C       -5.32085        -8.92130        -2.24010
| 47>    C       -4.76672        -9.30609        -3.47965
| 48>    C       -3.56418        -8.61612        -3.79923
| 49>    C       -2.92747        -8.91264        -5.00905
| 50>    C       -3.47196        -9.80974        -5.90774
| 51>    C       -2.74941        -9.99367        -7.16869
| 52>    C       -3.28701       -10.09274        -8.37623
| 53>    C       -4.66514       -10.50652        -5.57839
| 54>    C       -5.25104       -11.54814        -6.48116
| 55>    C       -5.28075       -10.25154        -4.37639
| 56>    C       -6.47222        -9.41572        -1.61928
| 57>    C       -7.06950        -8.85329        -0.52239
| 58>    C       -8.16572        -9.40924         0.14692
| 59>    S       -8.67963       -11.04839        -0.13524
| 60>    C       -9.94779       -10.98623         1.05999
| 61>    C       -9.97895        -9.70463         1.65057
| 62>    C       -8.97500        -8.81970         1.13287
| 63>    C       -8.92089        -7.49002         1.57240
| 64>    C       -9.80061        -7.04644         2.52756
| 65>    N       -9.86254        -5.62704         2.78373
| 66>    O       -8.83167        -5.00141         2.68940
| 67>    O      -10.96019        -5.15998         2.99098
| 68>    C      -10.71883        -7.94903         3.12287
| 69>    N      -11.48219        -7.58571         4.29247
| 70>    O      -10.96739        -6.81226         5.06695
| 71>    O      -12.54940        -8.13783         4.44645
| 72>    C      -10.80750        -9.24704         2.68523
| 73>    C      -10.78867       -12.08994         1.28795
| 74>    S      -12.34165       -11.88962         2.05179
| 75>    C      -12.73363       -13.56517         1.94096
| 76>    C      -11.69079       -14.27577         1.33608
| 77>    C      -10.58967       -13.44970         0.95729
| 78>    C       -9.46776       -14.05258         0.37384
| 79>    C       -9.42266       -15.41137         0.14820
| 80>    C       -8.23894       -16.00831        -0.46533
| 81>    C       -6.99981       -15.55482        -0.32309
| 82>    C      -10.53498       -16.23013         0.50343
| 83>    C      -10.49068       -17.70914         0.27111
| 84>    C      -11.63231       -15.66149         1.08959
| 85>    C      -13.97369       -14.07546         2.43409
| 86>    C      -14.91684       -13.34192         3.02968
| 87>    H        5.34650        -2.66300        -6.74264
| 88>    H        7.31624        -1.90978        -4.91435
| 89>    H        8.74866        -2.09709        -1.56852
| 90>    H        8.41692        -0.11581        -3.87255
| 91>    H        9.82135        -0.24758        -2.70836
| 92>    H        7.28905        -3.28861        -0.15203
| 93>    H        5.61353        -2.90223         0.24293
| 94>    H        6.76005        -1.60742        -0.12613
| 95>    H        4.22531        -3.63356        -1.42995
| 96>    H        2.41400        -4.52301        -2.33167
| 97>    H        1.04378        -4.93716        -5.03892
| 98>    H        0.99076        -3.91873        -1.10810
| 99>    H       -2.51215        -7.21400         0.06440
|100>    H       -2.00270        -8.42214        -5.26720
|101>    H       -1.67029        -9.97586        -7.07161
|102>    H       -4.34883       -10.05387        -8.54380
|103>    H       -2.67143       -10.18480        -9.25491
|104>    H       -4.47771       -12.04437        -7.06178
|105>    H       -5.96098       -11.09653        -7.17394
|106>    H       -5.78905       -12.29095        -5.89593
|107>    H       -6.17968       -10.78999        -4.11593
|108>    H       -6.92102       -10.29971        -2.05374
|109>    H       -6.68514        -7.91666        -0.14168
|110>    H       -8.22065        -6.79060         1.14264
|111>    H      -11.50534        -9.90210         3.18174
|112>    H       -8.62103       -13.45191         0.08829
|113>    H       -8.41126       -16.88985        -1.06737
|114>    H       -6.76384       -14.70569         0.29613
|115>    H       -6.16667       -16.03479        -0.80711
|116>    H      -10.46721       -17.93009        -0.79603
|117>    H      -11.36796       -18.18858         0.69785
|118>    H       -9.60127       -18.14281         0.72558
|119>    H      -12.46677       -16.28228         1.37877
|120>    H      -14.12417       -15.13796         2.29880
|121>    H      -14.79636       -12.28218         3.18329
|122>    H      -15.83209       -13.78219         3.38188
|123> *
|124>
|125>                          ****END OF INPUT****

CARTESIAN COORDINATES (ANGSTROEM)
---------------------------------
  C      4.891910   -2.962440   -5.818960
  S      3.352820   -3.688840   -5.832370
  C      3.334580   -3.862970   -4.097810
  C      4.518430   -3.343680   -3.546450
  C      5.406580   -2.829440   -4.542770
  C      6.641620   -2.271770   -4.153810
  C      6.987800   -2.211160   -2.827200
  C      8.275160   -1.641790   -2.427620
  C      8.868210   -0.624690   -3.037020
  C      6.093750   -2.715110   -1.830080
  C      6.457550   -2.621570   -0.381740
  C      4.892810   -3.265180   -2.194440
  C      2.265160   -4.440430   -3.396700
  C      1.119950   -4.927400   -3.958370
  C      0.033660   -5.486240   -3.260550
  S     -1.107750   -6.464920   -4.136890
  C     -2.015500   -6.905800   -2.712310
  C     -1.434470   -6.295700   -1.579430
  C     -0.308090   -5.461420   -1.897950
  C      0.274000   -4.690860   -0.880760
  C     -0.108680   -4.857050    0.425750
  N      0.431550   -3.942410    1.399030
  O      1.562210   -3.545810    1.203270
  O     -0.296900   -3.586060    2.295150
  C     -1.091690   -5.824520    0.759690
  N     -1.306490   -6.242160    2.120640
  O     -0.354640   -6.179900    2.867840
  O     -2.394750   -6.696680    2.397620
  C     -1.765790   -6.494020   -0.232300
  C     -3.154330   -7.721580   -2.779030
  S     -4.328140   -7.711150   -1.491140
  C     -5.320850   -8.921300   -2.240100
  C     -4.766720   -9.306090   -3.479650
  C     -3.564180   -8.616120   -3.799230
  C     -2.927470   -8.912640   -5.009050
  C     -3.471960   -9.809740   -5.907740
  C     -2.749410   -9.993670   -7.168690
  C     -3.287010  -10.092740   -8.376230
  C     -4.665140  -10.506520   -5.578390
  C     -5.251040  -11.548140   -6.481160
  C     -5.280750  -10.251540   -4.376390
  C     -6.472220   -9.415720   -1.619280
  C     -7.069500   -8.853290   -0.522390
  C     -8.165720   -9.409240    0.146920
  S     -8.679630  -11.048390   -0.135240
  C     -9.947790  -10.986230    1.059990
  C     -9.978950   -9.704630    1.650570
  C     -8.975000   -8.819700    1.132870
  C     -8.920890   -7.490020    1.572400
  C     -9.800610   -7.046440    2.527560
  N     -9.862540   -5.627040    2.783730
  O     -8.831670   -5.001410    2.689400
  O    -10.960190   -5.159980    2.990980
  C    -10.718830   -7.949030    3.122870
  N    -11.482190   -7.585710    4.292470
  O    -10.967390   -6.812260    5.066950
  O    -12.549400   -8.137830    4.446450
  C    -10.807500   -9.247040    2.685230
  C    -10.788670  -12.089940    1.287950
  S    -12.341650  -11.889620    2.051790
  C    -12.733630  -13.565170    1.940960
  C    -11.690790  -14.275770    1.336080
  C    -10.589670  -13.449700    0.957290
  C     -9.467760  -14.052580    0.373840
  C     -9.422660  -15.411370    0.148200
  C     -8.238940  -16.008310   -0.465330
  C     -6.999810  -15.554820   -0.323090
  C    -10.534980  -16.230130    0.503430
  C    -10.490680  -17.709140    0.271110
  C    -11.632310  -15.661490    1.089590
  C    -13.973690  -14.075460    2.434090
  C    -14.916840  -13.341920    3.029680
  H      5.346500   -2.663000   -6.742640
  H      7.316240   -1.909780   -4.914350
  H      8.748660   -2.097090   -1.568520
  H      8.416920   -0.115810   -3.872550
  H      9.821350   -0.247580   -2.708360
  H      7.289050   -3.288610   -0.152030
  H      5.613530   -2.902230    0.242930
  H      6.760050   -1.607420   -0.126130
  H      4.225310   -3.633560   -1.429950
  H      2.414000   -4.523010   -2.331670
  H      1.043780   -4.937160   -5.038920
  H      0.990760   -3.918730   -1.108100
  H     -2.512150   -7.214000    0.064400
  H     -2.002700   -8.422140   -5.267200
  H     -1.670290   -9.975860   -7.071610
  H     -4.348830  -10.053870   -8.543800
  H     -2.671430  -10.184800   -9.254910
  H     -4.477710  -12.044370   -7.061780
  H     -5.960980  -11.096530   -7.173940
  H     -5.789050  -12.290950   -5.895930
  H     -6.179680  -10.789990   -4.115930
  H     -6.921020  -10.299710   -2.053740
  H     -6.685140   -7.916660   -0.141680
  H     -8.220650   -6.790600    1.142640
  H    -11.505340   -9.902100    3.181740
  H     -8.621030  -13.451910    0.088290
  H     -8.411260  -16.889850   -1.067370
  H     -6.763840  -14.705690    0.296130
  H     -6.166670  -16.034790   -0.807110
  H    -10.467210  -17.930090   -0.796030
  H    -11.367960  -18.188580    0.697850
  H     -9.601270  -18.142810    0.725580
  H    -12.466770  -16.282280    1.378770
  H    -14.124170  -15.137960    2.298800
  H    -14.796360  -12.282180    3.183290
  H    -15.832090  -13.782190    3.381880

 Total Charge           Charge          ....    0
 Multiplicity           Mult            ....    1
 Number of Electrons    NEL             ....  538
 Basis Dimension        Dim             .... 1208

ORBITAL ENERGIES
----------------

  NO   OCC          E(Eh)            E(eV)
   0   2.0000     -88.983548     -2421.3654
   1   2.0000     -88.982875     -2421.3471
   2   2.0000     -88.977808     -2421.2093
   3   2.0000     -88.974653     -2421.1234
   4   2.0000     -88.972293     -2421.0592
   5   2.0000     -19.240392      -523.5577
   6   2.0000     -19.238596      -523.5088
   7   2.0000     -19.238469      -523.5054
   8   2.0000     -19.237550      -523.4804
   9   2.0000     -19.236891      -523.4624
  10   2.0000     -19.236625      -523.4552
  11   2.0000     -19.236229      -523.4444
  12   2.0000     -19.235659      -523.4289
  13   2.0000     -14.645974      -398.5372
  14   2.0000     -14.644936      -398.5090
  15   2.0000     -14.643359      -398.4660
  16   2.0000     -14.643085      -398.4586
  17   2.0000     -10.341238      -281.3994
  18   2.0000     -10.340759      -281.3863
  19   2.0000     -10.340392      -281.3764
  20   2.0000     -10.339076      -281.3406
  21   2.0000     -10.333701      -281.1943
  22   2.0000     -10.331628      -281.1379
  23   2.0000     -10.326677      -281.0032
  24   2.0000     -10.325975      -280.9841
  25   2.0000     -10.321522      -280.8629
  26   2.0000     -10.320740      -280.8416
  27   2.0000     -10.315814      -280.7076
  28   2.0000     -10.312805      -280.6257
  29   2.0000     -10.312461      -280.6163
  30   2.0000     -10.311696      -280.5955
  31   2.0000     -10.311297      -280.5847
  32   2.0000     -10.309884      -280.5462
  33   2.0000     -10.309592      -280.5383
  34   2.0000     -10.307074      -280.4698
  35   2.0000     -10.306417      -280.4519
  36   2.0000     -10.306079      -280.4427
  37   2.0000     -10.305855      -280.4366
  38   2.0000     -10.305113      -280.4164
  39   2.0000     -10.299352      -280.2596
  40   2.0000     -10.298884      -280.2469
  41   2.0000     -10.297289      -280.2035
  42   2.0000     -10.295185      -280.1462
  43   2.0000     -10.293558      -280.1020
  44   2.0000     -10.293037      -280.0878
  45   2.0000     -10.292845      -280.0825
  46   2.0000     -10.291041      -280.0335
  47   2.0000     -10.290294      -280.0131
  48   2.0000     -10.289789      -279.9994
  49   2.0000     -10.289092      -279.9804
  50   2.0000     -10.287715      -279.9429
  51   2.0000     -10.287254      -279.9304
  52   2.0000     -10.285568      -279.8845
  53   2.0000     -10.284212      -279.8476
  54   2.0000     -10.283326      -279.8235
  55   2.0000     -10.282736      -279.8075
  56   2.0000     -10.282429      -279.7991
  57   2.0000     -10.281482      -279.7733
  58   2.0000     -10.280780      -279.7543
  59   2.0000     -10.280679      -279.7515
  60   2.0000     -10.279519      -279.7199
  61   2.0000     -10.279273      -279.7132
  62   2.0000     -10.276611      -279.6408
  63   2.0000     -10.275496      -279.6105
  64   2.0000     -10.273730      -279.5624
  65   2.0000     -10.273598      -279.5588
  66   2.0000     -10.273132      -279.5461
  67   2.0000     -10.272303      -279.5236
  68   2.0000     -10.271461      -279.5007
  69   2.0000     -10.270092      -279.4634
  70   2.0000     -10.265835      -279.3476
  71   2.0000     -10.263029      -279.2712
  72   2.0000      -8.078285      -219.8213
  73   2.0000      -8.077164      -219.7908
  74   2.0000      -8.072339      -219.6595
  75   2.0000      -8.069512      -219.5826
  76   2.0000      -8.067597      -219.5305
  77   2.0000      -6.047431      -164.5590
  78   2.0000      -6.046307      -164.5284
  79   2.0000      -6.043251      -164.4452
  80   2.0000      -6.042183      -164.4162
  81   2.0000      -6.041457      -164.3964
  82   2.0000      -6.040818      -164.3790
  83   2.0000      -6.039744      -164.3498
  84   2.0000      -6.038596      -164.3186
  85   2.0000      -6.037330      -164.2841
  86   2.0000      -6.036493      -164.2613
  87   2.0000      -6.034923      -164.2186
  88   2.0000      -6.034392      -164.2042
  89   2.0000      -6.032338      -164.1483
  90   2.0000      -6.032160      -164.1434
  91   2.0000      -6.030639      -164.1020
  92   2.0000      -1.323244       -36.0073
  93   2.0000      -1.321611       -35.9629
  94   2.0000      -1.316517       -35.8243
  95   2.0000      -1.314806       -35.7777
  96   2.0000      -1.142870       -31.0991
  97   2.0000      -1.141307       -31.0565
  98   2.0000      -1.137299       -30.9475
  99   2.0000      -1.135658       -30.9028
 100   2.0000      -1.024957       -27.8905
 101   2.0000      -1.023466       -27.8499
 102   2.0000      -1.005877       -27.3713
 103   2.0000      -1.003095       -27.2956
 104   2.0000      -0.999242       -27.1908
 105   2.0000      -0.979752       -26.6604
 106   2.0000      -0.978024       -26.6134
 107   2.0000      -0.954687       -25.9784
 108   2.0000      -0.951900       -25.9025
 109   2.0000      -0.945270       -25.7221
 110   2.0000      -0.930050       -25.3080
 111   2.0000      -0.920345       -25.0439
 112   2.0000      -0.905954       -24.6523
 113   2.0000      -0.902456       -24.5571
 114   2.0000      -0.900697       -24.5092
 115   2.0000      -0.892679       -24.2910
 116   2.0000      -0.887791       -24.1580
 117   2.0000      -0.884275       -24.0623
 118   2.0000      -0.884179       -24.0597
 119   2.0000      -0.878954       -23.9176
 120   2.0000      -0.873229       -23.7618
 121   2.0000      -0.868507       -23.6333
 122   2.0000      -0.863597       -23.4997
 123   2.0000      -0.857047       -23.3214
 124   2.0000      -0.848538       -23.0899
 125   2.0000      -0.837010       -22.7762
 126   2.0000      -0.829798       -22.5800
 127   2.0000      -0.826274       -22.4841
 128   2.0000      -0.811327       -22.0773
 129   2.0000      -0.803441       -21.8627
 130   2.0000      -0.797995       -21.7146
 131   2.0000      -0.787044       -21.4166
 132   2.0000      -0.785452       -21.3732
 133   2.0000      -0.783706       -21.3257
 134   2.0000      -0.779327       -21.2066
 135   2.0000      -0.776031       -21.1169
 136   2.0000      -0.770119       -20.9560
 137   2.0000      -0.753345       -20.4996
 138   2.0000      -0.738956       -20.1080
 139   2.0000      -0.725533       -19.7427
 140   2.0000      -0.723171       -19.6785
 141   2.0000      -0.715739       -19.4762
 142   2.0000      -0.713473       -19.4146
 143   2.0000      -0.710406       -19.3311
 144   2.0000      -0.708244       -19.2723
 145   2.0000      -0.700039       -19.0490
 146   2.0000      -0.691202       -18.8086
 147   2.0000      -0.675823       -18.3901
 148   2.0000      -0.674128       -18.3439
 149   2.0000      -0.666516       -18.1368
 150   2.0000      -0.660937       -17.9850
 151   2.0000      -0.656241       -17.8572
 152   2.0000      -0.653255       -17.7760
 153   2.0000      -0.643137       -17.5006
 154   2.0000      -0.641749       -17.4629
 155   2.0000      -0.638968       -17.3872
 156   2.0000      -0.638192       -17.3661
 157   2.0000      -0.637064       -17.3354
 158   2.0000      -0.634071       -17.2540
 159   2.0000      -0.631667       -17.1885
 160   2.0000      -0.630230       -17.1494
 161   2.0000      -0.625567       -17.0225
 162   2.0000      -0.620819       -16.8933
 163   2.0000      -0.616272       -16.7696
 164   2.0000      -0.614144       -16.7117
 165   2.0000      -0.611511       -16.6400
 166   2.0000      -0.609394       -16.5825
 167   2.0000      -0.604954       -16.4616
 168   2.0000      -0.601709       -16.3733
 169   2.0000      -0.599574       -16.3152
 170   2.0000      -0.593301       -16.1445
 171   2.0000      -0.587280       -15.9807
 172   2.0000      -0.582824       -15.8594
 173   2.0000      -0.580100       -15.7853
 174   2.0000      -0.579171       -15.7600
 175   2.0000      -0.576870       -15.6974
 176   2.0000      -0.572052       -15.5663
 177   2.0000      -0.570029       -15.5113
 178   2.0000      -0.563324       -15.3288
 179   2.0000      -0.558213       -15.1898
 180   2.0000      -0.553587       -15.0639
 181   2.0000      -0.552750       -15.0411
 182   2.0000      -0.552540       -15.0354
 183   2.0000      -0.550659       -14.9842
 184   2.0000      -0.542036       -14.7495
 185   2.0000      -0.540006       -14.6943
 186   2.0000      -0.538234       -14.6461
 187   2.0000      -0.535295       -14.5661
 188   2.0000      -0.532890       -14.5007
 189   2.0000      -0.531261       -14.4563
 190   2.0000      -0.530202       -14.4275
 191   2.0000      -0.527553       -14.3554
 192   2.0000      -0.524835       -14.2815
 193   2.0000      -0.522914       -14.2292
 194   2.0000      -0.521233       -14.1835
 195   2.0000      -0.515900       -14.0384
 196   2.0000      -0.513682       -13.9780
 197   2.0000      -0.512591       -13.9483
 198   2.0000      -0.511866       -13.9286
 199   2.0000      -0.510075       -13.8799
 200   2.0000      -0.507158       -13.8005
 201   2.0000      -0.506050       -13.7703
 202   2.0000      -0.500406       -13.6167
 203   2.0000      -0.496587       -13.5128
 204   2.0000      -0.495001       -13.4697
 205   2.0000      -0.493484       -13.4284
 206   2.0000      -0.492182       -13.3930
 207   2.0000      -0.488562       -13.2944
 208   2.0000      -0.485750       -13.2179
 209   2.0000      -0.481554       -13.1037
 210   2.0000      -0.475170       -12.9300
 211   2.0000      -0.473299       -12.8791
 212   2.0000      -0.471307       -12.8249
 213   2.0000      -0.465058       -12.6549
 214   2.0000      -0.463170       -12.6035
 215   2.0000      -0.462405       -12.5827
 216   2.0000      -0.460145       -12.5212
 217   2.0000      -0.459262       -12.4972
 218   2.0000      -0.456809       -12.4304
 219   2.0000      -0.454434       -12.3658
 220   2.0000      -0.448798       -12.2124
 221   2.0000      -0.448702       -12.2098
 222   2.0000      -0.447124       -12.1669
 223   2.0000      -0.442911       -12.0522
 224   2.0000      -0.435391       -11.8476
 225   2.0000      -0.431818       -11.7504
 226   2.0000      -0.429954       -11.6996
 227   2.0000      -0.426820       -11.6144
 228   2.0000      -0.424371       -11.5477
 229   2.0000      -0.424158       -11.5419
 230   2.0000      -0.422534       -11.4977
 231   2.0000      -0.421166       -11.4605
 232   2.0000      -0.418091       -11.3768
 233   2.0000      -0.416021       -11.3205
 234   2.0000      -0.413624       -11.2553
 235   2.0000      -0.413029       -11.2391
 236   2.0000      -0.412343       -11.2204
 237   2.0000      -0.409767       -11.1503
 238   2.0000      -0.390376       -10.6227
 239   2.0000      -0.389275       -10.5927
 240   2.0000      -0.387796       -10.5525
 241   2.0000      -0.385155       -10.4806
 242   2.0000      -0.383023       -10.4226
 243   2.0000      -0.380913       -10.3652
 244   2.0000      -0.378668       -10.3041
 245   2.0000      -0.377634       -10.2760
 246   2.0000      -0.375743       -10.2245
 247   2.0000      -0.373114       -10.1529
 248   2.0000      -0.371994       -10.1225
 249   2.0000      -0.371350       -10.1049
 250   2.0000      -0.369868       -10.0646
 251   2.0000      -0.367617       -10.0034
 252   2.0000      -0.363720        -9.8973
 253   2.0000      -0.361850        -9.8464
 254   2.0000      -0.360981        -9.8228
 255   2.0000      -0.359135        -9.7726
 256   2.0000      -0.344024        -9.3614
 257   2.0000      -0.337493        -9.1836
 258   2.0000      -0.336767        -9.1639
 259   2.0000      -0.335191        -9.1210
 260   2.0000      -0.332405        -9.0452
 261   2.0000      -0.312368        -8.5000
 262   2.0000      -0.306964        -8.3529
 263   2.0000      -0.304479        -8.2853
 264   2.0000      -0.300435        -8.1753
 265   2.0000      -0.292601        -7.9621
 266   2.0000      -0.264163        -7.1882
 267   2.0000      -0.238872        -6.5000
 268   2.0000      -0.208997        -5.6871
 269   0.0000      -0.107494        -2.9251
 270   0.0000      -0.080639        -2.1943
 271   0.0000      -0.063587        -1.7303
 272   0.0000      -0.050959        -1.3867
 273   0.0000      -0.039416        -1.0726

MULLIKEN ATOMIC CHARGES
-----------------------
   0 C :   -0.111878
   1 S :    0.147800
   2 C :   -0.132406
   3 C :    0.152941
   4 C :    0.100451
   5 C :   -0.072911
   6 C :    0.078673
   7 C :   -0.037332
   8 C :   -0.010709
   9 C :   -0.075763
  10 C :    0.093958
  11 C :   -0.097016
  12 C :   -0.011391
  13 C :    0.019403
  14 C :   -0.089002
  15 S :    0.155898
  16 C :   -0.103448
  17 C :    0.118990
  18 C :    0.103510
  19 C :   -0.075026
  20 C :    0.095470
  21 N :    0.257152
  22 O :   -0.246038
  23 O :   -0.218915
  24 C :    0.110629
  25 N :    0.255039
  26 O :   -0.226748
  27 O :   -0.233994
  28 C :   -0.080749
  29 C :   -0.114671
  30 S :    0.144889
  31 C :   -0.083146
  32 C :    0.136511
  33 C :    0.135047
  34 C :   -0.110756
  35 C :    0.071988
  36 C :   -0.056385
  37 C :   -0.011976
  38 C :   -0.066665
  39 C :    0.082359
  40 C :   -0.096056
  41 C :   -0.021169
  42 C :   -0.021681
  43 C :   -0.076502
  44 S :    0.134795
  45 C :   -0.090133
  46 C :    0.116452
  47 C :    0.133145
  48 C :   -0.073761
  49 C :    0.112938
  50 N :    0.253406
  51 O :   -0.230476
  52 O :   -0.225724
  53 C :    0.101919
  54 N :    0.253861
  55 O :   -0.222788
  56 O :   -0.236588
  57 C :   -0.075726
  58 C :   -0.126167
  59 S :    0.144825
  60 C :   -0.105509
  61 C :    0.120822
  62 C :    0.132805
  63 C :   -0.122308
  64 C :    0.088767
  65 C :   -0.040706
  66 C :   -0.010646
  67 C :   -0.078200
  68 C :    0.098431
  69 C :   -0.093059
  70 C :   -0.001897
  71 C :   -0.020371
  72 H :    0.020490
  73 H :   -0.035821
  74 H :    0.000722
  75 H :    0.019067
  76 H :    0.023485
  77 H :    0.032027
  78 H :    0.024442
  79 H :    0.033266
  80 H :   -0.030477
  81 H :    0.000887
  82 H :   -0.014721
  83 H :    0.003301
  84 H :    0.010169
  85 H :   -0.029149
  86 H :    0.010362
  87 H :    0.019499
  88 H :    0.026981
  89 H :    0.032579
  90 H :    0.035213
  91 H :    0.014548
  92 H :   -0.043417
  93 H :   -0.002099
  94 H :    0.006874
  95 H :    0.001660
  96 H :    0.008074
  97 H :   -0.027679
  98 H :   -0.002835
  99 H :    0.025509
 100 H :    0.024951
 101 H :    0.032411
 102 H :    0.010094
 103 H :    0.033290
 104 H :   -0.039858
 105 H :   -0.004713
 106 H :    0.034062
 107 H :    0.030323
Sum of atomic charges:   -0.0000000

LOEWDIN ATOMIC CHARGES
----------------------
   0 C :   -0.178433
   1 S :    0.477917
   2 C :   -0.194605
   3 C :   -0.031147
   4 C :   -0.055629
   5 C :   -0.002769
   6 C :   -0.028335
   7 C :   -0.020812
   8 C :   -0.036248
   9 C :   -0.005982
  10 C :   -0.044140
  11 C :   -0.030794
  12 C :   -0.016365
  13 C :   -0.074406
  14 C :   -0.155493
  15 S :    0.493943
  16 C :   -0.183848
  17 C :   -0.048805
  18 C :   -0.050754
  19 C :    0.022531
  20 C :   -0.033292
  21 N :    0.284567
  22 O :   -0.211429
  23 O :   -0.186355
  24 C :   -0.032055
  25 N :    0.283813
  26 O :   -0.194204
  27 O :   -0.201005
  28 C :    0.013728
  29 C :   -0.188671
  30 S :    0.495002
  31 C :   -0.174296
  32 C :   -0.036796
  33 C :   -0.046813
  34 C :   -0.020659
  35 C :   -0.020151
  36 C :   -0.022083
  37 C :   -0.036197
  38 C :   -0.010428
  39 C :   -0.046146
  40 C :   -0.020456
  41 C :   -0.044244
  42 C :   -0.052118
  43 C :   -0.167367
  44 S :    0.493497
  45 C :   -0.168618
  46 C :   -0.054357
  47 C :   -0.042380
  48 C :    0.026327
  49 C :   -0.027534
  50 N :    0.282926
  51 O :   -0.196686
  52 O :   -0.193089
  53 C :   -0.030825
  54 N :    0.283395
  55 O :   -0.190318
  56 O :   -0.203000
  57 C :    0.013730
  58 C :   -0.199753
  59 S :    0.504158
  60 C :   -0.169868
  61 C :   -0.041957
  62 C :   -0.043156
  63 C :   -0.021034
  64 C :   -0.018544
  65 C :   -0.022888
  66 C :   -0.032494
  67 C :   -0.016222
  68 C :   -0.044293
  69 C :   -0.021779
  70 C :   -0.042842
  71 C :   -0.035474
  72 H :    0.025484
  73 H :    0.028233
  74 H :    0.029435
  75 H :    0.021557
  76 H :    0.025470
  77 H :    0.036313
  78 H :    0.035740
  79 H :    0.036864
  80 H :    0.027445
  81 H :    0.036963
  82 H :    0.022390
  83 H :    0.041846
  84 H :    0.027044
  85 H :    0.010310
  86 H :    0.032344
  87 H :    0.022671
  88 H :    0.027192
  89 H :    0.034148
  90 H :    0.036610
  91 H :    0.031119
  92 H :    0.025451
  93 H :    0.026896
  94 H :    0.030439
  95 H :    0.044779
  96 H :    0.026059
  97 H :    0.008491
  98 H :    0.029261
  99 H :    0.023165
 100 H :    0.026427
 101 H :    0.035453
 102 H :    0.030821
 103 H :    0.036660
 104 H :    0.025462
 105 H :    0.035126
 106 H :    0.021579
 107 H :    0.029659

  Mayer bond orders larger than 0.100000
B(  0-C ,  1-S ) :   1.2111 B(  0-C ,  4-C ) :   1.3993 B(  0-C , 72-H ) :   0.9679
B(  1-S ,  2-C ) :   1.1282 B(  2-C ,  3-C ) :   1.3030 B(  2-C , 12-C ) :   1.2359
B(  3-C ,  4-C ) :   1.2074 B(  3-C , 11-C ) :   1.1950 B(  4-C ,  5-C ) :   1.1500
B(  5-C ,  6-C ) :   1.5374 B(  5-C , 73-H ) :   1.0040 B(  6-C ,  7-C ) :   1.0232
B(  6-C ,  9-C ) :   1.1906 B(  7-C ,  8-C ) :   1.9847 B(  7-C , 74-H ) :   0.9506
B(  8-C , 75-H ) :   0.9583 B(  8-C , 76-H ) :   0.9507 B(  9-C , 10-C ) :   1.0867
B(  9-C , 11-C ) :   1.5631 B( 10-C , 77-H ) :   0.9393 B( 10-C , 78-H ) :   0.9549
B( 10-C , 79-H ) :   0.9423 B( 11-C , 80-H ) :   0.9893 B( 12-C , 13-C ) :   1.5838
B( 12-C , 81-H ) :   0.9615 B( 13-C , 14-C ) :   1.1946 B( 13-C , 82-H ) :   0.9516
B( 14-C , 15-S ) :   1.1355 B( 14-C , 18-C ) :   1.3303 B( 15-S , 16-C ) :   1.1387
B( 16-C , 17-C ) :   1.3183 B( 16-C , 29-C ) :   1.2392 B( 17-C , 18-C ) :   1.1968
B( 17-C , 28-C ) :   1.1540 B( 18-C , 19-C ) :   1.1599 B( 19-C , 20-C ) :   1.5489
B( 19-C , 83-H ) :   0.9839 B( 20-C , 21-N ) :   0.8800 B( 20-C , 24-C ) :   1.2109
B( 21-N , 22-O ) :   1.5291 B( 21-N , 23-O ) :   1.5677 B( 22-O , 23-O ) :   0.2720
B( 24-C , 25-N ) :   0.8839 B( 24-C , 28-C ) :   1.5623 B( 25-N , 26-O ) :   1.5599
B( 25-N , 27-O ) :   1.5375 B( 26-O , 27-O ) :   0.2714 B( 28-C , 84-H ) :   0.9643
B( 29-C , 30-S ) :   1.1431 B( 29-C , 31-C ) :   0.1016 B( 29-C , 33-C ) :   1.2776
B( 30-S , 31-C ) :   1.1247 B( 31-C , 32-C ) :   1.2634 B( 31-C , 41-C ) :   1.2483
B( 32-C , 33-C ) :   1.2227 B( 32-C , 40-C ) :   1.2140 B( 33-C , 34-C ) :   1.1963
B( 34-C , 35-C ) :   1.4946 B( 34-C , 85-H ) :   0.9775 B( 35-C , 36-C ) :   1.0213
B( 35-C , 38-C ) :   1.2425 B( 36-C , 37-C ) :   1.9678 B( 36-C , 86-H ) :   0.9634
B( 37-C , 87-H ) :   0.9629 B( 37-C , 88-H ) :   0.9498 B( 38-C , 39-C ) :   1.0717
B( 38-C , 40-C ) :   1.5219 B( 39-C , 89-H ) :   0.9466 B( 39-C , 90-H ) :   0.9469
B( 39-C , 91-H ) :   0.9534 B( 40-C , 92-H ) :   0.9930 B( 41-C , 42-C ) :   1.5470
B( 41-C , 93-H ) :   0.9627 B( 42-C , 43-C ) :   1.2430 B( 42-C , 94-H ) :   0.9621
B( 43-C , 44-S ) :   1.1135 B( 43-C , 47-C ) :   1.3051 B( 44-S , 45-C ) :   1.1514
B( 45-C , 46-C ) :   1.3233 B( 45-C , 58-C ) :   1.2282 B( 46-C , 47-C ) :   1.1935
B( 46-C , 57-C ) :   1.1502 B( 47-C , 48-C ) :   1.1654 B( 48-C , 49-C ) :   1.5476
B( 48-C , 95-H ) :   0.9936 B( 49-C , 50-N ) :   0.8751 B( 49-C , 53-C ) :   1.2153
B( 50-N , 51-O ) :   1.5427 B( 50-N , 52-O ) :   1.5599 B( 51-O , 52-O ) :   0.2735
B( 53-C , 54-N ) :   0.8791 B( 53-C , 57-C ) :   1.5642 B( 54-N , 55-O ) :   1.5630
B( 54-N , 56-O ) :   1.5353 B( 55-O , 56-O ) :   0.2720 B( 57-C , 96-H ) :   0.9674
B( 58-C , 59-S ) :   1.1418 B( 58-C , 60-C ) :   0.1056 B( 58-C , 62-C ) :   1.2999
B( 59-S , 60-C ) :   1.1483 B( 60-C , 61-C ) :   1.3357 B( 60-C , 70-C ) :   1.1449
B( 61-C , 62-C ) :   1.2075 B( 61-C , 69-C ) :   1.1847 B( 62-C , 63-C ) :   1.1943
B( 63-C , 64-C ) :   1.5246 B( 63-C , 97-H ) :   0.9703 B( 64-C , 65-C ) :   1.0377
B( 64-C , 67-C ) :   1.2039 B( 65-C , 66-C ) :   1.9680 B( 65-C , 98-H ) :   0.9513
B( 66-C , 99-H ) :   0.9568 B( 66-C ,100-H ) :   0.9501 B( 67-C , 68-C ) :   1.0856
B( 67-C , 69-C ) :   1.5619 B( 68-C ,101-H ) :   0.9400 B( 68-C ,102-H ) :   0.9543
B( 68-C ,103-H ) :   0.9440 B( 69-C ,104-H ) :   0.9893 B( 70-C , 71-C ) :   1.8980
B( 70-C ,105-H ) :   0.9588 B( 71-C ,106-H ) :   0.9580 B( 71-C ,107-H ) :   0.9485

-----------------------------------------------------------------------------
         ABSORPTION SPECTRUM VIA TRANSITION ELECTRIC DIPOLE MOMENTS
-----------------------------------------------------------------------------
State   Energy  Wavelength   fosc         T2         TX        TY        TZ
        (cm-1)    (nm)                  (au**2)     (au)      (au)      (au)
-----------------------------------------------------------------------------
   0    8923.1   1120.7   1.362101784  50.25398   5.87002   3.53290  -1.82083
   1   14481.2    690.6   0.030358403   0.69016   0.65553  -0.40448   0.31119
   2   15744.0    635.2   0.026228767   0.54845   0.60760  -0.12052   0.40590
   3   17967.8    556.6   0.105664985   1.93603  -0.45706  -1.04604   0.79558
   4   20005.4    499.9   0.185630467   3.05476  -0.90804   0.12102   1.48848
   5   20313.8    492.3   0.209229648   3.39085  -0.26391   1.44867   1.10569
   6   21668.0    461.5   0.189560009   2.88008   1.22453   1.05587  -0.51549
   7   23225.7    430.6   0.206221488   2.92308  -0.32062  -1.13180  -1.24069
   8   23757.0    420.9   0.072483493   1.00444  -0.58259  -0.11169   0.80781
   9   24846.1    402.5   0.090266844   1.19604   0.91014   0.58305  -0.16655
  10   25353.3    394.4   0.165840441   2.15343   0.73543  -0.49489  -1.16947
  11   26370.9    379.2   0.031578287   0.39422  -0.14251  -0.55207  -0.26293
  12   27693.3    361.1   0.040078450   0.47644   0.51786   0.45098  -0.06991
  13   28038.8    356.6   0.026483835   0.31095  -0.47976  -0.11177   0.26132
  14   28296.5    353.4   0.003203071   0.03727   0.11610   0.03051   0.15118
  15   28571.4    350.0   0.094973351   1.09432  -0.73055   0.56359   0.49293
  16   29382.0    340.3   0.134265671   1.50439  -0.32327   0.37555   1.12198
  17   29648.1    337.3   0.164972166   1.83185  -0.32497   0.40606   1.24954
  18   30252.1    330.6   0.049067783   0.53397   0.12242   0.05395  -0.71838
  19   30685.0    325.9   0.088501559   0.94951   0.82470   0.51800  -0.03243
  20   30854.4    324.1   0.115056069   1.22763   0.70750   0.59602   0.60978
  21   31087.2    321.7   0.004859065   0.05146   0.10816   0.13608  -0.14574
  22   32033.1    312.2   0.005865481   0.06028  -0.17815  -0.08324   0.14702
  23   32490.4    307.8   0.101105995   1.02447  -0.92785   0.09657   0.39273
  24   32575.0    307.0   0.033418063   0.33773   0.50897   0.00574   0.28043
  25   32833.4    304.6   0.028330970   0.28407  -0.15424  -0.15669  -0.48552
  26   33458.6    298.9   0.036749218   0.36159   0.02532   0.38645   0.46000
  27   33699.5    296.7   0.020951574   0.20468  -0.19766   0.16771  -0.37078
  28   34344.6    291.2   0.137153200   1.31469  -0.24223   0.01755   1.12058
  29   34456.5    290.2   0.032518844   0.31070   0.29216   0.41296   0.23411
  30   34696.9    288.2   0.458681260   4.35207   0.92230  -1.27344  -1.37105
  31   34847.8    287.0   0.004766022   0.04503   0.14994  -0.09489   0.11635
  32   35425.9    282.3   0.050457880   0.46890  -0.59110   0.01096   0.34553
  33   35617.0    280.8   0.079695854   0.73664  -0.13746  -0.07809   0.84359
  34   36174.2    276.4   0.037632986   0.34249   0.02137  -0.22255  -0.54084
  35   36275.9    275.7   0.084525908   0.76709  -0.21663  -0.62977  -0.56882
  36   36423.0    274.6   0.183749262   1.66083  -1.02399   0.52508   0.58015
  37   36444.5    274.4   0.090470748   0.81724  -0.77165   0.45927   0.10422
  38   36756.4    272.1   0.133128451   1.19238   0.85443   0.62026   0.27855
  39   36905.6    271.0   0.090409487   0.80649   0.22596  -0.78451  -0.37413
  40   37204.3    268.8   0.134626776   1.19128  -0.54194  -0.43404  -0.84214
  41   37579.3    266.1   0.017349396   0.15199  -0.23559  -0.22203  -0.21723
  42   37625.5    265.8   0.036584311   0.32010   0.29268   0.46889   0.12077
  43   37981.9    263.3   0.019077963   0.16536  -0.06901   0.09238  -0.38995
  44   38135.1    262.2   0.032427278   0.27994   0.28904  -0.40280  -0.18479
  45   38382.0    260.5   0.028103650   0.24105  -0.38357  -0.30367   0.04142
  46   38437.8    260.2   0.080651743   0.69077  -0.74503  -0.33052   0.16262
  47   38816.6    257.6   0.013980277   0.11857  -0.01975   0.08302   0.33360
  48   38888.4    257.1   0.014853866   0.12575   0.11464  -0.04450   0.33260
  49   39029.2    256.2   0.008937132   0.07538   0.14972  -0.20554  -0.10355
  50   39275.4    254.6   0.043441543   0.36413  -0.21961   0.42361   0.36941
  51   39481.8    253.3   0.003771438   0.03145   0.05278  -0.13321  -0.10448
  52   39749.6    251.6   0.003749639   0.03106  -0.05118  -0.16853  -0.00590
  53   39817.3    251.1   0.048661610   0.40234   0.55581   0.27450   0.13441
  54   40026.5    249.8   0.011720651   0.09640  -0.06568   0.16745   0.25308
  55   40236.1    248.5   0.013049285   0.10677  -0.01145   0.29937   0.13045

FINAL SINGLE POINT ENERGY     -4924.524441747441

DIPOLE MOMENT
-------------
                                X             Y             Z
Electronic contribution:    -30.44118      36.58904      34.60082
Nuclear contribution   :     32.11654     -40.45480     -40.21885
                        -----------------------------------------
Total Dipole Moment    :      1.67536      -3.86576      -5.61803
                        -----------------------------------------
Magnitude (a.u.)       :      7.02234
Magnitude (Debye)      :     17.84936

Rotational constants in cm-1:     0.001402     0.000296     0.000262
Rotational constants in MHz :    42.044950     8.878493     7.864042

                             ****ORCA TERMINATED NORMALLY****
TOTAL RUN TIME: 0 days 0 hours 11 minutes 2 seconds 400 msec
