                         Program Version 4.2.0 -  RELEASE  -
|  1> # ORCA input file
|  2> # SCF done       -153.134201794808          0.000224926308
|  3> ! CAM-B3LYP def2-SVP def2/J RIJCOSX Grid4 TightSCF
|  4> %maxcore 5000
|  5> %tddft
|  6>     Mode sTDDFT
|  7>     Ethresh 5.0
|  8>     maxcore 5000
|  9> end
| 10>
| 11> %pal
| 12>   nprocs 6
| 13>   end
| 14> * xyz 0 1
| 15>    C       -2.86911       -11.64851        -0.03159
| 16>    C       -2.78891       -11.03123         1.19363
| 17>    N       -2.54992        -9.73319         1.37721
| 18>    C       -2.36203        -8.91874         0.35277
| 19>    C       -2.42506        -9.42495        -0.97694
| 20>    C       -2.68708       -10.82942        -1.15573
| 21>    N       -2.72646       -11.16961        -2.44540
| 22>    S       -2.46508        -9.85897        -3.33592
| 23>    N       -2.28570        -8.79127        -2.13897
| 24>    C       -2.11598        -7.54351         0.67817
| 25>    C       -1.84916        -6.57333        -0.25294
| 26>    C       -1.62084        -5.23377         0.04733
| 27>    C       -1.55957        -4.78724         1.44477
| 28>    C       -1.79750        -5.58829         2.51025
| 29>    S       -2.19530        -7.25314         2.40453
| 30>    C       -1.19773        -3.41413         1.38662
| 31>    C       -1.04204        -3.02506         0.05517
| 32>    C       -0.67924        -1.66428        -0.06432
| 33>    C       -0.56947        -1.06973         1.15155
| 34>    S       -0.90220        -2.12570         2.48552
| 35>    C       -1.32781        -4.14447        -0.80160
| 36>    C       -1.28800        -4.06215        -2.21285
| 37>    C       -1.83251        -4.94135        -3.09791
| 38>    C       -1.72809        -4.86993        -4.51382
| 39>    C       -0.94325        -3.97847        -5.21096
| 40>    C       -0.82272        -3.91923        -6.59582
| 41>    C       -1.48317        -4.91804        -7.45098
| 42>    C       -2.31011        -5.88266        -6.99230
| 43>    S       -2.70439        -6.08623        -5.33590
| 44>    C       -1.03946        -4.64216        -8.77298
| 45>    C       -0.16990        -3.55342        -8.75488
| 46>    C        0.30597        -3.22775       -10.04407
| 47>    C       -0.19851        -4.06483       -10.98784
| 48>    S       -1.27050        -5.27127       -10.35746
| 49>    C       -0.03767        -3.07050        -7.40453
| 50>    C        0.78170        -1.96499        -7.08354
| 51>    C        0.78303        -1.22559        -5.94057
| 52>    C        1.69286        -0.17116        -5.64818
| 53>    C        2.69223         0.26008        -6.48884
| 54>    C        3.64271         1.23274        -6.19165
| 55>    C        3.55284         2.01427        -4.94838
| 56>    C        2.64542         1.78403        -3.97492
| 57>    S        1.47235         0.53352        -4.04681
| 58>    C        4.58182         2.99008        -5.04213
| 59>    C        5.27641         2.82528        -6.24083
| 60>    C        6.32541         3.76104        -6.38015
| 61>    C        6.39663         4.59515        -5.31045
| 62>    S        5.20590         4.28127        -4.09191
| 63>    C        4.71975         1.71185        -6.96289
| 64>    C        5.22368         1.24086        -8.20473
| 65>    C        4.98705         0.01633        -8.73300
| 66>    C        5.40255        -0.46806       -10.01440
| 67>    C        6.30374         0.13246       -10.88675
| 68>    N        6.67134        -0.35003       -12.07496
| 69>    C        6.17799        -1.47465       -12.52407
| 70>    C        5.24228        -2.20519       -11.76894
| 71>    C        4.84900        -1.68924       -10.48731
| 72>    N        3.94157        -2.46222        -9.89192
| 73>    S        3.63149        -3.72078       -10.85052
| 74>    N        4.61654        -3.34700       -12.06426
| 75>    H       -3.06369       -12.70167        -0.13987
| 76>    H       -2.92160       -11.59465         2.10716
| 77>    H       -1.79424        -6.91051        -1.27643
| 78>    H       -1.75060        -5.21575         3.52176
| 79>    H       -0.50576        -1.14887        -0.99189
| 80>    H       -0.30873        -0.05133         1.36410
| 81>    H       -0.79525        -3.17624        -2.59251
| 82>    H       -2.43236        -5.75985        -2.72974
| 83>    H       -0.34682        -3.30127        -4.62071
| 84>    H       -2.78600        -6.59677        -7.64578
| 85>    H        0.98036        -2.42070       -10.26526
| 86>    H       -0.01132        -4.05533       -12.04392
| 87>    H        1.46436        -1.69130        -7.87714
| 88>    H        0.04694        -1.42106        -5.17488
| 89>    H        2.71734        -0.18683        -7.46877
| 90>    H        2.60421         2.36617        -3.06786
| 91>    H        6.99239         3.81937        -7.22122
| 92>    H        7.08910         5.39774        -5.14699
| 93>    H        5.85950         1.93432        -8.74053
| 94>    H        4.42878        -0.71248        -8.16592
| 95>    H        6.78510         1.06264       -10.61912
| 96>    H        6.51201        -1.81714       -13.49214
| 97> *
| 98>
| 99>                          ****END OF INPUT****

CARTESIAN COORDINATES (ANGSTROEM)
---------------------------------
  C     -2.869110  -11.648510   -0.031590
  C     -2.788910  -11.031230    1.193630
  N     -2.549920   -9.733190    1.377210
  C     -2.362030   -8.918740    0.352770
  C     -2.425060   -9.424950   -0.976940
  C     -2.687080  -10.829420   -1.155730
  N     -2.726460  -11.169610   -2.445400
  S     -2.465080   -9.858970   -3.335920
  N     -2.285700   -8.791270   -2.138970
  C     -2.115980   -7.543510    0.678170
  C     -1.849160   -6.573330   -0.252940
  C     -1.620840   -5.233770    0.047330
  C     -1.559570   -4.787240    1.444770
  C     -1.797500   -5.588290    2.510250
  S     -2.195300   -7.253140    2.404530
  C     -1.197730   -3.414130    1.386620
  C     -1.042040   -3.025060    0.055170
  C     -0.679240   -1.664280   -0.064320
  C     -0.569470   -1.069730    1.151550
  S     -0.902200   -2.125700    2.485520
  C     -1.327810   -4.144470   -0.801600
  C     -1.288000   -4.062150   -2.212850
  C     -1.832510   -4.941350   -3.097910
  C     -1.728090   -4.869930   -4.513820
  C     -0.943250   -3.978470   -5.210960
  C     -0.822720   -3.919230   -6.595820
  C     -1.483170   -4.918040   -7.450980
  C     -2.310110   -5.882660   -6.992300
  S     -2.704390   -6.086230   -5.335900
  C     -1.039460   -4.642160   -8.772980
  C     -0.169900   -3.553420   -8.754880
  C      0.305970   -3.227750  -10.044070
  C     -0.198510   -4.064830  -10.987840
  S     -1.270500   -5.271270  -10.357460
  C     -0.037670   -3.070500   -7.404530
  C      0.781700   -1.964990   -7.083540
  C      0.783030   -1.225590   -5.940570
  C      1.692860   -0.171160   -5.648180
  C      2.692230    0.260080   -6.488840
  C      3.642710    1.232740   -6.191650
  C      3.552840    2.014270   -4.948380
  C      2.645420    1.784030   -3.974920
  S      1.472350    0.533520   -4.046810
  C      4.581820    2.990080   -5.042130
  C      5.276410    2.825280   -6.240830
  C      6.325410    3.761040   -6.380150
  C      6.396630    4.595150   -5.310450
  S      5.205900    4.281270   -4.091910
  C      4.719750    1.711850   -6.962890
  C      5.223680    1.240860   -8.204730
  C      4.987050    0.016330   -8.733000
  C      5.402550   -0.468060  -10.014400
  C      6.303740    0.132460  -10.886750
  N      6.671340   -0.350030  -12.074960
  C      6.177990   -1.474650  -12.524070
  C      5.242280   -2.205190  -11.768940
  C      4.849000   -1.689240  -10.487310
  N      3.941570   -2.462220   -9.891920
  S      3.631490   -3.720780  -10.850520
  N      4.616540   -3.347000  -12.064260
  H     -3.063690  -12.701670   -0.139870
  H     -2.921600  -11.594650    2.107160
  H     -1.794240   -6.910510   -1.276430
  H     -1.750600   -5.215750    3.521760
  H     -0.505760   -1.148870   -0.991890
  H     -0.308730   -0.051330    1.364100
  H     -0.795250   -3.176240   -2.592510
  H     -2.432360   -5.759850   -2.729740
  H     -0.346820   -3.301270   -4.620710
  H     -2.786000   -6.596770   -7.645780
  H      0.980360   -2.420700  -10.265260
  H     -0.011320   -4.055330  -12.043920
  H      1.464360   -1.691300   -7.877140
  H      0.046940   -1.421060   -5.174880
  H      2.717340   -0.186830   -7.468770
  H      2.604210    2.366170   -3.067860
  H      6.992390    3.819370   -7.221220
  H      7.089100    5.397740   -5.146990
  H      5.859500    1.934320   -8.740530
  H      4.428780   -0.712480   -8.165920
  H      6.785100    1.062640  -10.619120
  H      6.512010   -1.817140  -13.492140

 Total Charge           Charge          ....    0
 Multiplicity           Mult            ....    1
 Number of Electrons    NEL             ....  468
 Basis Dimension        Dim             ....  982

ORBITAL ENERGIES
----------------

  NO   OCC          E(Eh)            E(eV)
   0   2.0000     -89.036567     -2422.8082
   1   2.0000     -89.019992     -2422.3571
   2   2.0000     -88.969796     -2420.9912
   3   2.0000     -88.966341     -2420.8972
   4   2.0000     -88.963644     -2420.8238
   5   2.0000     -88.953527     -2420.5485
   6   2.0000     -88.951217     -2420.4857
   7   2.0000     -88.944685     -2420.3079
   8   2.0000     -14.455021      -393.3411
   9   2.0000     -14.446395      -393.1064
  10   2.0000     -14.434458      -392.7816
  11   2.0000     -14.433438      -392.7538
  12   2.0000     -14.416681      -392.2978
  13   2.0000     -14.399128      -391.8202
  14   2.0000     -10.340779      -281.3869
  15   2.0000     -10.334843      -281.2254
  16   2.0000     -10.333738      -281.1953
  17   2.0000     -10.321357      -280.8584
  18   2.0000     -10.320584      -280.8374
  19   2.0000     -10.316043      -280.7138
  20   2.0000     -10.315753      -280.7059
  21   2.0000     -10.315289      -280.6933
  22   2.0000     -10.315149      -280.6895
  23   2.0000     -10.311763      -280.5973
  24   2.0000     -10.311201      -280.5820
  25   2.0000     -10.309242      -280.5287
  26   2.0000     -10.300958      -280.3033
  27   2.0000     -10.294244      -280.1206
  28   2.0000     -10.292813      -280.0817
  29   2.0000     -10.292372      -280.0697
  30   2.0000     -10.291446      -280.0445
  31   2.0000     -10.291342      -280.0416
  32   2.0000     -10.289896      -280.0023
  33   2.0000     -10.287954      -279.9494
  34   2.0000     -10.286045      -279.8975
  35   2.0000     -10.285878      -279.8930
  36   2.0000     -10.285311      -279.8775
  37   2.0000     -10.284596      -279.8581
  38   2.0000     -10.282006      -279.7876
  39   2.0000     -10.281876      -279.7841
  40   2.0000     -10.281021      -279.7608
  41   2.0000     -10.280967      -279.7593
  42   2.0000     -10.279790      -279.7273
  43   2.0000     -10.279355      -279.7155
  44   2.0000     -10.275580      -279.6127
  45   2.0000     -10.274532      -279.5842
  46   2.0000     -10.274193      -279.5750
  47   2.0000     -10.273623      -279.5595
  48   2.0000     -10.273030      -279.5434
  49   2.0000     -10.272482      -279.5285
  50   2.0000     -10.272153      -279.5195
  51   2.0000     -10.269823      -279.4561
  52   2.0000     -10.269299      -279.4418
  53   2.0000     -10.269234      -279.4401
  54   2.0000     -10.266381      -279.3624
  55   2.0000     -10.265867      -279.3484
  56   2.0000     -10.263869      -279.2941
  57   2.0000     -10.260523      -279.2030
  58   2.0000     -10.257880      -279.1311
  59   2.0000     -10.256654      -279.0977
  60   2.0000      -8.128193      -221.1794
  61   2.0000      -8.111485      -220.7247
  62   2.0000      -8.065132      -219.4634
  63   2.0000      -8.060827      -219.3463
  64   2.0000      -8.058926      -219.2945
  65   2.0000      -8.048973      -219.0237
  66   2.0000      -8.046564      -218.9581
  67   2.0000      -8.040088      -218.7819
  68   2.0000      -6.099379      -165.9725
  69   2.0000      -6.091513      -165.7585
  70   2.0000      -6.090760      -165.7380
  71   2.0000      -6.082614      -165.5164
  72   2.0000      -6.074806      -165.3039
  73   2.0000      -6.074094      -165.2845
  74   2.0000      -6.034580      -164.2093
  75   2.0000      -6.030321      -164.0934
  76   2.0000      -6.030191      -164.0898
  77   2.0000      -6.028332      -164.0393
  78   2.0000      -6.027172      -164.0077
  79   2.0000      -6.025720      -163.9682
  80   2.0000      -6.024063      -163.9231
  81   2.0000      -6.022912      -163.8918
  82   2.0000      -6.020984      -163.8393
  83   2.0000      -6.018442      -163.7701
  84   2.0000      -6.016040      -163.7048
  85   2.0000      -6.014204      -163.6548
  86   2.0000      -6.011818      -163.5899
  87   2.0000      -6.010930      -163.5657
  88   2.0000      -6.009552      -163.5282
  89   2.0000      -6.008530      -163.5004
  90   2.0000      -6.005353      -163.4140
  91   2.0000      -6.002048      -163.3240
  92   2.0000      -1.135312       -30.8934
  93   2.0000      -1.117872       -30.4188
  94   2.0000      -1.053894       -28.6779
  95   2.0000      -1.026215       -27.9247
  96   2.0000      -1.001410       -27.2497
  97   2.0000      -0.999130       -27.1877
  98   2.0000      -0.992278       -27.0013
  99   2.0000      -0.989064       -26.9138
 100   2.0000      -0.971520       -26.4364
 101   2.0000      -0.966607       -26.3027
 102   2.0000      -0.963415       -26.2159
 103   2.0000      -0.959654       -26.1135
 104   2.0000      -0.927267       -25.2322
 105   2.0000      -0.921649       -25.0793
 106   2.0000      -0.916336       -24.9348
 107   2.0000      -0.904238       -24.6056
 108   2.0000      -0.903040       -24.5730
 109   2.0000      -0.898997       -24.4630
 110   2.0000      -0.891645       -24.2629
 111   2.0000      -0.885926       -24.1073
 112   2.0000      -0.867184       -23.5973
 113   2.0000      -0.859430       -23.3863
 114   2.0000      -0.853274       -23.2188
 115   2.0000      -0.849880       -23.1264
 116   2.0000      -0.838712       -22.8225
 117   2.0000      -0.834960       -22.7204
 118   2.0000      -0.829422       -22.5697
 119   2.0000      -0.816554       -22.2196
 120   2.0000      -0.804752       -21.8984
 121   2.0000      -0.802917       -21.8485
 122   2.0000      -0.797792       -21.7090
 123   2.0000      -0.780870       -21.2486
 124   2.0000      -0.771897       -21.0044
 125   2.0000      -0.762744       -20.7553
 126   2.0000      -0.754320       -20.5261
 127   2.0000      -0.743175       -20.2228
 128   2.0000      -0.736668       -20.0457
 129   2.0000      -0.727987       -19.8095
 130   2.0000      -0.725641       -19.7457
 131   2.0000      -0.719619       -19.5818
 132   2.0000      -0.714631       -19.4461
 133   2.0000      -0.705946       -19.2098
 134   2.0000      -0.697814       -18.9885
 135   2.0000      -0.684056       -18.6141
 136   2.0000      -0.674555       -18.3556
 137   2.0000      -0.664312       -18.0768
 138   2.0000      -0.656722       -17.8703
 139   2.0000      -0.655497       -17.8370
 140   2.0000      -0.646726       -17.5983
 141   2.0000      -0.639640       -17.4055
 142   2.0000      -0.632272       -17.2050
 143   2.0000      -0.625759       -17.0278
 144   2.0000      -0.619268       -16.8511
 145   2.0000      -0.617770       -16.8104
 146   2.0000      -0.614860       -16.7312
 147   2.0000      -0.611391       -16.6368
 148   2.0000      -0.605180       -16.4678
 149   2.0000      -0.597233       -16.2515
 150   2.0000      -0.589139       -16.0313
 151   2.0000      -0.586177       -15.9507
 152   2.0000      -0.583243       -15.8708
 153   2.0000      -0.578109       -15.7311
 154   2.0000      -0.572406       -15.5760
 155   2.0000      -0.568786       -15.4775
 156   2.0000      -0.561345       -15.2750
 157   2.0000      -0.558914       -15.2088
 158   2.0000      -0.558189       -15.1891
 159   2.0000      -0.553524       -15.0622
 160   2.0000      -0.550999       -14.9934
 161   2.0000      -0.544058       -14.8046
 162   2.0000      -0.542339       -14.7578
 163   2.0000      -0.540681       -14.7127
 164   2.0000      -0.535006       -14.5582
 165   2.0000      -0.533737       -14.5237
 166   2.0000      -0.529259       -14.4019
 167   2.0000      -0.520464       -14.1625
 168   2.0000      -0.510439       -13.8897
 169   2.0000      -0.508158       -13.8277
 170   2.0000      -0.507330       -13.8052
 171   2.0000      -0.505941       -13.7673
 172   2.0000      -0.502016       -13.6605
 173   2.0000      -0.500875       -13.6295
 174   2.0000      -0.499254       -13.5854
 175   2.0000      -0.497321       -13.5328
 176   2.0000      -0.495627       -13.4867
 177   2.0000      -0.491959       -13.3869
 178   2.0000      -0.490224       -13.3397
 179   2.0000      -0.480342       -13.0708
 180   2.0000      -0.475335       -12.9345
 181   2.0000      -0.473987       -12.8978
 182   2.0000      -0.469333       -12.7712
 183   2.0000      -0.464054       -12.6276
 184   2.0000      -0.463684       -12.6175
 185   2.0000      -0.460677       -12.5357
 186   2.0000      -0.456148       -12.4124
 187   2.0000      -0.454323       -12.3628
 188   2.0000      -0.453474       -12.3397
 189   2.0000      -0.451621       -12.2892
 190   2.0000      -0.448492       -12.2041
 191   2.0000      -0.445549       -12.1240
 192   2.0000      -0.442370       -12.0375
 193   2.0000      -0.439129       -11.9493
 194   2.0000      -0.432192       -11.7605
 195   2.0000      -0.430911       -11.7257
 196   2.0000      -0.428198       -11.6519
 197   2.0000      -0.424856       -11.5609
 198   2.0000      -0.424313       -11.5461
 199   2.0000      -0.422169       -11.4878
 200   2.0000      -0.419509       -11.4154
 201   2.0000      -0.418689       -11.3931
 202   2.0000      -0.417504       -11.3608
 203   2.0000      -0.411963       -11.2101
 204   2.0000      -0.411152       -11.1880
 205   2.0000      -0.407930       -11.1003
 206   2.0000      -0.403378       -10.9765
 207   2.0000      -0.399846       -10.8804
 208   2.0000      -0.397296       -10.8110
 209   2.0000      -0.393959       -10.7202
 210   2.0000      -0.392302       -10.6751
 211   2.0000      -0.391387       -10.6502
 212   2.0000      -0.386778       -10.5248
 213   2.0000      -0.381211       -10.3733
 214   2.0000      -0.378382       -10.2963
 215   2.0000      -0.364950        -9.9308
 216   2.0000      -0.360705        -9.8153
 217   2.0000      -0.357840        -9.7373
 218   2.0000      -0.348342        -9.4789
 219   2.0000      -0.343082        -9.3357
 220   2.0000      -0.341205        -9.2847
 221   2.0000      -0.336918        -9.1680
 222   2.0000      -0.325627        -8.8607
 223   2.0000      -0.321741        -8.7550
 224   2.0000      -0.319606        -8.6969
 225   2.0000      -0.317675        -8.6444
 226   2.0000      -0.315533        -8.5861
 227   2.0000      -0.289665        -7.8822
 228   2.0000      -0.280285        -7.6269
 229   2.0000      -0.274225        -7.4620
 230   2.0000      -0.268408        -7.3038
 231   2.0000      -0.247841        -6.7441
 232   2.0000      -0.226138        -6.1535
 233   2.0000      -0.201952        -5.4954
 234   0.0000      -0.089357        -2.4315
 235   0.0000      -0.067781        -1.8444
 236   0.0000      -0.055029        -1.4974
 237   0.0000      -0.039476        -1.0742
 238   0.0000      -0.030178        -0.8212

MULLIKEN ATOMIC CHARGES
-----------------------
   0 C :   -0.034375
   1 C :    0.034397
   2 N :   -0.093973
   3 C :    0.054424
   4 C :   -0.018401
   5 C :    0.080434
   6 N :   -0.267019
   7 S :    0.523512
   8 N :   -0.283301
   9 C :   -0.108025
  10 C :   -0.074411
  11 C :    0.049045
  12 C :    0.054975
  13 C :   -0.130363
  14 S :    0.187068
  15 C :   -0.102480
  16 C :    0.047792
  17 C :    0.006688
  18 C :   -0.068871
  19 S :    0.125433
  20 C :    0.086776
  21 C :   -0.009715
  22 C :    0.024908
  23 C :   -0.080154
  24 C :   -0.050289
  25 C :    0.054716
  26 C :    0.057606
  27 C :   -0.136534
  28 S :    0.119781
  29 C :   -0.109667
  30 C :    0.048842
  31 C :    0.000904
  32 C :   -0.075061
  33 S :    0.121542
  34 C :    0.076582
  35 C :   -0.008037
  36 C :    0.010296
  37 C :   -0.070731
  38 C :   -0.051113
  39 C :    0.055465
  40 C :    0.059821
  41 C :   -0.136117
  42 S :    0.116319
  43 C :   -0.115958
  44 C :    0.059365
  45 C :    0.005780
  46 C :   -0.071999
  47 S :    0.116211
  48 C :    0.060297
  49 C :    0.004239
  50 C :   -0.049638
  51 C :    0.064293
  52 C :   -0.045526
  53 N :   -0.041987
  54 C :   -0.020690
  55 C :    0.025671
  56 C :    0.007533
  57 N :   -0.288971
  58 S :    0.505038
  59 N :   -0.261784
  60 H :   -0.004566
  61 H :    0.010643
  62 H :    0.004323
  63 H :    0.031658
  64 H :   -0.020183
  65 H :    0.024537
  66 H :   -0.025211
  67 H :   -0.011610
  68 H :   -0.025940
  69 H :    0.031242
  70 H :   -0.014400
  71 H :    0.025766
  72 H :   -0.013691
  73 H :   -0.028432
  74 H :   -0.020934
  75 H :    0.029812
  76 H :   -0.019846
  77 H :    0.023417
  78 H :   -0.024197
  79 H :   -0.001010
  80 H :   -0.006653
  81 H :   -0.005288
Sum of atomic charges:    0.0000000

LOEWDIN ATOMIC CHARGES
----------------------
   0 C :   -0.052141
   1 C :    0.022515
   2 N :   -0.096483
   3 C :    0.004391
   4 C :   -0.061611
   5 C :   -0.040992
   6 N :   -0.283507
   7 S :    0.656295
   8 N :   -0.278418
   9 C :   -0.186853
  10 C :   -0.001619
  11 C :   -0.024240
  12 C :   -0.055744
  13 C :   -0.138265
  14 S :    0.489939
  15 C :   -0.197772
  16 C :   -0.044019
  17 C :   -0.064363
  18 C :   -0.166093
  19 S :    0.417981
  20 C :   -0.043644
  21 C :   -0.004337
  22 C :   -0.058667
  23 C :   -0.157858
  24 C :   -0.026800
  25 C :   -0.012767
  26 C :   -0.046309
  27 C :   -0.148656
  28 S :    0.442710
  29 C :   -0.208944
  30 C :   -0.037361
  31 C :   -0.073626
  32 C :   -0.168069
  33 S :    0.414820
  34 C :   -0.062024
  35 C :    0.002714
  36 C :   -0.074054
  37 C :   -0.155663
  38 C :   -0.029814
  39 C :   -0.008504
  40 C :   -0.046989
  41 C :   -0.148833
  42 S :    0.437448
  43 C :   -0.210818
  44 C :   -0.037255
  45 C :   -0.066588
  46 C :   -0.167624
  47 S :    0.411023
  48 C :   -0.067302
  49 C :    0.005410
  50 C :   -0.048404
  51 C :   -0.041627
  52 C :    0.000763
  53 N :   -0.058437
  54 C :    0.012519
  55 C :   -0.078694
  56 C :   -0.041476
  57 N :   -0.296218
  58 S :    0.658851
  59 N :   -0.279801
  60 H :    0.040195
  61 H :    0.027295
  62 H :    0.035914
  63 H :    0.034511
  64 H :    0.028379
  65 H :    0.022519
  66 H :    0.027771
  67 H :    0.024370
  68 H :    0.033405
  69 H :    0.034104
  70 H :    0.023611
  71 H :    0.022256
  72 H :    0.031435
  73 H :    0.017635
  74 H :    0.036110
  75 H :    0.033477
  76 H :    0.028896
  77 H :    0.021668
  78 H :    0.026497
  79 H :    0.028376
  80 H :    0.018774
  81 H :    0.024707

  Mayer bond orders larger than 0.100000
B(  0-C ,  1-C ) :   1.4965 B(  0-C ,  5-C ) :   1.2359 B(  0-C , 60-H ) :   0.9885
B(  1-C ,  2-N ) :   1.3970 B(  1-C , 61-H ) :   0.9730 B(  2-N ,  3-C ) :   1.6815
B(  3-C ,  4-C ) :   1.1533 B(  3-C ,  9-C ) :   1.1214 B(  4-C ,  5-C ) :   1.1806
B(  4-C ,  8-N ) :   1.5215 B(  5-C ,  6-N ) :   1.5037 B(  6-N ,  7-S ) :   1.2802
B(  6-N ,  8-N ) :   0.1489 B(  7-S ,  8-N ) :   1.2583 B(  9-C , 10-C ) :   1.5508
B(  9-C , 14-S ) :   1.0518 B( 10-C , 11-C ) :   1.2244 B( 10-C , 62-H ) :   0.9484
B( 11-C , 12-C ) :   1.0665 B( 11-C , 20-C ) :   1.3545 B( 12-C , 13-C ) :   1.5819
B( 12-C , 15-C ) :   1.1803 B( 13-C , 14-S ) :   1.1471 B( 13-C , 63-H ) :   0.9424
B( 15-C , 16-C ) :   1.4349 B( 15-C , 19-S ) :   1.0753 B( 16-C , 17-C ) :   1.2103
B( 16-C , 20-C ) :   1.1110 B( 17-C , 18-C ) :   1.5952 B( 17-C , 64-H ) :   0.9961
B( 18-C , 19-S ) :   1.1480 B( 18-C , 65-H ) :   0.9656 B( 20-C , 21-C ) :   1.1830
B( 21-C , 22-C ) :   1.6378 B( 21-C , 66-H ) :   0.9517 B( 22-C , 23-C ) :   1.1179
B( 22-C , 67-H ) :   0.9590 B( 23-C , 24-C ) :   1.5226 B( 23-C , 28-S ) :   1.0565
B( 24-C , 25-C ) :   1.2554 B( 24-C , 68-H ) :   0.9614 B( 25-C , 26-C ) :   1.0529
B( 25-C , 34-C ) :   1.3623 B( 26-C , 27-C ) :   1.6101 B( 26-C , 29-C ) :   1.1789
B( 27-C , 28-S ) :   1.1319 B( 27-C , 69-H ) :   0.9406 B( 29-C , 30-C ) :   1.4427
B( 29-C , 33-S ) :   1.0665 B( 30-C , 31-C ) :   1.2216 B( 30-C , 34-C ) :   1.1040
B( 31-C , 32-C ) :   1.5739 B( 31-C , 70-H ) :   0.9915 B( 32-C , 33-S ) :   1.1565
B( 32-C , 71-H ) :   0.9667 B( 34-C , 35-C ) :   1.1820 B( 35-C , 36-C ) :   1.6353
B( 35-C , 72-H ) :   0.9490 B( 36-C , 37-C ) :   1.1102 B( 36-C , 73-H ) :   0.9620
B( 37-C , 38-C ) :   1.5305 B( 37-C , 42-S ) :   1.0524 B( 38-C , 39-C ) :   1.2494
B( 38-C , 74-H ) :   0.9594 B( 39-C , 40-C ) :   1.0524 B( 39-C , 48-C ) :   1.3830
B( 40-C , 41-C ) :   1.6134 B( 40-C , 43-C ) :   1.1791 B( 41-C , 42-S ) :   1.1350
B( 41-C , 75-H ) :   0.9392 B( 43-C , 44-C ) :   1.4416 B( 43-C , 47-S ) :   1.0656
B( 44-C , 45-C ) :   1.2175 B( 44-C , 48-C ) :   1.1030 B( 45-C , 46-C ) :   1.5839
B( 45-C , 76-H ) :   0.9977 B( 46-C , 47-S ) :   1.1547 B( 46-C , 77-H ) :   0.9665
B( 48-C , 49-C ) :   1.1552 B( 49-C , 50-C ) :   1.6247 B( 49-C , 78-H ) :   0.9599
B( 50-C , 51-C ) :   1.1107 B( 50-C , 79-H ) :   0.9729 B( 51-C , 52-C ) :   1.4422
B( 51-C , 54-C ) :   0.1036 B( 51-C , 56-C ) :   1.1760 B( 52-C , 53-N ) :   1.4302
B( 52-C , 80-H ) :   0.9813 B( 53-N , 54-C ) :   1.6954 B( 54-C , 55-C ) :   1.1774
B( 54-C , 81-H ) :   0.9944 B( 55-C , 56-C ) :   1.1811 B( 55-C , 59-N ) :   1.4925
B( 56-C , 57-N ) :   1.5295 B( 57-N , 58-S ) :   1.2498 B( 57-N , 59-N ) :   0.1528
B( 58-S , 59-N ) :   1.2929

-----------------------------------------------------------------------------
         ABSORPTION SPECTRUM VIA TRANSITION ELECTRIC DIPOLE MOMENTS
-----------------------------------------------------------------------------
State   Energy  Wavelength   fosc         T2         TX        TY        TZ
        (cm-1)    (nm)                  (au**2)     (au)      (au)      (au)
-----------------------------------------------------------------------------
   0   11575.5    863.9   0.689275618  19.60325   1.96735   2.93109  -2.67236
   1   14409.1    694.0   0.249993837   5.71175   1.75168  -0.02003  -1.62572
   2   16732.0    597.7   0.035106271   0.69074  -0.28443   0.74257  -0.24171
   3   17583.8    568.7   0.218538801   4.09157  -0.65865  -1.73491   0.80488
   4   19857.9    503.6   0.028210946   0.46769   0.29065   0.61899   0.00803
   5   20212.1    494.8   0.085678819   1.39552   0.12811  -0.18309   1.16000
   6   20465.3    488.6   0.079725655   1.28250  -0.83580  -0.70612  -0.29209
   7   22226.5    449.9   0.032915231   0.48753  -0.56807   0.19576   0.35567
   8   22421.6    446.0   0.092715546   1.36132   0.36691   0.66597   0.88498
   9   23588.3    423.9   0.136275384   1.90194  -0.04075   0.38364   1.32405
  10   24183.6    413.5   0.203383858   2.76867   0.01462   1.14933   1.20312
  11   24799.6    403.2   0.284716911   3.77958   0.79913   1.10457   1.38597
  12   25973.6    385.0   0.243763276   3.08967  -0.53692  -0.96619  -1.36670
  13   26955.8    371.0   0.118857281   1.45161  -0.44970  -1.04891  -0.38622
  14   27336.6    365.8   0.066278724   0.79819  -0.07975  -0.30576   0.83567
  15   28611.4    349.5   0.074955621   0.86246   0.65576   0.19755  -0.62723
  16   28668.1    348.8   0.011173251   0.12831   0.08357   0.26082  -0.23086
  17   29101.1    343.6   0.031041721   0.35117  -0.31623  -0.49149  -0.09802
  18   29628.0    337.5   0.066890026   0.74325   0.23695  -0.46289  -0.68763
  19   30057.1    332.7   0.116211783   1.27285  -0.08692  -0.01786   1.12471
  20   30453.7    328.4   0.022121228   0.23914  -0.42704  -0.23604   0.03252
  21   30591.1    326.9   0.042503428   0.45741  -0.51115  -0.33718  -0.28712
  22   30673.3    326.0   0.024849308   0.26670   0.35130   0.36719  -0.09202
  23   30989.6    322.7   0.010985867   0.11671   0.21307   0.24695   0.10160
  24   31315.8    319.3   0.251979463   2.64897  -0.78633  -0.73600   1.22023
  25   31529.4    317.2   0.128944673   1.34636  -0.40361  -1.05133   0.27957
  26   32101.2    311.5   0.018232846   0.18699  -0.06579   0.19274   0.38146
  27   32518.2    307.5   0.173708768   1.75861  -0.47989  -0.60531  -1.07792
  28   32769.5    305.2   0.019630980   0.19722  -0.07237  -0.43650  -0.03807
  29   33052.6    302.5   0.056281962   0.56058  -0.19887   0.15885   0.70413
  30   33920.0    294.8   0.586832939   5.69552   0.11254  -1.47885  -1.86972
  31   34156.6    292.8   0.052080600   0.50197  -0.30317  -0.63991  -0.02386
  32   34484.5    290.0   0.032432446   0.30962  -0.40168  -0.27651   0.26799
  33   34893.0    286.6   0.349611962   3.29855  -0.22092  -0.49183  -1.73431
  34   35126.9    284.7   0.043716214   0.40971  -0.13682  -0.19274   0.59485
  35   35356.8    282.8   0.109795732   1.02232  -0.05657   0.69546   0.73175
  36   35559.8    281.2   0.376274390   3.48354   0.98492   1.55655   0.30106
  37   36029.8    277.5   0.085919797   0.78507   0.30190  -0.21867  -0.80381
  38   36381.1    274.9   0.078001373   0.70583  -0.11657  -0.17581  -0.81323
  39   37116.8    269.4   0.128547705   1.14017  -0.48751   0.16747   0.93513
  40   37624.8    265.8   0.007013864   0.06137  -0.15066  -0.17251   0.09440
  41   37679.5    265.4   0.003787785   0.03309   0.01626   0.11561   0.13951
  42   37864.5    264.1   0.123627268   1.07488   0.73367   0.72196  -0.12401
  43   38245.0    261.5   0.005359711   0.04614  -0.06042  -0.10389   0.17802
  44   38421.4    260.3   0.077136319   0.66094  -0.09454  -0.40122  -0.70073
  45   38717.3    258.3   0.065256109   0.55487   0.06371   0.66210   0.33532
  46   38843.1    257.4   0.124394024   1.05429  -0.30214  -0.98072   0.03459
  47   39030.1    256.2   0.054139270   0.45665   0.15681   0.57751   0.31393
  48   39445.7    253.5   0.041386393   0.34541  -0.23027  -0.48536  -0.23835
  49   39483.7    253.3   0.043980916   0.36671   0.02160  -0.48572  -0.36099
  50   39607.9    252.5   0.123209152   1.02409  -0.20039  -0.51704  -0.84652
  51   39802.3    251.2   0.247905403   2.05047   0.02269  -1.04742  -0.97615
  52   39929.6    250.4   0.086544582   0.71354  -0.33029  -0.77719   0.02069
  53   40242.2    248.5   0.039858976   0.32608  -0.07931   0.21180   0.52434
  54   40282.3    248.2   0.086096046   0.70363   0.26705   0.79000   0.09065

FINAL SINGLE POINT ENERGY     -5276.397081093858

DIPOLE MOMENT
-------------
                                X             Y             Z
Electronic contribution:    -13.32106     -20.04688       9.38684
Nuclear contribution   :     11.91384      18.97536      -7.85098
                        -----------------------------------------
Total Dipole Moment    :     -1.40721      -1.07152       1.53586
                        -----------------------------------------
Magnitude (a.u.)       :      2.34249
Magnitude (Debye)      :      5.95415

Rotational constants in cm-1:     0.001343     0.000535     0.000408
Rotational constants in MHz :    40.276736    16.027861    12.232364

                             ****ORCA TERMINATED NORMALLY****
TOTAL RUN TIME: 0 days 0 hours 10 minutes 33 seconds 543 msec
