                         Program Version 4.2.0 -  RELEASE  -
|  1> # ORCA input file
|  2> # SCF done       -192.742153150738          0.000550559633
|  3> ! CAM-B3LYP def2-SVP def2/J RIJCOSX Grid4 TightSCF
|  4> %maxcore 5000
|  5> %tddft
|  6>     Mode sTDDFT
|  7>     Ethresh 5.0
|  8>     maxcore 5000
|  9> end
| 10>
| 11> %pal
| 12>   nprocs 6
| 13>   end
| 14> * xyz 0 1
| 15>    C       -0.11087         1.41069        -0.95390
| 16>    C       -1.18421         2.17183        -1.32601
| 17>    F       -2.41287         1.84031        -0.89111
| 18>    C       -1.05744         3.29743        -2.15130
| 19>    C        0.18417         3.65046        -2.60212
| 20>    C        1.32529         2.90164        -2.24880
| 21>    C        1.17498         1.75864        -1.41040
| 22>    C        2.30349         0.98477        -1.05070
| 23>    C        3.53993         1.34638        -1.51160
| 24>    C        3.68563         2.49931        -2.33590
| 25>    C        2.61377         3.25962        -2.70504
| 26>    C        5.10934         2.68104        -2.66697
| 27>    O        5.61177         3.51791        -3.37934
| 28>    C        5.83284         1.62693        -1.89084
| 29>    C        4.85223         0.72894        -1.33855
| 30>    C        5.07185        -0.55480        -0.90147
| 31>    C        6.30737        -1.22011        -1.01246
| 32>    N        7.29372        -1.80166        -1.09738
| 33>    C        4.07059        -1.39155        -0.36843
| 34>    N        3.31135        -2.11079         0.10439
| 35>    C        7.19151         1.71587        -1.80727
| 36>    C        8.12194         1.11319        -0.93562
| 37>    C        7.99205         0.63038         0.36851
| 38>    C        9.19583         0.09493         0.88045
| 39>    S        9.48664        -0.71995         2.37663
| 40>    C        7.75299        -0.82907         3.00372
| 41>    C        7.04677         0.50134         2.94625
| 42>    S        6.50068         0.85056         1.24689
| 43>    C       10.25990         0.23191        -0.02680
| 44>    S        9.76701         0.99544        -1.49776
| 45>    C       11.53724        -0.25073         0.28378
| 46>    N       11.69158        -0.76688         1.50509
| 47>    C       12.95732        -1.21127         1.57378
| 48>    C       13.66497        -0.95911         0.31603
| 49>    C       15.05430        -1.44111         0.40619
| 50>    O       15.92363        -1.40370        -0.43948
| 51>    C       15.12244        -1.97694         1.77701
| 52>    C       13.82273        -1.82038         2.45481
| 53>    N       13.87722        -2.30488         3.71734
| 54>    C       15.10767        -2.74156         3.86267
| 55>    C       15.93816        -2.56581         2.69214
| 56>    C       12.77051        -0.32973        -0.52199
| 57>    C       12.93121         0.16988        -1.83828
| 58>    C       14.06165         0.00001        -2.56925
| 59>    C       14.24754         0.54205        -3.86008
| 60>    C       15.35582         0.34692        -4.68352
| 61>    C       15.26276         1.04029        -5.90665
| 62>    S       16.53500         1.15506        -7.10064
| 63>    C       17.44960        -0.38062        -6.74946
| 64>    C       17.96100        -0.39571        -5.32967
| 65>    S       16.62458        -0.72390        -4.13112
| 66>    C       14.08057         1.77472        -6.03193
| 67>    S       13.10394         1.62106        -4.59314
| 68>    C       13.57964         2.63185        -7.03149
| 69>    C       13.82367         2.77859        -8.36886
| 70>    C       13.40042         4.06190        -9.00422
| 71>    O       12.70353         4.91621        -8.50673
| 72>    C       14.04870         4.07476       -10.32803
| 73>    C       14.07940         5.06983       -11.26098
| 74>    C       14.79929         4.86741       -12.46035
| 75>    C       15.47345         3.62917       -12.66845
| 76>    C       16.19497         3.43724       -13.86233
| 77>    C       16.23230         4.43835       -14.79294
| 78>    C       15.57564         5.66203       -14.60738
| 79>    C       14.87018         5.86497       -13.45371
| 80>    F       16.92250         4.25609       -15.93388
| 81>    C       15.41417         2.61102       -11.68721
| 82>    C       14.71119         2.83096       -10.53462
| 83>    C       14.46739         1.97851        -9.37374
| 84>    C       14.65768         0.61822        -9.33168
| 85>    C       14.16338        -0.20150        -8.30045
| 86>    N       13.77052        -0.90416        -7.48116
| 87>    C       15.30209        -0.12433       -10.33995
| 88>    N       15.85262        -0.77838       -11.10663
| 89>    H       -0.24661         0.54837        -0.31999
| 90>    H       -1.94025         3.85916        -2.41228
| 91>    H        0.30711         4.51336        -3.23910
| 92>    H        2.16025         0.12795        -0.41180
| 93>    H        2.74649         4.12394        -3.33835
| 94>    H        7.62980         2.40381        -2.52673
| 95>    H        7.86440        -1.16560         4.03361
| 96>    H        7.21855        -1.58941         2.43440
| 97>    H        7.68999         1.31431         3.28475
| 98>    H        6.12615         0.49767         3.53065
| 99>    H       15.41934        -3.18371         4.79292
|100>    H       16.96753        -2.85307         2.60741
|101>    H       12.10332         0.71741        -2.27024
|102>    H       14.88853        -0.57032        -2.16225
|103>    H       18.27089        -0.38456        -7.46611
|104>    H       16.78401        -1.22153        -6.94967
|105>    H       18.44257         0.54794        -5.07067
|106>    H       18.66594        -1.21347        -5.17851
|107>    H       12.86485         3.36162        -6.65469
|108>    H       13.56376         6.00225       -11.08631
|109>    H       16.71109         2.50681       -14.04058
|110>    H       15.64094         6.41532       -15.37635
|111>    H       14.35588         6.79954       -13.28736
|112>    H       15.93773         1.68588       -11.86929
|113> *
|114>
|115>                          ****END OF INPUT****

CARTESIAN COORDINATES (ANGSTROEM)
---------------------------------
  C     -0.110870    1.410690   -0.953900
  C     -1.184210    2.171830   -1.326010
  F     -2.412870    1.840310   -0.891110
  C     -1.057440    3.297430   -2.151300
  C      0.184170    3.650460   -2.602120
  C      1.325290    2.901640   -2.248800
  C      1.174980    1.758640   -1.410400
  C      2.303490    0.984770   -1.050700
  C      3.539930    1.346380   -1.511600
  C      3.685630    2.499310   -2.335900
  C      2.613770    3.259620   -2.705040
  C      5.109340    2.681040   -2.666970
  O      5.611770    3.517910   -3.379340
  C      5.832840    1.626930   -1.890840
  C      4.852230    0.728940   -1.338550
  C      5.071850   -0.554800   -0.901470
  C      6.307370   -1.220110   -1.012460
  N      7.293720   -1.801660   -1.097380
  C      4.070590   -1.391550   -0.368430
  N      3.311350   -2.110790    0.104390
  C      7.191510    1.715870   -1.807270
  C      8.121940    1.113190   -0.935620
  C      7.992050    0.630380    0.368510
  C      9.195830    0.094930    0.880450
  S      9.486640   -0.719950    2.376630
  C      7.752990   -0.829070    3.003720
  C      7.046770    0.501340    2.946250
  S      6.500680    0.850560    1.246890
  C     10.259900    0.231910   -0.026800
  S      9.767010    0.995440   -1.497760
  C     11.537240   -0.250730    0.283780
  N     11.691580   -0.766880    1.505090
  C     12.957320   -1.211270    1.573780
  C     13.664970   -0.959110    0.316030
  C     15.054300   -1.441110    0.406190
  O     15.923630   -1.403700   -0.439480
  C     15.122440   -1.976940    1.777010
  C     13.822730   -1.820380    2.454810
  N     13.877220   -2.304880    3.717340
  C     15.107670   -2.741560    3.862670
  C     15.938160   -2.565810    2.692140
  C     12.770510   -0.329730   -0.521990
  C     12.931210    0.169880   -1.838280
  C     14.061650    0.000010   -2.569250
  C     14.247540    0.542050   -3.860080
  C     15.355820    0.346920   -4.683520
  C     15.262760    1.040290   -5.906650
  S     16.535000    1.155060   -7.100640
  C     17.449600   -0.380620   -6.749460
  C     17.961000   -0.395710   -5.329670
  S     16.624580   -0.723900   -4.131120
  C     14.080570    1.774720   -6.031930
  S     13.103940    1.621060   -4.593140
  C     13.579640    2.631850   -7.031490
  C     13.823670    2.778590   -8.368860
  C     13.400420    4.061900   -9.004220
  O     12.703530    4.916210   -8.506730
  C     14.048700    4.074760  -10.328030
  C     14.079400    5.069830  -11.260980
  C     14.799290    4.867410  -12.460350
  C     15.473450    3.629170  -12.668450
  C     16.194970    3.437240  -13.862330
  C     16.232300    4.438350  -14.792940
  C     15.575640    5.662030  -14.607380
  C     14.870180    5.864970  -13.453710
  F     16.922500    4.256090  -15.933880
  C     15.414170    2.611020  -11.687210
  C     14.711190    2.830960  -10.534620
  C     14.467390    1.978510   -9.373740
  C     14.657680    0.618220   -9.331680
  C     14.163380   -0.201500   -8.300450
  N     13.770520   -0.904160   -7.481160
  C     15.302090   -0.124330  -10.339950
  N     15.852620   -0.778380  -11.106630
  H     -0.246610    0.548370   -0.319990
  H     -1.940250    3.859160   -2.412280
  H      0.307110    4.513360   -3.239100
  H      2.160250    0.127950   -0.411800
  H      2.746490    4.123940   -3.338350
  H      7.629800    2.403810   -2.526730
  H      7.864400   -1.165600    4.033610
  H      7.218550   -1.589410    2.434400
  H      7.689990    1.314310    3.284750
  H      6.126150    0.497670    3.530650
  H     15.419340   -3.183710    4.792920
  H     16.967530   -2.853070    2.607410
  H     12.103320    0.717410   -2.270240
  H     14.888530   -0.570320   -2.162250
  H     18.270890   -0.384560   -7.466110
  H     16.784010   -1.221530   -6.949670
  H     18.442570    0.547940   -5.070670
  H     18.665940   -1.213470   -5.178510
  H     12.864850    3.361620   -6.654690
  H     13.563760    6.002250  -11.086310
  H     16.711090    2.506810  -14.040580
  H     15.640940    6.415320  -15.376350
  H     14.355880    6.799540  -13.287360
  H     15.937730    1.685880  -11.869290

 Total Charge           Charge          ....    0
 Multiplicity           Mult            ....    1
 Number of Electrons    NEL             ....  546
 Basis Dimension        Dim             .... 1180

ORBITAL ENERGIES
----------------

  NO   OCC          E(Eh)            E(eV)
   0   2.0000     -88.978528     -2421.2288
   1   2.0000     -88.964770     -2420.8545
   2   2.0000     -88.959478     -2420.7105
   3   2.0000     -88.951141     -2420.4836
   4   2.0000     -88.949651     -2420.4431
   5   2.0000     -88.937495     -2420.1123
   6   2.0000     -24.787194      -674.4938
   7   2.0000     -24.782366      -674.3625
   8   2.0000     -19.219594      -522.9917
   9   2.0000     -19.210605      -522.7472
  10   2.0000     -19.209664      -522.7215
  11   2.0000     -14.420411      -392.3993
  12   2.0000     -14.418747      -392.3540
  13   2.0000     -14.413953      -392.2236
  14   2.0000     -14.412471      -392.1833
  15   2.0000     -14.410685      -392.1347
  16   2.0000     -14.399902      -391.8412
  17   2.0000     -10.371045      -282.2105
  18   2.0000     -10.369478      -282.1678
  19   2.0000     -10.368944      -282.1533
  20   2.0000     -10.365514      -282.0600
  21   2.0000     -10.360708      -281.9292
  22   2.0000     -10.349603      -281.6270
  23   2.0000     -10.347085      -281.5585
  24   2.0000     -10.340448      -281.3779
  25   2.0000     -10.339089      -281.3409
  26   2.0000     -10.338791      -281.3328
  27   2.0000     -10.336181      -281.2618
  28   2.0000     -10.335224      -281.2358
  29   2.0000     -10.333461      -281.1878
  30   2.0000     -10.330173      -281.0983
  31   2.0000     -10.328831      -281.0618
  32   2.0000     -10.324594      -280.9465
  33   2.0000     -10.324027      -280.9310
  34   2.0000     -10.322731      -280.8958
  35   2.0000     -10.322121      -280.8792
  36   2.0000     -10.319919      -280.8193
  37   2.0000     -10.319644      -280.8118
  38   2.0000     -10.318758      -280.7877
  39   2.0000     -10.317868      -280.7635
  40   2.0000     -10.316956      -280.7387
  41   2.0000     -10.316933      -280.7380
  42   2.0000     -10.316872      -280.7364
  43   2.0000     -10.316641      -280.7301
  44   2.0000     -10.315870      -280.7091
  45   2.0000     -10.314682      -280.6768
  46   2.0000     -10.312418      -280.6152
  47   2.0000     -10.309140      -280.5260
  48   2.0000     -10.307661      -280.4857
  49   2.0000     -10.307608      -280.4843
  50   2.0000     -10.307265      -280.4750
  51   2.0000     -10.302432      -280.3434
  52   2.0000     -10.302089      -280.3341
  53   2.0000     -10.301494      -280.3179
  54   2.0000     -10.300284      -280.2850
  55   2.0000     -10.299573      -280.2656
  56   2.0000     -10.299097      -280.2527
  57   2.0000     -10.298607      -280.2394
  58   2.0000     -10.296041      -280.1695
  59   2.0000     -10.295450      -280.1534
  60   2.0000     -10.295376      -280.1514
  61   2.0000     -10.294374      -280.1241
  62   2.0000     -10.293753      -280.1073
  63   2.0000     -10.292669      -280.0778
  64   2.0000     -10.292039      -280.0606
  65   2.0000     -10.291795      -280.0540
  66   2.0000     -10.291487      -280.0456
  67   2.0000     -10.290223      -280.0112
  68   2.0000     -10.290190      -280.0103
  69   2.0000     -10.288228      -279.9569
  70   2.0000     -10.284796      -279.8635
  71   2.0000     -10.284220      -279.8479
  72   2.0000     -10.283908      -279.8394
  73   2.0000     -10.282126      -279.7909
  74   2.0000      -8.073524      -219.6918
  75   2.0000      -8.060301      -219.3319
  76   2.0000      -8.054162      -219.1649
  77   2.0000      -8.045732      -218.9355
  78   2.0000      -8.042288      -218.8418
  79   2.0000      -8.032919      -218.5868
  80   2.0000      -6.043125      -164.4418
  81   2.0000      -6.039029      -164.3303
  82   2.0000      -6.034957      -164.2195
  83   2.0000      -6.029637      -164.0748
  84   2.0000      -6.025766      -163.9694
  85   2.0000      -6.024303      -163.9296
  86   2.0000      -6.021994      -163.8668
  87   2.0000      -6.020035      -163.8135
  88   2.0000      -6.015995      -163.7035
  89   2.0000      -6.014570      -163.6648
  90   2.0000      -6.012573      -163.6104
  91   2.0000      -6.011835      -163.5903
  92   2.0000      -6.008102      -163.4888
  93   2.0000      -6.005851      -163.4275
  94   2.0000      -6.003444      -163.3620
  95   2.0000      -6.002500      -163.3363
  96   2.0000      -5.999174      -163.2458
  97   2.0000      -5.992428      -163.0623
  98   2.0000      -1.302271       -35.4366
  99   2.0000      -1.297091       -35.2956
 100   2.0000      -1.134985       -30.8845
 101   2.0000      -1.125884       -30.6369
 102   2.0000      -1.123613       -30.5751
 103   2.0000      -1.082463       -29.4553
 104   2.0000      -1.055773       -28.7290
 105   2.0000      -1.027084       -27.9484
 106   2.0000      -1.018092       -27.7037
 107   2.0000      -1.016902       -27.6713
 108   2.0000      -1.008971       -27.4555
 109   2.0000      -1.003137       -27.2968
 110   2.0000      -0.997522       -27.1439
 111   2.0000      -0.996148       -27.1066
 112   2.0000      -0.990613       -26.9560
 113   2.0000      -0.978565       -26.6281
 114   2.0000      -0.971273       -26.4297
 115   2.0000      -0.949811       -25.8457
 116   2.0000      -0.945865       -25.7383
 117   2.0000      -0.941906       -25.6306
 118   2.0000      -0.931944       -25.3595
 119   2.0000      -0.929154       -25.2836
 120   2.0000      -0.920570       -25.0500
 121   2.0000      -0.913689       -24.8627
 122   2.0000      -0.903021       -24.5724
 123   2.0000      -0.899125       -24.4664
 124   2.0000      -0.892018       -24.2730
 125   2.0000      -0.888282       -24.1714
 126   2.0000      -0.882059       -24.0021
 127   2.0000      -0.872291       -23.7363
 128   2.0000      -0.867403       -23.6032
 129   2.0000      -0.867286       -23.6001
 130   2.0000      -0.859165       -23.3791
 131   2.0000      -0.856979       -23.3196
 132   2.0000      -0.847761       -23.0688
 133   2.0000      -0.837802       -22.7977
 134   2.0000      -0.833065       -22.6689
 135   2.0000      -0.829878       -22.5821
 136   2.0000      -0.811390       -22.0790
 137   2.0000      -0.805549       -21.9201
 138   2.0000      -0.785277       -21.3685
 139   2.0000      -0.769596       -20.9418
 140   2.0000      -0.761884       -20.7319
 141   2.0000      -0.760395       -20.6914
 142   2.0000      -0.756398       -20.5826
 143   2.0000      -0.752717       -20.4825
 144   2.0000      -0.751917       -20.4607
 145   2.0000      -0.733027       -19.9467
 146   2.0000      -0.730980       -19.8910
 147   2.0000      -0.721646       -19.6370
 148   2.0000      -0.715857       -19.4794
 149   2.0000      -0.713616       -19.4185
 150   2.0000      -0.710841       -19.3430
 151   2.0000      -0.708239       -19.2722
 152   2.0000      -0.704558       -19.1720
 153   2.0000      -0.683727       -18.6051
 154   2.0000      -0.679363       -18.4864
 155   2.0000      -0.677226       -18.4283
 156   2.0000      -0.675962       -18.3939
 157   2.0000      -0.666167       -18.1273
 158   2.0000      -0.648298       -17.6411
 159   2.0000      -0.646931       -17.6039
 160   2.0000      -0.637688       -17.3524
 161   2.0000      -0.635268       -17.2865
 162   2.0000      -0.631486       -17.1836
 163   2.0000      -0.630244       -17.1498
 164   2.0000      -0.628190       -17.0939
 165   2.0000      -0.625714       -17.0265
 166   2.0000      -0.623334       -16.9618
 167   2.0000      -0.617468       -16.8022
 168   2.0000      -0.608476       -16.5575
 169   2.0000      -0.600149       -16.3309
 170   2.0000      -0.593922       -16.1614
 171   2.0000      -0.591230       -16.0882
 172   2.0000      -0.589334       -16.0366
 173   2.0000      -0.581592       -15.8259
 174   2.0000      -0.571509       -15.5516
 175   2.0000      -0.568244       -15.4627
 176   2.0000      -0.563851       -15.3432
 177   2.0000      -0.562544       -15.3076
 178   2.0000      -0.561819       -15.2879
 179   2.0000      -0.559665       -15.2293
 180   2.0000      -0.557287       -15.1645
 181   2.0000      -0.554870       -15.0988
 182   2.0000      -0.552927       -15.0459
 183   2.0000      -0.551338       -15.0027
 184   2.0000      -0.549252       -14.9459
 185   2.0000      -0.548098       -14.9145
 186   2.0000      -0.545042       -14.8313
 187   2.0000      -0.542946       -14.7743
 188   2.0000      -0.542509       -14.7624
 189   2.0000      -0.540901       -14.7187
 190   2.0000      -0.538111       -14.6428
 191   2.0000      -0.534810       -14.5529
 192   2.0000      -0.531328       -14.4582
 193   2.0000      -0.529380       -14.4052
 194   2.0000      -0.525184       -14.2910
 195   2.0000      -0.524519       -14.2729
 196   2.0000      -0.524009       -14.2590
 197   2.0000      -0.520411       -14.1611
 198   2.0000      -0.519353       -14.1323
 199   2.0000      -0.519072       -14.1247
 200   2.0000      -0.516371       -14.0512
 201   2.0000      -0.512466       -13.9449
 202   2.0000      -0.505995       -13.7688
 203   2.0000      -0.504853       -13.7378
 204   2.0000      -0.502058       -13.6617
 205   2.0000      -0.500305       -13.6140
 206   2.0000      -0.497638       -13.5414
 207   2.0000      -0.495103       -13.4724
 208   2.0000      -0.492874       -13.4118
 209   2.0000      -0.490458       -13.3460
 210   2.0000      -0.489397       -13.3172
 211   2.0000      -0.488181       -13.2841
 212   2.0000      -0.485356       -13.2072
 213   2.0000      -0.482006       -13.1160
 214   2.0000      -0.479804       -13.0561
 215   2.0000      -0.477221       -12.9858
 216   2.0000      -0.476651       -12.9703
 217   2.0000      -0.470374       -12.7995
 218   2.0000      -0.469917       -12.7871
 219   2.0000      -0.464365       -12.6360
 220   2.0000      -0.462960       -12.5978
 221   2.0000      -0.459798       -12.5117
 222   2.0000      -0.459063       -12.4918
 223   2.0000      -0.453982       -12.3535
 224   2.0000      -0.452971       -12.3260
 225   2.0000      -0.449782       -12.2392
 226   2.0000      -0.448119       -12.1940
 227   2.0000      -0.445595       -12.1253
 228   2.0000      -0.443156       -12.0589
 229   2.0000      -0.441891       -12.0245
 230   2.0000      -0.440810       -11.9951
 231   2.0000      -0.438955       -11.9446
 232   2.0000      -0.437025       -11.8921
 233   2.0000      -0.434888       -11.8339
 234   2.0000      -0.433179       -11.7874
 235   2.0000      -0.432768       -11.7762
 236   2.0000      -0.431239       -11.7346
 237   2.0000      -0.426136       -11.5957
 238   2.0000      -0.425894       -11.5892
 239   2.0000      -0.424760       -11.5583
 240   2.0000      -0.423130       -11.5140
 241   2.0000      -0.418497       -11.3879
 242   2.0000      -0.417699       -11.3662
 243   2.0000      -0.413590       -11.2544
 244   2.0000      -0.413154       -11.2425
 245   2.0000      -0.405958       -11.0467
 246   2.0000      -0.403070       -10.9681
 247   2.0000      -0.397459       -10.8154
 248   2.0000      -0.389899       -10.6097
 249   2.0000      -0.386950       -10.5294
 250   2.0000      -0.383958       -10.4480
 251   2.0000      -0.378323       -10.2947
 252   2.0000      -0.375100       -10.2070
 253   2.0000      -0.371773       -10.1165
 254   2.0000      -0.366222        -9.9654
 255   2.0000      -0.350621        -9.5409
 256   2.0000      -0.346960        -9.4413
 257   2.0000      -0.338865        -9.2210
 258   2.0000      -0.336859        -9.1664
 259   2.0000      -0.336404        -9.1540
 260   2.0000      -0.331871        -9.0307
 261   2.0000      -0.330086        -8.9821
 262   2.0000      -0.328332        -8.9344
 263   2.0000      -0.317385        -8.6365
 264   2.0000      -0.316010        -8.5991
 265   2.0000      -0.312959        -8.5161
 266   2.0000      -0.306647        -8.3443
 267   2.0000      -0.299825        -8.1586
 268   2.0000      -0.293782        -7.9942
 269   2.0000      -0.285766        -7.7761
 270   2.0000      -0.278720        -7.5844
 271   2.0000      -0.274625        -7.4729
 272   2.0000      -0.252780        -6.8785
 273   0.0000      -0.121345        -3.3020
 274   0.0000      -0.095350        -2.5946
 275   0.0000      -0.080874        -2.2007
 276   0.0000      -0.061239        -1.6664
 277   0.0000      -0.055271        -1.5040

MULLIKEN ATOMIC CHARGES
-----------------------
   0 C :   -0.100775
   1 C :    0.303997
   2 F :   -0.189285
   3 C :   -0.030318
   4 C :   -0.009138
   5 C :    0.097985
   6 C :    0.105052
   7 C :   -0.094800
   8 C :    0.044405
   9 C :    0.011886
  10 C :   -0.078315
  11 C :    0.133376
  12 O :   -0.136261
  13 C :   -0.127856
  14 C :    0.293208
  15 C :   -0.333217
  16 C :   -0.196595
  17 N :    0.171546
  18 C :   -0.176542
  19 N :    0.156450
  20 C :    0.049424
  21 C :   -0.093493
  22 C :   -0.044442
  23 C :    0.001718
  24 S :    0.145291
  25 C :   -0.067061
  26 C :   -0.042030
  27 S :    0.039698
  28 C :   -0.141609
  29 S :    0.149282
  30 C :    0.101391
  31 N :   -0.112391
  32 C :    0.082473
  33 C :   -0.179385
  34 C :    0.214812
  35 O :   -0.141252
  36 C :   -0.012014
  37 C :   -0.049032
  38 N :   -0.060557
  39 C :    0.086609
  40 C :   -0.097511
  41 C :    0.062100
  42 C :   -0.065149
  43 C :    0.002825
  44 C :   -0.076038
  45 C :   -0.011496
  46 C :   -0.006533
  47 S :    0.026191
  48 C :   -0.055777
  49 C :   -0.040031
  50 S :    0.031459
  51 C :   -0.128760
  52 S :    0.136273
  53 C :    0.045941
  54 C :   -0.139798
  55 C :    0.133932
  56 O :   -0.145904
  57 C :    0.014711
  58 C :   -0.079942
  59 C :    0.098081
  60 C :    0.104206
  61 C :   -0.097949
  62 C :    0.302270
  63 C :   -0.033462
  64 C :   -0.009160
  65 F :   -0.191662
  66 C :   -0.097972
  67 C :    0.047004
  68 C :    0.303341
  69 C :   -0.336416
  70 C :   -0.200723
  71 N :    0.167160
  72 C :   -0.184785
  73 N :    0.151589
  74 H :   -0.001584
  75 H :    0.004176
  76 H :   -0.007987
  77 H :   -0.007743
  78 H :   -0.010534
  79 H :    0.032824
  80 H :    0.058487
  81 H :    0.075784
  82 H :    0.073722
  83 H :    0.066609
  84 H :    0.004060
  85 H :   -0.009076
  86 H :   -0.007348
  87 H :    0.040424
  88 H :    0.070191
  89 H :    0.084598
  90 H :    0.074329
  91 H :    0.067618
  92 H :    0.028700
  93 H :   -0.013978
  94 H :   -0.005004
  95 H :    0.002631
  96 H :   -0.010978
  97 H :   -0.010169
Sum of atomic charges:   -0.0000000

LOEWDIN ATOMIC CHARGES
----------------------
   0 C :   -0.043361
   1 C :    0.093931
   2 F :   -0.063948
   3 C :   -0.037731
   4 C :    0.005603
   5 C :   -0.020416
   6 C :    0.004806
   7 C :    0.006349
   8 C :   -0.014190
   9 C :   -0.062390
  10 C :    0.037726
  11 C :    0.085415
  12 O :   -0.136483
  13 C :   -0.081492
  14 C :    0.043939
  15 C :   -0.138017
  16 C :   -0.024994
  17 N :   -0.044712
  18 C :   -0.017831
  19 N :   -0.049625
  20 C :    0.025928
  21 C :   -0.175960
  22 C :   -0.189593
  23 C :   -0.160920
  24 S :    0.438184
  25 C :   -0.171824
  26 C :   -0.139083
  27 S :    0.381231
  28 C :   -0.206933
  29 S :    0.466840
  30 C :    0.051151
  31 N :   -0.127321
  32 C :    0.053286
  33 C :   -0.048780
  34 C :    0.069910
  35 O :   -0.141362
  36 C :   -0.043997
  37 C :    0.010164
  38 N :   -0.099896
  39 C :    0.065010
  40 C :   -0.037607
  41 C :   -0.021367
  42 C :   -0.043589
  43 C :   -0.000623
  44 C :   -0.174707
  45 C :   -0.193013
  46 C :   -0.183530
  47 S :    0.370024
  48 C :   -0.135283
  49 C :   -0.143054
  50 S :    0.332919
  51 C :   -0.187860
  52 S :    0.452618
  53 C :    0.030509
  54 C :   -0.095330
  55 C :    0.084560
  56 O :   -0.144126
  57 C :   -0.061169
  58 C :    0.034763
  59 C :   -0.021409
  60 C :    0.004062
  61 C :   -0.043968
  62 C :    0.092550
  63 C :   -0.040174
  64 C :    0.004619
  65 F :   -0.066418
  66 C :    0.003636
  67 C :   -0.013213
  68 C :    0.049033
  69 C :   -0.143701
  70 C :   -0.026091
  71 N :   -0.053089
  72 C :   -0.019439
  73 N :   -0.057376
  74 H :    0.043064
  75 H :    0.042122
  76 H :    0.036021
  77 H :    0.038331
  78 H :    0.040229
  79 H :    0.048296
  80 H :    0.032900
  81 H :    0.027912
  82 H :    0.028973
  83 H :    0.035391
  84 H :    0.021560
  85 H :    0.032878
  86 H :    0.007145
  87 H :    0.034811
  88 H :    0.038036
  89 H :    0.034560
  90 H :    0.027587
  91 H :    0.037490
  92 H :    0.045941
  93 H :    0.038994
  94 H :    0.042149
  95 H :    0.041165
  96 H :    0.035135
  97 H :    0.037542

  Mayer bond orders larger than 0.100000
B(  0-C ,  1-C ) :   1.4397 B(  0-C ,  6-C ) :   1.2034 B(  0-C , 74-H ) :   1.0063
B(  1-C ,  2-F ) :   1.0900 B(  1-C ,  3-C ) :   1.2555 B(  3-C ,  4-C ) :   1.4592
B(  3-C , 75-H ) :   0.9928 B(  4-C ,  5-C ) :   1.2352 B(  4-C , 76-H ) :   0.9971
B(  5-C ,  6-C ) :   1.2573 B(  5-C , 10-C ) :   1.1896 B(  6-C ,  7-C ) :   1.2001
B(  7-C ,  8-C ) :   1.4647 B(  7-C , 77-H ) :   0.9934 B(  8-C ,  9-C ) :   1.2165
B(  8-C , 14-C ) :   1.0018 B(  9-C , 10-C ) :   1.4703 B(  9-C , 11-C ) :   0.9244
B( 10-C , 78-H ) :   1.0155 B( 11-C , 12-O ) :   2.2714 B( 11-C , 13-C ) :   0.9310
B( 13-C , 14-C ) :   1.0624 B( 13-C , 20-C ) :   1.6512 B( 14-C , 15-C ) :   1.6049
B( 15-C , 16-C ) :   1.1726 B( 15-C , 18-C ) :   1.1407 B( 16-C , 17-N ) :   2.9890
B( 18-C , 19-N ) :   2.9795 B( 20-C , 21-C ) :   1.1453 B( 20-C , 79-H ) :   0.9200
B( 21-C , 22-C ) :   1.4754 B( 21-C , 29-S ) :   1.1063 B( 22-C , 23-C ) :   1.2638
B( 22-C , 27-S ) :   1.0633 B( 23-C , 24-S ) :   1.1262 B( 23-C , 28-C ) :   1.4739
B( 24-S , 25-C ) :   0.9382 B( 24-S , 31-N ) :   0.1172 B( 25-C , 26-C ) :   1.0146
B( 25-C , 80-H ) :   0.9462 B( 25-C , 81-H ) :   0.9480 B( 26-C , 27-S ) :   1.0000
B( 26-C , 82-H ) :   0.9474 B( 26-C , 83-H ) :   0.9458 B( 28-C , 29-S ) :   1.0925
B( 28-C , 30-C ) :   1.2032 B( 30-C , 31-N ) :   1.4674 B( 30-C , 32-C ) :   0.1090
B( 30-C , 41-C ) :   1.0184 B( 31-N , 32-C ) :   1.3832 B( 32-C , 33-C ) :   1.0657
B( 32-C , 37-C ) :   1.3963 B( 33-C , 34-C ) :   0.8958 B( 33-C , 41-C ) :   1.5374
B( 34-C , 35-O ) :   2.1833 B( 34-C , 36-C ) :   0.9336 B( 35-O , 87-H ) :   0.1036
B( 36-C , 37-C ) :   1.0781 B( 36-C , 40-C ) :   1.5867 B( 37-C , 38-N ) :   1.3222
B( 38-N , 39-C ) :   1.6410 B( 39-C , 40-C ) :   1.0847 B( 39-C , 84-H ) :   0.9894
B( 40-C , 85-H ) :   1.0105 B( 41-C , 42-C ) :   1.1374 B( 42-C , 43-C ) :   1.6466
B( 42-C , 86-H ) :   0.9526 B( 43-C , 44-C ) :   1.1559 B( 43-C , 87-H ) :   0.9441
B( 44-C , 45-C ) :   1.5167 B( 44-C , 51-C ) :   0.1012 B( 44-C , 52-S ) :   1.1081
B( 45-C , 46-C ) :   1.2796 B( 45-C , 50-S ) :   1.0384 B( 46-C , 47-S ) :   1.0565
B( 46-C , 51-C ) :   1.4633 B( 47-S , 48-C ) :   1.0119 B( 48-C , 49-C ) :   1.0191
B( 48-C , 88-H ) :   0.9453 B( 48-C , 89-H ) :   0.9432 B( 49-C , 50-S ) :   1.0140
B( 49-C , 90-H ) :   0.9488 B( 49-C , 91-H ) :   0.9447 B( 51-C , 52-S ) :   1.1121
B( 51-C , 53-C ) :   1.1795 B( 53-C , 54-C ) :   1.6164 B( 53-C , 92-H ) :   0.9146
B( 54-C , 55-C ) :   0.9367 B( 54-C , 68-C ) :   1.0799 B( 55-C , 56-O ) :   2.2579
B( 55-C , 57-C ) :   0.9224 B( 57-C , 58-C ) :   1.4749 B( 57-C , 67-C ) :   1.2153
B( 58-C , 59-C ) :   1.1868 B( 58-C , 93-H ) :   1.0147 B( 59-C , 60-C ) :   1.2610
B( 59-C , 64-C ) :   1.2358 B( 60-C , 61-C ) :   1.2045 B( 60-C , 66-C ) :   1.1965
B( 61-C , 62-C ) :   1.4387 B( 61-C , 94-H ) :   1.0060 B( 62-C , 63-C ) :   1.2595
B( 62-C , 65-F ) :   1.0876 B( 63-C , 64-C ) :   1.4587 B( 63-C , 95-H ) :   0.9922
B( 64-C , 96-H ) :   0.9962 B( 66-C , 67-C ) :   1.4679 B( 66-C , 97-H ) :   0.9935
B( 67-C , 68-C ) :   0.9937 B( 68-C , 69-C ) :   1.6060 B( 69-C , 70-C ) :   1.1668
B( 69-C , 72-C ) :   1.1460 B( 70-C , 71-N ) :   2.9718 B( 72-C , 73-N ) :   2.9780

-----------------------------------------------------------------------------
         ABSORPTION SPECTRUM VIA TRANSITION ELECTRIC DIPOLE MOMENTS
-----------------------------------------------------------------------------
State   Energy  Wavelength   fosc         T2         TX        TY        TZ
        (cm-1)    (nm)                  (au**2)     (au)      (au)      (au)
-----------------------------------------------------------------------------
   0   13789.5    725.2   0.188053692   4.48961   0.16158  -0.72107   1.98584
   1   17325.8    577.2   0.620527358  11.79079   3.11746  -0.15755  -1.43088
   2   18834.9    530.9   0.415862571   7.26879  -0.80739  -0.57195   2.50795
   3   19795.9    505.2   0.051281342   0.85282  -0.61409   0.09500  -0.68315
   4   19958.8    501.0   0.886109170  14.61598   2.87761  -0.99832   2.31056
   5   20759.6    481.7   0.472190809   7.48813  -1.26780   1.01614  -2.20188
   6   23046.0    433.9   0.030258726   0.43225  -0.11892   0.36863  -0.53124
   7   23154.5    431.9   0.023063197   0.32791  -0.11078   0.42495  -0.36750
   8   23303.0    429.1   0.043458669   0.61396  -0.29515   0.20300  -0.69688
   9   24534.0    407.6   0.026270748   0.35252  -0.59188   0.04027  -0.02386
  10   24683.8    405.1   0.051128458   0.68191  -0.36590   0.32510  -0.66508
  11   25133.1    397.9   0.015088458   0.19764   0.37557  -0.18649   0.14768
  12   25718.2    388.8   0.106124757   1.35847   0.60359   0.47571  -0.87627
  13   26247.8    381.0   0.091600066   1.14889  -0.81715  -0.12790  -0.68176
  14   26686.6    374.7   0.022633794   0.27922  -0.20745   0.04565   0.48383
  15   26867.3    372.2   0.007304818   0.08951  -0.27606   0.02715  -0.11209
  16   26956.8    371.0   0.084070624   1.02672  -0.91327  -0.19266  -0.39438
  17   27578.8    362.6   0.033068464   0.39474   0.18677   0.30813   0.51470
  18   28256.1    353.9   0.045433949   0.52935   0.18668  -0.01130   0.70312
  19   28453.9    351.4   0.167707994   1.94038   0.66820  -1.04273   0.63765
  20   28870.8    346.4   0.019588408   0.22337  -0.13561   0.43222  -0.13475
  21   29047.8    344.3   0.004345870   0.04925  -0.14218   0.12100   0.11999
  22   29459.2    339.5   0.035146430   0.39277   0.31840   0.20103  -0.50098
  23   29681.2    336.9   0.036154615   0.40101  -0.11777  -0.45711   0.42213
  24   29754.6    336.1   0.003976911   0.04400   0.13123   0.08874  -0.13750
  25   30257.1    330.5   0.002863300   0.03115   0.12439  -0.12272  -0.02493
  26   30341.0    329.6   0.019915644   0.21609   0.34362   0.31288   0.01132
  27   30716.2    325.6   0.067393826   0.72232  -0.69168   0.48762  -0.07826
  28   31078.0    321.8   0.131282634   1.39069  -0.72293   0.63573  -0.68111
  29   31453.8    317.9   0.081777382   0.85592  -0.01593  -0.73942   0.55582
  30   31665.3    315.8   0.109524791   1.13869   0.71747  -0.67942   0.40290
  31   32022.2    312.3   0.113953003   1.17152   1.01818  -0.25785  -0.26142
  32   32119.7    311.3   0.044955321   0.46077  -0.41538   0.50306  -0.18750
  33   32382.9    308.8   0.060001193   0.60999   0.71855  -0.15881  -0.26163
  34   32429.2    308.4   0.081402418   0.82637   0.72187  -0.48394   0.26662
  35   32717.6    305.6   0.063957566   0.64356  -0.36844   0.54908  -0.45422
  36   33255.5    300.7   0.039710205   0.39311   0.52731   0.02119  -0.33854
  37   33882.0    295.1   0.179836897   1.74737  -0.16251  -1.17369   0.58601
  38   33925.9    294.8   0.238385945   2.31326   1.12111  -0.81126   0.63105
  39   34144.3    292.9   0.353622149   3.40955  -0.88180  -0.82184   1.39877
  40   34574.4    289.2   0.171077338   1.62897  -0.27435  -0.39898   1.18090
  41   34773.0    287.6   0.038666874   0.36608   0.41762  -0.26621  -0.34756
  42   34833.9    287.1   0.125445671   1.18557  -0.41430   0.80133  -0.60976
  43   34990.3    285.8   0.011101660   0.10445   0.12388  -0.04997  -0.29429
  44   35300.6    283.3   0.056349421   0.52551   0.61534  -0.08339  -0.37406
  45   35900.8    278.5   0.235519908   2.15973  -1.04916   0.90382  -0.49204
  46   36304.6    275.4   0.088700138   0.80434  -0.00131  -0.68561   0.57816
  47   36552.6    273.6   0.019616886   0.17668   0.00768   0.38123  -0.17688
  48   36747.6    272.1   0.123873768   1.10975   0.87501   0.07671  -0.58157
  49   37030.1    270.1   0.106584666   0.94758   0.76583  -0.55185   0.23777
  50   37097.1    269.6   0.003697834   0.03282   0.12812  -0.03129  -0.12419
  51   37296.9    268.1   0.136203058   1.20224   0.13824   0.84223  -0.68832
  52   37474.1    266.9   0.090797985   0.79766   0.63847  -0.59458  -0.19105
  53   37608.3    265.9   0.097277795   0.85154   0.54501  -0.55483   0.49666
  54   37936.8    263.6   0.062555970   0.54285   0.52127  -0.49953   0.14698
  55   38015.9    263.0   0.056586725   0.49003   0.03985  -0.68263   0.14985
  56   38186.5    261.9   0.189871421   1.63691  -0.25472   0.95724  -0.80977
  57   38369.0    260.6   0.004916198   0.04218   0.19491  -0.05676   0.03115
  58   38496.5    259.8   0.055137390   0.47152  -0.36020   0.09169   0.57738
  59   38612.1    259.0   0.049898680   0.42544   0.09192  -0.64530   0.02421
  60   38688.2    258.5   0.015859477   0.13495  -0.02162  -0.36657   0.01080
  61   38942.3    256.8   0.001275547   0.01078   0.00477  -0.07229  -0.07439
  62   39011.1    256.3   0.007977300   0.06732   0.25384  -0.01769   0.05069
  63   39405.1    253.8   0.104663330   0.87442  -0.82586   0.43847  -0.01126
  64   39927.8    250.5   0.092225542   0.76042   0.06524  -0.61903   0.61070
  65   39992.6    250.0   0.023289424   0.19171   0.15054   0.05872  -0.40694
  66   40251.5    248.4   0.197880518   1.61844  -0.70698   0.58753   0.87944

FINAL SINGLE POINT ENERGY     -5324.976905762625

DIPOLE MOMENT
-------------
                                X             Y             Z
Electronic contribution:     -8.33797      -1.61004      -5.41275
Nuclear contribution   :      8.33297       4.10075       6.37608
                        -----------------------------------------
Total Dipole Moment    :     -0.00501       2.49071       0.96333
                        -----------------------------------------
Magnitude (a.u.)       :      2.67051
Magnitude (Debye)      :      6.78791

Rotational constants in cm-1:     0.000870     0.000372     0.000271
Rotational constants in MHz :    26.083444    11.143632     8.117989

                             ****ORCA TERMINATED NORMALLY****
TOTAL RUN TIME: 0 days 0 hours 13 minutes 25 seconds 62 msec
