                         Program Version 4.2.0 -  RELEASE  -
|  1> # ORCA input file
|  2> # SCF done       -195.822164495992          0.000674126061
|  3> ! CAM-B3LYP def2-SVP def2/J RIJCOSX Grid4 TightSCF
|  4> %maxcore 5000
|  5> %tddft
|  6>     Mode sTDDFT
|  7>     Ethresh 5.0
|  8>     maxcore 5000
|  9> end
| 10>
| 11> %pal
| 12>   nprocs 6
| 13>   end
| 14> * xyz 0 1
| 15>    C       -0.00511        -2.26183        -3.12818
| 16>    C       -0.85106        -1.55426        -3.92688
| 17>    C       -0.99183        -0.22796        -3.47528
| 18>    C       -0.23232         0.02874        -2.32767
| 19>    S        0.64288        -1.34178        -1.81045
| 20>    C       -0.43494         1.38506        -1.94225
| 21>    C       -1.32367         1.97628        -2.84960
| 22>    C       -1.70181         0.98160        -3.84704
| 23>    C       -2.54245         1.16130        -4.90615
| 24>    C       -3.17094         2.39798        -5.16251
| 25>    N       -3.68237         3.40286        -5.37128
| 26>    C       -2.83695         0.12500        -5.81695
| 27>    N       -3.07912        -0.71371        -6.56039
| 28>    C       -1.59139         3.31439        -2.55614
| 29>    C       -0.90895         3.74205        -1.43312
| 30>    S        0.07807         2.46973        -0.72831
| 31>    C       -0.93481         5.03137        -0.84149
| 32>    C       -0.22565         5.46838         0.26131
| 33>    C       -0.49824         6.80377         0.56077
| 34>    C       -1.42525         7.38389        -0.32065
| 35>    S       -1.95829         6.29008        -1.51939
| 36>    C       -1.63590         8.73167         0.06685
| 37>    C       -0.83773         9.00512         1.19018
| 38>    C       -0.09860         7.80183         1.54019
| 39>    C        0.77790         7.64192         2.57257
| 40>    C        1.08340         8.69060         3.46557
| 41>    N        1.33182         9.54162         4.19252
| 42>    C        1.43324         6.41655         2.81640
| 43>    N        1.96668         5.42149         3.01636
| 44>    C       -0.97770        10.31400         1.65102
| 45>    C       -1.88033        11.03540         0.89148
| 46>    S       -2.56292        10.08112        -0.41894
| 47>    C       -2.28639        12.38090         1.07621
| 48>    C       -3.25324        13.07489         0.37214
| 49>    C       -3.40945        14.37704         0.84652
| 50>    C       -2.54710        14.67824         1.91425
| 51>    S       -1.54866        13.35874         2.33834
| 52>    C       -2.79621        16.00858         2.33556
| 53>    C       -3.82335        16.54564         1.54124
| 54>    C       -4.23604        15.54220         0.57245
| 55>    C       -5.19445        15.66760        -0.38946
| 56>    C       -5.93677        16.85575        -0.55658
| 57>    N       -6.54126        17.82047        -0.69230
| 58>    C       -5.50318        14.61834        -1.28077
| 59>    N       -5.75359        13.76593        -2.00548
| 60>    C       -4.16000        17.85137         1.89770
| 61>    C       -3.39170        18.31409         2.94995
| 62>    S       -2.23211        17.11520         3.50810
| 63>    C       -3.47054        19.57682         3.58976
| 64>    C       -2.63795        20.07947         4.57246
| 65>    C       -3.03414        21.34942         4.99166
| 66>    C       -4.18228        21.81195         4.32723
| 67>    S       -4.76393        20.69424         3.17456
| 68>    C       -4.51948        23.08946         4.84248
| 69>    C       -3.58011        23.43791         5.82676
| 70>    C       -2.60989        22.36116         5.94722
| 71>    C       -1.52851        22.31207         6.77662
| 72>    C       -1.21453        23.36473         7.66206
| 73>    N       -0.95968        24.21961         8.38231
| 74>    C       -0.65116        21.20732         6.79976
| 75>    N        0.06354        20.31106         6.81691
| 76>    C       -3.84181        24.67661         6.41361
| 77>    C       -4.97535        25.26760         5.88838
| 78>    S       -5.72486        24.28258         4.63965
| 79>    C       -5.55708        26.50740         6.25930
| 80>    C       -6.72288        27.07107         5.77666
| 81>    C       -7.00134        28.29452         6.38819
| 82>    C       -6.03908        28.66245         7.33758
| 83>    S       -4.79076        27.50775         7.48480
| 84>    C       -6.41767        29.91428         7.90216
| 85>    C       -7.61610        30.32804         7.30862
| 86>    C       -8.02768        29.32962         6.33955
| 87>    C       -9.14072        29.34394         5.55110
| 88>    C      -10.07618        30.39913         5.59001
| 89>    N      -10.84039        31.25357         5.61843
| 90>    C       -9.43143        28.30122         4.64652
| 91>    N       -9.66891        27.45336         3.91189
| 92>    C       -8.06692        31.56296         7.81318
| 93>    C       -7.21774        32.05066         8.75935
| 94>    S       -5.85215        31.02848         9.06428
| 95>    H        0.28813        -3.28762        -3.22811
| 96>    H       -1.34296        -1.96600        -4.78901
| 97>    H       -2.24426         3.95568        -3.12071
| 98>    H        0.45141         4.83572         0.80676
| 99>    H       -0.46160        10.73331         2.49606
|100>    H       -3.81145        12.63739        -0.43608
|101>    H       -4.92088        18.44720         1.42625
|102>    H       -1.79137        19.53613         4.95238
|103>    H       -3.25228        25.13336         7.18821
|104>    H       -7.32850        26.60137         5.02244
|105>    H       -8.96379        32.06506         7.49968
|106>    H       -7.30524        32.96472         9.31166
|107> *
|108>
|109>                          ****END OF INPUT****

CARTESIAN COORDINATES (ANGSTROEM)
---------------------------------
  C     -0.005110   -2.261830   -3.128180
  C     -0.851060   -1.554260   -3.926880
  C     -0.991830   -0.227960   -3.475280
  C     -0.232320    0.028740   -2.327670
  S      0.642880   -1.341780   -1.810450
  C     -0.434940    1.385060   -1.942250
  C     -1.323670    1.976280   -2.849600
  C     -1.701810    0.981600   -3.847040
  C     -2.542450    1.161300   -4.906150
  C     -3.170940    2.397980   -5.162510
  N     -3.682370    3.402860   -5.371280
  C     -2.836950    0.125000   -5.816950
  N     -3.079120   -0.713710   -6.560390
  C     -1.591390    3.314390   -2.556140
  C     -0.908950    3.742050   -1.433120
  S      0.078070    2.469730   -0.728310
  C     -0.934810    5.031370   -0.841490
  C     -0.225650    5.468380    0.261310
  C     -0.498240    6.803770    0.560770
  C     -1.425250    7.383890   -0.320650
  S     -1.958290    6.290080   -1.519390
  C     -1.635900    8.731670    0.066850
  C     -0.837730    9.005120    1.190180
  C     -0.098600    7.801830    1.540190
  C      0.777900    7.641920    2.572570
  C      1.083400    8.690600    3.465570
  N      1.331820    9.541620    4.192520
  C      1.433240    6.416550    2.816400
  N      1.966680    5.421490    3.016360
  C     -0.977700   10.314000    1.651020
  C     -1.880330   11.035400    0.891480
  S     -2.562920   10.081120   -0.418940
  C     -2.286390   12.380900    1.076210
  C     -3.253240   13.074890    0.372140
  C     -3.409450   14.377040    0.846520
  C     -2.547100   14.678240    1.914250
  S     -1.548660   13.358740    2.338340
  C     -2.796210   16.008580    2.335560
  C     -3.823350   16.545640    1.541240
  C     -4.236040   15.542200    0.572450
  C     -5.194450   15.667600   -0.389460
  C     -5.936770   16.855750   -0.556580
  N     -6.541260   17.820470   -0.692300
  C     -5.503180   14.618340   -1.280770
  N     -5.753590   13.765930   -2.005480
  C     -4.160000   17.851370    1.897700
  C     -3.391700   18.314090    2.949950
  S     -2.232110   17.115200    3.508100
  C     -3.470540   19.576820    3.589760
  C     -2.637950   20.079470    4.572460
  C     -3.034140   21.349420    4.991660
  C     -4.182280   21.811950    4.327230
  S     -4.763930   20.694240    3.174560
  C     -4.519480   23.089460    4.842480
  C     -3.580110   23.437910    5.826760
  C     -2.609890   22.361160    5.947220
  C     -1.528510   22.312070    6.776620
  C     -1.214530   23.364730    7.662060
  N     -0.959680   24.219610    8.382310
  C     -0.651160   21.207320    6.799760
  N      0.063540   20.311060    6.816910
  C     -3.841810   24.676610    6.413610
  C     -4.975350   25.267600    5.888380
  S     -5.724860   24.282580    4.639650
  C     -5.557080   26.507400    6.259300
  C     -6.722880   27.071070    5.776660
  C     -7.001340   28.294520    6.388190
  C     -6.039080   28.662450    7.337580
  S     -4.790760   27.507750    7.484800
  C     -6.417670   29.914280    7.902160
  C     -7.616100   30.328040    7.308620
  C     -8.027680   29.329620    6.339550
  C     -9.140720   29.343940    5.551100
  C    -10.076180   30.399130    5.590010
  N    -10.840390   31.253570    5.618430
  C     -9.431430   28.301220    4.646520
  N     -9.668910   27.453360    3.911890
  C     -8.066920   31.562960    7.813180
  C     -7.217740   32.050660    8.759350
  S     -5.852150   31.028480    9.064280
  H      0.288130   -3.287620   -3.228110
  H     -1.342960   -1.966000   -4.789010
  H     -2.244260    3.955680   -3.120710
  H      0.451410    4.835720    0.806760
  H     -0.461600   10.733310    2.496060
  H     -3.811450   12.637390   -0.436080
  H     -4.920880   18.447200    1.426250
  H     -1.791370   19.536130    4.952380
  H     -3.252280   25.133360    7.188210
  H     -7.328500   26.601370    5.022440
  H     -8.963790   32.065060    7.499680
  H     -7.305240   32.964720    9.311660

 Total Charge           Charge          ....    0
 Multiplicity           Mult            ....    1
 Number of Electrons    NEL             ....  602
 Basis Dimension        Dim             .... 1220

ORBITAL ENERGIES
----------------

  NO   OCC          E(Eh)            E(eV)
   0   2.0000     -88.995600     -2421.6934
   1   2.0000     -88.995520     -2421.6912
   2   2.0000     -88.995465     -2421.6897
   3   2.0000     -88.995394     -2421.6878
   4   2.0000     -88.994910     -2421.6746
   5   2.0000     -88.994711     -2421.6692
   6   2.0000     -88.993306     -2421.6310
   7   2.0000     -88.993032     -2421.6235
   8   2.0000     -88.988718     -2421.5061
   9   2.0000     -88.988548     -2421.5015
  10   2.0000     -14.435328      -392.8052
  11   2.0000     -14.435287      -392.8041
  12   2.0000     -14.435248      -392.8031
  13   2.0000     -14.435246      -392.8030
  14   2.0000     -14.435218      -392.8023
  15   2.0000     -14.435081      -392.7985
  16   2.0000     -14.431206      -392.6931
  17   2.0000     -14.431171      -392.6921
  18   2.0000     -14.430021      -392.6608
  19   2.0000     -14.429951      -392.6589
  20   2.0000     -10.370043      -282.1832
  21   2.0000     -10.369683      -282.1734
  22   2.0000     -10.369634      -282.1721
  23   2.0000     -10.364594      -282.0349
  24   2.0000     -10.364568      -282.0342
  25   2.0000     -10.356897      -281.8255
  26   2.0000     -10.356738      -281.8212
  27   2.0000     -10.356708      -281.8204
  28   2.0000     -10.352259      -281.6993
  29   2.0000     -10.352178      -281.6971
  30   2.0000     -10.336889      -281.2811
  31   2.0000     -10.336712      -281.2762
  32   2.0000     -10.336693      -281.2757
  33   2.0000     -10.336681      -281.2754
  34   2.0000     -10.335860      -281.2530
  35   2.0000     -10.335820      -281.2520
  36   2.0000     -10.335589      -281.2457
  37   2.0000     -10.335553      -281.2447
  38   2.0000     -10.335527      -281.2440
  39   2.0000     -10.335518      -281.2438
  40   2.0000     -10.335490      -281.2430
  41   2.0000     -10.335373      -281.2398
  42   2.0000     -10.334497      -281.2160
  43   2.0000     -10.334430      -281.2141
  44   2.0000     -10.334034      -281.2034
  45   2.0000     -10.334025      -281.2031
  46   2.0000     -10.333661      -281.1932
  47   2.0000     -10.333547      -281.1901
  48   2.0000     -10.333073      -281.1772
  49   2.0000     -10.332929      -281.1733
  50   2.0000     -10.331735      -281.1408
  51   2.0000     -10.331706      -281.1400
  52   2.0000     -10.331656      -281.1387
  53   2.0000     -10.331533      -281.1353
  54   2.0000     -10.330609      -281.1102
  55   2.0000     -10.330590      -281.1096
  56   2.0000     -10.330320      -281.1023
  57   2.0000     -10.330237      -281.1000
  58   2.0000     -10.312622      -280.6207
  59   2.0000     -10.312466      -280.6165
  60   2.0000     -10.308215      -280.5008
  61   2.0000     -10.308178      -280.4998
  62   2.0000     -10.307766      -280.4886
  63   2.0000     -10.307756      -280.4883
  64   2.0000     -10.307508      -280.4815
  65   2.0000     -10.307490      -280.4811
  66   2.0000     -10.306963      -280.4667
  67   2.0000     -10.306912      -280.4653
  68   2.0000     -10.306893      -280.4648
  69   2.0000     -10.306822      -280.4629
  70   2.0000     -10.305838      -280.4361
  71   2.0000     -10.305832      -280.4359
  72   2.0000     -10.304524      -280.4004
  73   2.0000     -10.304512      -280.4000
  74   2.0000     -10.304069      -280.3880
  75   2.0000     -10.304057      -280.3876
  76   2.0000     -10.300277      -280.2848
  77   2.0000     -10.300212      -280.2830
  78   2.0000     -10.298392      -280.2335
  79   2.0000     -10.298385      -280.2333
  80   2.0000      -8.090094      -220.1426
  81   2.0000      -8.090033      -220.1410
  82   2.0000      -8.089909      -220.1376
  83   2.0000      -8.089896      -220.1373
  84   2.0000      -8.089269      -220.1202
  85   2.0000      -8.089182      -220.1178
  86   2.0000      -8.087666      -220.0766
  87   2.0000      -8.087532      -220.0729
  88   2.0000      -8.083733      -219.9696
  89   2.0000      -8.083642      -219.9671
  90   2.0000      -6.059383      -164.8842
  91   2.0000      -6.059363      -164.8836
  92   2.0000      -6.059217      -164.8797
  93   2.0000      -6.059203      -164.8793
  94   2.0000      -6.058593      -164.8627
  95   2.0000      -6.058479      -164.8596
  96   2.0000      -6.056973      -164.8186
  97   2.0000      -6.056812      -164.8142
  98   2.0000      -6.055201      -164.7704
  99   2.0000      -6.055190      -164.7701
 100   2.0000      -6.055035      -164.7659
 101   2.0000      -6.055021      -164.7655
 102   2.0000      -6.054389      -164.7483
 103   2.0000      -6.054313      -164.7462
 104   2.0000      -6.052986      -164.7101
 105   2.0000      -6.052893      -164.7076
 106   2.0000      -6.052794      -164.7049
 107   2.0000      -6.052671      -164.7016
 108   2.0000      -6.052290      -164.6912
 109   2.0000      -6.052280      -164.6909
 110   2.0000      -6.052155      -164.6875
 111   2.0000      -6.052121      -164.6866
 112   2.0000      -6.051543      -164.6709
 113   2.0000      -6.051429      -164.6677
 114   2.0000      -6.049968      -164.6280
 115   2.0000      -6.049794      -164.6233
 116   2.0000      -6.048523      -164.5887
 117   2.0000      -6.048431      -164.5862
 118   2.0000      -6.046353      -164.5296
 119   2.0000      -6.046238      -164.5265
 120   2.0000      -1.051711       -28.6185
 121   2.0000      -1.049928       -28.5700
 122   2.0000      -1.048000       -28.5175
 123   2.0000      -1.044240       -28.4152
 124   2.0000      -1.044091       -28.4112
 125   2.0000      -1.027667       -27.9642
 126   2.0000      -1.027178       -27.9509
 127   2.0000      -1.026398       -27.9297
 128   2.0000      -1.022459       -27.8225
 129   2.0000      -1.022340       -27.8193
 130   2.0000      -1.014367       -27.6023
 131   2.0000      -1.012962       -27.5641
 132   2.0000      -1.012849       -27.5610
 133   2.0000      -1.011935       -27.5362
 134   2.0000      -1.008581       -27.4449
 135   2.0000      -1.008173       -27.4338
 136   2.0000      -1.007014       -27.4022
 137   2.0000      -1.000409       -27.2225
 138   2.0000      -0.993011       -27.0212
 139   2.0000      -0.988278       -26.8924
 140   2.0000      -0.969299       -26.3760
 141   2.0000      -0.963310       -26.2130
 142   2.0000      -0.958914       -26.0934
 143   2.0000      -0.955518       -26.0010
 144   2.0000      -0.955361       -25.9967
 145   2.0000      -0.927266       -25.2322
 146   2.0000      -0.921489       -25.0750
 147   2.0000      -0.913439       -24.8559
 148   2.0000      -0.905034       -24.6272
 149   2.0000      -0.900899       -24.5147
 150   2.0000      -0.877070       -23.8663
 151   2.0000      -0.876935       -23.8626
 152   2.0000      -0.873987       -23.7824
 153   2.0000      -0.871264       -23.7083
 154   2.0000      -0.869026       -23.6474
 155   2.0000      -0.864611       -23.5273
 156   2.0000      -0.859740       -23.3947
 157   2.0000      -0.855584       -23.2816
 158   2.0000      -0.853017       -23.2118
 159   2.0000      -0.851510       -23.1708
 160   2.0000      -0.847938       -23.0736
 161   2.0000      -0.834040       -22.6954
 162   2.0000      -0.816301       -22.2127
 163   2.0000      -0.797796       -21.7091
 164   2.0000      -0.785574       -21.3766
 165   2.0000      -0.781613       -21.2688
 166   2.0000      -0.777793       -21.1648
 167   2.0000      -0.777115       -21.1464
 168   2.0000      -0.775693       -21.1077
 169   2.0000      -0.767470       -20.8839
 170   2.0000      -0.752499       -20.4765
 171   2.0000      -0.733145       -19.9499
 172   2.0000      -0.717671       -19.5288
 173   2.0000      -0.710999       -19.3473
 174   2.0000      -0.704084       -19.1591
 175   2.0000      -0.704026       -19.1575
 176   2.0000      -0.703280       -19.1372
 177   2.0000      -0.697530       -18.9808
 178   2.0000      -0.693792       -18.8790
 179   2.0000      -0.690100       -18.7786
 180   2.0000      -0.684335       -18.6217
 181   2.0000      -0.683207       -18.5910
 182   2.0000      -0.678149       -18.4534
 183   2.0000      -0.676155       -18.3991
 184   2.0000      -0.662854       -18.0372
 185   2.0000      -0.658618       -17.9219
 186   2.0000      -0.639210       -17.3938
 187   2.0000      -0.638464       -17.3735
 188   2.0000      -0.634841       -17.2749
 189   2.0000      -0.632588       -17.2136
 190   2.0000      -0.629483       -17.1291
 191   2.0000      -0.626348       -17.0438
 192   2.0000      -0.625109       -17.0101
 193   2.0000      -0.623707       -16.9719
 194   2.0000      -0.621767       -16.9191
 195   2.0000      -0.620440       -16.8830
 196   2.0000      -0.618260       -16.8237
 197   2.0000      -0.614772       -16.7288
 198   2.0000      -0.610091       -16.6014
 199   2.0000      -0.609921       -16.5968
 200   2.0000      -0.580340       -15.7919
 201   2.0000      -0.579551       -15.7704
 202   2.0000      -0.571510       -15.5516
 203   2.0000      -0.564263       -15.3544
 204   2.0000      -0.555109       -15.1053
 205   2.0000      -0.552944       -15.0464
 206   2.0000      -0.550346       -14.9757
 207   2.0000      -0.548777       -14.9330
 208   2.0000      -0.548359       -14.9216
 209   2.0000      -0.546316       -14.8660
 210   2.0000      -0.546037       -14.8584
 211   2.0000      -0.536655       -14.6031
 212   2.0000      -0.534479       -14.5439
 213   2.0000      -0.524920       -14.2838
 214   2.0000      -0.520765       -14.1707
 215   2.0000      -0.519849       -14.1458
 216   2.0000      -0.514401       -13.9976
 217   2.0000      -0.513536       -13.9740
 218   2.0000      -0.513114       -13.9626
 219   2.0000      -0.511407       -13.9161
 220   2.0000      -0.510728       -13.8976
 221   2.0000      -0.505082       -13.7440
 222   2.0000      -0.504105       -13.7174
 223   2.0000      -0.503345       -13.6967
 224   2.0000      -0.503126       -13.6907
 225   2.0000      -0.501122       -13.6362
 226   2.0000      -0.500183       -13.6107
 227   2.0000      -0.497970       -13.5505
 228   2.0000      -0.495358       -13.4794
 229   2.0000      -0.494312       -13.4509
 230   2.0000      -0.493067       -13.4170
 231   2.0000      -0.491271       -13.3682
 232   2.0000      -0.488745       -13.2994
 233   2.0000      -0.486912       -13.2495
 234   2.0000      -0.485480       -13.2106
 235   2.0000      -0.484065       -13.1721
 236   2.0000      -0.482858       -13.1392
 237   2.0000      -0.475744       -12.9456
 238   2.0000      -0.474618       -12.9150
 239   2.0000      -0.472348       -12.8533
 240   2.0000      -0.466322       -12.6893
 241   2.0000      -0.466249       -12.6873
 242   2.0000      -0.466177       -12.6853
 243   2.0000      -0.466024       -12.6812
 244   2.0000      -0.464569       -12.6416
 245   2.0000      -0.462811       -12.5937
 246   2.0000      -0.462424       -12.5832
 247   2.0000      -0.462362       -12.5815
 248   2.0000      -0.461997       -12.5716
 249   2.0000      -0.461968       -12.5708
 250   2.0000      -0.458042       -12.4639
 251   2.0000      -0.458021       -12.4634
 252   2.0000      -0.457692       -12.4544
 253   2.0000      -0.452466       -12.3122
 254   2.0000      -0.448311       -12.1992
 255   2.0000      -0.446098       -12.1389
 256   2.0000      -0.445512       -12.1230
 257   2.0000      -0.445443       -12.1211
 258   2.0000      -0.445405       -12.1201
 259   2.0000      -0.445295       -12.1171
 260   2.0000      -0.444594       -12.0980
 261   2.0000      -0.444072       -12.0838
 262   2.0000      -0.443989       -12.0816
 263   2.0000      -0.442946       -12.0532
 264   2.0000      -0.441584       -12.0161
 265   2.0000      -0.441005       -12.0004
 266   2.0000      -0.440869       -11.9967
 267   2.0000      -0.440271       -11.9804
 268   2.0000      -0.439727       -11.9656
 269   2.0000      -0.438412       -11.9298
 270   2.0000      -0.438323       -11.9274
 271   2.0000      -0.437152       -11.8955
 272   2.0000      -0.431823       -11.7505
 273   2.0000      -0.430334       -11.7100
 274   2.0000      -0.429042       -11.6748
 275   2.0000      -0.426206       -11.5977
 276   2.0000      -0.426182       -11.5970
 277   2.0000      -0.424420       -11.5490
 278   2.0000      -0.414444       -11.2776
 279   2.0000      -0.409761       -11.1502
 280   2.0000      -0.409484       -11.1426
 281   2.0000      -0.396481       -10.7888
 282   2.0000      -0.391932       -10.6650
 283   2.0000      -0.382927       -10.4200
 284   2.0000      -0.367699       -10.0056
 285   2.0000      -0.357557        -9.7296
 286   2.0000      -0.355128        -9.6635
 287   2.0000      -0.352646        -9.5960
 288   2.0000      -0.349926        -9.5220
 289   2.0000      -0.347964        -9.4686
 290   2.0000      -0.347892        -9.4666
 291   2.0000      -0.328449        -8.9376
 292   2.0000      -0.328418        -8.9367
 293   2.0000      -0.326378        -8.8812
 294   2.0000      -0.324324        -8.8253
 295   2.0000      -0.322116        -8.7652
 296   2.0000      -0.320145        -8.7116
 297   2.0000      -0.298925        -8.1342
 298   2.0000      -0.275036        -7.4841
 299   2.0000      -0.252727        -6.8771
 300   2.0000      -0.236104        -6.4247
 301   0.0000      -0.114107        -3.1050
 302   0.0000      -0.109048        -2.9673
 303   0.0000      -0.106850        -2.9075
 304   0.0000      -0.102698        -2.7946
 305   0.0000      -0.102655        -2.7934

MULLIKEN ATOMIC CHARGES
-----------------------
   0 C :   -0.081487
   1 C :    0.036949
   2 C :   -0.030958
   3 C :   -0.117171
   4 S :    0.184763
   5 C :   -0.099057
   6 C :    0.014073
   7 C :    0.296949
   8 C :   -0.296041
   9 C :   -0.186482
  10 N :    0.170319
  11 C :   -0.188778
  12 N :    0.172850
  13 C :   -0.066747
  14 C :   -0.053562
  15 S :    0.192010
  16 C :   -0.048195
  17 C :   -0.069209
  18 C :    0.015784
  19 C :   -0.098271
  20 S :    0.198165
  21 C :   -0.098548
  22 C :    0.015840
  23 C :    0.300067
  24 C :   -0.294011
  25 C :   -0.187003
  26 N :    0.171361
  27 C :   -0.187518
  28 N :    0.173262
  29 C :   -0.067523
  30 C :   -0.050844
  31 S :    0.197790
  32 C :   -0.049912
  33 C :   -0.067529
  34 C :    0.016065
  35 C :   -0.099410
  36 S :    0.197312
  37 C :   -0.098109
  38 C :    0.016480
  39 C :    0.299312
  40 C :   -0.291617
  41 C :   -0.188012
  42 N :    0.173937
  43 C :   -0.187308
  44 N :    0.172249
  45 C :   -0.067278
  46 C :   -0.051000
  47 S :    0.197772
  48 C :   -0.054159
  49 C :   -0.063095
  50 C :    0.014310
  51 C :   -0.097805
  52 S :    0.198185
  53 C :   -0.100690
  54 C :    0.018450
  55 C :    0.298808
  56 C :   -0.294415
  57 C :   -0.187321
  58 N :    0.171125
  59 C :   -0.188436
  60 N :    0.175037
  61 C :   -0.070687
  62 C :   -0.047061
  63 S :    0.198318
  64 C :   -0.051649
  65 C :   -0.069171
  66 C :    0.017529
  67 C :   -0.100786
  68 S :    0.192491
  69 C :   -0.117179
  70 C :   -0.032008
  71 C :    0.295151
  72 C :   -0.296796
  73 C :   -0.190712
  74 N :    0.177265
  75 C :   -0.186578
  76 N :    0.168295
  77 C :    0.040815
  78 C :   -0.083483
  79 S :    0.184835
  80 H :    0.037323
  81 H :    0.012194
  82 H :    0.011521
  83 H :    0.011146
  84 H :    0.010910
  85 H :    0.011537
  86 H :    0.011973
  87 H :    0.010946
  88 H :    0.011275
  89 H :    0.011735
  90 H :    0.012430
  91 H :    0.036698
Sum of atomic charges:   -0.0000000

LOEWDIN ATOMIC CHARGES
----------------------
   0 C :   -0.177481
   1 C :   -0.033594
   2 C :   -0.077123
   3 C :   -0.184475
   4 S :    0.480267
   5 C :   -0.179357
   6 C :   -0.069106
   7 C :    0.083519
   8 C :   -0.103112
   9 C :   -0.015994
  10 N :   -0.035162
  11 C :   -0.017015
  12 N :   -0.031962
  13 C :   -0.038927
  14 C :   -0.182395
  15 S :    0.483913
  16 C :   -0.177652
  17 C :   -0.040761
  18 C :   -0.068668
  19 C :   -0.181072
  20 S :    0.486685
  21 C :   -0.179001
  22 C :   -0.069511
  23 C :    0.083348
  24 C :   -0.100802
  25 C :   -0.016222
  26 N :   -0.031899
  27 C :   -0.016063
  28 N :   -0.032199
  29 C :   -0.038794
  30 C :   -0.180419
  31 S :    0.486019
  32 C :   -0.179337
  33 C :   -0.039218
  34 C :   -0.068548
  35 C :   -0.180198
  36 S :    0.485338
  37 C :   -0.179958
  38 C :   -0.068631
  39 C :    0.082757
  40 C :   -0.099787
  41 C :   -0.016340
  42 N :   -0.030875
  43 C :   -0.016227
  44 N :   -0.030956
  45 C :   -0.039358
  46 C :   -0.179498
  47 S :    0.485376
  48 C :   -0.180489
  49 C :   -0.038706
  50 C :   -0.069508
  51 C :   -0.178953
  52 S :    0.486004
  53 C :   -0.181082
  54 C :   -0.068719
  55 C :    0.083294
  56 C :   -0.100877
  57 C :   -0.015893
  58 N :   -0.032358
  59 C :   -0.016479
  60 N :   -0.031751
  61 C :   -0.040743
  62 C :   -0.177637
  63 S :    0.486608
  64 C :   -0.182393
  65 C :   -0.038949
  66 C :   -0.069263
  67 C :   -0.179233
  68 S :    0.483934
  69 C :   -0.184492
  70 C :   -0.077038
  71 C :    0.083469
  72 C :   -0.103249
  73 C :   -0.017227
  74 N :   -0.031862
  75 C :   -0.015781
  76 N :   -0.035347
  77 C :   -0.033520
  78 C :   -0.177286
  79 S :    0.480231
  80 H :    0.028072
  81 H :    0.042729
  82 H :    0.035303
  83 H :    0.035368
  84 H :    0.035525
  85 H :    0.035679
  86 H :    0.035876
  87 H :    0.035695
  88 H :    0.035400
  89 H :    0.035355
  90 H :    0.042755
  91 H :    0.028008

  Mayer bond orders larger than 0.100000
B(  0-C ,  1-C ) :   1.5489 B(  0-C ,  4-S ) :   1.1501 B(  0-C , 80-H ) :   0.9641
B(  1-C ,  2-C ) :   1.2767 B(  1-C , 81-H ) :   0.9968 B(  2-C ,  3-C ) :   1.4563
B(  2-C ,  7-C ) :   1.0162 B(  3-C ,  4-S ) :   1.1383 B(  3-C ,  5-C ) :   1.1801
B(  5-C ,  6-C ) :   1.4638 B(  5-C , 15-S ) :   1.1228 B(  6-C ,  7-C ) :   0.9920
B(  6-C , 13-C ) :   1.2945 B(  7-C ,  8-C ) :   1.7125 B(  8-C ,  9-C ) :   1.1321
B(  8-C , 11-C ) :   1.1286 B(  9-C , 10-N ) :   2.9905 B( 11-C , 12-N ) :   3.0021
B( 13-C , 14-C ) :   1.4649 B( 13-C , 82-H ) :   0.9876 B( 14-C , 15-S ) :   1.1101
B( 14-C , 16-C ) :   1.1648 B( 16-C , 17-C ) :   1.4630 B( 16-C , 20-S ) :   1.1098
B( 17-C , 18-C ) :   1.2950 B( 17-C , 83-H ) :   0.9879 B( 18-C , 19-C ) :   1.4478
B( 18-C , 23-C ) :   0.9954 B( 19-C , 20-S ) :   1.1192 B( 19-C , 21-C ) :   1.1840
B( 21-C , 22-C ) :   1.4474 B( 21-C , 31-S ) :   1.1211 B( 22-C , 23-C ) :   0.9931
B( 22-C , 29-C ) :   1.2975 B( 23-C , 24-C ) :   1.7153 B( 24-C , 25-C ) :   1.1315
B( 24-C , 27-C ) :   1.1327 B( 25-C , 26-N ) :   2.9909 B( 27-C , 28-N ) :   2.9916
B( 29-C , 30-C ) :   1.4594 B( 29-C , 84-H ) :   0.9880 B( 30-C , 31-S ) :   1.1074
B( 30-C , 32-C ) :   1.1670 B( 32-C , 33-C ) :   1.4590 B( 32-C , 36-S ) :   1.1083
B( 33-C , 34-C ) :   1.2971 B( 33-C , 85-H ) :   0.9882 B( 34-C , 35-C ) :   1.4466
B( 34-C , 39-C ) :   0.9937 B( 35-C , 36-S ) :   1.1194 B( 35-C , 37-C ) :   1.1856
B( 37-C , 38-C ) :   1.4459 B( 37-C , 47-S ) :   1.1200 B( 38-C , 39-C ) :   0.9954
B( 38-C , 45-C ) :   1.2968 B( 39-C , 40-C ) :   1.7154 B( 40-C , 41-C ) :   1.1325
B( 40-C , 43-C ) :   1.1318 B( 41-C , 42-N ) :   2.9912 B( 43-C , 44-N ) :   2.9907
B( 45-C , 46-C ) :   1.4596 B( 45-C , 86-H ) :   0.9880 B( 46-C , 47-S ) :   1.1078
B( 46-C , 48-C ) :   1.1666 B( 48-C , 49-C ) :   1.4596 B( 48-C , 52-S ) :   1.1077
B( 49-C , 50-C ) :   1.2970 B( 49-C , 87-H ) :   0.9879 B( 50-C , 51-C ) :   1.4483
B( 50-C , 55-C ) :   0.9947 B( 51-C , 52-S ) :   1.1206 B( 51-C , 53-C ) :   1.1845
B( 53-C , 54-C ) :   1.4488 B( 53-C , 63-S ) :   1.1197 B( 54-C , 55-C ) :   0.9955
B( 54-C , 61-C ) :   1.2954 B( 55-C , 56-C ) :   1.7138 B( 56-C , 57-C ) :   1.1334
B( 56-C , 59-C ) :   1.1324 B( 57-C , 58-N ) :   2.9910 B( 59-C , 60-N ) :   2.9929
B( 61-C , 62-C ) :   1.4646 B( 61-C , 88-H ) :   0.9875 B( 62-C , 63-S ) :   1.1089
B( 62-C , 64-C ) :   1.1627 B( 64-C , 65-C ) :   1.4665 B( 64-C , 68-S ) :   1.1087
B( 65-C , 66-C ) :   1.2949 B( 65-C , 89-H ) :   0.9873 B( 66-C , 67-C ) :   1.4648
B( 66-C , 71-C ) :   0.9924 B( 67-C , 68-S ) :   1.1236 B( 67-C , 69-C ) :   1.1806
B( 69-C , 70-C ) :   1.4573 B( 69-C , 79-S ) :   1.1371 B( 70-C , 71-C ) :   1.0173
B( 70-C , 77-C ) :   1.2762 B( 71-C , 72-C ) :   1.7112 B( 72-C , 73-C ) :   1.1303
B( 72-C , 75-C ) :   1.1332 B( 73-C , 74-N ) :   3.0040 B( 75-C , 76-N ) :   2.9898
B( 77-C , 78-C ) :   1.5473 B( 77-C , 90-H ) :   0.9963 B( 78-C , 79-S ) :   1.1514
B( 78-C , 91-H ) :   0.9647

-----------------------------------------------------------------------------
         ABSORPTION SPECTRUM VIA TRANSITION ELECTRIC DIPOLE MOMENTS
-----------------------------------------------------------------------------
State   Energy  Wavelength   fosc         T2         TX        TY        TZ
        (cm-1)    (nm)                  (au**2)     (au)      (au)      (au)
-----------------------------------------------------------------------------
   0   10341.3    967.0   0.585948613  18.65340  -0.82095   4.01834   1.35366
   1   11129.6    898.5   0.001099313   0.03252  -0.14505  -0.04456   0.09744
   2   11209.6    892.1   0.014265964   0.41897  -0.15501   0.58032   0.24118
   3   13739.0    727.9   0.156702391   3.75487   0.42722  -1.77377  -0.65274
   4   13770.6    726.2   0.003923086   0.09379   0.20616   0.21433   0.07316
   5   18625.6    536.9   0.000814332   0.01439  -0.09403  -0.04338   0.06058
   6   19697.9    507.7   0.115995816   1.93865   0.23455  -1.31237  -0.40164
   7   20286.2    492.9   0.000320009   0.00519   0.04018  -0.02108   0.05599
   8   22406.1    446.3   1.311794238  19.27411  -0.85180   4.07264   1.40076
   9   22767.6    439.2   0.000849343   0.01228   0.02114   0.08765  -0.06444
  10   23026.6    434.3   0.327776631   4.68623   0.42411  -2.00544  -0.69610
  11   24722.4    404.5   0.002190995   0.02918   0.16869  -0.00949   0.02506
  12   24899.0    401.6   0.245571871   3.24693   0.35480  -1.66919  -0.57865
  13   25300.4    395.3   1.477601445  19.22674   0.83851  -4.07604  -1.38186
  14   26901.5    371.7   0.022389905   0.27400   0.51320   0.09703  -0.03484
  15   27505.4    363.6   0.000664256   0.00795  -0.02578   0.06550   0.05473
  16   27664.6    361.5   0.003893655   0.04633   0.21362   0.02601  -0.00511
  17   29055.0    344.2   0.004874152   0.05523  -0.22990  -0.04656   0.01430
  18   29311.4    341.2   0.006732060   0.07561  -0.08379   0.22414   0.13547
  19   29909.0    334.3   0.001475151   0.01624   0.09751  -0.00876   0.08156
  20   30457.8    328.3   0.357921098   3.86870   0.65460  -1.59780  -0.94193
  21   31752.2    314.9   0.050790829   0.52661  -0.50553   0.08803  -0.51312
  22   31860.6    313.9   1.121406391  11.58735  -2.48851   0.26869  -2.30705
  23   31922.1    313.3   0.009438787   0.09734  -0.11185  -0.29116  -0.00761
  24   32174.9    310.8   1.507607243  15.42575   2.85737  -0.30119   2.67777
  25   32284.6    309.7   0.064970138   0.66251   0.16125  -0.63463  -0.48347
  26   32430.7    308.3   0.474951146   4.82134   1.56335  -0.24063   1.52294
  27   32518.2    307.5   0.000519550   0.00526  -0.00324   0.07199  -0.00817
  28   32631.0    306.5   0.350196844   3.53311  -1.30917   0.30978  -1.31272
  29   32669.0    306.1   0.333638245   3.36214  -0.19053  -1.78646  -0.36662
  30   33195.0    301.3   0.175971951   1.74521   0.89340  -0.24598   0.94156
  31   33266.3    300.6   0.226033515   2.23689  -0.26635   1.31313   0.66455
  32   33417.4    299.2   0.090970137   0.89619   0.70406  -0.14341   0.61639
  33   33801.0    295.8   0.033323412   0.32456   0.13731  -0.49837  -0.23946
  34   33870.6    295.2   0.027288356   0.26523   0.35587  -0.09423   0.36016
  35   34452.9    290.3   0.074827359   0.71501   0.65235  -0.17037   0.51031
  36   34530.9    289.6   0.140968161   1.34397  -0.25510   1.01235   0.50402
  37   34626.7    288.8   0.000378267   0.00360  -0.01620  -0.04374  -0.03769
  38   34849.6    286.9   0.306550620   2.89588  -0.35138   1.53336   0.64900
  39   34887.3    286.6   0.082844706   0.78176  -0.77108   0.11518  -0.41705
  40   35084.2    285.0   0.020443853   0.19183   0.01173  -0.42576  -0.10212
  41   35408.4    282.4   0.001205887   0.01121   0.10000   0.01923  -0.02901
  42   35721.3    279.9   0.176856088   1.62993   0.20435  -1.21124  -0.34794
  43   35883.5    278.7   0.049740441   0.45634  -0.39847   0.04073  -0.54397
  44   35993.7    277.8   0.017699896   0.16189  -0.10891   0.36433   0.13149
  45   36068.4    277.3   0.001494844   0.01364   0.11122  -0.02834  -0.02169
  46   36210.5    276.2   0.004696014   0.04269  -0.04507  -0.20145   0.00893
  47   37734.1    265.0   0.072960567   0.63655  -0.58808   0.06730  -0.53496
  48   37922.7    263.7   0.000571258   0.00496  -0.06445   0.01321   0.02510
  49   38172.5    262.0   0.050325868   0.43403   0.11843  -0.62963  -0.15350
  50   38236.8    261.5   0.016852304   0.14510  -0.28431  -0.07226  -0.24298
  51   38558.7    259.3   0.001125219   0.00961   0.08384  -0.00362   0.05064
  52   38765.1    258.0   0.012983533   0.11026  -0.03100   0.32204   0.07479
  53   39079.7    255.9   0.006793693   0.05723   0.03459  -0.23241  -0.04492
  54   39106.0    255.7   0.000659939   0.00556  -0.05303  -0.02371  -0.04670
  55   39173.9    255.3   0.023806752   0.20007  -0.29946   0.04794  -0.32878
  56   39529.2    253.0   0.001894993   0.01578  -0.01891   0.11820   0.03812
  57   39721.5    251.8   0.000186887   0.00155  -0.02554  -0.00275  -0.02981
  58   39909.7    250.6   0.017003945   0.14026  -0.12044   0.31602   0.16090
  59   40035.8    249.8   0.000119183   0.00098  -0.00963  -0.02779   0.01072
  60   40244.4    248.5   0.000668094   0.00547  -0.05729   0.01956  -0.04243

FINAL SINGLE POINT ENERGY     -6817.914062367234

DIPOLE MOMENT
-------------
                                X             Y             Z
Electronic contribution:      3.44744       0.32113       1.35245
Nuclear contribution   :     -2.11570      -0.53916       0.14828
                        -----------------------------------------
Total Dipole Moment    :      1.33174      -0.21803       1.50073
                        -----------------------------------------
Magnitude (a.u.)       :      2.01823
Magnitude (Debye)      :      5.12994

Rotational constants in cm-1:     0.002216     0.000115     0.000110
Rotational constants in MHz :    66.447630     3.449843     3.293525

                             ****ORCA TERMINATED NORMALLY****
TOTAL RUN TIME: 0 days 0 hours 9 minutes 42 seconds 803 msec
