                         Program Version 4.2.0 -  RELEASE  -
|  1> # ORCA input file
|  2> # SCF done       -178.390803887926          0.000819348759
|  3> ! CAM-B3LYP def2-SVP def2/J RIJCOSX Grid4 TightSCF
|  4> %maxcore 5000
|  5> %tddft
|  6>     Mode sTDDFT
|  7>     Ethresh 5.0
|  8>     maxcore 5000
|  9> end
| 10>
| 11> %pal
| 12>   nprocs 6
| 13>   end
| 14> * xyz 0 1
| 15>    C        0.30529         7.84529         7.07594
| 16>    C        0.29628         7.59862         5.74657
| 17>    C        0.23302         6.30040         5.20242
| 18>    C        0.16086         5.12802         6.07904
| 19>    C        0.16158         5.17651         7.43083
| 20>    S        0.24293         6.64090         8.31853
| 21>    C        0.10031         4.01075         5.20171
| 22>    C        0.13483         4.43999         3.87474
| 23>    C        0.07559         3.34968         2.97730
| 24>    C        0.00088         2.15963         3.63006
| 25>    S       -0.00147         2.30107         5.35222
| 26>    C        0.22236         5.88447         3.86461
| 27>    C        0.30135         6.76820         2.76230
| 28>    C        0.30906         6.42141         1.45066
| 29>    C        0.41154         7.32708         0.36405
| 30>    C        0.44758         8.71942         0.32576
| 31>    C        0.23031         9.53361         1.44482
| 32>    N       -0.00368        10.19576         2.35416
| 33>    C        0.60572         9.22474        -0.99721
| 34>    C        0.63952         8.20086        -1.93365
| 35>    S        0.53219         6.63016        -1.24316
| 36>    S        0.75763         8.71260        -3.58933
| 37>    C        0.77700        10.34782        -3.02313
| 38>    C        0.71459        10.49516        -1.63931
| 39>    C        0.79926        11.86299        -1.26523
| 40>    C        1.05013        12.28788         0.05252
| 41>    N        1.41849        12.55036         1.10788
| 42>    C        0.86981        12.70560        -2.36882
| 43>    S        0.92287        11.83165        -3.88146
| 44>    C        0.88040        14.13104        -2.39546
| 45>    C        0.34799        14.91551        -1.34751
| 46>    C        0.45796        16.34614        -1.34411
| 47>    N       -0.11318        17.05334        -0.35068
| 48>    C       -0.67594        16.41757         0.63503
| 49>    C       -0.77747        15.00819         0.63499
| 50>    N       -0.31801        14.29717        -0.35283
| 51>    C        1.11484        17.04494        -2.38249
| 52>    C        1.51625        16.27303        -3.48765
| 53>    C        1.39663        14.83755        -3.49655
| 54>    N        1.85559        14.31136        -4.63441
| 55>    S        2.37106        15.49178        -5.58979
| 56>    N        2.05655        16.73078        -4.61902
| 57>    C        1.33133        18.45247        -2.34777
| 58>    C        1.30068        19.30669        -1.25086
| 59>    C        1.39625        18.88340         0.08819
| 60>    N        1.67523        18.64306         1.17662
| 61>    C        1.46062        20.66696        -1.62847
| 62>    C        1.68401        20.79014        -2.99704
| 63>    S        1.65981        19.29340        -3.84634
| 64>    S        2.00472        22.40253        -3.54311
| 65>    C        1.80038        22.94028        -1.90486
| 66>    C        1.48840        21.94334        -0.99176
| 67>    C        1.23769        22.47850         0.30462
| 68>    C        0.69923        21.70689         1.34449
| 69>    N        0.18683        21.07978         2.15878
| 70>    C        1.42676        23.85687         0.35394
| 71>    S        1.87234        24.51241        -1.21038
| 72>    C        1.30356        24.75109         1.46119
| 73>    C        1.11378        24.34472         2.75644
| 74>    C        0.98742        25.20157         3.85239
| 75>    C        1.08267        26.66076         3.69291
| 76>    C        1.27819        27.28329         2.51232
| 77>    S        1.43344        26.45765         1.01709
| 78>    C        0.92505        27.18484         5.00160
| 79>    C        0.73499        26.14143         5.91511
| 80>    C        0.58455        26.63370         7.23335
| 81>    C        0.65711        27.98860         7.28063
| 82>    S        0.91110        28.73553         5.73960
| 83>    C        0.76774        24.89243         5.20070
| 84>    C        0.59632        23.56377         5.71417
| 85>    C        0.27809        23.23416         6.96668
| 86>    H        0.35378         8.84341         7.47636
| 87>    H        0.33663         8.44643         5.07714
| 88>    H        0.11118         4.28973         8.04261
| 89>    H        0.08451         3.41425         1.90485
| 90>    H       -0.05489         1.17930         3.19837
| 91>    H        0.37098         7.81574         3.01153
| 92>    H        0.25547         5.38104         1.16858
| 93>    H       -1.11544        17.02426         1.41331
| 94>    H       -1.29755        14.47261         1.41576
| 95>    H        1.06468        23.28185         2.93550
| 96>    H        1.34386        28.35600         2.41986
| 97>    H        0.43706        26.03491         8.11243
| 98>    H        0.57621        28.61971         8.14416
| 99>    H        0.73026        22.77026         4.99049
|100>    H        0.11151        23.96603         7.73593
|101>    H        0.16673        22.20393         7.25607
|102> *
|103>
|104>                          ****END OF INPUT****

CARTESIAN COORDINATES (ANGSTROEM)
---------------------------------
  C      0.305290    7.845290    7.075940
  C      0.296280    7.598620    5.746570
  C      0.233020    6.300400    5.202420
  C      0.160860    5.128020    6.079040
  C      0.161580    5.176510    7.430830
  S      0.242930    6.640900    8.318530
  C      0.100310    4.010750    5.201710
  C      0.134830    4.439990    3.874740
  C      0.075590    3.349680    2.977300
  C      0.000880    2.159630    3.630060
  S     -0.001470    2.301070    5.352220
  C      0.222360    5.884470    3.864610
  C      0.301350    6.768200    2.762300
  C      0.309060    6.421410    1.450660
  C      0.411540    7.327080    0.364050
  C      0.447580    8.719420    0.325760
  C      0.230310    9.533610    1.444820
  N     -0.003680   10.195760    2.354160
  C      0.605720    9.224740   -0.997210
  C      0.639520    8.200860   -1.933650
  S      0.532190    6.630160   -1.243160
  S      0.757630    8.712600   -3.589330
  C      0.777000   10.347820   -3.023130
  C      0.714590   10.495160   -1.639310
  C      0.799260   11.862990   -1.265230
  C      1.050130   12.287880    0.052520
  N      1.418490   12.550360    1.107880
  C      0.869810   12.705600   -2.368820
  S      0.922870   11.831650   -3.881460
  C      0.880400   14.131040   -2.395460
  C      0.347990   14.915510   -1.347510
  C      0.457960   16.346140   -1.344110
  N     -0.113180   17.053340   -0.350680
  C     -0.675940   16.417570    0.635030
  C     -0.777470   15.008190    0.634990
  N     -0.318010   14.297170   -0.352830
  C      1.114840   17.044940   -2.382490
  C      1.516250   16.273030   -3.487650
  C      1.396630   14.837550   -3.496550
  N      1.855590   14.311360   -4.634410
  S      2.371060   15.491780   -5.589790
  N      2.056550   16.730780   -4.619020
  C      1.331330   18.452470   -2.347770
  C      1.300680   19.306690   -1.250860
  C      1.396250   18.883400    0.088190
  N      1.675230   18.643060    1.176620
  C      1.460620   20.666960   -1.628470
  C      1.684010   20.790140   -2.997040
  S      1.659810   19.293400   -3.846340
  S      2.004720   22.402530   -3.543110
  C      1.800380   22.940280   -1.904860
  C      1.488400   21.943340   -0.991760
  C      1.237690   22.478500    0.304620
  C      0.699230   21.706890    1.344490
  N      0.186830   21.079780    2.158780
  C      1.426760   23.856870    0.353940
  S      1.872340   24.512410   -1.210380
  C      1.303560   24.751090    1.461190
  C      1.113780   24.344720    2.756440
  C      0.987420   25.201570    3.852390
  C      1.082670   26.660760    3.692910
  C      1.278190   27.283290    2.512320
  S      1.433440   26.457650    1.017090
  C      0.925050   27.184840    5.001600
  C      0.734990   26.141430    5.915110
  C      0.584550   26.633700    7.233350
  C      0.657110   27.988600    7.280630
  S      0.911100   28.735530    5.739600
  C      0.767740   24.892430    5.200700
  C      0.596320   23.563770    5.714170
  C      0.278090   23.234160    6.966680
  H      0.353780    8.843410    7.476360
  H      0.336630    8.446430    5.077140
  H      0.111180    4.289730    8.042610
  H      0.084510    3.414250    1.904850
  H     -0.054890    1.179300    3.198370
  H      0.370980    7.815740    3.011530
  H      0.255470    5.381040    1.168580
  H     -1.115440   17.024260    1.413310
  H     -1.297550   14.472610    1.415760
  H      1.064680   23.281850    2.935500
  H      1.343860   28.356000    2.419860
  H      0.437060   26.034910    8.112430
  H      0.576210   28.619710    8.144160
  H      0.730260   22.770260    4.990490
  H      0.111510   23.966030    7.735930
  H      0.166730   22.203930    7.256070

 Total Charge           Charge          ....    0
 Multiplicity           Mult            ....    1
 Number of Electrons    NEL             ....  560
 Basis Dimension        Dim             .... 1118

ORBITAL ENERGIES
----------------

  NO   OCC          E(Eh)            E(eV)
   0   2.0000     -89.045389     -2423.0482
   1   2.0000     -88.980227     -2421.2751
   2   2.0000     -88.980171     -2421.2736
   3   2.0000     -88.974791     -2421.1272
   4   2.0000     -88.973881     -2421.1024
   5   2.0000     -88.972147     -2421.0552
   6   2.0000     -88.971646     -2421.0416
   7   2.0000     -88.969321     -2420.9783
   8   2.0000     -88.967901     -2420.9397
   9   2.0000     -88.951278     -2420.4873
  10   2.0000     -88.950590     -2420.4686
  11   2.0000     -14.454798      -393.3351
  12   2.0000     -14.454606      -393.3298
  13   2.0000     -14.426537      -392.5660
  14   2.0000     -14.426188      -392.5565
  15   2.0000     -14.399533      -391.8312
  16   2.0000     -14.391690      -391.6178
  17   2.0000     -14.382982      -391.3808
  18   2.0000     -14.382588      -391.3701
  19   2.0000     -10.339973      -281.3650
  20   2.0000     -10.339712      -281.3579
  21   2.0000     -10.335067      -281.2315
  22   2.0000     -10.331832      -281.1434
  23   2.0000     -10.331217      -281.1267
  24   2.0000     -10.329216      -281.0723
  25   2.0000     -10.327248      -281.0187
  26   2.0000     -10.326122      -280.9881
  27   2.0000     -10.324643      -280.9478
  28   2.0000     -10.324003      -280.9304
  29   2.0000     -10.322768      -280.8968
  30   2.0000     -10.322467      -280.8886
  31   2.0000     -10.322345      -280.8853
  32   2.0000     -10.322016      -280.8763
  33   2.0000     -10.321568      -280.8641
  34   2.0000     -10.320849      -280.8446
  35   2.0000     -10.320234      -280.8278
  36   2.0000     -10.315613      -280.7021
  37   2.0000     -10.314535      -280.6728
  38   2.0000     -10.313806      -280.6529
  39   2.0000     -10.313309      -280.6394
  40   2.0000     -10.313213      -280.6368
  41   2.0000     -10.308034      -280.4959
  42   2.0000     -10.302727      -280.3515
  43   2.0000     -10.302336      -280.3408
  44   2.0000     -10.300418      -280.2886
  45   2.0000     -10.299774      -280.2711
  46   2.0000     -10.296774      -280.1895
  47   2.0000     -10.296299      -280.1765
  48   2.0000     -10.293554      -280.1018
  49   2.0000     -10.292927      -280.0848
  50   2.0000     -10.290944      -280.0308
  51   2.0000     -10.290272      -280.0125
  52   2.0000     -10.289978      -280.0045
  53   2.0000     -10.289797      -279.9996
  54   2.0000     -10.289691      -279.9967
  55   2.0000     -10.288630      -279.9679
  56   2.0000     -10.287861      -279.9469
  57   2.0000     -10.281590      -279.7763
  58   2.0000     -10.281337      -279.7694
  59   2.0000     -10.279932      -279.7312
  60   2.0000     -10.275597      -279.6132
  61   2.0000     -10.273987      -279.5694
  62   2.0000     -10.271964      -279.5143
  63   2.0000     -10.270346      -279.4703
  64   2.0000     -10.268945      -279.4322
  65   2.0000     -10.268905      -279.4311
  66   2.0000     -10.268389      -279.4171
  67   2.0000     -10.267460      -279.3918
  68   2.0000     -10.266355      -279.3617
  69   2.0000     -10.260557      -279.2039
  70   2.0000     -10.250401      -278.9276
  71   2.0000      -8.136527      -221.4061
  72   2.0000      -8.075455      -219.7443
  73   2.0000      -8.075279      -219.7395
  74   2.0000      -8.070035      -219.5968
  75   2.0000      -8.068167      -219.5460
  76   2.0000      -8.067403      -219.5252
  77   2.0000      -8.066640      -219.5044
  78   2.0000      -8.064929      -219.4579
  79   2.0000      -8.063631      -219.4225
  80   2.0000      -8.046724      -218.9625
  81   2.0000      -8.046126      -218.9462
  82   2.0000      -6.107604      -166.1964
  83   2.0000      -6.099920      -165.9873
  84   2.0000      -6.099221      -165.9682
  85   2.0000      -6.045279      -164.5004
  86   2.0000      -6.045138      -164.4966
  87   2.0000      -6.041018      -164.3844
  88   2.0000      -6.040782      -164.3780
  89   2.0000      -6.040007      -164.3570
  90   2.0000      -6.037891      -164.2994
  91   2.0000      -6.036937      -164.2734
  92   2.0000      -6.036840      -164.2708
  93   2.0000      -6.036323      -164.2567
  94   2.0000      -6.036115      -164.2510
  95   2.0000      -6.035778      -164.2419
  96   2.0000      -6.034503      -164.2072
  97   2.0000      -6.033370      -164.1764
  98   2.0000      -6.033353      -164.1759
  99   2.0000      -6.032179      -164.1439
 100   2.0000      -6.031848      -164.1349
 101   2.0000      -6.030843      -164.1076
 102   2.0000      -6.030341      -164.0939
 103   2.0000      -6.029737      -164.0775
 104   2.0000      -6.029661      -164.0754
 105   2.0000      -6.028810      -164.0523
 106   2.0000      -6.028242      -164.0368
 107   2.0000      -6.026431      -163.9875
 108   2.0000      -6.025137      -163.9523
 109   2.0000      -6.016140      -163.7075
 110   2.0000      -6.015556      -163.6916
 111   2.0000      -6.011927      -163.5928
 112   2.0000      -6.011318      -163.5763
 113   2.0000      -6.008793      -163.5076
 114   2.0000      -6.008151      -163.4901
 115   2.0000      -1.142554       -31.0905
 116   2.0000      -1.088235       -29.6124
 117   2.0000      -1.034731       -28.1565
 118   2.0000      -1.028814       -27.9955
 119   2.0000      -1.016351       -27.6563
 120   2.0000      -1.004598       -27.3365
 121   2.0000      -0.999824       -27.2066
 122   2.0000      -0.999066       -27.1860
 123   2.0000      -0.996485       -27.1157
 124   2.0000      -0.990341       -26.9486
 125   2.0000      -0.982850       -26.7447
 126   2.0000      -0.976899       -26.5828
 127   2.0000      -0.970638       -26.4124
 128   2.0000      -0.968336       -26.3498
 129   2.0000      -0.963638       -26.2219
 130   2.0000      -0.962962       -26.2035
 131   2.0000      -0.959722       -26.1154
 132   2.0000      -0.938637       -25.5416
 133   2.0000      -0.931849       -25.3569
 134   2.0000      -0.919940       -25.0328
 135   2.0000      -0.916567       -24.9411
 136   2.0000      -0.889788       -24.2124
 137   2.0000      -0.889036       -24.1919
 138   2.0000      -0.886292       -24.1172
 139   2.0000      -0.881632       -23.9904
 140   2.0000      -0.877442       -23.8764
 141   2.0000      -0.874466       -23.7954
 142   2.0000      -0.866281       -23.5727
 143   2.0000      -0.860799       -23.4235
 144   2.0000      -0.852375       -23.1943
 145   2.0000      -0.851637       -23.1742
 146   2.0000      -0.834458       -22.7068
 147   2.0000      -0.826860       -22.5000
 148   2.0000      -0.821664       -22.3586
 149   2.0000      -0.818336       -22.2680
 150   2.0000      -0.805633       -21.9224
 151   2.0000      -0.800093       -21.7716
 152   2.0000      -0.798812       -21.7368
 153   2.0000      -0.792358       -21.5612
 154   2.0000      -0.784697       -21.3527
 155   2.0000      -0.770316       -20.9614
 156   2.0000      -0.765523       -20.8309
 157   2.0000      -0.751131       -20.4393
 158   2.0000      -0.742064       -20.1926
 159   2.0000      -0.725736       -19.7483
 160   2.0000      -0.716312       -19.4918
 161   2.0000      -0.712972       -19.4010
 162   2.0000      -0.707935       -19.2639
 163   2.0000      -0.704468       -19.1696
 164   2.0000      -0.698020       -18.9941
 165   2.0000      -0.687100       -18.6969
 166   2.0000      -0.684171       -18.6172
 167   2.0000      -0.682481       -18.5712
 168   2.0000      -0.668010       -18.1775
 169   2.0000      -0.664348       -18.0778
 170   2.0000      -0.656320       -17.8594
 171   2.0000      -0.654752       -17.8167
 172   2.0000      -0.645574       -17.5670
 173   2.0000      -0.644771       -17.5451
 174   2.0000      -0.642033       -17.4706
 175   2.0000      -0.635499       -17.2928
 176   2.0000      -0.632579       -17.2133
 177   2.0000      -0.627935       -17.0870
 178   2.0000      -0.623898       -16.9771
 179   2.0000      -0.618203       -16.8222
 180   2.0000      -0.614446       -16.7199
 181   2.0000      -0.610968       -16.6253
 182   2.0000      -0.606734       -16.5101
 183   2.0000      -0.592048       -16.1104
 184   2.0000      -0.583655       -15.8821
 185   2.0000      -0.570990       -15.5374
 186   2.0000      -0.569553       -15.4983
 187   2.0000      -0.567542       -15.4436
 188   2.0000      -0.565735       -15.3944
 189   2.0000      -0.557258       -15.1638
 190   2.0000      -0.553197       -15.0532
 191   2.0000      -0.552537       -15.0353
 192   2.0000      -0.550299       -14.9744
 193   2.0000      -0.544152       -14.8071
 194   2.0000      -0.538328       -14.6486
 195   2.0000      -0.537650       -14.6302
 196   2.0000      -0.532914       -14.5013
 197   2.0000      -0.531773       -14.4703
 198   2.0000      -0.528090       -14.3701
 199   2.0000      -0.526295       -14.3212
 200   2.0000      -0.522522       -14.2185
 201   2.0000      -0.515812       -14.0360
 202   2.0000      -0.512026       -13.9329
 203   2.0000      -0.511861       -13.9285
 204   2.0000      -0.507922       -13.8213
 205   2.0000      -0.505459       -13.7542
 206   2.0000      -0.504178       -13.7194
 207   2.0000      -0.503933       -13.7127
 208   2.0000      -0.502914       -13.6850
 209   2.0000      -0.497265       -13.5313
 210   2.0000      -0.494281       -13.4501
 211   2.0000      -0.493979       -13.4418
 212   2.0000      -0.489327       -13.3153
 213   2.0000      -0.486630       -13.2419
 214   2.0000      -0.481554       -13.1038
 215   2.0000      -0.478901       -13.0315
 216   2.0000      -0.477509       -12.9937
 217   2.0000      -0.470523       -12.8036
 218   2.0000      -0.465924       -12.6784
 219   2.0000      -0.463036       -12.5998
 220   2.0000      -0.461321       -12.5532
 221   2.0000      -0.459268       -12.4973
 222   2.0000      -0.458035       -12.4638
 223   2.0000      -0.455877       -12.4050
 224   2.0000      -0.454229       -12.3602
 225   2.0000      -0.451082       -12.2746
 226   2.0000      -0.447818       -12.1857
 227   2.0000      -0.447372       -12.1736
 228   2.0000      -0.445501       -12.1227
 229   2.0000      -0.444241       -12.0884
 230   2.0000      -0.443034       -12.0556
 231   2.0000      -0.441971       -12.0266
 232   2.0000      -0.433424       -11.7941
 233   2.0000      -0.433008       -11.7828
 234   2.0000      -0.430903       -11.7255
 235   2.0000      -0.428326       -11.6553
 236   2.0000      -0.427347       -11.6287
 237   2.0000      -0.426925       -11.6172
 238   2.0000      -0.425947       -11.5906
 239   2.0000      -0.421854       -11.4792
 240   2.0000      -0.419522       -11.4158
 241   2.0000      -0.419119       -11.4048
 242   2.0000      -0.417796       -11.3688
 243   2.0000      -0.415998       -11.3199
 244   2.0000      -0.415015       -11.2931
 245   2.0000      -0.413309       -11.2467
 246   2.0000      -0.412863       -11.2346
 247   2.0000      -0.410531       -11.1711
 248   2.0000      -0.409320       -11.1382
 249   2.0000      -0.408662       -11.1202
 250   2.0000      -0.403039       -10.9672
 251   2.0000      -0.402398       -10.9498
 252   2.0000      -0.399454       -10.8697
 253   2.0000      -0.396901       -10.8002
 254   2.0000      -0.392974       -10.6934
 255   2.0000      -0.382497       -10.4083
 256   2.0000      -0.377884       -10.2828
 257   2.0000      -0.376151       -10.2356
 258   2.0000      -0.372461       -10.1352
 259   2.0000      -0.371592       -10.1115
 260   2.0000      -0.362916        -9.8754
 261   2.0000      -0.361882        -9.8473
 262   2.0000      -0.355934        -9.6855
 263   2.0000      -0.351874        -9.5750
 264   2.0000      -0.349282        -9.5044
 265   2.0000      -0.341439        -9.2910
 266   2.0000      -0.333533        -9.0759
 267   2.0000      -0.327148        -8.9021
 268   2.0000      -0.318329        -8.6622
 269   2.0000      -0.316792        -8.6203
 270   2.0000      -0.316191        -8.6040
 271   2.0000      -0.307734        -8.3739
 272   2.0000      -0.293753        -7.9934
 273   2.0000      -0.290473        -7.9042
 274   2.0000      -0.284379        -7.7384
 275   2.0000      -0.274667        -7.4741
 276   2.0000      -0.268515        -7.3067
 277   2.0000      -0.249371        -6.7857
 278   2.0000      -0.228286        -6.2120
 279   2.0000      -0.225619        -6.1394
 280   0.0000      -0.109496        -2.9795
 281   0.0000      -0.057347        -1.5605
 282   0.0000      -0.052836        -1.4378
 283   0.0000      -0.025990        -0.7072
 284   0.0000      -0.023097        -0.6285

MULLIKEN ATOMIC CHARGES
-----------------------
   0 C :   -0.100879
   1 C :    0.037982
   2 C :    0.015511
   3 C :    0.071552
   4 C :   -0.145479
   5 S :    0.133899
   6 C :   -0.119575
   7 C :    0.062388
   8 C :   -0.011939
   9 C :   -0.067857
  10 S :    0.123606
  11 C :    0.073714
  12 C :   -0.006363
  13 C :    0.028981
  14 C :   -0.084193
  15 C :   -0.045970
  16 C :   -0.287033
  17 N :    0.161528
  18 C :    0.156720
  19 C :   -0.243061
  20 S :    0.147455
  21 S :    0.174989
  22 C :   -0.206401
  23 C :    0.093383
  24 C :    0.056679
  25 C :   -0.298890
  26 N :    0.178036
  27 C :   -0.210335
  28 S :    0.197754
  29 C :    0.115863
  30 C :   -0.044743
  31 C :   -0.044935
  32 N :   -0.058736
  33 C :    0.068906
  34 C :    0.066325
  35 N :   -0.049291
  36 C :    0.131192
  37 C :    0.000826
  38 C :    0.006414
  39 N :   -0.305165
  40 S :    0.552646
  41 N :   -0.314988
  42 C :   -0.205980
  43 C :    0.054525
  44 C :   -0.282229
  45 N :    0.157646
  46 C :    0.093023
  47 C :   -0.203033
  48 S :    0.195173
  49 S :    0.180448
  50 C :   -0.235297
  51 C :    0.144312
  52 C :   -0.040183
  53 C :   -0.284300
  54 N :    0.176713
  55 C :   -0.063081
  56 S :    0.157962
  57 C :   -0.054615
  58 C :   -0.054266
  59 C :    0.036665
  60 C :    0.073006
  61 C :   -0.120413
  62 S :    0.099526
  63 C :   -0.115251
  64 C :    0.051426
  65 C :    0.002023
  66 C :   -0.070704
  67 S :    0.123201
  68 C :    0.063965
  69 C :   -0.019893
  70 C :   -0.022398
  71 H :    0.051029
  72 H :    0.016030
  73 H :    0.035387
  74 H :   -0.012419
  75 H :    0.022259
  76 H :   -0.020165
  77 H :   -0.059233
  78 H :    0.033745
  79 H :    0.031230
  80 H :   -0.002769
  81 H :    0.034498
  82 H :   -0.015040
  83 H :    0.023377
  84 H :   -0.006115
  85 H :   -0.003825
  86 H :    0.023523
Sum of atomic charges:   -0.0000000

LOEWDIN ATOMIC CHARGES
----------------------
   0 C :   -0.176679
   1 C :   -0.021619
   2 C :   -0.007669
   3 C :   -0.048250
   4 C :   -0.143642
   5 S :    0.459738
   6 C :   -0.205180
   7 C :   -0.036340
   8 C :   -0.068303
   9 C :   -0.168715
  10 S :    0.419821
  11 C :   -0.062757
  12 C :    0.017917
  13 C :   -0.085625
  14 C :   -0.112070
  15 C :   -0.120176
  16 C :   -0.028824
  17 N :   -0.061131
  18 C :   -0.057486
  19 C :   -0.343892
  20 S :    0.436293
  21 S :    0.414253
  22 C :   -0.332873
  23 C :   -0.065385
  24 C :   -0.074578
  25 C :   -0.035654
  26 N :   -0.056927
  27 C :   -0.135407
  28 S :    0.477072
  29 C :   -0.042852
  30 C :    0.000076
  31 C :    0.001791
  32 N :   -0.012624
  33 C :    0.043142
  34 C :    0.039684
  35 N :   -0.013283
  36 C :   -0.046411
  37 C :   -0.047173
  38 C :   -0.047761
  39 N :   -0.298392
  40 S :    0.676576
  41 N :   -0.302537
  42 C :   -0.133514
  43 C :   -0.075661
  44 C :   -0.034949
  45 N :   -0.063173
  46 C :   -0.065279
  47 C :   -0.333511
  48 S :    0.478813
  49 S :    0.419129
  50 C :   -0.339445
  51 C :   -0.057248
  52 C :   -0.105362
  53 C :   -0.032857
  54 N :   -0.045650
  55 C :   -0.141083
  56 S :    0.437721
  57 C :   -0.199039
  58 C :    0.002403
  59 C :   -0.032081
  60 C :   -0.050827
  61 C :   -0.139314
  62 S :    0.419169
  63 C :   -0.196990
  64 C :   -0.037273
  65 C :   -0.061928
  66 C :   -0.167514
  67 S :    0.419362
  68 C :   -0.030766
  69 C :   -0.021077
  70 C :   -0.046400
  71 H :    0.034612
  72 H :    0.048217
  73 H :    0.035023
  74 H :    0.027322
  75 H :    0.022424
  76 H :    0.035294
  77 H :    0.021589
  78 H :    0.037207
  79 H :    0.036145
  80 H :    0.044977
  81 H :    0.035969
  82 H :    0.029493
  83 H :    0.022666
  84 H :    0.034610
  85 H :    0.016171
  86 H :    0.026483

  Mayer bond orders larger than 0.100000
B(  0-C ,  1-C ) :   1.6551 B(  0-C ,  5-S ) :   1.1061 B(  0-C , 71-H ) :   0.9373
B(  1-C ,  2-C ) :   1.2122 B(  1-C , 72-H ) :   0.9684 B(  2-C ,  3-C ) :   1.0577
B(  2-C , 11-C ) :   1.4097 B(  3-C ,  4-C ) :   1.5913 B(  3-C ,  6-C ) :   1.1835
B(  4-C ,  5-S ) :   1.1509 B(  4-C , 73-H ) :   0.9430 B(  6-C ,  7-C ) :   1.4630
B(  6-C , 10-S ) :   1.0734 B(  7-C ,  8-C ) :   1.2115 B(  7-C , 11-C ) :   1.0666
B(  8-C ,  9-C ) :   1.5847 B(  8-C , 74-H ) :   1.0009 B(  9-C , 10-S ) :   1.1593
B(  9-C , 75-H ) :   0.9647 B( 11-C , 12-C ) :   1.1982 B( 12-C , 13-C ) :   1.6254
B( 12-C , 76-H ) :   0.9464 B( 13-C , 14-C ) :   1.1639 B( 13-C , 77-H ) :   0.9431
B( 14-C , 15-C ) :   1.4665 B( 14-C , 20-S ) :   1.1263 B( 15-C , 16-C ) :   1.1844
B( 15-C , 18-C ) :   1.2530 B( 16-C , 17-N ) :   2.9421 B( 18-C , 19-C ) :   1.4270
B( 18-C , 23-C ) :   1.0799 B( 19-C , 20-S ) :   1.0755 B( 19-C , 21-S ) :   1.0672
B( 21-S , 22-C ) :   1.0916 B( 22-C , 23-C ) :   1.4027 B( 22-C , 28-S ) :   1.0721
B( 23-C , 24-C ) :   1.2637 B( 24-C , 25-C ) :   1.1458 B( 24-C , 27-C ) :   1.4712
B( 25-C , 26-N ) :   2.9621 B( 27-C , 28-S ) :   1.1499 B( 27-C , 29-C ) :   1.1648
B( 29-C , 30-C ) :   1.3163 B( 29-C , 36-C ) :   0.1426 B( 29-C , 38-C ) :   1.2082
B( 30-C , 31-C ) :   1.1095 B( 30-C , 35-N ) :   1.4061 B( 31-C , 32-N ) :   1.4032
B( 31-C , 36-C ) :   1.3075 B( 32-N , 33-C ) :   1.6618 B( 33-C , 34-C ) :   1.1703
B( 33-C , 78-H ) :   0.9727 B( 34-C , 35-N ) :   1.6693 B( 34-C , 79-H ) :   0.9735
B( 36-C , 37-C ) :   1.2060 B( 36-C , 42-C ) :   1.1760 B( 37-C , 38-C ) :   1.1261
B( 37-C , 41-N ) :   1.4752 B( 38-C , 39-N ) :   1.4820 B( 39-N , 40-S ) :   1.2822
B( 39-N , 41-N ) :   0.1566 B( 40-S , 41-N ) :   1.2762 B( 42-C , 43-C ) :   1.4680
B( 42-C , 48-S ) :   1.1486 B( 43-C , 44-C ) :   1.1364 B( 43-C , 46-C ) :   1.2605
B( 44-C , 45-N ) :   2.9512 B( 46-C , 47-C ) :   1.4075 B( 46-C , 51-C ) :   1.0844
B( 47-C , 48-S ) :   1.0667 B( 47-C , 49-S ) :   1.0889 B( 49-S , 50-C ) :   1.0741
B( 50-C , 51-C ) :   1.4284 B( 50-C , 56-S ) :   1.0794 B( 51-C , 52-C ) :   1.2613
B( 52-C , 53-C ) :   1.1636 B( 52-C , 55-C ) :   1.5199 B( 53-C , 54-N ) :   2.9548
B( 55-C , 56-S ) :   1.1270 B( 55-C , 57-C ) :   1.1476 B( 57-C , 58-C ) :   1.5746
B( 57-C , 62-S ) :   1.0110 B( 58-C , 59-C ) :   1.2329 B( 58-C , 80-H ) :   0.9531
B( 59-C , 60-C ) :   1.0333 B( 59-C , 68-C ) :   1.4288 B( 60-C , 61-C ) :   1.6207
B( 60-C , 63-C ) :   1.1829 B( 61-C , 62-S ) :   1.1306 B( 61-C , 81-H ) :   0.9410
B( 63-C , 64-C ) :   1.4443 B( 63-C , 67-S ) :   1.0789 B( 64-C , 65-C ) :   1.2062
B( 64-C , 68-C ) :   1.0913 B( 65-C , 66-C ) :   1.5926 B( 65-C , 82-H ) :   1.0010
B( 66-C , 67-S ) :   1.1491 B( 66-C , 83-H ) :   0.9655 B( 68-C , 69-C ) :   1.1399
B( 69-C , 70-C ) :   1.9110 B( 69-C , 84-H ) :   0.9525 B( 70-C , 85-H ) :   0.9571
B( 70-C , 86-H ) :   0.9423

-----------------------------------------------------------------------------
         ABSORPTION SPECTRUM VIA TRANSITION ELECTRIC DIPOLE MOMENTS
-----------------------------------------------------------------------------
State   Energy  Wavelength   fosc         T2         TX        TY        TZ
        (cm-1)    (nm)                  (au**2)     (au)      (au)      (au)
-----------------------------------------------------------------------------
   0   13667.5    731.7   0.611069850  14.71897  -0.24286  -3.82838   0.05901
   1   14403.0    694.3   0.047623314   1.08853   0.06331   0.97060   0.37743
   2   15521.7    644.3   0.015650173   0.33194   0.06538   0.39051  -0.41853
   3   21094.6    474.1   0.327977496   5.11856  -0.26362   1.18644   1.90825
   4   21143.4    473.0   0.733127409  11.41512   0.08057   0.01951  -3.37761
   5   21305.9    469.4   0.058789787   0.90840  -0.17262   0.14749   0.92566
   6   23045.5    433.9   0.000596438   0.00852   0.01101  -0.08938  -0.02025
   7   23076.7    433.3   0.065989700   0.94141   0.02923  -0.37715  -0.89348
   8   23455.9    426.3   0.017609653   0.24716   0.19572  -0.33223  -0.31381
   9   23685.9    422.2   0.009608211   0.13355   0.00977  -0.22857  -0.28497
  10   25366.0    394.2   0.687074371   8.91717  -0.15860  -1.58480   2.52595
  11   27233.4    367.2   0.024983629   0.30202   0.01026   0.54402  -0.07715
  12   27847.0    359.1   0.003620398   0.04280  -0.08379  -0.18906   0.00610
  13   28449.1    351.5   0.168345713   1.94809  -0.04120  -1.37820  -0.21669
  14   29182.4    342.7   0.053479314   0.60331   0.12634   0.76253   0.07682
  15   29316.1    341.1   0.106474730   1.19568   0.07893   1.08917   0.05625
  16   30009.2    333.2   0.079089037   0.86764   0.09910   0.77330  -0.50972
  17   30093.4    332.3   0.242414307   2.65193  -0.07881  -1.13407   1.16602
  18   30604.1    326.8   0.086439332   0.92984  -0.02547   0.83771   0.47690
  19   30653.5    326.2   0.292436388   3.14071  -0.01330  -1.57949  -0.80359
  20   30729.1    325.4   0.069962082   0.74953   0.46598   0.00836  -0.72960
  21   31038.4    322.2   0.123400362   1.30886  -0.46376  -0.16964   1.03199
  22   31131.0    321.2   0.001557367   0.01647   0.07545   0.09168   0.04870
  23   31428.9    318.2   0.104238071   1.09187   0.15170   1.03379  -0.01172
  24   32339.9    309.2   0.002065848   0.02103  -0.00182  -0.10529  -0.09971
  25   32397.1    308.7   0.032490802   0.33016  -0.02836   0.44556   0.36172
  26   32622.6    306.5   0.003395003   0.03426   0.02752  -0.04325   0.17786
  27   33481.5    298.7   0.035177014   0.34588   0.02152  -0.56405  -0.16512
  28   33647.2    297.2   0.040779830   0.39900   0.02914   0.28093  -0.56500
  29   33753.6    296.3   0.315876888   3.08087  -0.16871   0.34117   1.71348
  30   33890.0    295.1   0.002939147   0.02855   0.02166   0.15912  -0.05257
  31   35337.9    283.0   0.003573423   0.03329  -0.06083   0.05130   0.16419
  32   35850.7    278.9   0.202399149   1.85861   0.09775   0.67488   1.18050
  33   35900.1    278.6   0.358652266   3.28892  -0.64888   0.59278   1.58634
  34   36159.1    276.6   0.090126898   0.82056  -0.31730  -0.48945   0.69305
  35   36319.7    275.3   0.061292499   0.55557   0.13064  -0.29899  -0.67016
  36   36546.1    273.6   0.001487714   0.01340  -0.08207  -0.01637  -0.07998
  37   37333.5    267.9   0.006097477   0.05377   0.01615  -0.11470  -0.20087
  38   37423.4    267.2   0.007230055   0.06360   0.03717   0.22428   0.10917
  39   37683.8    265.4   0.037824320   0.33044  -0.02747   0.19625   0.53960
  40   37871.3    264.1   0.000561121   0.00488  -0.01168  -0.06870   0.00470
  41   37906.4    263.8   0.000441739   0.00384   0.01644  -0.04341  -0.04101
  42   38103.9    262.4   0.033759627   0.29168   0.01610  -0.11250  -0.52798
  43   38171.6    262.0   0.026438181   0.22802   0.06353  -0.18572  -0.43530
  44   38346.0    260.8   0.033303869   0.28592  -0.03107   0.18218   0.50177
  45   38547.1    259.4   0.010228604   0.08736  -0.26705  -0.10599   0.06935
  46   38686.6    258.5   0.014084710   0.11986   0.29240   0.18343   0.02664
  47   38785.9    257.8   0.009216393   0.07823   0.10760  -0.25464   0.04252
  48   39083.8    255.9   0.012599609   0.10613   0.09554  -0.10608   0.29283
  49   39493.1    253.2   0.020572774   0.17149  -0.11581  -0.35845  -0.17202
  50   39721.2    251.8   0.017229842   0.14280  -0.08083   0.14517  -0.33940
  51   39786.4    251.3   0.006886162   0.05698   0.01594   0.02775   0.23655
  52   40008.8    249.9   0.189222093   1.55701   0.05369   0.94690   0.81088
  53   40194.1    248.8   0.213183340   1.74609   0.16547   1.24680   0.40522

FINAL SINGLE POINT ENERGY     -6804.682890706496

DIPOLE MOMENT
-------------
                                X             Y             Z
Electronic contribution:      9.58910       3.37108     -59.07755
Nuclear contribution   :     -9.77307      -3.64625      57.34272
                        -----------------------------------------
Total Dipole Moment    :     -0.18397      -0.27517      -1.73483
                        -----------------------------------------
Magnitude (a.u.)       :      1.76613
Magnitude (Debye)      :      4.48914

Rotational constants in cm-1:     0.001033     0.000248     0.000201
Rotational constants in MHz :    30.956485     7.441963     6.032138

                             ****ORCA TERMINATED NORMALLY****
TOTAL RUN TIME: 0 days 0 hours 8 minutes 52 seconds 325 msec
