                         Program Version 4.2.0 -  RELEASE  -
|  1> # ORCA input file
|  2> # SCF done       -188.726465709916          0.000429330113
|  3> ! CAM-B3LYP def2-SVP def2/J RIJCOSX Grid4 TightSCF
|  4> %maxcore 5000
|  5> %tddft
|  6>     Mode sTDDFT
|  7>     Ethresh 5.0
|  8>     maxcore 5000
|  9> end
| 10>
| 11> %pal
| 12>   nprocs 6
| 13>   end
| 14> * xyz 0 1
| 15>    C       -1.11553         6.91061        -2.83836
| 16>    N       -2.41142         6.88282        -2.83730
| 17>    C       -2.75354         5.77476        -2.10526
| 18>    C       -1.55271         5.07476        -1.64041
| 19>    C       -1.91247         3.89561        -0.83900
| 20>    O       -1.18501         3.09578        -0.29796
| 21>    C       -3.39397         3.94418        -0.85475
| 22>    C       -3.85625         5.11222        -1.64599
| 23>    N       -5.21527         5.17244        -1.65463
| 24>    C       -5.60745         4.15306        -0.94061
| 25>    C       -4.51985         3.34431        -0.40497
| 26>    C       -0.48154         5.80487        -2.09991
| 27>    C        0.90142         5.56038        -1.90118
| 28>    C        1.89089         6.40115        -2.29411
| 29>    C        3.27269         6.18606        -2.06437
| 30>    C        3.91906         5.08997        -1.51086
| 31>    C        5.29363         5.28507        -1.41625
| 32>    C        5.70626         6.54389        -1.89775
| 33>    S        4.40207         7.47013        -2.48349
| 34>    C        7.10411         6.66367        -1.71155
| 35>    C        7.58083         5.48216        -1.11573
| 36>    C        6.46306         4.56990        -0.92762
| 37>    C        6.50998         3.31008        -0.40937
| 38>    C        5.36044         2.49984        -0.28820
| 39>    N        4.43169         1.83509        -0.19334
| 40>    C        7.71861         2.72993         0.03182
| 41>    N        8.70189         2.26176         0.38989
| 42>    C        8.94842         5.52082        -0.85262
| 43>    C        9.51599         6.72213        -1.23991
| 44>    S        8.34115         7.81628        -1.95666
| 45>    C       10.86179         7.13198        -1.07327
| 46>    C       11.42982         8.33891        -1.44274
| 47>    C       12.76924         8.42004        -1.06641
| 48>    C       13.22326         7.26422        -0.40711
| 49>    S       12.00685         6.07478        -0.26003
| 50>    C       14.57406         7.46018        -0.02952
| 51>    C       14.97766         8.74071        -0.45021
| 52>    C       13.86003         9.38179        -1.12520
| 53>    C       13.83545        10.62351        -1.68752
| 54>    C       12.67989        11.13828        -2.31294
| 55>    N       11.73929        11.55438        -2.81924
| 56>    C       14.96339        11.47165        -1.67876
| 57>    N       15.87966        12.16036        -1.67040
| 58>    C       16.28938         9.04160        -0.08793
| 59>    C       16.88510         8.00293         0.60595
| 60>    S       15.80770         6.62589         0.80269
| 61>    C       18.18654         7.96407         1.16379
| 62>    C       18.76132         6.92048         1.87125
| 63>    C       20.04502         7.23527         2.30726
| 64>    C       20.45363         8.52774         1.92972
| 65>    S       19.25482         9.35148         1.03146
| 66>    C       21.75594         8.76261         2.43258
| 67>    C       22.17155         7.60497         3.13316
| 68>    C       21.11410         6.61250         3.07439
| 69>    C       21.11163         5.36583         3.62843
| 70>    C       20.01101         4.49245         3.50116
| 71>    N       19.11464         3.78540         3.39611
| 72>    C       22.20827         4.87586         4.36884
| 73>    N       23.09887         4.48315         4.97459
| 74>    C       23.44109         7.73310         3.68187
| 75>    C       23.99538         8.97612         3.41357
| 76>    S       22.93019         9.99335         2.44338
| 77>    C       25.24057         9.56333         3.72523
| 78>    N       25.52196        10.72096         3.12744
| 79>    C       26.75334        11.05944         3.53321
| 80>    C       27.30179        10.04908         4.45813
| 81>    C       28.65521        10.44358         4.89588
| 82>    O       29.41687         9.85400         5.63120
| 83>    C       28.85663        11.72865         4.20600
| 84>    C       27.67842        12.06360         3.38152
| 85>    N       27.85507        13.24956         2.75181
| 86>    C       29.04110        13.66363         3.13109
| 87>    C       29.71859        12.76625         4.04195
| 88>    C       26.33085         9.09574         4.61216
| 89>    C       26.30585         7.93658         5.46456
| 90>    C       27.37361         7.48281         6.12026
| 91>    H       -0.59624         7.69614        -3.35955
| 92>    H       -6.65637         3.96671        -0.78697
| 93>    H       -4.63759         2.47166         0.20652
| 94>    H        1.13861         4.64621        -1.37497
| 95>    H        1.63877         7.32604        -2.79509
| 96>    H        3.40390         4.20132        -1.19606
| 97>    H        9.51558         4.72990        -0.39545
| 98>    H       10.87922         9.11015        -1.95095
| 99>    H       16.79732         9.96476        -0.30257
|100>    H       18.25368         5.98999         2.05224
|101>    H       23.94554         6.95422         4.22228
|102>    H       29.43146        14.59746         2.76505
|103>    H       30.68920        12.92452         4.46863
|104>    H       25.35313         7.44117         5.58179
|105>    H       28.33576         7.95956         6.03859
|106>    H       27.30624         6.62006         6.76053
|107> *
|108>
|109>                          ****END OF INPUT****

CARTESIAN COORDINATES (ANGSTROEM)
---------------------------------
  C     -1.115530    6.910610   -2.838360
  N     -2.411420    6.882820   -2.837300
  C     -2.753540    5.774760   -2.105260
  C     -1.552710    5.074760   -1.640410
  C     -1.912470    3.895610   -0.839000
  O     -1.185010    3.095780   -0.297960
  C     -3.393970    3.944180   -0.854750
  C     -3.856250    5.112220   -1.645990
  N     -5.215270    5.172440   -1.654630
  C     -5.607450    4.153060   -0.940610
  C     -4.519850    3.344310   -0.404970
  C     -0.481540    5.804870   -2.099910
  C      0.901420    5.560380   -1.901180
  C      1.890890    6.401150   -2.294110
  C      3.272690    6.186060   -2.064370
  C      3.919060    5.089970   -1.510860
  C      5.293630    5.285070   -1.416250
  C      5.706260    6.543890   -1.897750
  S      4.402070    7.470130   -2.483490
  C      7.104110    6.663670   -1.711550
  C      7.580830    5.482160   -1.115730
  C      6.463060    4.569900   -0.927620
  C      6.509980    3.310080   -0.409370
  C      5.360440    2.499840   -0.288200
  N      4.431690    1.835090   -0.193340
  C      7.718610    2.729930    0.031820
  N      8.701890    2.261760    0.389890
  C      8.948420    5.520820   -0.852620
  C      9.515990    6.722130   -1.239910
  S      8.341150    7.816280   -1.956660
  C     10.861790    7.131980   -1.073270
  C     11.429820    8.338910   -1.442740
  C     12.769240    8.420040   -1.066410
  C     13.223260    7.264220   -0.407110
  S     12.006850    6.074780   -0.260030
  C     14.574060    7.460180   -0.029520
  C     14.977660    8.740710   -0.450210
  C     13.860030    9.381790   -1.125200
  C     13.835450   10.623510   -1.687520
  C     12.679890   11.138280   -2.312940
  N     11.739290   11.554380   -2.819240
  C     14.963390   11.471650   -1.678760
  N     15.879660   12.160360   -1.670400
  C     16.289380    9.041600   -0.087930
  C     16.885100    8.002930    0.605950
  S     15.807700    6.625890    0.802690
  C     18.186540    7.964070    1.163790
  C     18.761320    6.920480    1.871250
  C     20.045020    7.235270    2.307260
  C     20.453630    8.527740    1.929720
  S     19.254820    9.351480    1.031460
  C     21.755940    8.762610    2.432580
  C     22.171550    7.604970    3.133160
  C     21.114100    6.612500    3.074390
  C     21.111630    5.365830    3.628430
  C     20.011010    4.492450    3.501160
  N     19.114640    3.785400    3.396110
  C     22.208270    4.875860    4.368840
  N     23.098870    4.483150    4.974590
  C     23.441090    7.733100    3.681870
  C     23.995380    8.976120    3.413570
  S     22.930190    9.993350    2.443380
  C     25.240570    9.563330    3.725230
  N     25.521960   10.720960    3.127440
  C     26.753340   11.059440    3.533210
  C     27.301790   10.049080    4.458130
  C     28.655210   10.443580    4.895880
  O     29.416870    9.854000    5.631200
  C     28.856630   11.728650    4.206000
  C     27.678420   12.063600    3.381520
  N     27.855070   13.249560    2.751810
  C     29.041100   13.663630    3.131090
  C     29.718590   12.766250    4.041950
  C     26.330850    9.095740    4.612160
  C     26.305850    7.936580    5.464560
  C     27.373610    7.482810    6.120260
  H     -0.596240    7.696140   -3.359550
  H     -6.656370    3.966710   -0.786970
  H     -4.637590    2.471660    0.206520
  H      1.138610    4.646210   -1.374970
  H      1.638770    7.326040   -2.795090
  H      3.403900    4.201320   -1.196060
  H      9.515580    4.729900   -0.395450
  H     10.879220    9.110150   -1.950950
  H     16.797320    9.964760   -0.302570
  H     18.253680    5.989990    2.052240
  H     23.945540    6.954220    4.222280
  H     29.431460   14.597460    2.765050
  H     30.689200   12.924520    4.468630
  H     25.353130    7.441170    5.581790
  H     28.335760    7.959560    6.038590
  H     27.306240    6.620060    6.760530

 Total Charge           Charge          ....    0
 Multiplicity           Mult            ....    1
 Number of Electrons    NEL             ....  546
 Basis Dimension        Dim             .... 1168

ORBITAL ENERGIES
----------------

  NO   OCC          E(Eh)            E(eV)
   0   2.0000     -89.004358     -2421.9317
   1   2.0000     -89.003979     -2421.9214
   2   2.0000     -89.002464     -2421.8802
   3   2.0000     -89.000952     -2421.8390
   4   2.0000     -88.997722     -2421.7511
   5   2.0000     -88.997498     -2421.7450
   6   2.0000     -19.213995      -522.8394
   7   2.0000     -19.209200      -522.7089
   8   2.0000     -14.441408      -392.9707
   9   2.0000     -14.441196      -392.9649
  10   2.0000     -14.440370      -392.9425
  11   2.0000     -14.440239      -392.9389
  12   2.0000     -14.438131      -392.8815
  13   2.0000     -14.435988      -392.8232
  14   2.0000     -14.421255      -392.4223
  15   2.0000     -14.412656      -392.1883
  16   2.0000     -14.410349      -392.1255
  17   2.0000     -14.400618      -391.8607
  18   2.0000     -10.376762      -282.3661
  19   2.0000     -10.375516      -282.3321
  20   2.0000     -10.374273      -282.2983
  21   2.0000     -10.373072      -282.2656
  22   2.0000     -10.369425      -282.1664
  23   2.0000     -10.363657      -282.0094
  24   2.0000     -10.363246      -281.9983
  25   2.0000     -10.359722      -281.9024
  26   2.0000     -10.351635      -281.6823
  27   2.0000     -10.348537      -281.5980
  28   2.0000     -10.346740      -281.5491
  29   2.0000     -10.345977      -281.5283
  30   2.0000     -10.343000      -281.4473
  31   2.0000     -10.342904      -281.4447
  32   2.0000     -10.341898      -281.4173
  33   2.0000     -10.341841      -281.4158
  34   2.0000     -10.341617      -281.4097
  35   2.0000     -10.341502      -281.4066
  36   2.0000     -10.341456      -281.4053
  37   2.0000     -10.341215      -281.3988
  38   2.0000     -10.340722      -281.3854
  39   2.0000     -10.340479      -281.3787
  40   2.0000     -10.340372      -281.3758
  41   2.0000     -10.339872      -281.3622
  42   2.0000     -10.338271      -281.3186
  43   2.0000     -10.337017      -281.2845
  44   2.0000     -10.335679      -281.2481
  45   2.0000     -10.333046      -281.1765
  46   2.0000     -10.332011      -281.1483
  47   2.0000     -10.330841      -281.1165
  48   2.0000     -10.330715      -281.1131
  49   2.0000     -10.330021      -281.0942
  50   2.0000     -10.321183      -280.8537
  51   2.0000     -10.320514      -280.8355
  52   2.0000     -10.318770      -280.7880
  53   2.0000     -10.317741      -280.7600
  54   2.0000     -10.316451      -280.7249
  55   2.0000     -10.315892      -280.7097
  56   2.0000     -10.315675      -280.7038
  57   2.0000     -10.315192      -280.6906
  58   2.0000     -10.313736      -280.6510
  59   2.0000     -10.313550      -280.6460
  60   2.0000     -10.313396      -280.6418
  61   2.0000     -10.312291      -280.6117
  62   2.0000     -10.312073      -280.6058
  63   2.0000     -10.311166      -280.5811
  64   2.0000     -10.309806      -280.5441
  65   2.0000     -10.308899      -280.5194
  66   2.0000     -10.307851      -280.4909
  67   2.0000     -10.299922      -280.2751
  68   2.0000     -10.297219      -280.2016
  69   2.0000     -10.294477      -280.1270
  70   2.0000     -10.291360      -280.0421
  71   2.0000     -10.290069      -280.0070
  72   2.0000     -10.284433      -279.8536
  73   2.0000     -10.283456      -279.8271
  74   2.0000     -10.282450      -279.7997
  75   2.0000     -10.270851      -279.4841
  76   2.0000      -8.098655      -220.3756
  77   2.0000      -8.098309      -220.3662
  78   2.0000      -8.096749      -220.3237
  79   2.0000      -8.095352      -220.2857
  80   2.0000      -8.092353      -220.2041
  81   2.0000      -8.091273      -220.1747
  82   2.0000      -6.067952      -165.1174
  83   2.0000      -6.067598      -165.1077
  84   2.0000      -6.066064      -165.0660
  85   2.0000      -6.064676      -165.0282
  86   2.0000      -6.063781      -165.0039
  87   2.0000      -6.063428      -164.9943
  88   2.0000      -6.061875      -164.9520
  89   2.0000      -6.061508      -164.9420
  90   2.0000      -6.060946      -164.9267
  91   2.0000      -6.060608      -164.9175
  92   2.0000      -6.060556      -164.9161
  93   2.0000      -6.060504      -164.9147
  94   2.0000      -6.059044      -164.8750
  95   2.0000      -6.057584      -164.8352
  96   2.0000      -6.057378      -164.8296
  97   2.0000      -6.056048      -164.7934
  98   2.0000      -6.054827      -164.7602
  99   2.0000      -6.053947      -164.7363
 100   2.0000      -1.128776       -30.7156
 101   2.0000      -1.123865       -30.5819
 102   2.0000      -1.083658       -29.4878
 103   2.0000      -1.080347       -29.3977
 104   2.0000      -1.065725       -28.9998
 105   2.0000      -1.059118       -28.8201
 106   2.0000      -1.057172       -28.7671
 107   2.0000      -1.054405       -28.6918
 108   2.0000      -1.052645       -28.6439
 109   2.0000      -1.033624       -28.1263
 110   2.0000      -1.032109       -28.0851
 111   2.0000      -1.029263       -28.0077
 112   2.0000      -1.019934       -27.7538
 113   2.0000      -1.018369       -27.7112
 114   2.0000      -1.017525       -27.6883
 115   2.0000      -1.014537       -27.6069
 116   2.0000      -1.008567       -27.4445
 117   2.0000      -0.998967       -27.1833
 118   2.0000      -0.975343       -26.5404
 119   2.0000      -0.967784       -26.3347
 120   2.0000      -0.963997       -26.2317
 121   2.0000      -0.940381       -25.5891
 122   2.0000      -0.936622       -25.4868
 123   2.0000      -0.934158       -25.4197
 124   2.0000      -0.928145       -25.2561
 125   2.0000      -0.917809       -24.9748
 126   2.0000      -0.908973       -24.7344
 127   2.0000      -0.905967       -24.6526
 128   2.0000      -0.884476       -24.0678
 129   2.0000      -0.883426       -24.0393
 130   2.0000      -0.879412       -23.9300
 131   2.0000      -0.871760       -23.7218
 132   2.0000      -0.867909       -23.6170
 133   2.0000      -0.866144       -23.5690
 134   2.0000      -0.864623       -23.5276
 135   2.0000      -0.860537       -23.4164
 136   2.0000      -0.858615       -23.3641
 137   2.0000      -0.845736       -23.0136
 138   2.0000      -0.830327       -22.5943
 139   2.0000      -0.823988       -22.4218
 140   2.0000      -0.805327       -21.9141
 141   2.0000      -0.792087       -21.5538
 142   2.0000      -0.789577       -21.4855
 143   2.0000      -0.784408       -21.3448
 144   2.0000      -0.778009       -21.1707
 145   2.0000      -0.771239       -20.9865
 146   2.0000      -0.760430       -20.6924
 147   2.0000      -0.755695       -20.5635
 148   2.0000      -0.744848       -20.2684
 149   2.0000      -0.731122       -19.8948
 150   2.0000      -0.719892       -19.5893
 151   2.0000      -0.715964       -19.4824
 152   2.0000      -0.708610       -19.2822
 153   2.0000      -0.708001       -19.2657
 154   2.0000      -0.701335       -19.0843
 155   2.0000      -0.698822       -19.0159
 156   2.0000      -0.695070       -18.9138
 157   2.0000      -0.690124       -18.7792
 158   2.0000      -0.686601       -18.6834
 159   2.0000      -0.685408       -18.6509
 160   2.0000      -0.657774       -17.8989
 161   2.0000      -0.654757       -17.8168
 162   2.0000      -0.650249       -17.6942
 163   2.0000      -0.648248       -17.6397
 164   2.0000      -0.643373       -17.5071
 165   2.0000      -0.642975       -17.4962
 166   2.0000      -0.638063       -17.3626
 167   2.0000      -0.634324       -17.2608
 168   2.0000      -0.632482       -17.2107
 169   2.0000      -0.629648       -17.1336
 170   2.0000      -0.626349       -17.0438
 171   2.0000      -0.622888       -16.9496
 172   2.0000      -0.618741       -16.8368
 173   2.0000      -0.615971       -16.7614
 174   2.0000      -0.605461       -16.4754
 175   2.0000      -0.598694       -16.2913
 176   2.0000      -0.589104       -16.0303
 177   2.0000      -0.584382       -15.9019
 178   2.0000      -0.576844       -15.6967
 179   2.0000      -0.573306       -15.6005
 180   2.0000      -0.569585       -15.4992
 181   2.0000      -0.563054       -15.3215
 182   2.0000      -0.562034       -15.2937
 183   2.0000      -0.558761       -15.2047
 184   2.0000      -0.554882       -15.0991
 185   2.0000      -0.553011       -15.0482
 186   2.0000      -0.548722       -14.9315
 187   2.0000      -0.546849       -14.8805
 188   2.0000      -0.544788       -14.8244
 189   2.0000      -0.542926       -14.7738
 190   2.0000      -0.534641       -14.5483
 191   2.0000      -0.530683       -14.4406
 192   2.0000      -0.528401       -14.3785
 193   2.0000      -0.524761       -14.2795
 194   2.0000      -0.521243       -14.1837
 195   2.0000      -0.520278       -14.1575
 196   2.0000      -0.518436       -14.1074
 197   2.0000      -0.517942       -14.0939
 198   2.0000      -0.515903       -14.0384
 199   2.0000      -0.513484       -13.9726
 200   2.0000      -0.512129       -13.9357
 201   2.0000      -0.510993       -13.9048
 202   2.0000      -0.510078       -13.8799
 203   2.0000      -0.508650       -13.8411
 204   2.0000      -0.504255       -13.7215
 205   2.0000      -0.503120       -13.6906
 206   2.0000      -0.500983       -13.6324
 207   2.0000      -0.500411       -13.6169
 208   2.0000      -0.495668       -13.4878
 209   2.0000      -0.494954       -13.4684
 210   2.0000      -0.491019       -13.3613
 211   2.0000      -0.489562       -13.3217
 212   2.0000      -0.485917       -13.2225
 213   2.0000      -0.485394       -13.2082
 214   2.0000      -0.480457       -13.0739
 215   2.0000      -0.476638       -12.9700
 216   2.0000      -0.475278       -12.9330
 217   2.0000      -0.472930       -12.8691
 218   2.0000      -0.472389       -12.8543
 219   2.0000      -0.471975       -12.8431
 220   2.0000      -0.470945       -12.8151
 221   2.0000      -0.470108       -12.7923
 222   2.0000      -0.468447       -12.7471
 223   2.0000      -0.467973       -12.7342
 224   2.0000      -0.467746       -12.7280
 225   2.0000      -0.465548       -12.6682
 226   2.0000      -0.463876       -12.6227
 227   2.0000      -0.461377       -12.5547
 228   2.0000      -0.460293       -12.5252
 229   2.0000      -0.456783       -12.4297
 230   2.0000      -0.452649       -12.3172
 231   2.0000      -0.451475       -12.2853
 232   2.0000      -0.451398       -12.2832
 233   2.0000      -0.451076       -12.2744
 234   2.0000      -0.450416       -12.2564
 235   2.0000      -0.449982       -12.2446
 236   2.0000      -0.448197       -12.1961
 237   2.0000      -0.447113       -12.1666
 238   2.0000      -0.447031       -12.1643
 239   2.0000      -0.444785       -12.1032
 240   2.0000      -0.443888       -12.0788
 241   2.0000      -0.437427       -11.9030
 242   2.0000      -0.436313       -11.8727
 243   2.0000      -0.435261       -11.8440
 244   2.0000      -0.432539       -11.7700
 245   2.0000      -0.427600       -11.6356
 246   2.0000      -0.418705       -11.3935
 247   2.0000      -0.410915       -11.1816
 248   2.0000      -0.403021       -10.9668
 249   2.0000      -0.396399       -10.7866
 250   2.0000      -0.390410       -10.6236
 251   2.0000      -0.369977       -10.0676
 252   2.0000      -0.364659        -9.9229
 253   2.0000      -0.362887        -9.8746
 254   2.0000      -0.362668        -9.8687
 255   2.0000      -0.359724        -9.7886
 256   2.0000      -0.359582        -9.7847
 257   2.0000      -0.357616        -9.7312
 258   2.0000      -0.350051        -9.5254
 259   2.0000      -0.347345        -9.4517
 260   2.0000      -0.344067        -9.3625
 261   2.0000      -0.339683        -9.2432
 262   2.0000      -0.336044        -9.1442
 263   2.0000      -0.333356        -9.0711
 264   2.0000      -0.333226        -9.0675
 265   2.0000      -0.331023        -9.0076
 266   2.0000      -0.330203        -8.9853
 267   2.0000      -0.326913        -8.8958
 268   2.0000      -0.319073        -8.6824
 269   2.0000      -0.302330        -8.2268
 270   2.0000      -0.292376        -7.9560
 271   2.0000      -0.267844        -7.2884
 272   2.0000      -0.245468        -6.6795
 273   0.0000      -0.125487        -3.4147
 274   0.0000      -0.117676        -3.2021
 275   0.0000      -0.113501        -3.0885
 276   0.0000      -0.107143        -2.9155
 277   0.0000      -0.105864        -2.8807

MULLIKEN ATOMIC CHARGES
-----------------------
   0 C :    0.057779
   1 N :   -0.030320
   2 C :    0.049535
   3 C :   -0.113245
   4 C :    0.205683
   5 O :   -0.122329
   6 C :   -0.034196
   7 C :   -0.003878
   8 N :   -0.050419
   9 C :    0.089903
  10 C :   -0.092074
  11 C :   -0.012497
  12 C :   -0.022537
  13 C :    0.055144
  14 C :   -0.081250
  15 C :   -0.028096
  16 C :    0.006139
  17 C :   -0.099323
  18 S :    0.193758
  19 C :   -0.098142
  20 C :    0.013852
  21 C :    0.303558
  22 C :   -0.294012
  23 C :   -0.190320
  24 N :    0.183254
  25 C :   -0.185050
  26 N :    0.174852
  27 C :   -0.066291
  28 C :   -0.050108
  29 S :    0.196699
  30 C :   -0.048368
  31 C :   -0.068639
  32 C :    0.018536
  33 C :   -0.099034
  34 S :    0.201660
  35 C :   -0.092259
  36 C :    0.015442
  37 C :    0.297898
  38 C :   -0.294106
  39 C :   -0.185647
  40 N :    0.176573
  41 C :   -0.187946
  42 N :    0.176503
  43 C :   -0.059167
  44 C :   -0.058466
  45 S :    0.200922
  46 C :   -0.043571
  47 C :   -0.069666
  48 C :    0.028032
  49 C :   -0.109257
  50 S :    0.208888
  51 C :   -0.075648
  52 C :   -0.008416
  53 C :    0.303888
  54 C :   -0.293190
  55 C :   -0.186593
  56 N :    0.174207
  57 C :   -0.186720
  58 N :    0.174824
  59 C :   -0.018355
  60 C :   -0.135307
  61 S :    0.271473
  62 C :    0.079656
  63 N :   -0.082183
  64 C :    0.068722
  65 C :   -0.165636
  66 C :    0.216880
  67 O :   -0.138362
  68 C :   -0.020936
  69 C :   -0.035557
  70 N :   -0.056811
  71 C :    0.087828
  72 C :   -0.093729
  73 C :    0.034083
  74 C :   -0.065526
  75 C :    0.016488
  76 H :    0.009319
  77 H :    0.014660
  78 H :    0.000288
  79 H :    0.015449
  80 H :   -0.015526
  81 H :    0.016528
  82 H :    0.013046
  83 H :    0.012383
  84 H :    0.013278
  85 H :    0.014429
  86 H :    0.016418
  87 H :    0.005602
  88 H :   -0.008354
  89 H :   -0.015394
  90 H :    0.047691
  91 H :    0.030704
Sum of atomic charges:   -0.0000000

LOEWDIN ATOMIC CHARGES
----------------------
   0 C :    0.087731
   1 N :   -0.077967
   2 C :    0.045762
   3 C :   -0.056630
   4 C :    0.065827
   5 O :   -0.133017
   6 C :   -0.036412
   7 C :    0.033238
   8 N :   -0.092217
   9 C :    0.080794
  10 C :   -0.029103
  11 C :   -0.040011
  12 C :   -0.010243
  13 C :   -0.031108
  14 C :   -0.165351
  15 C :   -0.017143
  16 C :   -0.066068
  17 C :   -0.182636
  18 S :    0.480917
  19 C :   -0.178992
  20 C :   -0.065836
  21 C :    0.080121
  22 C :   -0.096796
  23 C :   -0.019343
  24 N :   -0.022642
  25 C :   -0.015451
  26 N :   -0.030916
  27 C :   -0.037498
  28 C :   -0.180343
  29 S :    0.484813
  30 C :   -0.176024
  31 C :   -0.039271
  32 C :   -0.064796
  33 C :   -0.183199
  34 S :    0.489712
  35 C :   -0.174050
  36 C :   -0.069623
  37 C :    0.081612
  38 C :   -0.097991
  39 C :   -0.016010
  40 N :   -0.029641
  41 C :   -0.016799
  42 N :   -0.028521
  43 C :   -0.031596
  44 C :   -0.183950
  45 S :    0.490873
  46 C :   -0.168090
  47 C :   -0.042407
  48 C :   -0.052212
  49 C :   -0.190148
  50 S :    0.493251
  51 C :   -0.157860
  52 C :   -0.080183
  53 C :    0.079537
  54 C :   -0.099794
  55 C :   -0.016650
  56 N :   -0.030274
  57 C :   -0.016485
  58 N :   -0.028641
  59 C :    0.000516
  60 C :   -0.182604
  61 S :    0.542404
  62 C :    0.050063
  63 N :   -0.133218
  64 C :    0.044073
  65 C :   -0.038947
  66 C :    0.068891
  67 O :   -0.138184
  68 C :   -0.042448
  69 C :    0.015407
  70 N :   -0.098969
  71 C :    0.068803
  72 C :   -0.039049
  73 C :   -0.020683
  74 C :   -0.051470
  75 C :    0.013961
  76 H :    0.023223
  77 H :    0.025379
  78 H :    0.036281
  79 H :    0.042127
  80 H :    0.027913
  81 H :    0.043440
  82 H :    0.035925
  83 H :    0.036016
  84 H :    0.037072
  85 H :    0.036128
  86 H :    0.042381
  87 H :    0.022221
  88 H :    0.033264
  89 H :    0.027379
  90 H :    0.028593
  91 H :    0.029863

  Mayer bond orders larger than 0.100000
B(  0-C ,  1-N ) :   1.7519 B(  0-C , 11-C ) :   1.0107 B(  0-C , 76-H ) :   0.9880
B(  1-N ,  2-C ) :   1.2546 B(  2-C ,  3-C ) :   1.0571 B(  2-C ,  7-C ) :   1.5011
B(  3-C ,  4-C ) :   0.9057 B(  3-C , 11-C ) :   1.5543 B(  4-C ,  5-O ) :   2.2897
B(  4-C ,  6-C ) :   0.8910 B(  6-C ,  7-C ) :   1.0449 B(  6-C , 10-C ) :   1.6470
B(  7-C ,  8-N ) :   1.2820 B(  8-N ,  9-C ) :   1.6905 B(  9-C , 10-C ) :   1.0462
B(  9-C , 77-H ) :   0.9885 B( 10-C , 78-H ) :   1.0099 B( 11-C , 12-C ) :   1.1317
B( 12-C , 13-C ) :   1.6585 B( 12-C , 79-H ) :   0.9753 B( 13-C , 14-C ) :   1.1215
B( 13-C , 80-H ) :   0.9587 B( 14-C , 15-C ) :   1.4504 B( 14-C , 18-S ) :   1.1019
B( 15-C , 16-C ) :   1.3101 B( 15-C , 81-H ) :   0.9912 B( 16-C , 17-C ) :   1.4228
B( 16-C , 21-C ) :   0.9959 B( 17-C , 18-S ) :   1.1309 B( 17-C , 19-C ) :   1.1950
B( 19-C , 20-C ) :   1.4449 B( 19-C , 29-S ) :   1.1194 B( 20-C , 21-C ) :   0.9953
B( 20-C , 27-C ) :   1.3054 B( 21-C , 22-C ) :   1.7170 B( 22-C , 23-C ) :   1.1340
B( 22-C , 25-C ) :   1.1317 B( 23-C , 24-N ) :   2.9936 B( 25-C , 26-N ) :   2.9906
B( 27-C , 28-C ) :   1.4545 B( 27-C , 82-H ) :   0.9853 B( 28-C , 29-S ) :   1.1075
B( 28-C , 30-C ) :   1.1728 B( 30-C , 31-C ) :   1.4534 B( 30-C , 34-S ) :   1.1121
B( 31-C , 32-C ) :   1.3051 B( 31-C , 83-H ) :   0.9866 B( 32-C , 33-C ) :   1.4444
B( 32-C , 37-C ) :   0.9933 B( 33-C , 34-S ) :   1.1184 B( 33-C , 35-C ) :   1.1891
B( 35-C , 36-C ) :   1.4390 B( 35-C , 45-S ) :   1.1277 B( 36-C , 37-C ) :   0.9932
B( 36-C , 43-C ) :   1.3070 B( 37-C , 38-C ) :   1.7188 B( 38-C , 39-C ) :   1.1324
B( 38-C , 41-C ) :   1.1322 B( 39-C , 40-N ) :   2.9922 B( 41-C , 42-N ) :   2.9929
B( 43-C , 44-C ) :   1.4525 B( 43-C , 84-H ) :   0.9871 B( 44-C , 45-S ) :   1.1047
B( 44-C , 46-C ) :   1.1766 B( 46-C , 47-C ) :   1.4389 B( 46-C , 50-S ) :   1.1235
B( 47-C , 48-C ) :   1.3155 B( 47-C , 85-H ) :   0.9858 B( 48-C , 49-C ) :   1.4402
B( 48-C , 53-C ) :   0.9886 B( 49-C , 50-S ) :   1.1088 B( 49-C , 51-C ) :   1.2028
B( 51-C , 52-C ) :   1.3833 B( 51-C , 61-S ) :   1.1540 B( 52-C , 53-C ) :   0.9988
B( 52-C , 59-C ) :   1.3394 B( 53-C , 54-C ) :   1.7149 B( 54-C , 55-C ) :   1.1319
B( 54-C , 57-C ) :   1.1348 B( 55-C , 56-N ) :   2.9893 B( 57-C , 58-N ) :   2.9903
B( 59-C , 60-C ) :   1.4190 B( 59-C , 86-H ) :   0.9807 B( 60-C , 61-S ) :   1.0892
B( 60-C , 62-C ) :   1.1416 B( 62-C , 63-N ) :   1.5730 B( 62-C , 64-C ) :   0.1223
B( 62-C , 73-C ) :   1.0525 B( 63-N , 64-C ) :   1.3883 B( 64-C , 65-C ) :   1.0566
B( 64-C , 69-C ) :   1.3977 B( 65-C , 66-C ) :   0.8827 B( 65-C , 73-C ) :   1.5877
B( 66-C , 67-O ) :   2.2056 B( 66-C , 68-C ) :   0.9316 B( 68-C , 69-C ) :   1.0703
B( 68-C , 72-C ) :   1.5906 B( 69-C , 70-N ) :   1.3221 B( 70-N , 71-C ) :   1.6443
B( 71-C , 72-C ) :   1.0836 B( 71-C , 87-H ) :   0.9896 B( 72-C , 88-H ) :   1.0100
B( 73-C , 74-C ) :   1.0888 B( 74-C , 75-C ) :   1.9271 B( 74-C , 89-H ) :   0.9593
B( 75-C , 90-H ) :   0.9330 B( 75-C , 91-H ) :   0.9445

-----------------------------------------------------------------------------
         ABSORPTION SPECTRUM VIA TRANSITION ELECTRIC DIPOLE MOMENTS
-----------------------------------------------------------------------------
State   Energy  Wavelength   fosc         T2         TX        TY        TZ
        (cm-1)    (nm)                  (au**2)     (au)      (au)      (au)
-----------------------------------------------------------------------------
   0   10750.8    930.2   0.706309829  21.62872  -4.47332  -0.87951  -0.91900
   1   11827.9    845.5   0.072885372   2.02866  -1.40438  -0.23618  -0.02460
   2   12491.2    800.6   0.155159851   4.08933   1.85287   0.44039   0.67991
   3   16612.1    602.0   0.551827875  10.93587  -3.23472  -0.68672   0.02907
   4   18228.3    548.6   0.981149669  17.72005  -3.82210  -1.49956  -0.92892
   5   19273.8    518.8   0.025384502   0.43359   0.45493   0.39420   0.26688
   6   20397.9    490.2   0.154293217   2.49022   1.41139   0.67403   0.20948
   7   21003.3    476.1   0.062610077   0.98137  -0.55679  -0.80652   0.14449
   8   21419.2    466.9   0.079340456   1.21946  -1.05292  -0.26542  -0.20095
   9   22161.7    451.2   0.000357002   0.00530  -0.01883  -0.04046  -0.05754
  10   22591.4    442.6   0.000342949   0.00500   0.01269  -0.04297  -0.05468
  11   23786.3    420.4   0.892864118  12.35761  -3.47139  -0.35411  -0.42621
  12   24758.6    403.9   0.008904253   0.11840  -0.00584  -0.31835   0.13044
  13   24909.4    401.5   0.215878882   2.85313  -1.38439  -0.96670  -0.04562
  14   25431.0    393.2   0.149946048   1.94110   1.35338   0.21668   0.25004
  15   25736.5    388.6   0.050478442   0.64570   0.79560  -0.10400   0.04359
  16   26052.3    383.8   0.422896227   5.34396  -2.27929  -0.35301  -0.15552
  17   26340.8    379.6   0.000122090   0.00153  -0.03259  -0.01940   0.00935
  18   26828.0    372.7   0.033948234   0.41659   0.00979  -0.45461   0.45806
  19   26954.0    371.0   0.035477963   0.43332  -0.63972   0.02128  -0.15370
  20   27104.1    368.9   0.000240938   0.00293   0.00277  -0.01421  -0.05212
  21   27192.8    367.7   0.093528098   1.13231   1.00821   0.33023   0.08219
  22   27963.5    357.6   0.091530945   1.07759  -0.58767   0.20716  -0.83025
  23   28083.0    356.1   0.010943320   0.12829   0.12610   0.02381   0.33439
  24   28416.0    351.9   0.006296320   0.07295   0.09405   0.23144   0.10265
  25   29802.1    335.5   0.010071752   0.11126  -0.16925   0.23268  -0.16874
  26   30116.1    332.0   0.148120860   1.61917   0.12039  -1.13426   0.56403
  27   30443.9    328.5   0.019264752   0.20832   0.38511   0.24216  -0.03702
  28   30574.4    327.1   0.000082980   0.00089  -0.02503  -0.01264  -0.01035
  29   30878.5    323.8   0.373883987   3.98617   0.79183   1.77577  -0.45366
  30   31158.1    320.9   0.488051264   5.15667  -0.27927   1.97999  -1.07626
  31   31417.5    318.3   0.005629168   0.05899  -0.07681  -0.21696   0.07756
  32   31612.4    316.3   0.028692634   0.29881   0.44431  -0.03014   0.31700
  33   31701.0    315.4   0.124741578   1.29543  -0.68847   0.79826  -0.42921
  34   32052.4    312.0   0.503793813   5.17449  -0.12384  -2.12302   0.80742
  35   32130.2    311.2   0.023725578   0.24310  -0.45620  -0.17738   0.05928
  36   32457.1    308.1   0.084781504   0.85994   0.23548   0.87779  -0.18430
  37   32540.0    307.3   0.101915714   1.03110  -0.29327  -0.92921   0.28575
  38   33060.5    302.5   0.164467305   1.63774  -1.19173  -0.34797   0.31054
  39   33189.7    301.3   0.331439593   3.28758   1.62823  -0.44550   0.66181
  40   33287.2    300.4   0.300544646   2.97240  -0.51177   1.42786  -0.81958
  41   33501.2    298.5   0.052367103   0.51460  -0.71157  -0.05170   0.07485
  42   33540.8    298.1   0.144197807   1.41534   0.99588   0.58385  -0.28755
  43   34123.9    293.0   0.065920729   0.63597  -0.37886  -0.67673   0.18566
  44   34300.9    291.5   0.210159248   2.01706   0.44559   1.28652  -0.40421
  45   34447.5    290.3   0.099077156   0.94687  -0.84678   0.09326  -0.47026
  46   34664.7    288.5   0.111510718   1.05902   0.86906   0.52347   0.17243
  47   34974.0    285.9   0.090154575   0.84863  -0.81012  -0.43020  -0.08524
  48   35069.3    285.1   0.088836931   0.83395   0.10204   0.80162  -0.42537
  49   35420.6    282.3   0.009595674   0.08919   0.14760  -0.22747   0.12512
  50   35542.3    281.4   0.053501669   0.49556  -0.01332   0.61265  -0.34648
  51   35607.6    280.8   0.031896379   0.29490   0.36442   0.38939  -0.10234
  52   36001.2    277.8   0.000205471   0.00188   0.03677  -0.02273   0.00319
  53   36102.4    277.0   0.035256724   0.32150  -0.04347   0.55536  -0.10578
  54   36261.5    275.8   0.141009083   1.28020  -1.04587  -0.42489   0.07636
  55   36439.7    274.4   0.079268579   0.71615   0.10241   0.79413  -0.27390
  56   36558.4    273.5   0.058342176   0.52538   0.39440   0.56942  -0.21351
  57   36705.4    272.4   0.065420352   0.58676   0.12518   0.66616  -0.35682
  58   36960.0    270.6   0.095748214   0.85285  -0.82832  -0.40779   0.02116
  59   37516.5    266.5   0.016034673   0.14071  -0.17960  -0.30550   0.12297
  60   37882.5    264.0   0.007666513   0.06662   0.15655   0.16856   0.11706
  61   38277.4    261.3   0.002906949   0.02500  -0.06552  -0.09027   0.11207
  62   38427.5    260.2   0.031740050   0.27192  -0.49600  -0.15097  -0.05581
  63   38533.6    259.5   0.021989451   0.18787   0.39416   0.16191  -0.07929
  64   38687.8    258.5   0.060911086   0.51832  -0.66237  -0.03684  -0.27969
  65   38757.7    258.0   0.002961434   0.02515   0.11185  -0.04138   0.10456
  66   38853.0    257.4   0.010476464   0.08877   0.21869  -0.02387  -0.20094
  67   39130.2    255.6   0.031347353   0.26373  -0.15541  -0.38112   0.30713
  68   39191.6    255.2   0.016963897   0.14250  -0.36423   0.05687  -0.08125
  69   39366.0    254.0   0.027732881   0.23193  -0.43567  -0.05216  -0.19848
  70   39385.8    253.9   0.048105129   0.40209   0.06269  -0.55111   0.30731
  71   39519.8    253.0   0.005726075   0.04770   0.07317   0.19428  -0.06783
  72   39588.2    252.6   0.019017492   0.15815  -0.04500  -0.35513   0.17321
  73   39645.8    252.2   0.000870709   0.00723  -0.05177   0.06712  -0.00667
  74   39696.2    251.9   0.011943368   0.09905  -0.25970  -0.04193  -0.17277
  75   39997.0    250.0   0.002380226   0.01959  -0.01410  -0.09843   0.09851
  76   40081.3    249.5   0.000049625   0.00041   0.01068   0.01684  -0.00314
  77   40208.6    248.7   0.016840212   0.13788  -0.24051   0.25247  -0.12765

FINAL SINGLE POINT ENERGY     -5302.143073237588

DIPOLE MOMENT
-------------
                                X             Y             Z
Electronic contribution:     -1.06718       2.31039     -10.43044
Nuclear contribution   :     -0.14889      -1.53205       9.77578
                        -----------------------------------------
Total Dipole Moment    :     -1.21607       0.77834      -0.65466
                        -----------------------------------------
Magnitude (a.u.)       :      1.58531
Magnitude (Debye)      :      4.02954

Rotational constants in cm-1:     0.002637     0.000141     0.000136
Rotational constants in MHz :    79.070050     4.240383     4.073889

                             ****ORCA TERMINATED NORMALLY****
TOTAL RUN TIME: 0 days 0 hours 9 minutes 37 seconds 484 msec
