                         Program Version 4.2.0 -  RELEASE  -
|  1> # ORCA input file
|  2> # SCF done       -192.538744082578          0.000557697642
|  3> ! CAM-B3LYP def2-SVP def2/J RIJCOSX Grid4 TightSCF
|  4> %maxcore 5000
|  5> %tddft
|  6>     Mode sTDDFT
|  7>     Ethresh 5.0
|  8>     maxcore 5000
|  9> end
| 10>
| 11> %pal
| 12>   nprocs 6
| 13>   end
| 14> * xyz 0 1
| 15>    C        3.20077         1.73520         6.09412
| 16>    C        2.69228         2.10523         4.89999
| 17>    C        1.85183         3.26880         5.09845
| 18>    C        1.92261         3.53896         6.53382
| 19>    C        2.71948         2.63706         7.13241
| 20>    F        1.27279         4.55105         7.12879
| 21>    C        1.14294         3.97277         4.16382
| 22>    C        0.30948         5.11530         4.36031
| 23>    C       -0.22097         5.50951         3.14878
| 24>    C        0.28264         4.59738         2.11392
| 25>    C        1.07642         3.70466         2.72070
| 26>    F        1.73059         2.70093         2.12740
| 27>    C       -1.10125         6.59413         2.95702
| 28>    C       -1.63091         6.97478         1.75607
| 29>    C       -2.52835         8.04400         1.57259
| 30>    C       -3.08352         8.42847         0.36167
| 31>    C       -3.95491         9.52498         0.57210
| 32>    C       -3.88904         9.79284         2.01226
| 33>    C       -3.05438         8.93191         2.61299
| 34>    F       -4.57936        10.77125         2.61328
| 35>    C       -4.72349        10.20654        -0.35263
| 36>    C       -5.61242        11.28488        -0.12803
| 37>    C       -6.19057        11.65743        -1.33167
| 38>    C       -5.64991        10.78926        -2.38061
| 39>    C       -4.79160         9.94202        -1.79444
| 40>    F       -4.08164         8.98331        -2.40097
| 41>    C       -7.14060        12.66736        -1.58422
| 42>    C       -7.66697        13.48319        -0.62275
| 43>    C       -8.62747        14.48757        -0.84422
| 44>    C       -9.25018        14.88218        -2.02668
| 45>    C      -10.15637        15.91225        -1.82617
| 46>    C      -10.23927        16.32394        -0.47494
| 47>    S       -9.19247        15.43156         0.53470
| 48>    C      -11.18309        17.36231        -0.37655
| 49>    C      -11.71020        17.62110        -1.66397
| 50>    C      -11.07907        16.71670        -2.61224
| 51>    C      -11.30469        16.63605        -3.95498
| 52>    C      -12.23149        17.47030        -4.61534
| 53>    N      -12.98133        18.14595        -5.15874
| 54>    C      -10.62491        15.70974        -4.77348
| 55>    N      -10.07376        14.95325        -5.43596
| 56>    C      -12.65695        18.63439        -1.66807
| 57>    C      -12.86873        19.16295        -0.39711
| 58>    S      -11.86391        18.37498         0.81615
| 59>    C      -13.74878        20.19644        -0.02202
| 60>    C      -14.59928        20.92058        -0.84004
| 61>    C      -15.29915        21.86596        -0.05022
| 62>    C      -14.81454        21.66458         1.31801
| 63>    C      -13.89978        20.68268         1.34750
| 64>    F      -15.24329        22.37456         2.36728
| 65>    C      -16.23942        22.79596        -0.45331
| 66>    C      -16.92991        23.74688         0.33372
| 67>    C      -17.77955        24.48563        -0.47769
| 68>    C      -17.63658        23.99078        -1.85013
| 69>    C      -16.73084        23.00213        -1.82068
| 70>    F      -16.31054        22.28363        -2.86784
| 71>    C      -18.61742        25.52518        -0.03796
| 72>    C      -19.45731        26.25336        -0.83615
| 73>    C      -20.28860        27.29802        -0.38983
| 74>    C      -21.14514        28.03753        -1.18702
| 75>    C      -21.81572        29.00465        -0.38829
| 76>    C      -21.29865        28.79757         0.96876
| 77>    C      -20.40326        27.79954         0.98335
| 78>    F      -21.68853        29.52204         2.02385
| 79>    C      -22.74720        29.93762        -0.77770
| 80>    C      -23.42026        30.91235         0.02123
| 81>    C      -24.26880        31.63965        -0.77228
| 82>    C      -24.16203        31.13639        -2.14715
| 83>    C      -23.26651        30.13888        -2.13494
| 84>    F      -22.87735        29.40821        -3.18901
| 85>    C      -25.11389        32.70930        -0.33210
| 86>    C      -25.93167        33.41796        -1.11456
| 87>    H        3.86035         0.90937         6.28540
| 88>    H        2.86229         1.63704         3.95103
| 89>    H        2.96758         2.57455         8.17409
| 90>    H        0.12825         5.58447         5.30741
| 91>    H        0.05131         4.64462         1.06837
| 92>    H       -1.36500         7.14592         3.84879
| 93>    H       -1.36370         6.42655         0.86295
| 94>    H       -2.89084         7.96656        -0.58683
| 95>    H       -2.81270         8.89327         3.65631
| 96>    H       -5.79943        11.72645         0.83005
| 97>    H       -5.91188        10.84340        -3.41924
| 98>    H       -7.46277        12.78252        -2.61002
| 99>    H       -7.33673        13.36211         0.39935
|100>    H       -9.04109        14.42804        -2.97739
|101>    H      -13.18131        18.98931        -2.53583
|102>    H      -14.71590        20.79695        -1.89789
|103>    H      -13.36635        20.30645         2.19885
|104>    H      -16.81284        23.87682         1.39174
|105>    H      -18.16067        24.35741        -2.70998
|106>    H      -18.57453        25.74650         1.01981
|107>    H      -19.50576        26.03069        -1.89327
|108>    H      -21.28551        27.90691        -2.24213
|109>    H      -19.86620        27.43179         1.83484
|110>    H      -23.27458        31.04521         1.07526
|111>    H      -24.70491        31.50520        -2.99429
|112>    H      -25.05652        32.93297         0.72580
|113>    H      -26.01961        33.23116        -2.17079
|114>    H      -26.54156        34.21087        -0.71773
|115> *
|116>
|117>                          ****END OF INPUT****

CARTESIAN COORDINATES (ANGSTROEM)
---------------------------------
  C      3.200770    1.735200    6.094120
  C      2.692280    2.105230    4.899990
  C      1.851830    3.268800    5.098450
  C      1.922610    3.538960    6.533820
  C      2.719480    2.637060    7.132410
  F      1.272790    4.551050    7.128790
  C      1.142940    3.972770    4.163820
  C      0.309480    5.115300    4.360310
  C     -0.220970    5.509510    3.148780
  C      0.282640    4.597380    2.113920
  C      1.076420    3.704660    2.720700
  F      1.730590    2.700930    2.127400
  C     -1.101250    6.594130    2.957020
  C     -1.630910    6.974780    1.756070
  C     -2.528350    8.044000    1.572590
  C     -3.083520    8.428470    0.361670
  C     -3.954910    9.524980    0.572100
  C     -3.889040    9.792840    2.012260
  C     -3.054380    8.931910    2.612990
  F     -4.579360   10.771250    2.613280
  C     -4.723490   10.206540   -0.352630
  C     -5.612420   11.284880   -0.128030
  C     -6.190570   11.657430   -1.331670
  C     -5.649910   10.789260   -2.380610
  C     -4.791600    9.942020   -1.794440
  F     -4.081640    8.983310   -2.400970
  C     -7.140600   12.667360   -1.584220
  C     -7.666970   13.483190   -0.622750
  C     -8.627470   14.487570   -0.844220
  C     -9.250180   14.882180   -2.026680
  C    -10.156370   15.912250   -1.826170
  C    -10.239270   16.323940   -0.474940
  S     -9.192470   15.431560    0.534700
  C    -11.183090   17.362310   -0.376550
  C    -11.710200   17.621100   -1.663970
  C    -11.079070   16.716700   -2.612240
  C    -11.304690   16.636050   -3.954980
  C    -12.231490   17.470300   -4.615340
  N    -12.981330   18.145950   -5.158740
  C    -10.624910   15.709740   -4.773480
  N    -10.073760   14.953250   -5.435960
  C    -12.656950   18.634390   -1.668070
  C    -12.868730   19.162950   -0.397110
  S    -11.863910   18.374980    0.816150
  C    -13.748780   20.196440   -0.022020
  C    -14.599280   20.920580   -0.840040
  C    -15.299150   21.865960   -0.050220
  C    -14.814540   21.664580    1.318010
  C    -13.899780   20.682680    1.347500
  F    -15.243290   22.374560    2.367280
  C    -16.239420   22.795960   -0.453310
  C    -16.929910   23.746880    0.333720
  C    -17.779550   24.485630   -0.477690
  C    -17.636580   23.990780   -1.850130
  C    -16.730840   23.002130   -1.820680
  F    -16.310540   22.283630   -2.867840
  C    -18.617420   25.525180   -0.037960
  C    -19.457310   26.253360   -0.836150
  C    -20.288600   27.298020   -0.389830
  C    -21.145140   28.037530   -1.187020
  C    -21.815720   29.004650   -0.388290
  C    -21.298650   28.797570    0.968760
  C    -20.403260   27.799540    0.983350
  F    -21.688530   29.522040    2.023850
  C    -22.747200   29.937620   -0.777700
  C    -23.420260   30.912350    0.021230
  C    -24.268800   31.639650   -0.772280
  C    -24.162030   31.136390   -2.147150
  C    -23.266510   30.138880   -2.134940
  F    -22.877350   29.408210   -3.189010
  C    -25.113890   32.709300   -0.332100
  C    -25.931670   33.417960   -1.114560
  H      3.860350    0.909370    6.285400
  H      2.862290    1.637040    3.951030
  H      2.967580    2.574550    8.174090
  H      0.128250    5.584470    5.307410
  H      0.051310    4.644620    1.068370
  H     -1.365000    7.145920    3.848790
  H     -1.363700    6.426550    0.862950
  H     -2.890840    7.966560   -0.586830
  H     -2.812700    8.893270    3.656310
  H     -5.799430   11.726450    0.830050
  H     -5.911880   10.843400   -3.419240
  H     -7.462770   12.782520   -2.610020
  H     -7.336730   13.362110    0.399350
  H     -9.041090   14.428040   -2.977390
  H    -13.181310   18.989310   -2.535830
  H    -14.715900   20.796950   -1.897890
  H    -13.366350   20.306450    2.198850
  H    -16.812840   23.876820    1.391740
  H    -18.160670   24.357410   -2.709980
  H    -18.574530   25.746500    1.019810
  H    -19.505760   26.030690   -1.893270
  H    -21.285510   27.906910   -2.242130
  H    -19.866200   27.431790    1.834840
  H    -23.274580   31.045210    1.075260
  H    -24.704910   31.505200   -2.994290
  H    -25.056520   32.932970    0.725800
  H    -26.019610   33.231160   -2.170790
  H    -26.541560   34.210870   -0.717730

 Total Charge           Charge          ....    0
 Multiplicity           Mult            ....    1
 Number of Electrons    NEL             ....  506
 Basis Dimension        Dim             .... 1156

ORBITAL ENERGIES
----------------

  NO   OCC          E(Eh)            E(eV)
   0   2.0000     -88.992351     -2421.6050
   1   2.0000     -88.991717     -2421.5877
   2   2.0000     -24.794246      -674.6857
   3   2.0000     -24.789829      -674.5655
   4   2.0000     -24.789686      -674.5617
   5   2.0000     -24.789495      -674.5565
   6   2.0000     -24.789436      -674.5549
   7   2.0000     -24.788642      -674.5332
   8   2.0000     -24.787803      -674.5104
   9   2.0000     -24.782443      -674.3646
  10   2.0000     -14.433042      -392.7430
  11   2.0000     -14.431847      -392.7105
  12   2.0000     -10.367379      -282.1107
  13   2.0000     -10.360876      -281.9338
  14   2.0000     -10.356781      -281.8223
  15   2.0000     -10.356488      -281.8144
  16   2.0000     -10.355786      -281.7953
  17   2.0000     -10.354908      -281.7714
  18   2.0000     -10.354696      -281.7656
  19   2.0000     -10.354390      -281.7573
  20   2.0000     -10.353324      -281.7283
  21   2.0000     -10.346337      -281.5381
  22   2.0000     -10.335127      -281.2331
  23   2.0000     -10.334881      -281.2264
  24   2.0000     -10.333339      -281.1844
  25   2.0000     -10.331880      -281.1448
  26   2.0000     -10.325988      -280.9844
  27   2.0000     -10.325369      -280.9676
  28   2.0000     -10.307782      -280.4890
  29   2.0000     -10.307085      -280.4700
  30   2.0000     -10.305843      -280.4363
  31   2.0000     -10.305432      -280.4251
  32   2.0000     -10.305420      -280.4247
  33   2.0000     -10.304837      -280.4089
  34   2.0000     -10.304112      -280.3892
  35   2.0000     -10.303828      -280.3814
  36   2.0000     -10.303587      -280.3748
  37   2.0000     -10.303469      -280.3717
  38   2.0000     -10.302748      -280.3520
  39   2.0000     -10.301626      -280.3215
  40   2.0000     -10.301114      -280.3076
  41   2.0000     -10.300968      -280.3036
  42   2.0000     -10.291397      -280.0432
  43   2.0000     -10.290863      -280.0286
  44   2.0000     -10.290862      -280.0286
  45   2.0000     -10.290064      -280.0069
  46   2.0000     -10.289986      -280.0047
  47   2.0000     -10.289086      -279.9803
  48   2.0000     -10.289000      -279.9779
  49   2.0000     -10.287871      -279.9472
  50   2.0000     -10.287689      -279.9422
  51   2.0000     -10.287106      -279.9264
  52   2.0000     -10.286454      -279.9087
  53   2.0000     -10.279214      -279.7116
  54   2.0000     -10.278676      -279.6970
  55   2.0000     -10.275001      -279.5970
  56   2.0000     -10.274187      -279.5748
  57   2.0000     -10.273897      -279.5670
  58   2.0000     -10.273793      -279.5641
  59   2.0000     -10.273386      -279.5530
  60   2.0000     -10.272681      -279.5339
  61   2.0000     -10.272059      -279.5169
  62   2.0000     -10.271675      -279.5065
  63   2.0000     -10.268184      -279.4115
  64   2.0000     -10.267586      -279.3952
  65   2.0000     -10.267251      -279.3861
  66   2.0000     -10.266847      -279.3751
  67   2.0000     -10.265677      -279.3433
  68   2.0000     -10.265305      -279.3332
  69   2.0000     -10.261838      -279.2388
  70   2.0000     -10.261599      -279.2323
  71   2.0000     -10.259683      -279.1802
  72   2.0000      -8.086705      -220.0504
  73   2.0000      -8.086368      -220.0413
  74   2.0000      -6.055901      -164.7895
  75   2.0000      -6.055536      -164.7795
  76   2.0000      -6.051710      -164.6754
  77   2.0000      -6.051440      -164.6681
  78   2.0000      -6.049245      -164.6083
  79   2.0000      -6.048855      -164.5977
  80   2.0000      -1.306881       -35.5620
  81   2.0000      -1.302570       -35.4447
  82   2.0000      -1.302528       -35.4436
  83   2.0000      -1.302122       -35.4325
  84   2.0000      -1.301755       -35.4226
  85   2.0000      -1.301068       -35.4039
  86   2.0000      -1.299631       -35.3648
  87   2.0000      -1.293796       -35.2060
  88   2.0000      -1.046659       -28.4810
  89   2.0000      -1.024118       -27.8677
  90   2.0000      -1.010054       -27.4850
  91   2.0000      -1.002278       -27.2734
  92   2.0000      -0.989299       -26.9202
  93   2.0000      -0.987909       -26.8824
  94   2.0000      -0.987136       -26.8613
  95   2.0000      -0.985054       -26.8047
  96   2.0000      -0.973577       -26.4924
  97   2.0000      -0.969498       -26.3814
  98   2.0000      -0.968006       -26.3408
  99   2.0000      -0.961902       -26.1747
 100   2.0000      -0.958420       -26.0799
 101   2.0000      -0.922030       -25.0897
 102   2.0000      -0.901983       -24.5442
 103   2.0000      -0.899904       -24.4876
 104   2.0000      -0.892438       -24.2845
 105   2.0000      -0.879741       -23.9390
 106   2.0000      -0.872081       -23.7305
 107   2.0000      -0.861143       -23.4329
 108   2.0000      -0.856789       -23.3144
 109   2.0000      -0.853412       -23.2225
 110   2.0000      -0.842978       -22.9386
 111   2.0000      -0.839337       -22.8395
 112   2.0000      -0.826775       -22.4977
 113   2.0000      -0.817299       -22.2398
 114   2.0000      -0.816690       -22.2233
 115   2.0000      -0.804212       -21.8837
 116   2.0000      -0.799821       -21.7642
 117   2.0000      -0.796239       -21.6668
 118   2.0000      -0.794975       -21.6324
 119   2.0000      -0.791386       -21.5347
 120   2.0000      -0.782002       -21.2794
 121   2.0000      -0.778318       -21.1791
 122   2.0000      -0.772305       -21.0155
 123   2.0000      -0.756719       -20.5914
 124   2.0000      -0.747287       -20.3347
 125   2.0000      -0.740508       -20.1502
 126   2.0000      -0.722885       -19.6707
 127   2.0000      -0.709823       -19.3153
 128   2.0000      -0.705325       -19.1929
 129   2.0000      -0.704675       -19.1752
 130   2.0000      -0.691672       -18.8213
 131   2.0000      -0.690917       -18.8008
 132   2.0000      -0.685994       -18.6669
 133   2.0000      -0.675535       -18.3822
 134   2.0000      -0.673263       -18.3204
 135   2.0000      -0.670461       -18.2442
 136   2.0000      -0.668043       -18.1784
 137   2.0000      -0.662910       -18.0387
 138   2.0000      -0.660520       -17.9737
 139   2.0000      -0.659836       -17.9551
 140   2.0000      -0.659376       -17.9425
 141   2.0000      -0.650110       -17.6904
 142   2.0000      -0.644302       -17.5323
 143   2.0000      -0.643354       -17.5065
 144   2.0000      -0.637055       -17.3352
 145   2.0000      -0.631962       -17.1966
 146   2.0000      -0.629740       -17.1361
 147   2.0000      -0.624767       -17.0008
 148   2.0000      -0.624042       -16.9811
 149   2.0000      -0.621432       -16.9100
 150   2.0000      -0.619756       -16.8644
 151   2.0000      -0.618817       -16.8389
 152   2.0000      -0.617438       -16.8013
 153   2.0000      -0.616872       -16.7859
 154   2.0000      -0.613028       -16.6813
 155   2.0000      -0.601326       -16.3629
 156   2.0000      -0.581623       -15.8268
 157   2.0000      -0.574265       -15.6265
 158   2.0000      -0.571137       -15.5414
 159   2.0000      -0.567965       -15.4551
 160   2.0000      -0.565881       -15.3984
 161   2.0000      -0.563693       -15.3389
 162   2.0000      -0.559946       -15.2369
 163   2.0000      -0.559742       -15.2314
 164   2.0000      -0.558712       -15.2033
 165   2.0000      -0.555802       -15.1241
 166   2.0000      -0.555437       -15.1142
 167   2.0000      -0.552956       -15.0467
 168   2.0000      -0.552364       -15.0306
 169   2.0000      -0.550599       -14.9825
 170   2.0000      -0.549344       -14.9484
 171   2.0000      -0.548637       -14.9292
 172   2.0000      -0.548125       -14.9152
 173   2.0000      -0.547327       -14.8935
 174   2.0000      -0.546457       -14.8699
 175   2.0000      -0.543892       -14.8001
 176   2.0000      -0.542471       -14.7614
 177   2.0000      -0.541781       -14.7426
 178   2.0000      -0.536253       -14.5922
 179   2.0000      -0.533526       -14.5180
 180   2.0000      -0.530492       -14.4354
 181   2.0000      -0.529067       -14.3966
 182   2.0000      -0.522640       -14.2218
 183   2.0000      -0.522101       -14.2071
 184   2.0000      -0.517857       -14.0916
 185   2.0000      -0.513494       -13.9729
 186   2.0000      -0.511060       -13.9067
 187   2.0000      -0.507667       -13.8143
 188   2.0000      -0.506064       -13.7707
 189   2.0000      -0.503580       -13.7031
 190   2.0000      -0.499051       -13.5799
 191   2.0000      -0.494239       -13.4489
 192   2.0000      -0.494047       -13.4437
 193   2.0000      -0.492756       -13.4086
 194   2.0000      -0.486648       -13.2424
 195   2.0000      -0.484402       -13.1813
 196   2.0000      -0.481836       -13.1114
 197   2.0000      -0.476752       -12.9731
 198   2.0000      -0.475568       -12.9409
 199   2.0000      -0.473994       -12.8980
 200   2.0000      -0.472240       -12.8503
 201   2.0000      -0.470932       -12.8147
 202   2.0000      -0.470627       -12.8064
 203   2.0000      -0.469840       -12.7850
 204   2.0000      -0.468557       -12.7501
 205   2.0000      -0.468447       -12.7471
 206   2.0000      -0.464359       -12.6358
 207   2.0000      -0.463373       -12.6090
 208   2.0000      -0.461999       -12.5716
 209   2.0000      -0.459853       -12.5132
 210   2.0000      -0.458858       -12.4862
 211   2.0000      -0.456913       -12.4332
 212   2.0000      -0.456789       -12.4299
 213   2.0000      -0.455215       -12.3870
 214   2.0000      -0.451379       -12.2827
 215   2.0000      -0.451156       -12.2766
 216   2.0000      -0.450109       -12.2481
 217   2.0000      -0.445725       -12.1288
 218   2.0000      -0.443680       -12.0731
 219   2.0000      -0.442696       -12.0464
 220   2.0000      -0.442306       -12.0358
 221   2.0000      -0.440527       -11.9874
 222   2.0000      -0.437293       -11.8993
 223   2.0000      -0.434376       -11.8200
 224   2.0000      -0.434219       -11.8157
 225   2.0000      -0.432819       -11.7776
 226   2.0000      -0.432395       -11.7661
 227   2.0000      -0.427367       -11.6293
 228   2.0000      -0.419341       -11.4108
 229   2.0000      -0.418291       -11.3823
 230   2.0000      -0.414491       -11.2789
 231   2.0000      -0.413575       -11.2540
 232   2.0000      -0.409819       -11.1517
 233   2.0000      -0.401003       -10.9118
 234   2.0000      -0.392357       -10.6766
 235   2.0000      -0.381478       -10.3805
 236   2.0000      -0.367169        -9.9912
 237   2.0000      -0.355729        -9.6799
 238   2.0000      -0.352181        -9.5833
 239   2.0000      -0.330530        -8.9942
 240   2.0000      -0.326217        -8.8768
 241   2.0000      -0.319046        -8.6817
 242   2.0000      -0.311664        -8.4808
 243   2.0000      -0.308579        -8.3969
 244   2.0000      -0.302539        -8.2325
 245   2.0000      -0.296936        -8.0800
 246   2.0000      -0.296857        -8.0779
 247   2.0000      -0.282776        -7.6947
 248   2.0000      -0.279828        -7.6145
 249   2.0000      -0.275694        -7.5020
 250   2.0000      -0.260007        -7.0752
 251   2.0000      -0.244141        -6.6434
 252   2.0000      -0.227099        -6.1797
 253   0.0000      -0.124382        -3.3846
 254   0.0000      -0.111518        -3.0346
 255   0.0000      -0.102944        -2.8013
 256   0.0000      -0.082043        -2.2325
 257   0.0000      -0.077874        -2.1190

MULLIKEN ATOMIC CHARGES
-----------------------
   0 C :    0.042813
   1 C :   -0.009459
   2 C :   -0.035369
   3 C :    0.241838
   4 C :   -0.060929
   5 F :   -0.184649
   6 C :    0.028213
   7 C :   -0.083074
   8 C :    0.114654
   9 C :   -0.075154
  10 C :    0.255528
  11 F :   -0.173647
  12 C :    0.003686
  13 C :    0.005130
  14 C :    0.111668
  15 C :   -0.086139
  16 C :    0.013650
  17 C :    0.253803
  18 C :   -0.078509
  19 F :   -0.177957
  20 C :    0.014656
  21 C :   -0.099020
  22 C :    0.107293
  23 C :   -0.081352
  24 C :    0.257259
  25 F :   -0.176272
  26 C :   -0.007763
  27 C :    0.063429
  28 C :   -0.073316
  29 C :   -0.030065
  30 C :    0.007040
  31 C :   -0.101367
  32 S :    0.194184
  33 C :   -0.094611
  34 C :    0.023764
  35 C :    0.303034
  36 C :   -0.295945
  37 C :   -0.188886
  38 N :    0.178101
  39 C :   -0.184386
  40 N :    0.170969
  41 C :   -0.042346
  42 C :   -0.064106
  43 S :    0.183043
  44 C :    0.108281
  45 C :   -0.107581
  46 C :    0.020225
  47 C :    0.256995
  48 C :   -0.103085
  49 F :   -0.173944
  50 C :    0.012724
  51 C :   -0.092083
  52 C :    0.118610
  53 C :   -0.077559
  54 C :    0.256826
  55 F :   -0.172722
  56 C :   -0.002185
  57 C :    0.004320
  58 C :    0.113244
  59 C :   -0.082892
  60 C :    0.013254
  61 C :    0.255142
  62 C :   -0.077157
  63 F :   -0.175581
  64 C :    0.008026
  65 C :   -0.083053
  66 C :    0.095129
  67 C :   -0.073832
  68 C :    0.248362
  69 F :   -0.179259
  70 C :   -0.001155
  71 C :   -0.010802
  72 H :   -0.008136
  73 H :   -0.010001
  74 H :   -0.011140
  75 H :   -0.011666
  76 H :   -0.013953
  77 H :   -0.017573
  78 H :   -0.017648
  79 H :   -0.014774
  80 H :   -0.016546
  81 H :   -0.019059
  82 H :   -0.015310
  83 H :   -0.013180
  84 H :   -0.011780
  85 H :    0.009035
  86 H :    0.010757
  87 H :   -0.009348
  88 H :   -0.011658
  89 H :   -0.015216
  90 H :   -0.014907
  91 H :   -0.017136
  92 H :   -0.015773
  93 H :   -0.012392
  94 H :   -0.016266
  95 H :   -0.015150
  96 H :   -0.019434
  97 H :   -0.008986
  98 H :    0.019804
  99 H :    0.029752
Sum of atomic charges:    0.0000000

LOEWDIN ATOMIC CHARGES
----------------------
   0 C :    0.002009
   1 C :   -0.055851
   2 C :    0.003371
   3 C :    0.067289
   4 C :   -0.060763
   5 F :   -0.059608
   6 C :    0.004540
   7 C :   -0.046260
   8 C :   -0.000801
   9 C :   -0.054991
  10 C :    0.083008
  11 F :   -0.049668
  12 C :   -0.007343
  13 C :   -0.004478
  14 C :   -0.002801
  15 C :   -0.050582
  16 C :   -0.004182
  17 C :    0.081806
  18 C :   -0.059140
  19 F :   -0.054654
  20 C :    0.002043
  21 C :   -0.065749
  22 C :   -0.000237
  23 C :   -0.058744
  24 C :    0.080665
  25 F :   -0.052085
  26 C :   -0.016520
  27 C :   -0.018702
  28 C :   -0.160827
  29 C :   -0.020330
  30 C :   -0.064014
  31 C :   -0.183393
  32 S :    0.478370
  33 C :   -0.181635
  34 C :   -0.065030
  35 C :    0.081060
  36 C :   -0.099564
  37 C :   -0.017706
  38 N :   -0.028165
  39 C :   -0.015247
  40 N :   -0.032882
  41 C :   -0.011600
  42 C :   -0.154461
  43 S :    0.481723
  44 C :   -0.021925
  45 C :   -0.060264
  46 C :   -0.004322
  47 C :    0.087439
  48 C :   -0.074620
  49 F :   -0.049228
  50 C :    0.000896
  51 C :   -0.055867
  52 C :    0.002363
  53 C :   -0.057827
  54 C :    0.083232
  55 F :   -0.049812
  56 C :   -0.008340
  57 C :   -0.002243
  58 C :   -0.004552
  59 C :   -0.044736
  60 C :   -0.004237
  61 C :    0.082316
  62 C :   -0.057608
  63 F :   -0.051704
  64 C :    0.006343
  65 C :   -0.058098
  66 C :    0.002801
  67 C :   -0.053654
  68 C :    0.078632
  69 F :   -0.055022
  70 C :   -0.020859
  71 C :   -0.026503
  72 H :    0.026323
  73 H :    0.023759
  74 H :    0.029853
  75 H :    0.024568
  76 H :    0.030127
  77 H :    0.032573
  78 H :    0.032580
  79 H :    0.023763
  80 H :    0.029223
  81 H :    0.018342
  82 H :    0.030974
  83 H :    0.031977
  84 H :    0.032163
  85 H :    0.040244
  86 H :    0.043544
  87 H :    0.024304
  88 H :    0.024636
  89 H :    0.023280
  90 H :    0.030016
  91 H :    0.032586
  92 H :    0.033068
  93 H :    0.024323
  94 H :    0.029405
  95 H :    0.023614
  96 H :    0.029320
  97 H :    0.034023
  98 H :    0.022581
  99 H :    0.028354

  Mayer bond orders larger than 0.100000
B(  0-C ,  1-C ) :   1.6736 B(  0-C ,  4-C ) :   1.0362 B(  0-C , 72-H ) :   1.0009
B(  1-C ,  2-C ) :   1.0861 B(  1-C , 73-H ) :   1.0110 B(  2-C ,  3-C ) :   1.0236
B(  2-C ,  6-C ) :   1.5289 B(  3-C ,  4-C ) :   1.6718 B(  3-C ,  5-F ) :   1.1120
B(  4-C , 74-H ) :   1.0080 B(  6-C ,  7-C ) :   1.1041 B(  6-C , 10-C ) :   1.0136
B(  7-C ,  8-C ) :   1.5112 B(  7-C , 75-H ) :   1.0229 B(  8-C ,  9-C ) :   1.0090
B(  8-C , 12-C ) :   1.1499 B(  9-C , 10-C ) :   1.6778 B(  9-C , 76-H ) :   1.0129
B( 10-C , 11-F ) :   1.1311 B( 12-C , 13-C ) :   1.5607 B( 12-C , 77-H ) :   0.9814
B( 13-C , 14-C ) :   1.1561 B( 13-C , 78-H ) :   0.9812 B( 14-C , 15-C ) :   1.4790
B( 14-C , 18-C ) :   1.0192 B( 15-C , 16-C ) :   1.1426 B( 15-C , 79-H ) :   1.0228
B( 16-C , 17-C ) :   1.0242 B( 16-C , 20-C ) :   1.4254 B( 17-C , 18-C ) :   1.6664
B( 17-C , 19-F ) :   1.1195 B( 18-C , 80-H ) :   1.0131 B( 20-C , 21-C ) :   1.1665
B( 20-C , 24-C ) :   1.0144 B( 21-C , 22-C ) :   1.5018 B( 21-C , 81-H ) :   1.0076
B( 22-C , 23-C ) :   1.0090 B( 22-C , 26-C ) :   1.1545 B( 23-C , 24-C ) :   1.6585
B( 23-C , 82-H ) :   1.0211 B( 24-C , 25-F ) :   1.1249 B( 26-C , 27-C ) :   1.6248
B( 26-C , 83-H ) :   0.9765 B( 27-C , 28-C ) :   1.1511 B( 27-C , 84-H ) :   0.9607
B( 28-C , 29-C ) :   1.4159 B( 28-C , 32-S ) :   1.0985 B( 29-C , 30-C ) :   1.3311
B( 29-C , 85-H ) :   0.9899 B( 30-C , 31-C ) :   1.4008 B( 30-C , 35-C ) :   0.9984
B( 31-C , 32-S ) :   1.1254 B( 31-C , 33-C ) :   1.2224 B( 33-C , 34-C ) :   1.3983
B( 33-C , 43-S ) :   1.1276 B( 34-C , 35-C ) :   0.9920 B( 34-C , 41-C ) :   1.3146
B( 35-C , 36-C ) :   1.7140 B( 36-C , 37-C ) :   1.1335 B( 36-C , 39-C ) :   1.1344
B( 37-C , 38-N ) :   2.9931 B( 39-C , 40-N ) :   2.9882 B( 41-C , 42-C ) :   1.4251
B( 41-C , 86-H ) :   0.9977 B( 42-C , 43-S ) :   1.0925 B( 42-C , 44-C ) :   1.1430
B( 44-C , 45-C ) :   1.5280 B( 44-C , 48-C ) :   1.0175 B( 45-C , 46-C ) :   1.1566
B( 45-C , 87-H ) :   1.0118 B( 46-C , 47-C ) :   1.0252 B( 46-C , 50-C ) :   1.4185
B( 47-C , 48-C ) :   1.6654 B( 47-C , 49-F ) :   1.1287 B( 48-C , 88-H ) :   1.0073
B( 50-C , 51-C ) :   1.1472 B( 50-C , 54-C ) :   1.0188 B( 51-C , 52-C ) :   1.4730
B( 51-C , 89-H ) :   1.0222 B( 52-C , 53-C ) :   1.0161 B( 52-C , 56-C ) :   1.1618
B( 53-C , 54-C ) :   1.6685 B( 53-C , 90-H ) :   1.0140 B( 54-C , 55-F ) :   1.1270
B( 56-C , 57-C ) :   1.5515 B( 56-C , 91-H ) :   0.9810 B( 57-C , 58-C ) :   1.1549
B( 57-C , 92-H ) :   0.9818 B( 58-C , 59-C ) :   1.4936 B( 58-C , 62-C ) :   1.0164
B( 59-C , 60-C ) :   1.1215 B( 59-C , 93-H ) :   1.0221 B( 60-C , 61-C ) :   1.0189
B( 60-C , 64-C ) :   1.4773 B( 61-C , 62-C ) :   1.6697 B( 61-C , 63-F ) :   1.1274
B( 62-C , 94-H ) :   1.0134 B( 64-C , 65-C ) :   1.1085 B( 64-C , 68-C ) :   1.0195
B( 65-C , 66-C ) :   1.5618 B( 65-C , 95-H ) :   1.0198 B( 66-C , 67-C ) :   1.0141
B( 66-C , 70-C ) :   1.1153 B( 67-C , 68-C ) :   1.6747 B( 67-C , 96-H ) :   1.0131
B( 68-C , 69-F ) :   1.1211 B( 70-C , 71-C ) :   1.8948 B( 70-C , 97-H ) :   0.9677
B( 71-C , 98-H ) :   0.9539 B( 71-C , 99-H ) :   0.9504

-----------------------------------------------------------------------------
         ABSORPTION SPECTRUM VIA TRANSITION ELECTRIC DIPOLE MOMENTS
-----------------------------------------------------------------------------
State   Energy  Wavelength   fosc         T2         TX        TY        TZ
        (cm-1)    (nm)                  (au**2)     (au)      (au)      (au)
-----------------------------------------------------------------------------
   0    9096.6   1099.3   1.681896260  60.86895  -5.26542   5.62280  -1.23627
   1   11757.4    850.5   1.260638741  35.29844  -3.96792   4.17009  -1.47118
   2   12765.3    783.4   0.096839031   2.49744   0.45400  -0.60548  -1.38734
   3   15054.2    664.3   0.000039072   0.00085   0.02879  -0.00099  -0.00495
   4   15591.1    641.4   0.090471867   1.91035   0.67339  -0.64376   1.02101
   5   17373.7    575.6   0.011883702   0.22518   0.32544  -0.31689   0.13730
   6   17853.5    560.1   0.076170082   1.40455  -0.72905   0.75227  -0.55419
   7   18112.2    552.1   0.003109924   0.05653  -0.05787   0.07608   0.21769
   8   18489.2    540.9   0.028485399   0.50720   0.27340  -0.28274   0.59372
   9   19061.5    524.6   0.005863969   0.10128  -0.18470   0.22790  -0.12340
  10   20190.0    495.3   0.434720509   7.08842   1.77678  -1.98114  -0.08096
  11   20676.4    483.6   0.002125413   0.03384   0.02806   0.00019   0.18181
  12   21713.7    460.5   0.000705818   0.01070   0.00420   0.00314   0.10331
  13   22247.2    449.5   0.042739904   0.63246   0.49342  -0.46518   0.41546
  14   22389.0    446.6   0.169939200   2.49882   1.07092  -1.15512   0.13286
  15   23482.8    425.8   0.109873133   1.54034  -0.84517   0.90754  -0.04888
  16   24198.4    413.2   0.356937905   4.85602  -1.35463   1.39239  -1.04032
  17   24558.8    407.2   0.528232216   7.08098   1.78066  -1.97280  -0.13520
  18   25613.3    390.4   0.133803409   1.71980  -0.60802   0.62410  -0.98011
  19   26048.5    383.9   0.558219909   7.05502   1.77128  -1.92229   0.47157
  20   26140.3    382.6   0.069797740   0.87904  -0.62304   0.65602  -0.24596
  21   26766.5    373.6   0.091516765   1.12560  -0.69168   0.68411  -0.42329
  22   27034.9    369.9   0.146771560   1.78728   0.66517  -0.65197   0.95905
  23   27777.8    360.0   0.143149139   1.69655   0.86037  -0.88828   0.40897
  24   29041.8    344.3   0.001521496   0.01725  -0.02392  -0.02932  -0.12576
  25   29288.5    341.4   0.003678005   0.04134   0.08842  -0.12373  -0.13496
  26   29526.5    338.7   0.041451156   0.46217  -0.13738   0.06023  -0.66307
  27   29913.9    334.3   0.005298058   0.05831   0.14409  -0.12918  -0.14442
  28   30029.0    333.0   0.006293386   0.06900  -0.18689   0.10303   0.15314
  29   30544.4    327.4   0.267280893   2.88079  -0.38692   0.03807  -1.65216
  30   30692.7    325.8   0.016180400   0.17355  -0.22188   0.27892   0.21569
  31   30840.7    324.2   0.041608968   0.44416  -0.02783   0.18877   0.63855
  32   30945.5    323.1   0.041602227   0.44258   0.18807  -0.04650   0.63644
  33   31142.2    321.1   0.081228188   0.85868   0.31598  -0.47626  -0.72939
  34   31361.8    318.9   0.008191073   0.08598   0.00706   0.03357   0.29122
  35   32019.1    312.3   0.034342929   0.35310   0.34691  -0.36397   0.31668
  36   32419.3    308.5   0.006885907   0.06993  -0.15927   0.21086   0.00986
  37   32503.4    307.7   0.005538141   0.05609  -0.07747   0.11967   0.18913
  38   32749.8    305.3   0.003818182   0.03838  -0.09003   0.13583   0.10874
  39   33078.5    302.3   0.031638212   0.31488  -0.37354   0.39248  -0.14598
  40   33337.8    300.0   0.163022475   1.60985   0.55782  -0.35022   1.08445
  41   33962.1    294.4   0.263980192   2.55890  -0.50554   0.84151   1.26301
  42   34191.8    292.5   0.052473926   0.50524   0.06042  -0.24689  -0.66380
  43   34246.2    292.0   0.077684708   0.74679   0.57050  -0.64855   0.02661
  44   34297.3    291.6   0.003176602   0.03049   0.11872  -0.11616   0.05388
  45   34677.9    288.4   0.018708048   0.17760  -0.29198   0.26995  -0.13956
  46   34774.4    287.6   0.006033435   0.05712  -0.13565   0.11666  -0.15846
  47   34933.2    286.3   0.011261960   0.10613  -0.22224   0.23446  -0.04208
  48   35076.0    285.1   0.048522484   0.45542   0.43506  -0.51424  -0.04116
  49   35214.8    284.0   0.011471878   0.10725  -0.20253   0.17703  -0.18679
  50   35356.1    282.8   0.006755763   0.06291  -0.11500   0.10061  -0.19889
  51   35790.7    279.4   0.100923763   0.92832  -0.61482   0.60378  -0.43101
  52   36295.7    275.5   0.030636065   0.27788   0.29566  -0.29483   0.32177
  53   36636.3    273.0   0.012228372   0.10988   0.17681  -0.07459   0.27029
  54   37037.5    270.0   0.012155431   0.10804  -0.18994   0.23094   0.13651
  55   37386.6    267.5   0.003575022   0.03148  -0.12146   0.12062   0.04668
  56   37663.7    265.5   0.087961768   0.76886  -0.51474   0.56889  -0.42457
  57   38079.5    262.6   0.097457582   0.84256  -0.61523   0.63346  -0.25057
  58   38273.8    261.3   0.220643304   1.89786  -0.76422   0.73012  -0.88360
  59   38508.5    259.7   0.045921282   0.39258   0.25000  -0.24702   0.51872
  60   38718.3    258.3   0.083157616   0.70707   0.54424  -0.57151   0.29027
  61   38854.3    257.4   0.016883437   0.14305  -0.19132   0.19311  -0.26297
  62   39135.5    255.5   0.001355884   0.01141  -0.02821  -0.01013  -0.10251
  63   39550.9    252.8   0.009485681   0.07896  -0.10209   0.05979  -0.25487
  64   39863.1    250.9   0.010585366   0.08742   0.01696  -0.04736  -0.29136
  65   39990.5    250.1   0.001103002   0.00908  -0.07304   0.06086   0.00648

FINAL SINGLE POINT ENERGY     -4003.281934696790

DIPOLE MOMENT
-------------
                                X             Y             Z
Electronic contribution:     17.37296     -18.85772      -1.73283
Nuclear contribution   :    -17.75478      19.64933       3.25530
                        -----------------------------------------
Total Dipole Moment    :     -0.38183       0.79162       1.52247
                        -----------------------------------------
Magnitude (a.u.)       :      1.75794
Magnitude (Debye)      :      4.46834

Rotational constants in cm-1:     0.003117     0.000111     0.000107
Rotational constants in MHz :    93.440441     3.335710     3.221556

                             ****ORCA TERMINATED NORMALLY****
TOTAL RUN TIME: 0 days 0 hours 15 minutes 10 seconds 526 msec
