                         Program Version 4.2.0 -  RELEASE  -
|  1> # ORCA input file
|  2> # SCF done       -194.511541742801          0.000404435038
|  3> ! CAM-B3LYP def2-SVP def2/J RIJCOSX Grid4 TightSCF
|  4> %maxcore 5000
|  5> %tddft
|  6>     Mode sTDDFT
|  7>     Ethresh 5.0
|  8>     maxcore 5000
|  9> end
| 10>
| 11> %pal
| 12>   nprocs 6
| 13>   end
| 14> * xyz 0 1
| 15>    C        0.24553         0.01178        -1.02818
| 16>    C        1.08840        -0.07929         0.04888
| 17>    C        2.18545        -0.96246         0.12008
| 18>    N        3.09410        -1.65498         0.23396
| 19>    C        0.95891         0.66057         1.24333
| 20>    N        0.91177         1.20890         2.25139
| 21>    C        0.30737        -0.81179        -2.22724
| 22>    C       -0.82640        -0.53090        -3.02683
| 23>    C       -1.05260        -1.14696        -4.23350
| 24>    C       -0.11346        -2.08576        -4.67276
| 25>    C        1.01807        -2.35891        -3.86751
| 26>    C        1.24612        -1.73669        -2.64687
| 27>    S        2.05516        -3.54358        -4.60340
| 28>    C        0.96903        -3.65453        -5.96323
| 29>    C       -0.11488        -2.84811        -5.87304
| 30>   Br        1.37039        -4.82311        -7.37441
| 31>    C       -1.66159         0.49560        -2.36729
| 32>    O       -2.69532         0.95345        -2.80098
| 33>    C       -0.91653         0.87856        -1.13945
| 34>    C       -1.13014         1.99142        -0.38504
| 35>    C       -2.27323         2.85854        -0.37240
| 36>    C       -2.06261         4.22138        -0.08718
| 37>    C       -3.12814         5.08160        -0.07467
| 38>    C       -4.43596         4.60322        -0.28830
| 39>    C       -4.65928         3.25227        -0.52035
| 40>    C       -3.58145         2.39317        -0.57123
| 41>    C       -5.35140         5.71802        -0.20064
| 42>    C       -4.60998         6.88847         0.04261
| 43>    C       -3.13719         6.57391         0.15705
| 44>    C       -2.59929         6.92849         1.55644
| 45>    C       -3.36340         6.23543         2.67818
| 46>    C       -2.31579         7.31208        -0.91604
| 47>    C       -2.79027         7.01219        -2.33291
| 48>    C       -5.23444         8.10521         0.15545
| 49>    C       -6.63114         8.17954         0.04553
| 50>    C       -7.35946         6.99908        -0.16103
| 51>    C       -6.73537         5.77648        -0.29874
| 52>    C       -7.33799         9.43510         0.15063
| 53>    C       -6.79441        10.64632        -0.08224
| 54>    C       -7.47758        11.89141         0.03244
| 55>    S       -6.69836        13.32988        -0.61439
| 56>    C       -8.02639        14.30779        -0.11672
| 57>    C       -9.00467        13.53997         0.52769
| 58>    C       -8.69852        12.18121         0.60335
| 59>    S      -10.35360        14.49965         1.07703
| 60>    C       -9.59883        15.93155         0.42743
| 61>    C       -9.97432        17.26989         0.38757
| 62>    C       -9.03941        18.05390        -0.27224
| 63>    S       -7.66980        17.09268        -0.83908
| 64>    C       -8.36662        15.65919        -0.18364
| 65>    C       -9.02980        19.42897        -0.55866
| 66>    C       -9.91417        20.39114        -0.13842
| 67>    C       -9.85970        21.75967        -0.50420
| 68>    C      -10.82865        22.53481         0.05738
| 69>    C      -11.70137        21.83032         0.91264
| 70>    S      -11.26041        20.13402         0.95640
| 71>    C      -12.75265        22.32992         1.65758
| 72>    C      -13.23804        23.65613         1.69108
| 73>    C      -14.27929        23.83880         2.54844
| 74>    C      -14.67526        22.67493         3.25519
| 75>    S      -13.67090        21.32245         2.75222
| 76>    C      -15.66625        22.61963         4.20042
| 77>    C      -16.07659        21.51933         4.98246
| 78>    C      -15.61697        20.20202         4.99347
| 79>    C      -16.32217        19.48478         5.99455
| 80>    C      -16.23224        18.17843         6.41518
| 81>    C      -17.07054        17.77065         7.46822
| 82>    C      -17.20707        16.55454         8.11601
| 83>    C      -18.20642        16.67727         9.13687
| 84>    C      -18.68645        17.97146         9.11228
| 85>    C      -18.00458        18.69832         8.08443
| 86>    C      -18.10240        19.99577         7.66607
| 87>    C      -17.25610        20.41108         6.61241
| 88>    C      -17.10049        21.63063         5.99030
| 89>    C      -18.64433        15.64474        10.04454
| 90>    C      -18.17493        14.40057        10.08691
| 91>    H       -1.92642        -0.91095        -4.82046
| 92>    H        2.12676        -1.97225        -2.07294
| 93>    H       -0.88386        -2.78999        -6.62162
| 94>    H       -0.32103         2.30959         0.26354
| 95>    H       -1.05670         4.57664         0.08610
| 96>    H       -5.66120         2.87651        -0.66140
| 97>    H       -3.74773         1.34080        -0.72996
| 98>    H       -2.66220         8.01042         1.69031
| 99>    H       -1.54575         6.64622         1.60793
|100>    H       -4.41305         6.52079         2.66228
|101>    H       -2.94534         6.51492         3.64232
|102>    H       -3.29980         5.15427         2.57696
|103>    H       -1.26756         7.02297        -0.81491
|104>    H       -2.38434         8.38603        -0.73044
|105>    H       -2.71305         5.94878        -2.54863
|106>    H       -2.18225         7.55436        -3.05345
|107>    H       -3.82762         7.31311        -2.46232
|108>    H       -4.66236         8.99850         0.35470
|109>    H       -8.43611         7.05999        -0.23233
|110>    H       -7.31399         4.88192        -0.47410
|111>    H       -8.38914         9.36674         0.39638
|112>    H       -5.76848        10.71901        -0.41707
|113>    H       -9.32946        11.44800         1.06975
|114>    H      -10.88908        17.64920         0.80070
|115>    H       -8.21721        19.77345        -1.18556
|116>    H       -9.10159        22.12511        -1.17428
|117>    H      -10.92907        23.59202        -0.11102
|118>    H      -12.80989        24.43336         1.08395
|119>    H      -14.77596        24.78030         2.70655
|120>    H      -16.18653        23.55192         4.38678
|121>    H      -14.85778        19.78051         4.36367
|122>    H      -15.53934        17.48408         5.96158
|123>    H      -16.65433        15.66045         7.89334
|124>    H      -19.44424        18.37978         9.75595
|125>    H      -18.79335        20.69325         8.11920
|126>    H      -17.64004        22.53497         6.21060
|127>    H      -19.42042        15.94709        10.73718
|128>    H      -17.40359        14.05393         9.42066
|129>    H      -18.54862        13.68175        10.79543
|130> *
|131>
|132>                          ****END OF INPUT****

CARTESIAN COORDINATES (ANGSTROEM)
---------------------------------
  C      0.245530    0.011780   -1.028180
  C      1.088400   -0.079290    0.048880
  C      2.185450   -0.962460    0.120080
  N      3.094100   -1.654980    0.233960
  C      0.958910    0.660570    1.243330
  N      0.911770    1.208900    2.251390
  C      0.307370   -0.811790   -2.227240
  C     -0.826400   -0.530900   -3.026830
  C     -1.052600   -1.146960   -4.233500
  C     -0.113460   -2.085760   -4.672760
  C      1.018070   -2.358910   -3.867510
  C      1.246120   -1.736690   -2.646870
  S      2.055160   -3.543580   -4.603400
  C      0.969030   -3.654530   -5.963230
  C     -0.114880   -2.848110   -5.873040
  Br     1.370390   -4.823110   -7.374410
  C     -1.661590    0.495600   -2.367290
  O     -2.695320    0.953450   -2.800980
  C     -0.916530    0.878560   -1.139450
  C     -1.130140    1.991420   -0.385040
  C     -2.273230    2.858540   -0.372400
  C     -2.062610    4.221380   -0.087180
  C     -3.128140    5.081600   -0.074670
  C     -4.435960    4.603220   -0.288300
  C     -4.659280    3.252270   -0.520350
  C     -3.581450    2.393170   -0.571230
  C     -5.351400    5.718020   -0.200640
  C     -4.609980    6.888470    0.042610
  C     -3.137190    6.573910    0.157050
  C     -2.599290    6.928490    1.556440
  C     -3.363400    6.235430    2.678180
  C     -2.315790    7.312080   -0.916040
  C     -2.790270    7.012190   -2.332910
  C     -5.234440    8.105210    0.155450
  C     -6.631140    8.179540    0.045530
  C     -7.359460    6.999080   -0.161030
  C     -6.735370    5.776480   -0.298740
  C     -7.337990    9.435100    0.150630
  C     -6.794410   10.646320   -0.082240
  C     -7.477580   11.891410    0.032440
  S     -6.698360   13.329880   -0.614390
  C     -8.026390   14.307790   -0.116720
  C     -9.004670   13.539970    0.527690
  C     -8.698520   12.181210    0.603350
  S    -10.353600   14.499650    1.077030
  C     -9.598830   15.931550    0.427430
  C     -9.974320   17.269890    0.387570
  C     -9.039410   18.053900   -0.272240
  S     -7.669800   17.092680   -0.839080
  C     -8.366620   15.659190   -0.183640
  C     -9.029800   19.428970   -0.558660
  C     -9.914170   20.391140   -0.138420
  C     -9.859700   21.759670   -0.504200
  C    -10.828650   22.534810    0.057380
  C    -11.701370   21.830320    0.912640
  S    -11.260410   20.134020    0.956400
  C    -12.752650   22.329920    1.657580
  C    -13.238040   23.656130    1.691080
  C    -14.279290   23.838800    2.548440
  C    -14.675260   22.674930    3.255190
  S    -13.670900   21.322450    2.752220
  C    -15.666250   22.619630    4.200420
  C    -16.076590   21.519330    4.982460
  C    -15.616970   20.202020    4.993470
  C    -16.322170   19.484780    5.994550
  C    -16.232240   18.178430    6.415180
  C    -17.070540   17.770650    7.468220
  C    -17.207070   16.554540    8.116010
  C    -18.206420   16.677270    9.136870
  C    -18.686450   17.971460    9.112280
  C    -18.004580   18.698320    8.084430
  C    -18.102400   19.995770    7.666070
  C    -17.256100   20.411080    6.612410
  C    -17.100490   21.630630    5.990300
  C    -18.644330   15.644740   10.044540
  C    -18.174930   14.400570   10.086910
  H     -1.926420   -0.910950   -4.820460
  H      2.126760   -1.972250   -2.072940
  H     -0.883860   -2.789990   -6.621620
  H     -0.321030    2.309590    0.263540
  H     -1.056700    4.576640    0.086100
  H     -5.661200    2.876510   -0.661400
  H     -3.747730    1.340800   -0.729960
  H     -2.662200    8.010420    1.690310
  H     -1.545750    6.646220    1.607930
  H     -4.413050    6.520790    2.662280
  H     -2.945340    6.514920    3.642320
  H     -3.299800    5.154270    2.576960
  H     -1.267560    7.022970   -0.814910
  H     -2.384340    8.386030   -0.730440
  H     -2.713050    5.948780   -2.548630
  H     -2.182250    7.554360   -3.053450
  H     -3.827620    7.313110   -2.462320
  H     -4.662360    8.998500    0.354700
  H     -8.436110    7.059990   -0.232330
  H     -7.313990    4.881920   -0.474100
  H     -8.389140    9.366740    0.396380
  H     -5.768480   10.719010   -0.417070
  H     -9.329460   11.448000    1.069750
  H    -10.889080   17.649200    0.800700
  H     -8.217210   19.773450   -1.185560
  H     -9.101590   22.125110   -1.174280
  H    -10.929070   23.592020   -0.111020
  H    -12.809890   24.433360    1.083950
  H    -14.775960   24.780300    2.706550
  H    -16.186530   23.551920    4.386780
  H    -14.857780   19.780510    4.363670
  H    -15.539340   17.484080    5.961580
  H    -16.654330   15.660450    7.893340
  H    -19.444240   18.379780    9.755950
  H    -18.793350   20.693250    8.119200
  H    -17.640040   22.534970    6.210600
  H    -19.420420   15.947090   10.737180
  H    -17.403590   14.053930    9.420660
  H    -18.548620   13.681750   10.795430

 Total Charge           Charge          ....    0
 Multiplicity           Mult            ....    1
 Number of Electrons    NEL             ....  588
 Basis Dimension        Dim             .... 1301

ORBITAL ENERGIES
----------------

  NO   OCC          E(Eh)            E(eV)
   0   2.0000    -482.885145    -13139.9728
   1   2.0000     -88.974974     -2421.1321
   2   2.0000     -88.955075     -2420.5907
   3   2.0000     -88.952318     -2420.5156
   4   2.0000     -88.950874     -2420.4763
   5   2.0000     -88.941885     -2420.2317
   6   2.0000     -88.940907     -2420.2051
   7   2.0000     -62.562881     -1702.4225
   8   2.0000     -56.396831     -1534.6358
   9   2.0000     -56.394112     -1534.5618
  10   2.0000     -56.394080     -1534.5609
  11   2.0000     -19.213952      -522.8382
  12   2.0000     -14.413253      -392.2046
  13   2.0000     -14.412390      -392.1811
  14   2.0000     -10.366458      -282.0857
  15   2.0000     -10.358535      -281.8701
  16   2.0000     -10.339883      -281.3625
  17   2.0000     -10.338634      -281.3285
  18   2.0000     -10.324917      -280.9553
  19   2.0000     -10.316104      -280.7155
  20   2.0000     -10.315368      -280.6954
  21   2.0000     -10.313820      -280.6533
  22   2.0000     -10.307073      -280.4697
  23   2.0000     -10.306736      -280.4606
  24   2.0000     -10.305945      -280.4390
  25   2.0000     -10.304760      -280.4068
  26   2.0000     -10.303782      -280.3802
  27   2.0000     -10.303472      -280.3717
  28   2.0000     -10.302010      -280.3319
  29   2.0000     -10.301403      -280.3154
  30   2.0000     -10.300423      -280.2888
  31   2.0000     -10.299915      -280.2749
  32   2.0000     -10.299249      -280.2568
  33   2.0000     -10.298344      -280.2322
  34   2.0000     -10.296787      -280.1898
  35   2.0000     -10.296452      -280.1807
  36   2.0000     -10.296218      -280.1743
  37   2.0000     -10.294957      -280.1400
  38   2.0000     -10.294824      -280.1364
  39   2.0000     -10.293552      -280.1018
  40   2.0000     -10.291007      -280.0325
  41   2.0000     -10.285305      -279.8774
  42   2.0000     -10.281491      -279.7736
  43   2.0000     -10.281474      -279.7731
  44   2.0000     -10.281034      -279.7612
  45   2.0000     -10.280812      -279.7551
  46   2.0000     -10.280304      -279.7413
  47   2.0000     -10.280198      -279.7384
  48   2.0000     -10.280114      -279.7361
  49   2.0000     -10.280106      -279.7359
  50   2.0000     -10.280104      -279.7358
  51   2.0000     -10.279505      -279.7196
  52   2.0000     -10.279217      -279.7117
  53   2.0000     -10.279101      -279.7086
  54   2.0000     -10.278536      -279.6932
  55   2.0000     -10.277429      -279.6631
  56   2.0000     -10.275753      -279.6174
  57   2.0000     -10.274970      -279.5962
  58   2.0000     -10.274544      -279.5846
  59   2.0000     -10.274485      -279.5829
  60   2.0000     -10.273159      -279.5469
  61   2.0000     -10.271998      -279.5153
  62   2.0000     -10.271450      -279.5004
  63   2.0000     -10.271091      -279.4906
  64   2.0000     -10.270680      -279.4794
  65   2.0000     -10.269719      -279.4533
  66   2.0000     -10.268655      -279.4243
  67   2.0000     -10.267074      -279.3813
  68   2.0000     -10.266363      -279.3619
  69   2.0000     -10.265514      -279.3388
  70   2.0000     -10.264838      -279.3205
  71   2.0000     -10.264161      -279.3020
  72   2.0000     -10.263035      -279.2714
  73   2.0000     -10.262255      -279.2502
  74   2.0000     -10.261913      -279.2408
  75   2.0000     -10.261469      -279.2288
  76   2.0000     -10.261237      -279.2224
  77   2.0000     -10.255248      -279.0595
  78   2.0000     -10.246675      -278.8262
  79   2.0000     -10.245084      -278.7829
  80   2.0000      -8.792324      -239.2513
  81   2.0000      -8.070915      -219.6208
  82   2.0000      -8.050443      -219.0637
  83   2.0000      -8.047635      -218.9873
  84   2.0000      -8.046101      -218.9455
  85   2.0000      -8.037783      -218.7192
  86   2.0000      -8.036703      -218.6898
  87   2.0000      -6.628640      -180.3745
  88   2.0000      -6.614052      -179.9775
  89   2.0000      -6.613853      -179.9721
  90   2.0000      -6.040602      -164.3731
  91   2.0000      -6.036339      -164.2571
  92   2.0000      -6.032147      -164.1431
  93   2.0000      -6.019936      -163.8108
  94   2.0000      -6.017211      -163.7366
  95   2.0000      -6.015935      -163.7019
  96   2.0000      -6.015825      -163.6989
  97   2.0000      -6.013233      -163.6284
  98   2.0000      -6.012058      -163.5964
  99   2.0000      -6.012024      -163.5955
 100   2.0000      -6.009061      -163.5149
 101   2.0000      -6.007560      -163.4740
 102   2.0000      -6.007054      -163.4602
 103   2.0000      -6.006444      -163.4437
 104   2.0000      -6.003459      -163.3624
 105   2.0000      -6.002370      -163.3328
 106   2.0000      -5.998741      -163.2340
 107   2.0000      -5.997734      -163.2066
 108   2.0000      -2.744481       -74.6811
 109   2.0000      -2.740442       -74.5712
 110   2.0000      -2.740258       -74.5662
 111   2.0000      -2.728684       -74.2513
 112   2.0000      -2.728658       -74.2506
 113   2.0000      -1.129699       -30.7407
 114   2.0000      -1.021615       -27.7996
 115   2.0000      -1.011509       -27.5245
 116   2.0000      -1.010685       -27.5021
 117   2.0000      -0.991853       -26.9897
 118   2.0000      -0.991189       -26.9716
 119   2.0000      -0.990031       -26.9401
 120   2.0000      -0.987619       -26.8745
 121   2.0000      -0.982493       -26.7350
 122   2.0000      -0.973182       -26.4816
 123   2.0000      -0.965811       -26.2811
 124   2.0000      -0.955579       -26.0026
 125   2.0000      -0.952602       -25.9216
 126   2.0000      -0.940580       -25.5945
 127   2.0000      -0.926629       -25.2148
 128   2.0000      -0.919527       -25.0216
 129   2.0000      -0.907064       -24.6825
 130   2.0000      -0.897186       -24.4137
 131   2.0000      -0.896734       -24.4014
 132   2.0000      -0.887976       -24.1631
 133   2.0000      -0.884824       -24.0773
 134   2.0000      -0.881194       -23.9785
 135   2.0000      -0.870928       -23.6991
 136   2.0000      -0.863140       -23.4872
 137   2.0000      -0.859093       -23.3771
 138   2.0000      -0.851794       -23.1785
 139   2.0000      -0.845282       -23.0013
 140   2.0000      -0.837306       -22.7842
 141   2.0000      -0.836993       -22.7757
 142   2.0000      -0.836634       -22.7660
 143   2.0000      -0.835332       -22.7305
 144   2.0000      -0.829698       -22.5772
 145   2.0000      -0.828539       -22.5457
 146   2.0000      -0.827178       -22.5087
 147   2.0000      -0.816947       -22.2303
 148   2.0000      -0.809148       -22.0180
 149   2.0000      -0.800705       -21.7883
 150   2.0000      -0.793066       -21.5804
 151   2.0000      -0.780466       -21.2376
 152   2.0000      -0.774941       -21.0872
 153   2.0000      -0.764196       -20.7948
 154   2.0000      -0.762163       -20.7395
 155   2.0000      -0.757021       -20.5996
 156   2.0000      -0.750936       -20.4340
 157   2.0000      -0.741937       -20.1891
 158   2.0000      -0.733540       -19.9606
 159   2.0000      -0.724078       -19.7032
 160   2.0000      -0.714236       -19.4353
 161   2.0000      -0.704432       -19.1686
 162   2.0000      -0.693650       -18.8752
 163   2.0000      -0.689865       -18.7722
 164   2.0000      -0.685161       -18.6442
 165   2.0000      -0.676252       -18.4018
 166   2.0000      -0.674255       -18.3474
 167   2.0000      -0.673486       -18.3265
 168   2.0000      -0.665558       -18.1108
 169   2.0000      -0.664569       -18.0838
 170   2.0000      -0.659919       -17.9573
 171   2.0000      -0.654474       -17.8091
 172   2.0000      -0.654095       -17.7988
 173   2.0000      -0.645950       -17.5772
 174   2.0000      -0.641118       -17.4457
 175   2.0000      -0.633792       -17.2464
 176   2.0000      -0.629455       -17.1283
 177   2.0000      -0.622902       -16.9500
 178   2.0000      -0.621196       -16.9036
 179   2.0000      -0.619945       -16.8696
 180   2.0000      -0.617675       -16.8078
 181   2.0000      -0.611891       -16.6504
 182   2.0000      -0.606999       -16.5173
 183   2.0000      -0.599562       -16.3149
 184   2.0000      -0.596583       -16.2339
 185   2.0000      -0.595584       -16.2067
 186   2.0000      -0.592759       -16.1298
 187   2.0000      -0.586245       -15.9525
 188   2.0000      -0.581027       -15.8105
 189   2.0000      -0.573717       -15.6116
 190   2.0000      -0.569436       -15.4951
 191   2.0000      -0.564293       -15.3552
 192   2.0000      -0.556419       -15.1409
 193   2.0000      -0.554174       -15.0798
 194   2.0000      -0.548737       -14.9319
 195   2.0000      -0.547440       -14.8966
 196   2.0000      -0.545707       -14.8494
 197   2.0000      -0.544085       -14.8053
 198   2.0000      -0.540436       -14.7060
 199   2.0000      -0.535360       -14.5679
 200   2.0000      -0.534652       -14.5486
 201   2.0000      -0.530389       -14.4326
 202   2.0000      -0.527488       -14.3537
 203   2.0000      -0.526930       -14.3385
 204   2.0000      -0.523068       -14.2334
 205   2.0000      -0.519772       -14.1437
 206   2.0000      -0.518137       -14.0992
 207   2.0000      -0.516972       -14.0675
 208   2.0000      -0.514112       -13.9897
 209   2.0000      -0.511856       -13.9283
 210   2.0000      -0.509724       -13.8703
 211   2.0000      -0.507787       -13.8176
 212   2.0000      -0.505023       -13.7424
 213   2.0000      -0.502940       -13.6857
 214   2.0000      -0.500053       -13.6071
 215   2.0000      -0.497886       -13.5482
 216   2.0000      -0.493677       -13.4336
 217   2.0000      -0.493006       -13.4154
 218   2.0000      -0.491107       -13.3637
 219   2.0000      -0.489259       -13.3134
 220   2.0000      -0.488451       -13.2914
 221   2.0000      -0.484877       -13.1942
 222   2.0000      -0.484215       -13.1762
 223   2.0000      -0.482424       -13.1274
 224   2.0000      -0.480412       -13.0727
 225   2.0000      -0.475046       -12.9266
 226   2.0000      -0.472474       -12.8567
 227   2.0000      -0.471449       -12.8288
 228   2.0000      -0.469862       -12.7856
 229   2.0000      -0.467630       -12.7248
 230   2.0000      -0.466729       -12.7004
 231   2.0000      -0.465886       -12.6774
 232   2.0000      -0.459019       -12.4905
 233   2.0000      -0.458171       -12.4675
 234   2.0000      -0.456660       -12.4264
 235   2.0000      -0.454336       -12.3631
 236   2.0000      -0.452596       -12.3158
 237   2.0000      -0.450657       -12.2630
 238   2.0000      -0.448962       -12.2169
 239   2.0000      -0.447575       -12.1791
 240   2.0000      -0.446358       -12.1460
 241   2.0000      -0.445553       -12.1241
 242   2.0000      -0.443768       -12.0756
 243   2.0000      -0.442031       -12.0283
 244   2.0000      -0.439966       -11.9721
 245   2.0000      -0.437894       -11.9157
 246   2.0000      -0.437353       -11.9010
 247   2.0000      -0.433565       -11.7979
 248   2.0000      -0.431228       -11.7343
 249   2.0000      -0.426738       -11.6121
 250   2.0000      -0.424825       -11.5601
 251   2.0000      -0.424694       -11.5565
 252   2.0000      -0.423918       -11.5354
 253   2.0000      -0.422569       -11.4987
 254   2.0000      -0.419236       -11.4080
 255   2.0000      -0.418714       -11.3938
 256   2.0000      -0.416741       -11.3401
 257   2.0000      -0.415339       -11.3020
 258   2.0000      -0.413339       -11.2475
 259   2.0000      -0.411391       -11.1945
 260   2.0000      -0.406919       -11.0728
 261   2.0000      -0.405828       -11.0431
 262   2.0000      -0.403306       -10.9745
 263   2.0000      -0.401322       -10.9205
 264   2.0000      -0.398054       -10.8316
 265   2.0000      -0.393170       -10.6987
 266   2.0000      -0.390201       -10.6179
 267   2.0000      -0.389788       -10.6067
 268   2.0000      -0.387838       -10.5536
 269   2.0000      -0.384016       -10.4496
 270   2.0000      -0.383964       -10.4482
 271   2.0000      -0.376024       -10.2321
 272   2.0000      -0.374585       -10.1930
 273   2.0000      -0.373138       -10.1536
 274   2.0000      -0.362479        -9.8636
 275   2.0000      -0.360077        -9.7982
 276   2.0000      -0.348024        -9.4702
 277   2.0000      -0.340204        -9.2574
 278   2.0000      -0.334709        -9.1079
 279   2.0000      -0.329548        -8.9675
 280   2.0000      -0.327348        -8.9076
 281   2.0000      -0.321653        -8.7526
 282   2.0000      -0.318858        -8.6766
 283   2.0000      -0.316401        -8.6097
 284   2.0000      -0.314592        -8.5605
 285   2.0000      -0.312176        -8.4947
 286   2.0000      -0.296134        -8.0582
 287   2.0000      -0.291944        -7.9442
 288   2.0000      -0.278228        -7.5710
 289   2.0000      -0.274502        -7.4696
 290   2.0000      -0.265117        -7.2142
 291   2.0000      -0.253541        -6.8992
 292   2.0000      -0.235349        -6.4042
 293   2.0000      -0.197679        -5.3791
 294   0.0000      -0.094022        -2.5585
 295   0.0000      -0.086668        -2.3584
 296   0.0000      -0.069410        -1.8887
 297   0.0000      -0.057635        -1.5683
 298   0.0000      -0.034921        -0.9502

MULLIKEN ATOMIC CHARGES
-----------------------
   0 C :    0.291130
   1 C :   -0.340089
   2 C :   -0.183289
   3 N :    0.147946
   4 C :   -0.207064
   5 N :    0.162417
   6 C :    0.016596
   7 C :   -0.020073
   8 C :   -0.072105
   9 C :    0.119812
  10 C :   -0.089976
  11 C :   -0.020359
  12 S :    0.186161
  13 C :   -0.124399
  14 C :    0.037813
  15 Br:    0.023643
  16 C :    0.139513
  17 O :   -0.140826
  18 C :   -0.074928
  19 C :   -0.036098
  20 C :    0.073075
  21 C :   -0.094683
  22 C :    0.012831
  23 C :    0.124791
  24 C :   -0.061310
  25 C :    0.072016
  26 C :    0.099351
  27 C :    0.015800
  28 C :   -0.137586
  29 C :    0.065572
  30 C :    0.023877
  31 C :    0.063933
  32 C :    0.024623
  33 C :   -0.095802
  34 C :    0.122387
  35 C :   -0.022056
  36 C :   -0.040637
  37 C :   -0.020050
  38 C :    0.065638
  39 C :   -0.081114
  40 S :    0.138813
  41 C :   -0.082536
  42 C :   -0.034576
  43 C :   -0.031714
  44 S :    0.143262
  45 C :   -0.039498
  46 C :   -0.039662
  47 C :   -0.089645
  48 S :    0.131230
  49 C :   -0.072357
  50 C :    0.027674
  51 C :   -0.029635
  52 C :    0.030706
  53 C :    0.026032
  54 C :   -0.041390
  55 S :    0.057070
  56 C :   -0.031879
  57 C :    0.022252
  58 C :    0.036255
  59 C :   -0.019580
  60 S :    0.056025
  61 C :   -0.014400
  62 C :    0.059356
  63 C :   -0.045025
  64 C :    0.053042
  65 C :   -0.002859
  66 C :    0.051829
  67 C :   -0.023885
  68 C :    0.063701
  69 C :   -0.031362
  70 C :    0.060621
  71 C :   -0.006483
  72 C :    0.062282
  73 C :   -0.037967
  74 C :    0.010427
  75 C :   -0.026473
  76 H :   -0.010492
  77 H :   -0.006718
  78 H :   -0.001568
  79 H :    0.030807
  80 H :   -0.030072
  81 H :   -0.031107
  82 H :   -0.014884
  83 H :    0.000371
  84 H :    0.000998
  85 H :    0.022119
  86 H :    0.011773
  87 H :    0.023219
  88 H :   -0.000900
  89 H :   -0.001815
  90 H :    0.023872
  91 H :    0.010150
  92 H :    0.021432
  93 H :   -0.037670
  94 H :   -0.027177
  95 H :   -0.032975
  96 H :   -0.016882
  97 H :   -0.016731
  98 H :   -0.017491
  99 H :   -0.004901
 100 H :   -0.018405
 101 H :   -0.014617
 102 H :   -0.014648
 103 H :   -0.017180
 104 H :   -0.015250
 105 H :   -0.026960
 106 H :   -0.014495
 107 H :   -0.025737
 108 H :   -0.025570
 109 H :   -0.030168
 110 H :   -0.028050
 111 H :   -0.025972
 112 H :   -0.020234
 113 H :    0.007840
 114 H :    0.019961
Sum of atomic charges:   -0.0000000

LOEWDIN ATOMIC CHARGES
----------------------
   0 C :    0.076454
   1 C :   -0.141159
   2 C :   -0.018169
   3 N :   -0.054515
   4 C :   -0.025580
   5 N :   -0.050927
   6 C :   -0.021870
   7 C :   -0.050146
   8 C :    0.021547
   9 C :   -0.032289
  10 C :   -0.143828
  11 C :   -0.009712
  12 S :    0.432054
  13 C :   -0.271355
  14 C :   -0.070614
  15 Br:    0.136571
  16 C :    0.081842
  17 O :   -0.134876
  18 C :   -0.098667
  19 C :    0.085236
  20 C :   -0.044945
  21 C :   -0.000345
  22 C :   -0.003120
  23 C :    0.007878
  24 C :   -0.022605
  25 C :    0.027199
  26 C :   -0.025564
  27 C :    0.010248
  28 C :   -0.035997
  29 C :   -0.011372
  30 C :   -0.057522
  31 C :   -0.012164
  32 C :   -0.057966
  33 C :   -0.021462
  34 C :   -0.015769
  35 C :   -0.020708
  36 C :   -0.011598
  37 C :   -0.018125
  38 C :   -0.039154
  39 C :   -0.162915
  40 S :    0.419850
  41 C :   -0.219291
  42 C :   -0.191331
  43 C :   -0.065248
  44 S :    0.396487
  45 C :   -0.187107
  46 C :   -0.080372
  47 C :   -0.157173
  48 S :    0.413813
  49 C :   -0.220440
  50 C :   -0.083732
  51 C :   -0.145008
  52 C :   -0.035648
  53 C :   -0.037083
  54 C :   -0.183101
  55 S :    0.377796
  56 C :   -0.174453
  57 C :   -0.044729
  58 C :   -0.027245
  59 C :   -0.152288
  60 S :    0.381882
  61 C :   -0.046802
  62 C :   -0.065677
  63 C :   -0.008594
  64 C :   -0.052163
  65 C :    0.064871
  66 C :   -0.059319
  67 C :    0.041780
  68 C :   -0.057028
  69 C :    0.008082
  70 C :   -0.055650
  71 C :    0.064925
  72 C :   -0.063335
  73 C :    0.038769
  74 C :   -0.020668
  75 C :   -0.055612
  76 H :    0.040786
  77 H :    0.040880
  78 H :    0.039124
  79 H :    0.045583
  80 H :    0.028144
  81 H :    0.029270
  82 H :    0.031330
  83 H :    0.020704
  84 H :    0.020870
  85 H :    0.025551
  86 H :    0.025480
  87 H :    0.025790
  88 H :    0.020168
  89 H :    0.020005
  90 H :    0.026027
  91 H :    0.024487
  92 H :    0.025561
  93 H :    0.023738
  94 H :    0.026790
  95 H :    0.028115
  96 H :    0.026946
  97 H :    0.025943
  98 H :    0.031594
  99 H :    0.020642
 100 H :    0.032215
 101 H :    0.032428
 102 H :    0.031364
 103 H :    0.030335
 104 H :    0.032404
 105 H :    0.032476
 106 H :    0.011802
 107 H :    0.034521
 108 H :    0.024349
 109 H :    0.023035
 110 H :    0.033655
 111 H :    0.024012
 112 H :    0.028942
 113 H :    0.017701
 114 H :    0.024080

  Mayer bond orders larger than 0.100000
B(  0-C ,  1-C ) :   1.6460 B(  0-C ,  6-C ) :   1.0089 B(  0-C , 18-C ) :   1.0534
B(  1-C ,  2-C ) :   1.1365 B(  1-C ,  4-C ) :   1.1417 B(  2-C ,  3-N ) :   2.9744
B(  4-C ,  5-N ) :   2.9966 B(  6-C ,  7-C ) :   1.2711 B(  6-C , 11-C ) :   1.4077
B(  7-C ,  8-C ) :   1.4225 B(  7-C , 16-C ) :   0.9427 B(  8-C ,  9-C ) :   1.2479
B(  8-C , 76-H ) :   1.0170 B(  9-C , 10-C ) :   1.3042 B(  9-C , 14-C ) :   1.1623
B( 10-C , 11-C ) :   1.3323 B( 10-C , 12-S ) :   1.0848 B( 11-C , 77-H ) :   0.9811
B( 12-S , 13-C ) :   1.0863 B( 13-C , 14-C ) :   1.6195 B( 13-C , 15-Br) :   1.0186
B( 14-C , 78-H ) :   0.9999 B( 16-C , 17-O ) :   2.2313 B( 16-C , 18-C ) :   0.9353
B( 18-C , 19-C ) :   1.6128 B( 19-C , 20-C ) :   1.0966 B( 19-C , 79-H ) :   0.9542
B( 20-C , 21-C ) :   1.2494 B( 20-C , 25-C ) :   1.3488 B( 21-C , 22-C ) :   1.4022
B( 21-C , 80-H ) :   1.0132 B( 22-C , 23-C ) :   1.3485 B( 22-C , 28-C ) :   0.9150
B( 23-C , 24-C ) :   1.3303 B( 23-C , 26-C ) :   1.0033 B( 24-C , 25-C ) :   1.4007
B( 24-C , 81-H ) :   0.9941 B( 25-C , 82-H ) :   0.9766 B( 26-C , 27-C ) :   1.3564
B( 26-C , 36-C ) :   1.3382 B( 27-C , 28-C ) :   0.9163 B( 27-C , 33-C ) :   1.4002
B( 28-C , 29-C ) :   1.0375 B( 28-C , 31-C ) :   1.0367 B( 29-C , 30-C ) :   1.1005
B( 29-C , 83-H ) :   0.9397 B( 29-C , 84-H ) :   0.9394 B( 30-C , 85-H ) :   0.9646
B( 30-C , 86-H ) :   0.9640 B( 30-C , 87-H ) :   0.9644 B( 31-C , 32-C ) :   1.1017
B( 31-C , 88-H ) :   0.9400 B( 31-C , 89-H ) :   0.9392 B( 32-C , 90-H ) :   0.9643
B( 32-C , 91-H ) :   0.9635 B( 32-C , 92-H ) :   0.9642 B( 33-C , 34-C ) :   1.3045
B( 33-C , 93-H ) :   1.0007 B( 34-C , 35-C ) :   1.3343 B( 34-C , 37-C ) :   1.0574
B( 35-C , 36-C ) :   1.3830 B( 35-C , 94-H ) :   0.9931 B( 36-C , 95-H ) :   0.9918
B( 37-C , 38-C ) :   1.7310 B( 37-C , 96-H ) :   0.9763 B( 38-C , 39-C ) :   1.1067
B( 38-C , 97-H ) :   0.9535 B( 39-C , 40-S ) :   1.0881 B( 39-C , 43-C ) :   1.5210
B( 40-S , 41-C ) :   1.0714 B( 41-C , 42-C ) :   1.4582 B( 41-C , 49-C ) :   1.3123
B( 42-C , 43-C ) :   1.2753 B( 42-C , 44-S ) :   1.0451 B( 43-C , 98-H ) :   0.9969
B( 44-S , 45-C ) :   1.0486 B( 45-C , 46-C ) :   1.3007 B( 45-C , 49-C ) :   1.4530
B( 46-C , 47-C ) :   1.4744 B( 46-C , 99-H ) :   0.9790 B( 47-C , 48-S ) :   1.0748
B( 47-C , 50-C ) :   1.1721 B( 48-S , 49-C ) :   1.0690 B( 50-C , 51-C ) :   1.5987
B( 50-C ,100-H ) :   0.9502 B( 51-C , 52-C ) :   1.1492 B( 51-C , 55-S ) :   1.0401
B( 52-C , 53-C ) :   1.5832 B( 52-C ,101-H ) :   0.9991 B( 53-C , 54-C ) :   1.1934
B( 53-C ,102-H ) :   0.9925 B( 54-C , 55-S ) :   1.0343 B( 54-C , 56-C ) :   1.5040
B( 56-C , 57-C ) :   1.1887 B( 56-C , 60-S ) :   1.0441 B( 57-C , 58-C ) :   1.5850
B( 57-C ,103-H ) :   0.9930 B( 58-C , 59-C ) :   1.1451 B( 58-C ,104-H ) :   0.9990
B( 59-C , 60-S ) :   1.0286 B( 59-C , 61-C ) :   1.5718 B( 61-C , 62-C ) :   1.1379
B( 61-C ,105-H ) :   0.9682 B( 62-C , 63-C ) :   1.4507 B( 62-C , 73-C ) :   1.1134
B( 63-C , 64-C ) :   1.1301 B( 63-C ,106-H ) :   0.9967 B( 64-C , 65-C ) :   1.4432
B( 64-C , 72-C ) :   1.1269 B( 65-C , 66-C ) :   1.1291 B( 65-C ,107-H ) :   1.0044
B( 66-C , 67-C ) :   1.4461 B( 66-C , 70-C ) :   1.1232 B( 67-C , 68-C ) :   1.1372
B( 67-C ,108-H ) :   1.0076 B( 68-C , 69-C ) :   1.5138 B( 68-C , 74-C ) :   1.0852
B( 69-C , 70-C ) :   1.0796 B( 69-C ,109-H ) :   1.0178 B( 70-C , 71-C ) :   1.4804
B( 71-C , 72-C ) :   1.1103 B( 71-C ,110-H ) :   1.0055 B( 72-C , 73-C ) :   1.4527
B( 73-C ,111-H ) :   1.0153 B( 74-C , 75-C ) :   1.9315 B( 74-C ,112-H ) :   0.9670
B( 75-C ,113-H ) :   0.9527 B( 75-C ,114-H ) :   0.9496

-----------------------------------------------------------------------------
         ABSORPTION SPECTRUM VIA TRANSITION ELECTRIC DIPOLE MOMENTS
-----------------------------------------------------------------------------
State   Energy  Wavelength   fosc         T2         TX        TY        TZ
        (cm-1)    (nm)                  (au**2)     (au)      (au)      (au)
-----------------------------------------------------------------------------
   0    7082.7   1411.9   0.066779069   3.10395  -1.29337   0.16210   1.18527
   1   13733.6    728.1   1.392728003  33.38545   4.06512  -2.93561  -2.87097
   2   15013.0    666.1   0.245898341   5.39219   1.56898  -1.39848  -0.98729
   3   18308.4    546.2   0.293191079   5.27200  -0.51278   2.16463  -0.56872
   4   21622.7    462.5   0.947362194  14.42387  -1.24642   3.56846  -0.36935
   5   22343.5    447.6   0.244294109   3.59946   1.25688  -1.34437  -0.46086
   6   22548.0    443.5   0.343121881   5.00975  -0.59592   2.06940  -0.61009
   7   23728.3    421.4   0.571895927   7.93462  -1.00783  -2.31349   1.25167
   8   24132.2    414.4   0.378766231   5.16713  -0.70197  -1.88362   1.06130
   9   25518.2    391.9   0.532408889   6.86865   0.55338   2.23822  -1.24611
  10   26949.9    371.1   0.070890048   0.86597  -0.18683   0.75466  -0.51143
  11   27375.1    365.3   0.044282991   0.53254  -0.70767   0.05423   0.16973
  12   27814.4    359.5   0.004033852   0.04774   0.14789   0.05019  -0.15282
  13   28027.3    356.8   0.016043737   0.18845   0.13037  -0.40269  -0.09641
  14   28791.2    347.3   0.226205977   2.58655   0.16730  -0.42231  -1.54279
  15   28880.3    346.3   0.258269188   2.94406   0.46166  -1.16731  -1.16975
  16   29058.4    344.1   0.035145398   0.39817  -0.56821   0.05084  -0.26967
  17   29978.6    333.6   0.224639124   2.46689  -0.70797   1.25906   0.61679
  18   30018.7    333.1   0.344865791   3.78211  -0.32595  -1.74045   0.80419
  19   30636.1    326.4   0.019794328   0.21271  -0.23164   0.12791  -0.37774
  20   31052.8    322.0   0.045041230   0.47751  -0.58612   0.07017   0.35923
  21   31541.6    317.0   0.060056617   0.62683   0.52365  -0.58897   0.07573
  22   32075.3    311.8   0.071371267   0.73254   0.33980  -0.51178  -0.59595
  23   32359.5    309.0   0.004371701   0.04448   0.11029   0.04060  -0.17511
  24   32569.3    307.0   0.070203169   0.70962   0.21878  -0.80899   0.08532
  25   32590.3    306.8   0.045546133   0.46009   0.62281   0.08382  -0.25529
  26   33435.2    299.1   0.065803210   0.64792   0.58787  -0.21724  -0.50511
  27   33601.8    297.6   0.098163443   0.96175  -0.05412   0.92723  -0.31476
  28   33835.4    295.5   0.012282530   0.11951   0.03058  -0.29428   0.17880
  29   34020.1    293.9   0.595106006   5.75883   0.49326   1.27072   1.97504
  30   34289.3    291.6   0.121264189   1.16426   0.32656  -0.56190   0.86133
  31   34438.4    290.4   0.032836121   0.31389  -0.19797   0.38892  -0.35135
  32   34598.0    289.0   0.005603403   0.05332  -0.10352   0.20447  -0.02814
  33   34683.6    288.3   0.024478459   0.23235  -0.16386  -0.29809  -0.34152
  34   35325.6    283.1   0.067135866   0.62566  -0.02114  -0.50237   0.61060
  35   35426.9    282.3   0.017664453   0.16415  -0.33944  -0.12185   0.18462
  36   35656.0    280.5   0.058904862   0.54387  -0.49147   0.53967   0.10526
  37   35937.8    278.3   0.339710694   3.11196  -0.34730   1.60686  -0.63979
  38   36756.7    272.1   0.062005571   0.55535   0.14004   0.55852  -0.47308
  39   36869.6    271.2   0.025888863   0.23116   0.24238  -0.01978  -0.41476
  40   37436.0    267.1   0.003345481   0.02942  -0.13185   0.04612  -0.09955
  41   37570.0    266.2   0.009381923   0.08221   0.17947  -0.21543   0.05993
  42   37688.4    265.3   0.072754621   0.63552   0.36253  -0.70962  -0.02314
  43   38157.3    262.1   0.022013672   0.18993  -0.01310   0.43363   0.04153
  44   38365.5    260.7   0.030394282   0.26081   0.25442   0.42458  -0.12576
  45   38600.2    259.1   0.012728129   0.10856   0.08149   0.15821   0.27728
  46   38810.8    257.7   0.034586486   0.29338   0.50291   0.12583  -0.15694
  47   39315.2    254.4   0.107893802   0.90347   0.66457  -0.67710  -0.05791
  48   39451.6    253.5   0.007076448   0.05905  -0.09512  -0.20835   0.08119
  49   39624.9    252.4   0.024842961   0.20640   0.43605  -0.12686   0.01306
  50   39739.6    251.6   0.144371668   1.19601  -0.05190  -1.06934   0.22324
  51   39749.6    251.6   0.083026885   0.68764  -0.78728   0.20863  -0.15589
  52   40071.1    249.6   0.088366798   0.72600   0.78631   0.18510  -0.27102
  53   40179.6    248.9   0.093539050   0.76641   0.35997  -0.78568  -0.13981

FINAL SINGLE POINT ENERGY     -7681.981775275566

DIPOLE MOMENT
-------------
                                X             Y             Z
Electronic contribution:    125.39077    -189.59766    -124.17491
Nuclear contribution   :   -127.39643     191.53158     122.90674
                        -----------------------------------------
Total Dipole Moment    :     -2.00566       1.93392      -1.26817
                        -----------------------------------------
Magnitude (a.u.)       :      3.06121
Magnitude (Debye)      :      7.78097

Rotational constants in cm-1:     0.001287     0.000108     0.000103
Rotational constants in MHz :    38.579968     3.233075     3.078307

                             ****ORCA TERMINATED NORMALLY****
TOTAL RUN TIME: 0 days 0 hours 14 minutes 10 seconds 873 msec
