                         Program Version 4.2.0 -  RELEASE  -
|  1> # ORCA input file
|  2> # SCF done       -190.956335997582          0.000670864688
|  3> ! CAM-B3LYP def2-SVP def2/J RIJCOSX Grid4 TightSCF
|  4> %maxcore 5000
|  5> %tddft
|  6>     Mode sTDDFT
|  7>     Ethresh 5.0
|  8>     maxcore 5000
|  9> end
| 10>
| 11> %pal
| 12>   nprocs 6
| 13>   end
| 14> * xyz 0 1
| 15>    C       -4.56118        -0.99986        -8.00254
| 16>    C       -3.86030        -1.47925        -6.91772
| 17>    C       -2.53943        -1.96205        -6.98264
| 18>    N       -1.46499        -2.36912        -6.96721
| 19>    C       -4.33811        -1.53877        -5.59473
| 20>    N       -4.64225        -1.61509        -4.48844
| 21>    C       -4.04029        -0.90712        -9.36590
| 22>    C       -5.02257        -0.29847       -10.18402
| 23>    C       -4.84103        -0.08560       -11.52741
| 24>    C       -3.63060        -0.49900       -12.09589
| 25>    C       -2.65516        -1.10458       -11.27160
| 26>    C       -2.83798        -1.31544        -9.90929
| 27>    S       -1.23925        -1.54807       -12.17768
| 28>    C       -1.97047        -0.92328       -13.63199
| 29>    C       -3.20872        -0.40737       -13.45102
| 30>   Br       -1.03106        -1.01491       -15.25371
| 31>    C       -6.21409         0.01161        -9.36393
| 32>    O       -7.23032         0.55537        -9.75297
| 33>    C       -5.90494        -0.48826        -8.01254
| 34>    C       -6.81142        -0.53605        -6.96962
| 35>    C       -8.11874        -0.07200        -7.02705
| 36>    C       -9.03576        -0.28622        -6.01310
| 37>    C      -10.40268         0.06198        -6.02309
| 38>    C      -11.10095        -0.38382        -4.93597
| 39>    C      -10.31235        -1.09575        -4.01227
| 40>    S       -8.64543        -1.14772        -4.54133
| 41>    C      -10.72949        -1.77351        -2.87647
| 42>    C      -12.05054        -1.96149        -2.41623
| 43>    C      -12.14777        -2.80604        -1.35185
| 44>    C      -10.90205        -3.29831        -0.89213
| 45>    S       -9.59981        -2.64438        -1.87115
| 46>    C      -10.73704        -4.22191         0.10982
| 47>    C       -9.54672        -4.74949         0.65506
| 48>    S       -9.67116        -6.41723         1.17650
| 49>    C       -8.01210        -6.51849         1.48788
| 50>    C       -7.36204        -5.32141         1.26546
| 51>    C       -8.24468        -4.26418         0.84912
| 52>    C       -7.72265        -2.93507         0.73735
| 53>    C       -6.32439        -2.79423         0.78875
| 54>    C       -5.47073        -3.87683         1.10062
| 55>    C       -5.97225        -5.10658         1.38486
| 56>    O       -5.68582        -1.62177         0.65451
| 57>    C       -8.50684        -1.73579         0.63427
| 58>    C       -9.71138        -1.42486         1.19530
| 59>    C      -10.42232        -0.21046         0.97075
| 60>    C      -11.69125        -0.20468         1.45524
| 61>    C      -12.05998        -1.42225         2.07798
| 62>    S      -10.67334        -2.47133         2.22923
| 63>    C      -13.33668        -1.90733         2.28934
| 64>    C      -14.56652        -1.23815         2.12652
| 65>    C      -15.63817        -2.07837         2.03571
| 66>    C      -15.30408        -3.44859         2.12037
| 67>    S      -13.60219        -3.63270         2.46660
| 68>    C      -16.09768        -4.51488         1.74831
| 69>    C      -15.68145        -5.84343         1.74344
| 70>    C      -16.24311        -6.85546         0.99122
| 71>    C      -17.05873        -6.75841        -0.18266
| 72>    C      -17.08005        -5.69951        -1.06922
| 73>    C      -17.89454        -5.64843        -2.21429
| 74>    N      -18.56210        -5.54226        -3.14354
| 75>    C      -16.17928        -4.62308        -1.00267
| 76>    N      -15.40999        -3.76814        -1.03420
| 77>    C      -17.63610        -8.07700        -0.43178
| 78>    C      -17.02945        -9.00302         0.45437
| 79>    C      -16.09184        -8.27953         1.34606
| 80>    O      -15.37488        -8.75219         2.20238
| 81>    C      -17.31016       -10.34561         0.41739
| 82>    C      -18.23816       -10.79413        -0.53095
| 83>    C      -18.84777        -9.85893        -1.39840
| 84>    C      -18.55868        -8.49898        -1.36721
| 85>    S      -19.96083       -10.62809        -2.48889
| 86>    C      -19.59057       -12.17698        -1.77913
| 87>    C      -18.68439       -12.12223        -0.77474
| 88>   Br      -20.43381       -13.71990        -2.43367
| 89>    H       -5.61012         0.37918       -12.12421
| 90>    H       -2.06441        -1.78594        -9.32589
| 91>    H       -3.80322         0.01812       -14.23882
| 92>    H       -6.50294        -1.01089        -6.04589
| 93>    H       -8.45876         0.43571        -7.91786
| 94>    H      -10.83349         0.61028        -6.84169
| 95>    H      -12.15409        -0.22726        -4.78701
| 96>    H      -12.89422        -1.50136        -2.89660
| 97>    H      -13.07818        -3.09909        -0.89745
| 98>    H      -11.64905        -4.70307         0.44526
| 99>    H       -7.56958        -7.44532         1.79555
|100>    H       -4.41523        -3.66368         1.15014
|101>    H       -5.33328        -5.92101         1.68667
|102>    H       -6.27650        -0.90736         0.38382
|103>    H       -8.06221        -0.91228         0.08187
|104>    H       -9.98549         0.59455         0.40618
|105>    H      -12.39075         0.60019         1.32157
|106>    H      -14.62653        -0.16752         2.04853
|107>    H      -16.64919        -1.75855         1.85722
|108>    H      -17.08130        -4.27321         1.36583
|109>    H      -14.87262        -6.13038         2.40794
|110>    H      -16.82492       -11.03350         1.09189
|111>    H      -19.04573        -7.82135        -2.04909
|112>    H      -18.34170       -12.98188        -0.22832
|113> *
|114>
|115>                          ****END OF INPUT****

CARTESIAN COORDINATES (ANGSTROEM)
---------------------------------
  C     -4.561180   -0.999860   -8.002540
  C     -3.860300   -1.479250   -6.917720
  C     -2.539430   -1.962050   -6.982640
  N     -1.464990   -2.369120   -6.967210
  C     -4.338110   -1.538770   -5.594730
  N     -4.642250   -1.615090   -4.488440
  C     -4.040290   -0.907120   -9.365900
  C     -5.022570   -0.298470  -10.184020
  C     -4.841030   -0.085600  -11.527410
  C     -3.630600   -0.499000  -12.095890
  C     -2.655160   -1.104580  -11.271600
  C     -2.837980   -1.315440   -9.909290
  S     -1.239250   -1.548070  -12.177680
  C     -1.970470   -0.923280  -13.631990
  C     -3.208720   -0.407370  -13.451020
  Br    -1.031060   -1.014910  -15.253710
  C     -6.214090    0.011610   -9.363930
  O     -7.230320    0.555370   -9.752970
  C     -5.904940   -0.488260   -8.012540
  C     -6.811420   -0.536050   -6.969620
  C     -8.118740   -0.072000   -7.027050
  C     -9.035760   -0.286220   -6.013100
  C    -10.402680    0.061980   -6.023090
  C    -11.100950   -0.383820   -4.935970
  C    -10.312350   -1.095750   -4.012270
  S     -8.645430   -1.147720   -4.541330
  C    -10.729490   -1.773510   -2.876470
  C    -12.050540   -1.961490   -2.416230
  C    -12.147770   -2.806040   -1.351850
  C    -10.902050   -3.298310   -0.892130
  S     -9.599810   -2.644380   -1.871150
  C    -10.737040   -4.221910    0.109820
  C     -9.546720   -4.749490    0.655060
  S     -9.671160   -6.417230    1.176500
  C     -8.012100   -6.518490    1.487880
  C     -7.362040   -5.321410    1.265460
  C     -8.244680   -4.264180    0.849120
  C     -7.722650   -2.935070    0.737350
  C     -6.324390   -2.794230    0.788750
  C     -5.470730   -3.876830    1.100620
  C     -5.972250   -5.106580    1.384860
  O     -5.685820   -1.621770    0.654510
  C     -8.506840   -1.735790    0.634270
  C     -9.711380   -1.424860    1.195300
  C    -10.422320   -0.210460    0.970750
  C    -11.691250   -0.204680    1.455240
  C    -12.059980   -1.422250    2.077980
  S    -10.673340   -2.471330    2.229230
  C    -13.336680   -1.907330    2.289340
  C    -14.566520   -1.238150    2.126520
  C    -15.638170   -2.078370    2.035710
  C    -15.304080   -3.448590    2.120370
  S    -13.602190   -3.632700    2.466600
  C    -16.097680   -4.514880    1.748310
  C    -15.681450   -5.843430    1.743440
  C    -16.243110   -6.855460    0.991220
  C    -17.058730   -6.758410   -0.182660
  C    -17.080050   -5.699510   -1.069220
  C    -17.894540   -5.648430   -2.214290
  N    -18.562100   -5.542260   -3.143540
  C    -16.179280   -4.623080   -1.002670
  N    -15.409990   -3.768140   -1.034200
  C    -17.636100   -8.077000   -0.431780
  C    -17.029450   -9.003020    0.454370
  C    -16.091840   -8.279530    1.346060
  O    -15.374880   -8.752190    2.202380
  C    -17.310160  -10.345610    0.417390
  C    -18.238160  -10.794130   -0.530950
  C    -18.847770   -9.858930   -1.398400
  C    -18.558680   -8.498980   -1.367210
  S    -19.960830  -10.628090   -2.488890
  C    -19.590570  -12.176980   -1.779130
  C    -18.684390  -12.122230   -0.774740
  Br   -20.433810  -13.719900   -2.433670
  H     -5.610120    0.379180  -12.124210
  H     -2.064410   -1.785940   -9.325890
  H     -3.803220    0.018120  -14.238820
  H     -6.502940   -1.010890   -6.045890
  H     -8.458760    0.435710   -7.917860
  H    -10.833490    0.610280   -6.841690
  H    -12.154090   -0.227260   -4.787010
  H    -12.894220   -1.501360   -2.896600
  H    -13.078180   -3.099090   -0.897450
  H    -11.649050   -4.703070    0.445260
  H     -7.569580   -7.445320    1.795550
  H     -4.415230   -3.663680    1.150140
  H     -5.333280   -5.921010    1.686670
  H     -6.276500   -0.907360    0.383820
  H     -8.062210   -0.912280    0.081870
  H     -9.985490    0.594550    0.406180
  H    -12.390750    0.600190    1.321570
  H    -14.626530   -0.167520    2.048530
  H    -16.649190   -1.758550    1.857220
  H    -17.081300   -4.273210    1.365830
  H    -14.872620   -6.130380    2.407940
  H    -16.824920  -11.033500    1.091890
  H    -19.045730   -7.821350   -2.049090
  H    -18.341700  -12.981880   -0.228320

 Total Charge           Charge          ....    0
 Multiplicity           Mult            ....    1
 Number of Electrons    NEL             ....  606
 Basis Dimension        Dim             .... 1220

ORBITAL ENERGIES
----------------

  NO   OCC          E(Eh)            E(eV)
   0   2.0000    -482.882048    -13139.8885
   1   2.0000    -482.872817    -13139.6374
   2   2.0000     -88.983200     -2421.3560
   3   2.0000     -88.971156     -2421.0282
   4   2.0000     -88.970278     -2421.0043
   5   2.0000     -88.969760     -2420.9902
   6   2.0000     -88.961581     -2420.7677
   7   2.0000     -88.959566     -2420.7129
   8   2.0000     -88.952197     -2420.5123
   9   2.0000     -62.559745     -1702.3372
  10   2.0000     -62.550530     -1702.0865
  11   2.0000     -56.393692     -1534.5504
  12   2.0000     -56.390985     -1534.4767
  13   2.0000     -56.390950     -1534.4758
  14   2.0000     -56.384463     -1534.2992
  15   2.0000     -56.381782     -1534.2263
  16   2.0000     -56.381740     -1534.2251
  17   2.0000     -19.275758      -524.5200
  18   2.0000     -19.205869      -522.6183
  19   2.0000     -19.191497      -522.2272
  20   2.0000     -14.414922      -392.2500
  21   2.0000     -14.409082      -392.0910
  22   2.0000     -14.394319      -391.6893
  23   2.0000     -14.391214      -391.6049
  24   2.0000     -10.370417      -282.1934
  25   2.0000     -10.357024      -281.8289
  26   2.0000     -10.354013      -281.7470
  27   2.0000     -10.343229      -281.4536
  28   2.0000     -10.341649      -281.4106
  29   2.0000     -10.340569      -281.3812
  30   2.0000     -10.335800      -281.2514
  31   2.0000     -10.334464      -281.2151
  32   2.0000     -10.333015      -281.1756
  33   2.0000     -10.330345      -281.1030
  34   2.0000     -10.329585      -281.0823
  35   2.0000     -10.326513      -280.9987
  36   2.0000     -10.321949      -280.8745
  37   2.0000     -10.320408      -280.8326
  38   2.0000     -10.320112      -280.8245
  39   2.0000     -10.319908      -280.8190
  40   2.0000     -10.319616      -280.8110
  41   2.0000     -10.318592      -280.7832
  42   2.0000     -10.315968      -280.7118
  43   2.0000     -10.314690      -280.6770
  44   2.0000     -10.313391      -280.6416
  45   2.0000     -10.313025      -280.6317
  46   2.0000     -10.312899      -280.6282
  47   2.0000     -10.312176      -280.6086
  48   2.0000     -10.311848      -280.5997
  49   2.0000     -10.310051      -280.5507
  50   2.0000     -10.310003      -280.5494
  51   2.0000     -10.309718      -280.5417
  52   2.0000     -10.307103      -280.4705
  53   2.0000     -10.305566      -280.4287
  54   2.0000     -10.305340      -280.4225
  55   2.0000     -10.305195      -280.4186
  56   2.0000     -10.301895      -280.3288
  57   2.0000     -10.301641      -280.3219
  58   2.0000     -10.300396      -280.2880
  59   2.0000     -10.300195      -280.2826
  60   2.0000     -10.299837      -280.2728
  61   2.0000     -10.299162      -280.2545
  62   2.0000     -10.297631      -280.2128
  63   2.0000     -10.296201      -280.1739
  64   2.0000     -10.295342      -280.1505
  65   2.0000     -10.292297      -280.0676
  66   2.0000     -10.292238      -280.0660
  67   2.0000     -10.290635      -280.0224
  68   2.0000     -10.290503      -280.0188
  69   2.0000     -10.289047      -279.9792
  70   2.0000     -10.289021      -279.9785
  71   2.0000     -10.288392      -279.9614
  72   2.0000     -10.287060      -279.9251
  73   2.0000     -10.285997      -279.8962
  74   2.0000     -10.285430      -279.8808
  75   2.0000     -10.283902      -279.8392
  76   2.0000     -10.282577      -279.8032
  77   2.0000     -10.281747      -279.7806
  78   2.0000     -10.281343      -279.7696
  79   2.0000     -10.270756      -279.4815
  80   2.0000     -10.265540      -279.3396
  81   2.0000     -10.262837      -279.2660
  82   2.0000      -8.789154      -239.1650
  83   2.0000      -8.779951      -238.9146
  84   2.0000      -8.078933      -219.8389
  85   2.0000      -8.067095      -219.5168
  86   2.0000      -8.065662      -219.4778
  87   2.0000      -8.065271      -219.4672
  88   2.0000      -8.056880      -219.2389
  89   2.0000      -8.055544      -219.2025
  90   2.0000      -8.048279      -219.0048
  91   2.0000      -6.625429      -180.2871
  92   2.0000      -6.616186      -180.0356
  93   2.0000      -6.610897      -179.8917
  94   2.0000      -6.610709      -179.8865
  95   2.0000      -6.601699      -179.6414
  96   2.0000      -6.601551      -179.6373
  97   2.0000      -6.047864      -164.5708
  98   2.0000      -6.043621      -164.4553
  99   2.0000      -6.041837      -164.4068
 100   2.0000      -6.036813      -164.2700
 101   2.0000      -6.035321      -164.2294
 102   2.0000      -6.035010      -164.2210
 103   2.0000      -6.032496      -164.1526
 104   2.0000      -6.031301      -164.1201
 105   2.0000      -6.030841      -164.1075
 106   2.0000      -6.028338      -164.0394
 107   2.0000      -6.026752      -163.9963
 108   2.0000      -6.026516      -163.9899
 109   2.0000      -6.026405      -163.9868
 110   2.0000      -6.025240      -163.9551
 111   2.0000      -6.022416      -163.8783
 112   2.0000      -6.020974      -163.8390
 113   2.0000      -6.018169      -163.7627
 114   2.0000      -6.017833      -163.7535
 115   2.0000      -6.016769      -163.7246
 116   2.0000      -6.013840      -163.6449
 117   2.0000      -6.009508      -163.5270
 118   2.0000      -2.741303       -74.5947
 119   2.0000      -2.737204       -74.4831
 120   2.0000      -2.737113       -74.4806
 121   2.0000      -2.732042       -74.3426
 122   2.0000      -2.728021       -74.2332
 123   2.0000      -2.727883       -74.2295
 124   2.0000      -2.725537       -74.1656
 125   2.0000      -2.725517       -74.1651
 126   2.0000      -2.716383       -73.9165
 127   2.0000      -2.716363       -73.9160
 128   2.0000      -1.175420       -31.9848
 129   2.0000      -1.119617       -30.4663
 130   2.0000      -1.104826       -30.0639
 131   2.0000      -1.021893       -27.8071
 132   2.0000      -1.017907       -27.6987
 133   2.0000      -1.014644       -27.6099
 134   2.0000      -1.009460       -27.4688
 135   2.0000      -1.003872       -27.3168
 136   2.0000      -1.003263       -27.3002
 137   2.0000      -0.995527       -27.0897
 138   2.0000      -0.992549       -27.0086
 139   2.0000      -0.990683       -26.9579
 140   2.0000      -0.983753       -26.7693
 141   2.0000      -0.980790       -26.6887
 142   2.0000      -0.972349       -26.4590
 143   2.0000      -0.967503       -26.3271
 144   2.0000      -0.951098       -25.8807
 145   2.0000      -0.939382       -25.5619
 146   2.0000      -0.925599       -25.1868
 147   2.0000      -0.923774       -25.1372
 148   2.0000      -0.912927       -24.8420
 149   2.0000      -0.903632       -24.5891
 150   2.0000      -0.902662       -24.5627
 151   2.0000      -0.892323       -24.2813
 152   2.0000      -0.888295       -24.1717
 153   2.0000      -0.881203       -23.9788
 154   2.0000      -0.880348       -23.9555
 155   2.0000      -0.870936       -23.6994
 156   2.0000      -0.867217       -23.5982
 157   2.0000      -0.863992       -23.5104
 158   2.0000      -0.859491       -23.3879
 159   2.0000      -0.854285       -23.2463
 160   2.0000      -0.847454       -23.0604
 161   2.0000      -0.845217       -22.9995
 162   2.0000      -0.842106       -22.9149
 163   2.0000      -0.830354       -22.5951
 164   2.0000      -0.828825       -22.5535
 165   2.0000      -0.823764       -22.4158
 166   2.0000      -0.812362       -22.1055
 167   2.0000      -0.810039       -22.0423
 168   2.0000      -0.798169       -21.7193
 169   2.0000      -0.781379       -21.2624
 170   2.0000      -0.771954       -21.0059
 171   2.0000      -0.756871       -20.5955
 172   2.0000      -0.752843       -20.4859
 173   2.0000      -0.746580       -20.3155
 174   2.0000      -0.736839       -20.0504
 175   2.0000      -0.725247       -19.7350
 176   2.0000      -0.721931       -19.6447
 177   2.0000      -0.707373       -19.2486
 178   2.0000      -0.698079       -18.9957
 179   2.0000      -0.695828       -18.9344
 180   2.0000      -0.687916       -18.7191
 181   2.0000      -0.684465       -18.6252
 182   2.0000      -0.675903       -18.3922
 183   2.0000      -0.673700       -18.3323
 184   2.0000      -0.669382       -18.2148
 185   2.0000      -0.666354       -18.1324
 186   2.0000      -0.657891       -17.9021
 187   2.0000      -0.654602       -17.8126
 188   2.0000      -0.650459       -17.6999
 189   2.0000      -0.647497       -17.6193
 190   2.0000      -0.642627       -17.4868
 191   2.0000      -0.638402       -17.3718
 192   2.0000      -0.637810       -17.3557
 193   2.0000      -0.627157       -17.0658
 194   2.0000      -0.625571       -17.0226
 195   2.0000      -0.624417       -16.9912
 196   2.0000      -0.617438       -16.8013
 197   2.0000      -0.612183       -16.6583
 198   2.0000      -0.607774       -16.5384
 199   2.0000      -0.603300       -16.4166
 200   2.0000      -0.599521       -16.3138
 201   2.0000      -0.594378       -16.1739
 202   2.0000      -0.589681       -16.0460
 203   2.0000      -0.585238       -15.9251
 204   2.0000      -0.579619       -15.7722
 205   2.0000      -0.574833       -15.6420
 206   2.0000      -0.573125       -15.5955
 207   2.0000      -0.559486       -15.2244
 208   2.0000      -0.556795       -15.1512
 209   2.0000      -0.548316       -14.9204
 210   2.0000      -0.543914       -14.8007
 211   2.0000      -0.542836       -14.7713
 212   2.0000      -0.537916       -14.6374
 213   2.0000      -0.536815       -14.6075
 214   2.0000      -0.533845       -14.5267
 215   2.0000      -0.531039       -14.4503
 216   2.0000      -0.529357       -14.4045
 217   2.0000      -0.527771       -14.3614
 218   2.0000      -0.526209       -14.3189
 219   2.0000      -0.524082       -14.2610
 220   2.0000      -0.521578       -14.1929
 221   2.0000      -0.518167       -14.1000
 222   2.0000      -0.517205       -14.0739
 223   2.0000      -0.513376       -13.9697
 224   2.0000      -0.511405       -13.9160
 225   2.0000      -0.508971       -13.8498
 226   2.0000      -0.506983       -13.7957
 227   2.0000      -0.506321       -13.7777
 228   2.0000      -0.502630       -13.6772
 229   2.0000      -0.501327       -13.6418
 230   2.0000      -0.500053       -13.6071
 231   2.0000      -0.498009       -13.5515
 232   2.0000      -0.495227       -13.4758
 233   2.0000      -0.493403       -13.4262
 234   2.0000      -0.491337       -13.3700
 235   2.0000      -0.490325       -13.3424
 236   2.0000      -0.488669       -13.2974
 237   2.0000      -0.486982       -13.2515
 238   2.0000      -0.483494       -13.1565
 239   2.0000      -0.480915       -13.0863
 240   2.0000      -0.480615       -13.0782
 241   2.0000      -0.475288       -12.9332
 242   2.0000      -0.473741       -12.8911
 243   2.0000      -0.472471       -12.8566
 244   2.0000      -0.471362       -12.8264
 245   2.0000      -0.467233       -12.7141
 246   2.0000      -0.465009       -12.6535
 247   2.0000      -0.463151       -12.6030
 248   2.0000      -0.456852       -12.4316
 249   2.0000      -0.455515       -12.3952
 250   2.0000      -0.454246       -12.3607
 251   2.0000      -0.452158       -12.3039
 252   2.0000      -0.451228       -12.2785
 253   2.0000      -0.443019       -12.0552
 254   2.0000      -0.441711       -12.0196
 255   2.0000      -0.440972       -11.9995
 256   2.0000      -0.440620       -11.9899
 257   2.0000      -0.439872       -11.9695
 258   2.0000      -0.438570       -11.9341
 259   2.0000      -0.436549       -11.8791
 260   2.0000      -0.433410       -11.7937
 261   2.0000      -0.431090       -11.7305
 262   2.0000      -0.429485       -11.6869
 263   2.0000      -0.428427       -11.6581
 264   2.0000      -0.425772       -11.5859
 265   2.0000      -0.423334       -11.5195
 266   2.0000      -0.422561       -11.4985
 267   2.0000      -0.421168       -11.4606
 268   2.0000      -0.417646       -11.3647
 269   2.0000      -0.413439       -11.2502
 270   2.0000      -0.410875       -11.1805
 271   2.0000      -0.406985       -11.0746
 272   2.0000      -0.405348       -11.0301
 273   2.0000      -0.405145       -11.0246
 274   2.0000      -0.402580       -10.9548
 275   2.0000      -0.400494       -10.8980
 276   2.0000      -0.394837       -10.7441
 277   2.0000      -0.386775       -10.5247
 278   2.0000      -0.385590       -10.4924
 279   2.0000      -0.381645       -10.3851
 280   2.0000      -0.376700       -10.2505
 281   2.0000      -0.371572       -10.1110
 282   2.0000      -0.369123       -10.0444
 283   2.0000      -0.363910        -9.9025
 284   2.0000      -0.362530        -9.8649
 285   2.0000      -0.355335        -9.6691
 286   2.0000      -0.353444        -9.6177
 287   2.0000      -0.344543        -9.3755
 288   2.0000      -0.339899        -9.2491
 289   2.0000      -0.333584        -9.0773
 290   2.0000      -0.328507        -8.9391
 291   2.0000      -0.325604        -8.8601
 292   2.0000      -0.319232        -8.6867
 293   2.0000      -0.312122        -8.4933
 294   2.0000      -0.310224        -8.4416
 295   2.0000      -0.305802        -8.3213
 296   2.0000      -0.298019        -8.1095
 297   2.0000      -0.296714        -8.0740
 298   2.0000      -0.289512        -7.8780
 299   2.0000      -0.278006        -7.5649
 300   2.0000      -0.272242        -7.4081
 301   2.0000      -0.243038        -6.6134
 302   2.0000      -0.212081        -5.7710
 303   0.0000      -0.114435        -3.1139
 304   0.0000      -0.095387        -2.5956
 305   0.0000      -0.069289        -1.8854
 306   0.0000      -0.058576        -1.5939
 307   0.0000      -0.047901        -1.3034

MULLIKEN ATOMIC CHARGES
-----------------------
   0 C :    0.329686
   1 C :   -0.372645
   2 C :   -0.190059
   3 N :    0.131859
   4 C :   -0.192486
   5 N :    0.120127
   6 C :    0.012856
   7 C :   -0.007607
   8 C :   -0.082673
   9 C :    0.117876
  10 C :   -0.091881
  11 C :   -0.028535
  12 S :    0.175215
  13 C :   -0.124541
  14 C :    0.038974
  15 Br:    0.010076
  16 C :    0.135776
  17 O :   -0.169235
  18 C :   -0.095810
  19 C :   -0.043237
  20 C :   -0.027668
  21 C :    0.006657
  22 C :    0.017969
  23 C :    0.042594
  24 C :   -0.062877
  25 S :    0.094942
  26 C :   -0.034020
  27 C :    0.006674
  28 C :    0.074551
  29 C :   -0.053869
  30 S :    0.120748
  31 C :    0.041017
  32 C :   -0.268563
  33 S :    0.184730
  34 C :   -0.094818
  35 C :    0.055765
  36 C :    0.179596
  37 C :    0.025779
  38 C :    0.102709
  39 C :   -0.010902
  40 C :    0.033187
  41 O :   -0.144660
  42 C :   -0.085409
  43 C :   -0.065466
  44 C :    0.059411
  45 C :    0.032083
  46 C :   -0.038552
  47 S :    0.112045
  48 C :   -0.061679
  49 C :    0.048514
  50 C :    0.041519
  51 C :   -0.014048
  52 S :    0.093987
  53 C :   -0.027951
  54 C :    0.026868
  55 C :   -0.132886
  56 C :    0.270465
  57 C :   -0.351031
  58 C :   -0.174900
  59 N :    0.134777
  60 C :   -0.187474
  61 N :    0.143963
  62 C :    0.008870
  63 C :   -0.007440
  64 C :    0.139528
  65 O :   -0.151744
  66 C :   -0.074230
  67 C :    0.112488
  68 C :   -0.090060
  69 C :   -0.025178
  70 S :    0.180253
  71 C :   -0.124894
  72 C :    0.039665
  73 Br:    0.018102
  74 H :   -0.017706
  75 H :   -0.010479
  76 H :   -0.008611
  77 H :    0.012919
  78 H :    0.013530
  79 H :   -0.003639
  80 H :   -0.005444
  81 H :   -0.007125
  82 H :   -0.007554
  83 H :    0.011907
  84 H :    0.032211
  85 H :    0.004497
  86 H :   -0.007351
  87 H :    0.186004
  88 H :   -0.012281
  89 H :   -0.000597
  90 H :   -0.006285
  91 H :    0.002422
  92 H :   -0.000067
  93 H :    0.015140
  94 H :    0.018780
  95 H :   -0.012212
  96 H :   -0.005862
  97 H :   -0.005069
Sum of atomic charges:   -0.0000000

LOEWDIN ATOMIC CHARGES
----------------------
   0 C :    0.073910
   1 C :   -0.165644
   2 C :   -0.019816
   3 N :   -0.076387
   4 C :   -0.019121
   5 N :   -0.080146
   6 C :   -0.017292
   7 C :   -0.047525
   8 C :    0.015092
   9 C :   -0.037322
  10 C :   -0.146949
  11 C :   -0.015356
  12 S :    0.424181
  13 C :   -0.276482
  14 C :   -0.070942
  15 Br:    0.126433
  16 C :    0.080685
  17 O :   -0.162437
  18 C :   -0.117200
  19 C :    0.046371
  20 C :   -0.081799
  21 C :   -0.102212
  22 C :   -0.052361
  23 C :   -0.007684
  24 C :   -0.207326
  25 S :    0.401840
  26 C :   -0.145440
  27 C :   -0.049551
  28 C :    0.004026
  29 C :   -0.177153
  30 S :    0.433768
  31 C :   -0.055376
  32 C :   -0.211870
  33 S :    0.505331
  34 C :   -0.163886
  35 C :   -0.062841
  36 C :   -0.040630
  37 C :   -0.106469
  38 C :    0.099382
  39 C :   -0.040505
  40 C :    0.026353
  41 O :   -0.012943
  42 C :   -0.042346
  43 C :   -0.166859
  44 C :   -0.006516
  45 C :   -0.041339
  46 C :   -0.148567
  47 S :    0.451758
  48 C :   -0.191736
  49 C :   -0.004845
  50 C :   -0.036014
  51 C :   -0.101602
  52 S :    0.398738
  53 C :   -0.076908
  54 C :    0.051099
  55 C :   -0.111258
  56 C :    0.072384
  57 C :   -0.163353
  58 C :   -0.022993
  59 N :   -0.065489
  60 C :   -0.000636
  61 N :   -0.079392
  62 C :   -0.018376
  63 C :   -0.051019
  64 C :    0.077579
  65 O :   -0.155299
  66 C :    0.018972
  67 C :   -0.035949
  68 C :   -0.145389
  69 C :   -0.015316
  70 S :    0.428853
  71 C :   -0.274190
  72 C :   -0.070445
  73 Br:    0.132484
  74 H :    0.037910
  75 H :    0.039535
  76 H :    0.036807
  77 H :    0.029796
  78 H :    0.037439
  79 H :    0.037119
  80 H :    0.035058
  81 H :    0.035394
  82 H :    0.034747
  83 H :    0.030697
  84 H :    0.031017
  85 H :    0.042632
  86 H :    0.038971
  87 H :    0.093031
  88 H :    0.025768
  89 H :    0.037570
  90 H :    0.034801
  91 H :    0.037566
  92 H :    0.038237
  93 H :    0.038515
  94 H :    0.036525
  95 H :    0.039910
  96 H :    0.040149
  97 H :    0.038065

  Mayer bond orders larger than 0.100000
B(  0-C ,  1-C ) :   1.5659 B(  0-C ,  6-C ) :   0.9872 B(  0-C , 18-C ) :   1.1295
B(  1-C ,  2-C ) :   1.1503 B(  1-C ,  4-C ) :   1.1597 B(  2-C ,  3-N ) :   2.9620
B(  4-C ,  5-N ) :   2.9595 B(  6-C ,  7-C ) :   1.2803 B(  6-C , 11-C ) :   1.4222
B(  7-C ,  8-C ) :   1.4352 B(  7-C , 16-C ) :   0.9312 B(  8-C ,  9-C ) :   1.2339
B(  8-C , 74-H ) :   1.0162 B(  9-C , 10-C ) :   1.3209 B(  9-C , 14-C ) :   1.1611
B( 10-C , 11-C ) :   1.3174 B( 10-C , 12-S ) :   1.0806 B( 11-C , 75-H ) :   0.9789
B( 12-S , 13-C ) :   1.0858 B( 13-C , 14-C ) :   1.6206 B( 13-C , 15-Br) :   1.0102
B( 14-C , 76-H ) :   1.0000 B( 16-C , 17-O ) :   2.1821 B( 16-C , 18-C ) :   0.9751
B( 18-C , 19-C ) :   1.4435 B( 19-C , 20-C ) :   1.2967 B( 19-C , 77-H ) :   0.9443
B( 20-C , 21-C ) :   1.3822 B( 20-C , 78-H ) :   0.9779 B( 21-C , 22-C ) :   1.2050
B( 21-C , 25-S ) :   1.0924 B( 22-C , 23-C ) :   1.5079 B( 22-C , 79-H ) :   1.0018
B( 23-C , 24-C ) :   1.2450 B( 23-C , 80-H ) :   0.9958 B( 24-C , 25-S ) :   1.0420
B( 24-C , 26-C ) :   1.4229 B( 26-C , 27-C ) :   1.1977 B( 26-C , 30-S ) :   1.1001
B( 27-C , 28-C ) :   1.5627 B( 27-C , 81-H ) :   0.9985 B( 28-C , 29-C ) :   1.1431
B( 28-C , 82-H ) :   0.9874 B( 29-C , 30-S ) :   1.0266 B( 29-C , 31-C ) :   1.5958
B( 31-C , 32-C ) :   1.1472 B( 31-C , 83-H ) :   0.9332 B( 32-C , 33-S ) :   1.1370
B( 32-C , 36-C ) :   1.3568 B( 33-S , 34-C ) :   1.2405 B( 34-C , 35-C ) :   1.4094
B( 34-C , 84-H ) :   0.9708 B( 35-C , 36-C ) :   1.1962 B( 35-C , 40-C ) :   1.1631
B( 36-C , 37-C ) :   1.1781 B( 37-C , 38-C ) :   1.3508 B( 37-C , 42-C ) :   1.0530
B( 38-C , 39-C ) :   1.2171 B( 38-C , 41-O ) :   1.2982 B( 39-C , 40-C ) :   1.5261
B( 39-C , 85-H ) :   0.9920 B( 40-C , 86-H ) :   1.0030 B( 41-O , 87-H ) :   0.9529
B( 42-C , 43-C ) :   1.6604 B( 42-C , 88-H ) :   0.9359 B( 43-C , 44-C ) :   1.1208
B( 43-C , 47-S ) :   1.0320 B( 44-C , 45-C ) :   1.6077 B( 44-C , 89-H ) :   0.9965
B( 45-C , 46-C ) :   1.1813 B( 45-C , 90-H ) :   0.9904 B( 46-C , 47-S ) :   1.0930
B( 46-C , 48-C ) :   1.4567 B( 48-C , 49-C ) :   1.2182 B( 48-C , 52-S ) :   1.0397
B( 49-C , 50-C ) :   1.5464 B( 49-C , 91-H ) :   0.9951 B( 50-C , 51-C ) :   1.1878
B( 50-C , 92-H ) :   0.9990 B( 51-C , 52-S ) :   1.0913 B( 51-C , 53-C ) :   1.4847
B( 53-C , 54-C ) :   1.2432 B( 53-C , 93-H ) :   0.9617 B( 54-C , 55-C ) :   1.4930
B( 54-C , 94-H ) :   0.9482 B( 55-C , 56-C ) :   1.1296 B( 55-C , 64-C ) :   0.9644
B( 56-C , 57-C ) :   1.5595 B( 56-C , 62-C ) :   1.0112 B( 57-C , 58-C ) :   1.1329
B( 57-C , 60-C ) :   1.1849 B( 58-C , 59-N ) :   2.9774 B( 60-C , 61-N ) :   2.9478
B( 62-C , 63-C ) :   1.2757 B( 62-C , 69-C ) :   1.4249 B( 63-C , 64-C ) :   0.9121
B( 63-C , 66-C ) :   1.4387 B( 64-C , 65-O ) :   2.2697 B( 66-C , 67-C ) :   1.2430
B( 66-C , 95-H ) :   1.0154 B( 67-C , 68-C ) :   1.3181 B( 67-C , 72-C ) :   1.1633
B( 68-C , 69-C ) :   1.3173 B( 68-C , 70-S ) :   1.0822 B( 69-C , 96-H ) :   0.9827
B( 70-S , 71-C ) :   1.0868 B( 71-C , 72-C ) :   1.6191 B( 71-C , 73-Br) :   1.0154
B( 72-C , 97-H ) :   1.0000

-----------------------------------------------------------------------------
         ABSORPTION SPECTRUM VIA TRANSITION ELECTRIC DIPOLE MOMENTS
-----------------------------------------------------------------------------
State   Energy  Wavelength   fosc         T2         TX        TY        TZ
        (cm-1)    (nm)                  (au**2)     (au)      (au)      (au)
-----------------------------------------------------------------------------
   0    7573.7   1320.4   0.728405275  31.66198  -4.28404  -2.05663   3.01318
   1   11168.5    895.4   0.413997350  12.20328  -0.80137  -1.15918   3.19647
   2   13998.5    714.4   0.447818238  10.53165  -1.74698  -1.40786  -2.34470
   3   17632.5    567.1   0.102330467   1.91059  -0.19882  -1.22576  -0.60711
   4   17839.5    560.6   0.309445814   5.71053  -2.27366  -0.58382   0.44736
   5   19775.8    505.7   0.135756754   2.25997  -1.25255  -0.42574  -0.71402
   6   20159.9    496.0   0.163844872   2.67560  -1.01818  -1.26176   0.21647
   7   21785.6    459.0   0.114337057   1.72780   1.03153  -0.16368   0.79809
   8   23069.2    433.5   0.067104437   0.95762  -0.23253  -0.55151   0.77420
   9   23634.0    423.1   0.108178315   1.50688  -0.55518   1.09448   0.02761
  10   24044.1    415.9   0.336972828   4.61383   1.98707  -0.65134   0.49106
  11   24282.9    411.8   0.035908596   0.48683   0.11934  -0.39248   0.56440
  12   24808.1    403.1   0.093383621   1.23923   0.75960   0.49414  -0.64658
  13   25690.7    389.2   0.273666795   3.50689   1.09502  -0.59382  -1.39828
  14   25873.6    386.5   0.122557673   1.55941  -0.96887  -0.75051   0.23962
  15   26634.5    375.5   0.123629025   1.52810  -0.37050  -1.08688  -0.45774
  16   27102.7    369.0   0.191153933   2.32191   1.09469  -0.88747  -0.57962
  17   27438.1    364.5   0.001216943   0.01460   0.03336   0.11413  -0.02151
  18   27778.7    360.0   0.007636354   0.09050   0.24768  -0.12873   0.11216
  19   28702.7    348.4   0.024474317   0.28071  -0.36476   0.29416  -0.24725
  20   28820.1    347.0   0.064233073   0.73374  -0.29244   0.44641  -0.67003
  21   28835.1    346.8   0.018469074   0.21086   0.06234  -0.29006   0.35049
  22   29031.5    344.5   0.071069727   0.80592  -0.67993   0.58153  -0.07369
  23   29419.1    339.9   0.074732692   0.83629   0.68007   0.13136  -0.59711
  24   29992.6    333.4   0.010917975   0.11984   0.04848  -0.30904   0.14828
  25   30369.6    329.3   0.058995841   0.63952   0.29928  -0.71655  -0.19109
  26   30708.5    325.6   0.054449309   0.58373  -0.57516   0.50244   0.02175
  27   30762.2    325.1   0.039751768   0.42542   0.63737   0.11804   0.07245
  28   31112.3    321.4   0.104763447   1.10854   0.17122   0.92077  -0.48105
  29   31487.3    317.6   0.108497962   1.13439   0.71077   0.66609   0.43072
  30   31605.7    316.4   0.424027569   4.41676   0.42352   1.95955  -0.63053
  31   31808.4    314.4   0.046111659   0.47725   0.53380   0.39202  -0.19653
  32   31941.5    313.1   0.238577932   2.45895  -0.43013   0.81745   1.26716
  33   32115.5    311.4   0.001934773   0.01983  -0.00366  -0.05363  -0.13017
  34   32202.7    310.5   0.010120923   0.10347  -0.11339   0.21116  -0.21453
  35   32585.7    306.9   0.054800309   0.55365  -0.55100   0.16317   0.47267
  36   32781.6    305.0   0.373884374   3.75476   0.59268  -1.04131  -1.52289
  37   32797.9    304.9   0.205153693   2.05925  -0.57707  -1.08462   0.74151
  38   33342.7    299.9   0.076534326   0.75567  -0.20164  -0.81630  -0.22062
  39   33705.4    296.7   0.049731726   0.48575   0.27570   0.61560  -0.17541
  40   33984.0    294.3   0.005398022   0.05229   0.00347  -0.16409   0.15923
  41   34354.4    291.1   0.029149504   0.27933   0.00990   0.52837  -0.00791
  42   34465.8    290.1   0.114745189   1.09603  -0.19720   0.17796  -1.01266
  43   34794.4    287.4   0.039196744   0.37087   0.36662   0.31839  -0.36754
  44   35048.4    285.3   0.088462218   0.83093  -0.51691   0.22152  -0.71740
  45   35165.4    284.4   0.006227760   0.05830   0.20112   0.08094  -0.10631
  46   35464.8    282.0   0.013150090   0.12207  -0.34840  -0.02604   0.00353
  47   35567.5    281.2   0.026513664   0.24541   0.03321   0.07609   0.48838
  48   35669.2    280.4   0.036321161   0.33523  -0.38142   0.42610  -0.09050
  49   35949.2    278.2   0.006179959   0.05659   0.11382   0.09473   0.18619
  50   36085.2    277.1   0.032623885   0.29763  -0.01333  -0.31563  -0.44478
  51   36349.4    275.1   0.147619393   1.33697   0.31541   0.70707  -0.85880
  52   36814.7    271.6   0.005636668   0.05041   0.01621   0.21392  -0.06620
  53   36959.4    270.6   0.061674694   0.54936   0.50693  -0.53451   0.08173
  54   37176.9    269.0   0.009275015   0.08213  -0.00576   0.20949  -0.19549
  55   37274.6    268.3   0.027418202   0.24216   0.39241  -0.25628   0.14998
  56   37669.6    265.5   0.059779774   0.52244  -0.08537  -0.33682   0.63380
  57   37703.2    265.2   0.114238003   0.99749   0.82839  -0.34014   0.44223
  58   37946.3    263.5   0.011823734   0.10258  -0.04807   0.04341  -0.31366
  59   38274.1    261.3   0.070559074   0.60691   0.11657  -0.72702  -0.25447
  60   38424.6    260.2   0.136670922   1.17096   0.69164  -0.60453   0.57195
  61   38575.1    259.2   0.063263019   0.53991  -0.57749   0.09137  -0.44505
  62   38631.0    258.9   0.022689081   0.19336  -0.04829  -0.43096  -0.07279
  63   38831.3    257.5   0.157345367   1.33398  -0.03849  -0.98700   0.59861
  64   39133.3    255.5   0.105954576   0.89135   0.46823  -0.58418   0.57519
  65   39231.5    254.9   0.011491827   0.09643   0.16990   0.17580   0.19147
  66   39343.9    254.2   0.015764948   0.13191  -0.27167   0.13304  -0.20102
  67   39698.4    251.9   0.087300906   0.72397   0.08909  -0.70732   0.46447
  68   39754.9    251.5   0.007440279   0.06161  -0.21698   0.01339   0.11981
  69   40285.1    248.2   0.024928589   0.20372   0.27042   0.36137   0.00148

FINAL SINGLE POINT ENERGY    -10600.158632555327

DIPOLE MOMENT
-------------
                                X             Y             Z
Electronic contribution:     -0.56067     -84.63104    -126.04725
Nuclear contribution   :     -1.60039      84.93275     129.57201
                        -----------------------------------------
Total Dipole Moment    :     -2.16107       0.30171       3.52477
                        -----------------------------------------
Magnitude (a.u.)       :      4.14551
Magnitude (Debye)      :     10.53704

Rotational constants in cm-1:     0.000767     0.000207     0.000179
Rotational constants in MHz :    23.003161     6.195227     5.372457

                             ****ORCA TERMINATED NORMALLY****
TOTAL RUN TIME: 0 days 0 hours 11 minutes 19 seconds 171 msec
