                         Program Version 4.2.0 -  RELEASE  -
|  1> # ORCA input file
|  2> # SCF done       -185.667226900547          0.000868396567
|  3> ! CAM-B3LYP def2-SVP def2/J RIJCOSX Grid4 TightSCF
|  4> %maxcore 5000
|  5> %tddft
|  6>     Mode sTDDFT
|  7>     Ethresh 5.0
|  8>     maxcore 5000
|  9> end
| 10>
| 11> %pal
| 12>   nprocs 6
| 13>   end
| 14> * xyz 0 1
| 15>    C      -22.95884        -4.04429        -5.19480
| 16>    S      -21.69750        -2.90228        -4.77598
| 17>    C      -20.62964        -4.24207        -4.67278
| 18>    C      -21.30951        -5.42312        -4.96004
| 19>    N      -22.61110        -5.28249        -5.24839
| 20>    C      -20.39425        -6.60303        -4.87716
| 21>    C      -19.10178        -5.93612        -4.50664
| 22>    C      -19.27550        -4.55691        -4.39478
| 23>    S      -17.82556        -3.74734        -3.97668
| 24>    C      -16.96322        -5.27353        -3.95184
| 25>    C      -17.79331        -6.33837        -4.25556
| 26>    C      -15.56946        -5.24864        -3.65182
| 27>    C      -14.78983        -6.34686        -3.61349
| 28>    N      -13.43877        -6.41820        -3.36498
| 29>    C      -12.51319        -5.45895        -3.14073
| 30>    S      -12.86478        -3.76565        -3.07530
| 31>    C      -11.17615        -3.42578        -2.83248
| 32>    N      -10.80271        -2.09251        -2.68547
| 33>    O       -9.62006        -1.84651        -2.51638
| 34>    O      -11.69825        -1.26253        -2.74037
| 35>    C      -10.39745        -4.55056        -2.80896
| 36>    C      -11.13740        -5.73406        -2.97605
| 37>    C      -10.58209        -7.05433        -2.98158
| 38>    C       -9.26881        -7.34721        -3.11981
| 39>    C       -8.75223        -8.66741        -3.12883
| 40>    S       -9.76752       -10.04766        -2.83112
| 41>    C       -8.44447       -11.14313        -3.10467
| 42>    C       -7.26728       -10.43677        -3.41687
| 43>    C       -7.44448        -9.04080        -3.43729
| 44>    C       -6.45303        -8.02502        -3.81523
| 45>    C       -5.87178        -7.97841        -5.00341
| 46>    O       -6.15399       -11.17328        -3.59964
| 47>    C       -4.87612       -10.58051        -3.52091
| 48>    C       -8.55929       -12.53575        -3.03559
| 49>    C       -9.67977       -13.20949        -2.61811
| 50>    C       -9.85486       -14.59582        -2.57901
| 51>    C       -9.06966       -15.59195        -3.12718
| 52>    C       -9.33649       -16.97627        -3.02987
| 53>    C       -8.46606       -17.77312        -3.71756
| 54>    C       -7.46694       -17.05611        -4.40343
| 55>    S       -7.64798       -15.34513        -4.12470
| 56>    C       -6.46157       -17.55099        -5.22421
| 57>    C       -6.18292       -18.88966        -5.55058
| 58>    C       -5.14177       -19.03545        -6.42644
| 59>    C       -4.55712       -17.81981        -6.83249
| 60>    S       -5.35119       -16.47896        -6.04782
| 61>    C       -3.51058       -17.66089        -7.72872
| 62>    C       -3.02849       -16.42300        -8.11917
| 63>    C       -2.01859       -16.13285        -9.01981
| 64>    C       -1.98061       -14.79065        -9.63160
| 65>    O       -2.61060       -13.80997        -9.29030
| 66>    C       -1.05055       -14.90545       -10.77669
| 67>    C       -0.74163       -13.98103       -11.73001
| 68>    C        0.14966       -14.33643       -12.76863
| 69>    C        0.70204       -15.64877       -12.79411
| 70>    C        1.58262       -16.00033       -13.83595
| 71>    C        1.90090       -15.09141       -14.80605
| 72>    C        1.35455       -13.79441       -14.77936
| 73>    C        0.49702       -13.42286       -13.78185
| 74>    F        1.68226       -12.92151       -15.74554
| 75>    F        2.74006       -15.42967       -15.79742
| 76>    C        0.36921       -16.58274       -11.78399
| 77>    C       -0.49221       -16.21471       -10.78738
| 78>    C       -1.00026       -16.94254        -9.62069
| 79>    C       -0.43994       -18.09668        -9.11758
| 80>    C       -0.72733       -18.63569        -7.84969
| 81>    N       -0.88027       -19.09445        -6.80716
| 82>    C        0.57567       -18.82271        -9.76649
| 83>    N        1.39191       -19.46808       -10.25451
| 84>    H      -23.95300        -3.69726        -5.38949
| 85>    H      -20.32899        -7.13247        -5.82928
| 86>    H      -20.72317        -7.31834        -4.12134
| 87>    H      -17.45800        -7.35840        -4.29351
| 88>    H      -15.16184        -4.26935        -3.45928
| 89>    H      -15.22249        -7.31858        -3.79876
| 90>    H      -13.05451        -7.35423        -3.38485
| 91>    H       -9.33556        -4.50502        -2.65499
| 92>    H      -11.26427        -7.88917        -2.87220
| 93>    H       -8.54859        -6.55729        -3.27201
| 94>    H       -6.25178        -7.26155        -3.07364
| 95>    H       -6.09032        -8.70317        -5.77085
| 96>    H       -5.16485        -7.20758        -5.25699
| 97>    H       -4.18956       -11.40267        -3.32085
| 98>    H       -4.82133        -9.84920        -2.71119
| 99>    H       -4.59802       -10.09742        -4.46084
|100>    H       -7.66304       -13.07198        -3.31039
|101>    H      -10.50992       -12.61239        -2.25927
|102>    H      -10.74848       -14.95057        -2.07959
|103>    H      -10.16880       -17.34630        -2.45701
|104>    H       -8.52955       -18.84533        -3.75699
|105>    H       -6.74849       -19.70835        -5.14324
|106>    H       -4.77937       -19.98041        -6.78960
|107>    H       -3.10215       -18.56553        -8.15364
|108>    H       -3.56503       -15.54893        -7.75956
|109>    H       -1.17286       -12.99202       -11.69660
|110>    H        2.01218       -16.98940       -13.87001
|111>    H        0.08617       -12.42533       -13.77553
|112>    H        0.79977       -17.56999       -11.83319
|113> *
|114>
|115>                          ****END OF INPUT****

CARTESIAN COORDINATES (ANGSTROEM)
---------------------------------
  C    -22.958840   -4.044290   -5.194800
  S    -21.697500   -2.902280   -4.775980
  C    -20.629640   -4.242070   -4.672780
  C    -21.309510   -5.423120   -4.960040
  N    -22.611100   -5.282490   -5.248390
  C    -20.394250   -6.603030   -4.877160
  C    -19.101780   -5.936120   -4.506640
  C    -19.275500   -4.556910   -4.394780
  S    -17.825560   -3.747340   -3.976680
  C    -16.963220   -5.273530   -3.951840
  C    -17.793310   -6.338370   -4.255560
  C    -15.569460   -5.248640   -3.651820
  C    -14.789830   -6.346860   -3.613490
  N    -13.438770   -6.418200   -3.364980
  C    -12.513190   -5.458950   -3.140730
  S    -12.864780   -3.765650   -3.075300
  C    -11.176150   -3.425780   -2.832480
  N    -10.802710   -2.092510   -2.685470
  O     -9.620060   -1.846510   -2.516380
  O    -11.698250   -1.262530   -2.740370
  C    -10.397450   -4.550560   -2.808960
  C    -11.137400   -5.734060   -2.976050
  C    -10.582090   -7.054330   -2.981580
  C     -9.268810   -7.347210   -3.119810
  C     -8.752230   -8.667410   -3.128830
  S     -9.767520  -10.047660   -2.831120
  C     -8.444470  -11.143130   -3.104670
  C     -7.267280  -10.436770   -3.416870
  C     -7.444480   -9.040800   -3.437290
  C     -6.453030   -8.025020   -3.815230
  C     -5.871780   -7.978410   -5.003410
  O     -6.153990  -11.173280   -3.599640
  C     -4.876120  -10.580510   -3.520910
  C     -8.559290  -12.535750   -3.035590
  C     -9.679770  -13.209490   -2.618110
  C     -9.854860  -14.595820   -2.579010
  C     -9.069660  -15.591950   -3.127180
  C     -9.336490  -16.976270   -3.029870
  C     -8.466060  -17.773120   -3.717560
  C     -7.466940  -17.056110   -4.403430
  S     -7.647980  -15.345130   -4.124700
  C     -6.461570  -17.550990   -5.224210
  C     -6.182920  -18.889660   -5.550580
  C     -5.141770  -19.035450   -6.426440
  C     -4.557120  -17.819810   -6.832490
  S     -5.351190  -16.478960   -6.047820
  C     -3.510580  -17.660890   -7.728720
  C     -3.028490  -16.423000   -8.119170
  C     -2.018590  -16.132850   -9.019810
  C     -1.980610  -14.790650   -9.631600
  O     -2.610600  -13.809970   -9.290300
  C     -1.050550  -14.905450  -10.776690
  C     -0.741630  -13.981030  -11.730010
  C      0.149660  -14.336430  -12.768630
  C      0.702040  -15.648770  -12.794110
  C      1.582620  -16.000330  -13.835950
  C      1.900900  -15.091410  -14.806050
  C      1.354550  -13.794410  -14.779360
  C      0.497020  -13.422860  -13.781850
  F      1.682260  -12.921510  -15.745540
  F      2.740060  -15.429670  -15.797420
  C      0.369210  -16.582740  -11.783990
  C     -0.492210  -16.214710  -10.787380
  C     -1.000260  -16.942540   -9.620690
  C     -0.439940  -18.096680   -9.117580
  C     -0.727330  -18.635690   -7.849690
  N     -0.880270  -19.094450   -6.807160
  C      0.575670  -18.822710   -9.766490
  N      1.391910  -19.468080  -10.254510
  H    -23.953000   -3.697260   -5.389490
  H    -20.328990   -7.132470   -5.829280
  H    -20.723170   -7.318340   -4.121340
  H    -17.458000   -7.358400   -4.293510
  H    -15.161840   -4.269350   -3.459280
  H    -15.222490   -7.318580   -3.798760
  H    -13.054510   -7.354230   -3.384850
  H     -9.335560   -4.505020   -2.654990
  H    -11.264270   -7.889170   -2.872200
  H     -8.548590   -6.557290   -3.272010
  H     -6.251780   -7.261550   -3.073640
  H     -6.090320   -8.703170   -5.770850
  H     -5.164850   -7.207580   -5.256990
  H     -4.189560  -11.402670   -3.320850
  H     -4.821330   -9.849200   -2.711190
  H     -4.598020  -10.097420   -4.460840
  H     -7.663040  -13.071980   -3.310390
  H    -10.509920  -12.612390   -2.259270
  H    -10.748480  -14.950570   -2.079590
  H    -10.168800  -17.346300   -2.457010
  H     -8.529550  -18.845330   -3.756990
  H     -6.748490  -19.708350   -5.143240
  H     -4.779370  -19.980410   -6.789600
  H     -3.102150  -18.565530   -8.153640
  H     -3.565030  -15.548930   -7.759560
  H     -1.172860  -12.992020  -11.696600
  H      2.012180  -16.989400  -13.870010
  H      0.086170  -12.425330  -13.775530
  H      0.799770  -17.569990  -11.833190

 Total Charge           Charge          ....    0
 Multiplicity           Mult            ....    1
 Number of Electrons    NEL             ....  522
 Basis Dimension        Dim             .... 1135

ORBITAL ENERGIES
----------------

  NO   OCC          E(Eh)            E(eV)
   0   2.0000     -88.992688     -2421.6142
   1   2.0000     -88.972384     -2421.0617
   2   2.0000     -88.968102     -2420.9451
   3   2.0000     -88.966142     -2420.8918
   4   2.0000     -88.965548     -2420.8756
   5   2.0000     -88.957583     -2420.6589
   6   2.0000     -24.784011      -674.4072
   7   2.0000     -24.782927      -674.3777
   8   2.0000     -19.268370      -524.3190
   9   2.0000     -19.236140      -523.4420
  10   2.0000     -19.235359      -523.4207
  11   2.0000     -19.190181      -522.1914
  12   2.0000     -14.647926      -398.5903
  13   2.0000     -14.496301      -394.4644
  14   2.0000     -14.411441      -392.1553
  15   2.0000     -14.393275      -391.6609
  16   2.0000     -14.391182      -391.6040
  17   2.0000     -10.379474      -282.4399
  18   2.0000     -10.365277      -282.0535
  19   2.0000     -10.364618      -282.0356
  20   2.0000     -10.360773      -281.9310
  21   2.0000     -10.342694      -281.4390
  22   2.0000     -10.341610      -281.4095
  23   2.0000     -10.338530      -281.3257
  24   2.0000     -10.334526      -281.2168
  25   2.0000     -10.332978      -281.1746
  26   2.0000     -10.328734      -281.0591
  27   2.0000     -10.326338      -280.9939
  28   2.0000     -10.323435      -280.9149
  29   2.0000     -10.318618      -280.7839
  30   2.0000     -10.317439      -280.7518
  31   2.0000     -10.317333      -280.7489
  32   2.0000     -10.315685      -280.7041
  33   2.0000     -10.313950      -280.6569
  34   2.0000     -10.311923      -280.6017
  35   2.0000     -10.310484      -280.5625
  36   2.0000     -10.310178      -280.5542
  37   2.0000     -10.306612      -280.4572
  38   2.0000     -10.306199      -280.4459
  39   2.0000     -10.305470      -280.4261
  40   2.0000     -10.304960      -280.4122
  41   2.0000     -10.304893      -280.4104
  42   2.0000     -10.303119      -280.3621
  43   2.0000     -10.302779      -280.3529
  44   2.0000     -10.302695      -280.3506
  45   2.0000     -10.301130      -280.3080
  46   2.0000     -10.301022      -280.3051
  47   2.0000     -10.297681      -280.2141
  48   2.0000     -10.297593      -280.2118
  49   2.0000     -10.297161      -280.2000
  50   2.0000     -10.295038      -280.1422
  51   2.0000     -10.294936      -280.1394
  52   2.0000     -10.292385      -280.0700
  53   2.0000     -10.292114      -280.0627
  54   2.0000     -10.292021      -280.0601
  55   2.0000     -10.289292      -279.9859
  56   2.0000     -10.288222      -279.9568
  57   2.0000     -10.287071      -279.9254
  58   2.0000     -10.286434      -279.9081
  59   2.0000     -10.285951      -279.8950
  60   2.0000     -10.285588      -279.8851
  61   2.0000     -10.284352      -279.8515
  62   2.0000     -10.282879      -279.8114
  63   2.0000     -10.282401      -279.7983
  64   2.0000     -10.281673      -279.7785
  65   2.0000     -10.281483      -279.7734
  66   2.0000     -10.273217      -279.5484
  67   2.0000     -10.273021      -279.5431
  68   2.0000     -10.267499      -279.3929
  69   2.0000      -8.087471      -220.0713
  70   2.0000      -8.067783      -219.5355
  71   2.0000      -8.063669      -219.4236
  72   2.0000      -8.061321      -219.3597
  73   2.0000      -8.061285      -219.3587
  74   2.0000      -8.053760      -219.1539
  75   2.0000      -6.057197      -164.8247
  76   2.0000      -6.052695      -164.7022
  77   2.0000      -6.048953      -164.6004
  78   2.0000      -6.037001      -164.2752
  79   2.0000      -6.033349      -164.1758
  80   2.0000      -6.032866      -164.1626
  81   2.0000      -6.030953      -164.1106
  82   2.0000      -6.030633      -164.1019
  83   2.0000      -6.029610      -164.0740
  84   2.0000      -6.028708      -164.0495
  85   2.0000      -6.026816      -163.9980
  86   2.0000      -6.026545      -163.9906
  87   2.0000      -6.026001      -163.9758
  88   2.0000      -6.023345      -163.9035
  89   2.0000      -6.023315      -163.9027
  90   2.0000      -6.022579      -163.8827
  91   2.0000      -6.019293      -163.7933
  92   2.0000      -6.015026      -163.6772
  93   2.0000      -1.315669       -35.8012
  94   2.0000      -1.305423       -35.5224
  95   2.0000      -1.290675       -35.1210
  96   2.0000      -1.172575       -31.9074
  97   2.0000      -1.134638       -30.8751
  98   2.0000      -1.104235       -30.0478
  99   2.0000      -1.097759       -29.8715
 100   2.0000      -1.065657       -28.9980
 101   2.0000      -1.010423       -27.4950
 102   2.0000      -1.009528       -27.4706
 103   2.0000      -1.004017       -27.3207
 104   2.0000      -0.998485       -27.1702
 105   2.0000      -0.997047       -27.1310
 106   2.0000      -0.986947       -26.8562
 107   2.0000      -0.984071       -26.7779
 108   2.0000      -0.971288       -26.4301
 109   2.0000      -0.960617       -26.1397
 110   2.0000      -0.938083       -25.5265
 111   2.0000      -0.932272       -25.3684
 112   2.0000      -0.924179       -25.1482
 113   2.0000      -0.914690       -24.8900
 114   2.0000      -0.906151       -24.6576
 115   2.0000      -0.899296       -24.4711
 116   2.0000      -0.894990       -24.3539
 117   2.0000      -0.894640       -24.3444
 118   2.0000      -0.879566       -23.9342
 119   2.0000      -0.877291       -23.8723
 120   2.0000      -0.875723       -23.8296
 121   2.0000      -0.870790       -23.6954
 122   2.0000      -0.864816       -23.5328
 123   2.0000      -0.853304       -23.2196
 124   2.0000      -0.844993       -22.9934
 125   2.0000      -0.839620       -22.8472
 126   2.0000      -0.839139       -22.8341
 127   2.0000      -0.834859       -22.7177
 128   2.0000      -0.821940       -22.3661
 129   2.0000      -0.818373       -22.2691
 130   2.0000      -0.811240       -22.0750
 131   2.0000      -0.800182       -21.7740
 132   2.0000      -0.784650       -21.3514
 133   2.0000      -0.779500       -21.2113
 134   2.0000      -0.776642       -21.1335
 135   2.0000      -0.764958       -20.8156
 136   2.0000      -0.751102       -20.4385
 137   2.0000      -0.744417       -20.2566
 138   2.0000      -0.733037       -19.9469
 139   2.0000      -0.720670       -19.6104
 140   2.0000      -0.717944       -19.5362
 141   2.0000      -0.707654       -19.2563
 142   2.0000      -0.701145       -19.0791
 143   2.0000      -0.697818       -18.9886
 144   2.0000      -0.688721       -18.7410
 145   2.0000      -0.678550       -18.4643
 146   2.0000      -0.671864       -18.2824
 147   2.0000      -0.667772       -18.1710
 148   2.0000      -0.664398       -18.0792
 149   2.0000      -0.660952       -17.9854
 150   2.0000      -0.653894       -17.7934
 151   2.0000      -0.649927       -17.6854
 152   2.0000      -0.643280       -17.5045
 153   2.0000      -0.639799       -17.4098
 154   2.0000      -0.636575       -17.3221
 155   2.0000      -0.634728       -17.2718
 156   2.0000      -0.632141       -17.2014
 157   2.0000      -0.629116       -17.1191
 158   2.0000      -0.627148       -17.0656
 159   2.0000      -0.624632       -16.9971
 160   2.0000      -0.619948       -16.8696
 161   2.0000      -0.616162       -16.7666
 162   2.0000      -0.612563       -16.6687
 163   2.0000      -0.609596       -16.5880
 164   2.0000      -0.605750       -16.4833
 165   2.0000      -0.598025       -16.2731
 166   2.0000      -0.595706       -16.2100
 167   2.0000      -0.593569       -16.1518
 168   2.0000      -0.581556       -15.8249
 169   2.0000      -0.580969       -15.8090
 170   2.0000      -0.572450       -15.5771
 171   2.0000      -0.571469       -15.5505
 172   2.0000      -0.570372       -15.5206
 173   2.0000      -0.566919       -15.4267
 174   2.0000      -0.562743       -15.3130
 175   2.0000      -0.560800       -15.2602
 176   2.0000      -0.558205       -15.1895
 177   2.0000      -0.551278       -15.0010
 178   2.0000      -0.550962       -14.9924
 179   2.0000      -0.548205       -14.9174
 180   2.0000      -0.544426       -14.8146
 181   2.0000      -0.542647       -14.7662
 182   2.0000      -0.538328       -14.6486
 183   2.0000      -0.537219       -14.6185
 184   2.0000      -0.534394       -14.5416
 185   2.0000      -0.532498       -14.4900
 186   2.0000      -0.529278       -14.4024
 187   2.0000      -0.526570       -14.3287
 188   2.0000      -0.517808       -14.0903
 189   2.0000      -0.515745       -14.0341
 190   2.0000      -0.514283       -13.9943
 191   2.0000      -0.511712       -13.9244
 192   2.0000      -0.510617       -13.8946
 193   2.0000      -0.509582       -13.8664
 194   2.0000      -0.505962       -13.7679
 195   2.0000      -0.505036       -13.7427
 196   2.0000      -0.499616       -13.5952
 197   2.0000      -0.497712       -13.5434
 198   2.0000      -0.497307       -13.5324
 199   2.0000      -0.491690       -13.3796
 200   2.0000      -0.489620       -13.3232
 201   2.0000      -0.488038       -13.2802
 202   2.0000      -0.483885       -13.1672
 203   2.0000      -0.483661       -13.1611
 204   2.0000      -0.480630       -13.0786
 205   2.0000      -0.479025       -13.0349
 206   2.0000      -0.477701       -12.9989
 207   2.0000      -0.476353       -12.9622
 208   2.0000      -0.473484       -12.8842
 209   2.0000      -0.468645       -12.7525
 210   2.0000      -0.466140       -12.6843
 211   2.0000      -0.464781       -12.6473
 212   2.0000      -0.463652       -12.6166
 213   2.0000      -0.461439       -12.5564
 214   2.0000      -0.455635       -12.3985
 215   2.0000      -0.452436       -12.3114
 216   2.0000      -0.448026       -12.1914
 217   2.0000      -0.446508       -12.1501
 218   2.0000      -0.445860       -12.1325
 219   2.0000      -0.443361       -12.0645
 220   2.0000      -0.441737       -12.0203
 221   2.0000      -0.434483       -11.8229
 222   2.0000      -0.431498       -11.7417
 223   2.0000      -0.430494       -11.7143
 224   2.0000      -0.429641       -11.6911
 225   2.0000      -0.427618       -11.6361
 226   2.0000      -0.426679       -11.6105
 227   2.0000      -0.424281       -11.5453
 228   2.0000      -0.423436       -11.5223
 229   2.0000      -0.421447       -11.4682
 230   2.0000      -0.413407       -11.2494
 231   2.0000      -0.408254       -11.1092
 232   2.0000      -0.406717       -11.0673
 233   2.0000      -0.403522       -10.9804
 234   2.0000      -0.399929       -10.8826
 235   2.0000      -0.398228       -10.8363
 236   2.0000      -0.394893       -10.7456
 237   2.0000      -0.385725       -10.4961
 238   2.0000      -0.384203       -10.4547
 239   2.0000      -0.379065       -10.3149
 240   2.0000      -0.375179       -10.2091
 241   2.0000      -0.369519       -10.0551
 242   2.0000      -0.364851        -9.9281
 243   2.0000      -0.362044        -9.8517
 244   2.0000      -0.357433        -9.7262
 245   2.0000      -0.351084        -9.5535
 246   2.0000      -0.349500        -9.5104
 247   2.0000      -0.348137        -9.4733
 248   2.0000      -0.339389        -9.2352
 249   2.0000      -0.334848        -9.1117
 250   2.0000      -0.332010        -9.0345
 251   2.0000      -0.325384        -8.8542
 252   2.0000      -0.317612        -8.6427
 253   2.0000      -0.316192        -8.6040
 254   2.0000      -0.309228        -8.4145
 255   2.0000      -0.298874        -8.1328
 256   2.0000      -0.291908        -7.9432
 257   2.0000      -0.282054        -7.6751
 258   2.0000      -0.262846        -7.1524
 259   2.0000      -0.240284        -6.5385
 260   2.0000      -0.215944        -5.8761
 261   0.0000      -0.112496        -3.0612
 262   0.0000      -0.068342        -1.8597
 263   0.0000      -0.060917        -1.6576
 264   0.0000      -0.045451        -1.2368
 265   0.0000      -0.034158        -0.9295

MULLIKEN ATOMIC CHARGES
-----------------------
   0 C :   -0.011027
   1 S :    0.122398
   2 C :   -0.078431
   3 C :   -0.233102
   4 N :   -0.038056
   5 C :    0.374678
   6 C :   -0.167543
   7 C :   -0.103669
   8 S :    0.150732
   9 C :   -0.096814
  10 C :   -0.014329
  11 C :    0.026768
  12 C :    0.026812
  13 N :   -0.007350
  14 C :   -0.095251
  15 S :    0.142356
  16 C :   -0.001617
  17 N :    0.278418
  18 O :   -0.257874
  19 O :   -0.270251
  20 C :    0.014684
  21 C :    0.120557
  22 C :   -0.049592
  23 C :    0.006714
  24 C :   -0.074281
  25 S :    0.093967
  26 C :   -0.134805
  27 C :    0.200858
  28 C :    0.009342
  29 C :   -0.097293
  30 C :    0.002139
  31 O :   -0.302905
  32 C :    0.192213
  33 C :    0.027005
  34 C :   -0.020035
  35 C :    0.033055
  36 C :   -0.049401
  37 C :    0.050995
  38 C :    0.012862
  39 C :   -0.016769
  40 S :    0.088893
  41 C :   -0.062989
  42 C :    0.040601
  43 C :    0.029604
  44 C :   -0.016989
  45 S :    0.105272
  46 C :   -0.000329
  47 C :    0.020347
  48 C :   -0.139164
  49 C :    0.137220
  50 O :   -0.166571
  51 C :    0.009300
  52 C :   -0.092043
  53 C :    0.114832
  54 C :    0.113143
  55 C :   -0.109496
  56 C :    0.237540
  57 C :    0.234947
  58 C :   -0.106629
  59 F :   -0.179223
  60 F :   -0.177837
  61 C :   -0.089187
  62 C :    0.039848
  63 C :    0.299239
  64 C :   -0.356415
  65 C :   -0.222308
  66 N :    0.153764
  67 C :   -0.175384
  68 N :    0.125591
  69 H :    0.036073
  70 H :    0.034323
  71 H :    0.035036
  72 H :   -0.034742
  73 H :    0.004301
  74 H :    0.009973
  75 H :    0.139173
  76 H :    0.007803
  77 H :   -0.019859
  78 H :   -0.007789
  79 H :    0.029811
  80 H :    0.040271
  81 H :    0.037131
  82 H :    0.043386
  83 H :    0.029832
  84 H :    0.031220
  85 H :    0.021599
  86 H :   -0.013166
  87 H :   -0.006139
  88 H :   -0.004856
  89 H :   -0.007555
  90 H :   -0.006578
  91 H :    0.000189
  92 H :    0.004637
  93 H :    0.009132
  94 H :   -0.019320
  95 H :    0.002292
  96 H :   -0.007886
  97 H :   -0.010026
Sum of atomic charges:   -0.0000000

LOEWDIN ATOMIC CHARGES
----------------------
   0 C :   -0.131059
   1 S :    0.412006
   2 C :   -0.216564
   3 C :   -0.049552
   4 N :   -0.084121
   5 C :   -0.012371
   6 C :   -0.048459
   7 C :   -0.204319
   8 S :    0.440830
   9 C :   -0.166890
  10 C :   -0.063758
  11 C :   -0.096621
  12 C :    0.010668
  13 N :    0.045680
  14 C :   -0.093196
  15 S :    0.479842
  16 C :   -0.217666
  17 N :    0.274223
  18 O :   -0.224166
  19 O :   -0.237312
  20 C :    0.005460
  21 C :   -0.112678
  22 C :   -0.022011
  23 C :   -0.043109
  24 C :   -0.139254
  25 S :    0.424597
  26 C :   -0.208272
  27 C :    0.046574
  28 C :   -0.094420
  29 C :   -0.030962
  30 C :   -0.024262
  31 O :   -0.087000
  32 C :    0.086391
  33 C :   -0.002602
  34 C :   -0.071652
  35 C :   -0.015838
  36 C :   -0.168720
  37 C :   -0.007225
  38 C :   -0.053893
  39 C :   -0.143470
  40 S :    0.412700
  41 C :   -0.200614
  42 C :   -0.007044
  43 C :   -0.044936
  44 C :   -0.099451
  45 S :    0.405484
  46 C :   -0.074263
  47 C :    0.048559
  48 C :   -0.116690
  49 C :    0.075454
  50 O :   -0.168613
  51 C :   -0.049011
  52 C :    0.020177
  53 C :   -0.012051
  54 C :   -0.008134
  55 C :   -0.031671
  56 C :    0.062394
  57 C :    0.062529
  58 C :   -0.035962
  59 F :   -0.056415
  60 F :   -0.055272
  61 C :    0.006768
  62 C :   -0.015676
  63 C :    0.067139
  64 C :   -0.161059
  65 C :   -0.024465
  66 N :   -0.068584
  67 C :   -0.019369
  68 N :   -0.073217
  69 H :    0.016337
  70 H :    0.054657
  71 H :    0.054739
  72 H :    0.025020
  73 H :    0.013216
  74 H :    0.029715
  75 H :    0.097198
  76 H :    0.044022
  77 H :    0.013355
  78 H :    0.034989
  79 H :    0.032704
  80 H :    0.028947
  81 H :    0.030163
  82 H :    0.030466
  83 H :    0.019896
  84 H :    0.019952
  85 H :    0.023884
  86 H :    0.022350
  87 H :    0.039290
  88 H :    0.036653
  89 H :    0.033750
  90 H :    0.035054
  91 H :    0.039138
  92 H :    0.037197
  93 H :    0.031346
  94 H :    0.036584
  95 H :    0.045819
  96 H :    0.042042
  97 H :    0.037960

  Mayer bond orders larger than 0.100000
B(  0-C ,  1-S ) :   1.1305 B(  0-C ,  4-N ) :   1.6956 B(  0-C , 69-H ) :   0.9666
B(  1-S ,  2-C ) :   1.0927 B(  2-C ,  3-C ) :   1.5348 B(  2-C ,  7-C ) :   1.1808
B(  3-C ,  4-N ) :   1.4091 B(  3-C ,  5-C ) :   1.0481 B(  5-C ,  6-C ) :   0.9837
B(  5-C , 70-H ) :   0.8655 B(  5-C , 71-H ) :   0.8654 B(  6-C ,  7-C ) :   1.5494
B(  6-C , 10-C ) :   1.3054 B(  7-C ,  8-S ) :   1.0842 B(  8-S ,  9-C ) :   1.1194
B(  9-C , 10-C ) :   1.4887 B(  9-C , 11-C ) :   1.1398 B( 10-C , 72-H ) :   0.9922
B( 11-C , 12-C ) :   1.7260 B( 11-C , 73-H ) :   0.9320 B( 12-C , 13-N ) :   1.1142
B( 12-C , 74-H ) :   0.9576 B( 13-N , 14-C ) :   1.2551 B( 13-N , 75-H ) :   0.9085
B( 14-C , 15-S ) :   1.1421 B( 14-C , 21-C ) :   1.3180 B( 15-S , 16-C ) :   1.0624
B( 16-C , 17-N ) :   0.9868 B( 16-C , 20-C ) :   1.4786 B( 17-N , 18-O ) :   1.5225
B( 17-N , 19-O ) :   1.5024 B( 18-O , 19-O ) :   0.2528 B( 20-C , 21-C ) :   1.2570
B( 20-C , 76-H ) :   0.9988 B( 21-C , 22-C ) :   1.0782 B( 22-C , 23-C ) :   1.6861
B( 22-C , 77-H ) :   0.9599 B( 23-C , 24-C ) :   1.1798 B( 23-C , 78-H ) :   0.9645
B( 24-C , 25-S ) :   1.1201 B( 24-C , 28-C ) :   1.4341 B( 25-S , 26-C ) :   1.0672
B( 26-C , 27-C ) :   1.3679 B( 26-C , 33-C ) :   1.2883 B( 27-C , 28-C ) :   1.2483
B( 27-C , 31-O ) :   1.2150 B( 28-C , 29-C ) :   1.0020 B( 29-C , 30-C ) :   2.0014
B( 29-C , 79-H ) :   0.9448 B( 30-C , 80-H ) :   0.9563 B( 30-C , 81-H ) :   0.9549
B( 31-O , 32-C ) :   0.9318 B( 32-C , 82-H ) :   0.9763 B( 32-C , 83-H ) :   0.9643
B( 32-C , 84-H ) :   0.9706 B( 33-C , 34-C ) :   1.4942 B( 33-C , 85-H ) :   0.9450
B( 34-C , 35-C ) :   1.2667 B( 34-C , 86-H ) :   0.9647 B( 35-C , 36-C ) :   1.5088
B( 35-C , 87-H ) :   0.9617 B( 36-C , 37-C ) :   1.1885 B( 36-C , 40-S ) :   1.0317
B( 37-C , 38-C ) :   1.5387 B( 37-C , 88-H ) :   0.9985 B( 38-C , 39-C ) :   1.2271
B( 38-C , 89-H ) :   0.9945 B( 39-C , 40-S ) :   1.0869 B( 39-C , 41-C ) :   1.4226
B( 41-C , 42-C ) :   1.2492 B( 41-C , 45-S ) :   1.0445 B( 42-C , 43-C ) :   1.5082
B( 42-C , 90-H ) :   0.9947 B( 43-C , 44-C ) :   1.2110 B( 43-C , 91-H ) :   1.0019
B( 44-C , 45-S ) :   1.0967 B( 44-C , 46-C ) :   1.4460 B( 46-C , 47-C ) :   1.2735
B( 46-C , 92-H ) :   0.9645 B( 47-C , 48-C ) :   1.4733 B( 47-C , 93-H ) :   0.9377
B( 48-C , 49-C ) :   0.9807 B( 48-C , 63-C ) :   1.1086 B( 49-C , 50-O ) :   2.2344
B( 49-C , 51-C ) :   0.9142 B( 51-C , 52-C ) :   1.4885 B( 51-C , 62-C ) :   1.2204
B( 52-C , 53-C ) :   1.1809 B( 52-C , 94-H ) :   1.0148 B( 53-C , 54-C ) :   1.2653
B( 53-C , 58-C ) :   1.1953 B( 54-C , 55-C ) :   1.1931 B( 54-C , 61-C ) :   1.2014
B( 55-C , 56-C ) :   1.4357 B( 55-C , 58-C ) :   0.1101 B( 55-C , 95-H ) :   1.0068
B( 56-C , 57-C ) :   1.2015 B( 56-C , 60-F ) :   1.1277 B( 57-C , 58-C ) :   1.4384
B( 57-C , 59-F ) :   1.1255 B( 58-C , 96-H ) :   1.0065 B( 61-C , 62-C ) :   1.4697
B( 61-C , 97-H ) :   0.9910 B( 62-C , 63-C ) :   0.9840 B( 63-C , 64-C ) :   1.5820
B( 64-C , 65-C ) :   1.1708 B( 64-C , 67-C ) :   1.1383 B( 65-C , 66-N ) :   3.0078
B( 67-C , 68-N ) :   2.9651

-----------------------------------------------------------------------------
         ABSORPTION SPECTRUM VIA TRANSITION ELECTRIC DIPOLE MOMENTS
-----------------------------------------------------------------------------
State   Energy  Wavelength   fosc         T2         TX        TY        TZ
        (cm-1)    (nm)                  (au**2)     (au)      (au)      (au)
-----------------------------------------------------------------------------
   0    9201.0   1086.8   1.280579959  45.81904  -4.48943   3.85092   3.29158
   1   17432.2    573.7   0.233640972   4.41238   0.01591   1.77567  -1.12211
   2   18482.5    541.1   0.318544632   5.67396   0.19164  -2.12720   1.05463
   3   20950.0    477.3   0.524184160   8.23711   1.90762   2.01113  -0.74393
   4   22541.4    443.6   0.628726239   9.18240  -2.90315  -0.59628  -0.63132
   5   22927.3    436.2   0.216310414   3.10600   0.70314   1.60712  -0.16958
   6   24845.6    402.5   0.229838735   3.04543  -0.10124   1.37353  -1.07173
   7   25366.0    394.2   0.242200717   3.14339  -1.73746  -0.32987   0.12573
   8   25687.8    389.3   0.191046300   2.44843   1.54134   0.25280   0.09368
   9   26503.7    377.3   0.083760971   1.04042  -0.81437   0.54332   0.28641
  10   26738.6    374.0   0.015487009   0.19068   0.40030  -0.15698  -0.07613
  11   27995.9    357.2   0.021438213   0.25210  -0.49923   0.04685   0.02589
  12   28157.2    355.1   0.031530372   0.36865   0.31677   0.19276  -0.48078
  13   28696.2    348.5   0.042400856   0.48644  -0.39903   0.57107  -0.03305
  14   29842.9    335.1   0.038236910   0.42181  -0.59992   0.24331   0.05203
  15   30072.4    332.5   0.154479196   1.69113  -0.84965  -0.86484   0.47039
  16   30702.8    325.7   0.278933054   2.99087  -1.60880  -0.14692   0.61728
  17   31176.8    320.8   0.021949101   0.23177   0.27695  -0.38832   0.06539
  18   31569.2    316.8   0.215636564   2.24872   1.24474  -0.63238   0.54721
  19   32191.1    310.6   0.044118074   0.45119   0.13062  -0.64375   0.14039
  20   32924.4    303.7   0.405789266   4.05750   0.48313   1.14441  -1.58569
  21   33161.7    301.6   0.007339876   0.07287  -0.23967   0.02605  -0.12144
  22   33401.8    299.4   0.000567725   0.00560   0.04308  -0.05482   0.02711
  23   33608.4    297.5   0.042548151   0.41678  -0.63678   0.08372   0.06545
  24   33794.7    295.9   0.028256007   0.27526   0.40747  -0.06886  -0.32324
  25   34340.3    291.2   0.117056283   1.12219  -0.30210   0.72597  -0.70986
  26   34616.0    288.9   0.020193682   0.19205  -0.07274   0.15876  -0.40194
  27   34871.0    286.8   0.058824329   0.55535  -0.49127  -0.08944   0.55318
  28   35458.1    282.0   0.005436722   0.05048  -0.02515   0.21424  -0.06283
  29   35832.7    279.1   0.007337573   0.06741  -0.02518   0.25703  -0.02679
  30   36052.2    277.4   0.033250938   0.30363  -0.53153   0.13850   0.04387
  31   36639.0    272.9   0.021602984   0.19411   0.21942  -0.29623   0.24126
  32   36814.7    271.6   0.007920507   0.07083  -0.08227   0.10449   0.23053
  33   37133.2    269.3   0.140144145   1.24248   0.34869  -1.05830   0.02992
  34   37694.0    265.3   0.076483341   0.66799   0.26058  -0.50012   0.59158
  35   38101.3    262.5   0.285602398   2.46773   0.27776   1.31435  -0.81429
  36   38235.6    261.5   0.162481860   1.39899  -0.32380   1.06005  -0.41283
  37   38530.7    259.5   0.007251117   0.06195  -0.06272   0.22212  -0.09319
  38   38591.2    259.1   0.034735734   0.29632   0.04865   0.52188  -0.14695
  39   38797.4    257.7   0.112171071   0.95182  -0.89870   0.03103   0.37840
  40   39271.3    254.6   0.014042779   0.11772  -0.08249  -0.13059   0.30637
  41   39612.0    252.4   0.000060112   0.00050  -0.01977   0.00657   0.00810
  42   39853.7    250.9   0.021266321   0.17567  -0.09750   0.39109  -0.11495
  43   40117.8    249.3   0.021778983   0.17872  -0.28158  -0.08061   0.30486
  44   40307.9    248.1   0.010643333   0.08693   0.28838  -0.06058   0.00982

FINAL SINGLE POINT ENERGY     -5158.034214916544

DIPOLE MOMENT
-------------
                                X             Y             Z
Electronic contribution:     22.33979       3.66072     -34.86860
Nuclear contribution   :    -27.47327      -3.21882      37.38654
                        -----------------------------------------
Total Dipole Moment    :     -5.13348       0.44190       2.51794
                        -----------------------------------------
Magnitude (a.u.)       :      5.73480
Magnitude (Debye)      :     14.57670

Rotational constants in cm-1:     0.001052     0.000194     0.000184
Rotational constants in MHz :    31.546154     5.803856     5.529127

                             ****ORCA TERMINATED NORMALLY****
TOTAL RUN TIME: 0 days 0 hours 20 minutes 58 seconds 342 msec
