                         Program Version 4.2.0 -  RELEASE  -
|  1> # ORCA input file
|  2> # SCF done       -194.607476287985          0.000811742420
|  3> ! CAM-B3LYP def2-SVP def2/J RIJCOSX Grid4 TightSCF
|  4> %maxcore 5000
|  5> %tddft
|  6>     Mode sTDDFT
|  7>     Ethresh 5.0
|  8>     maxcore 5000
|  9> end
| 10>
| 11> %pal
| 12>   nprocs 6
| 13>   end
| 14> * xyz 0 1
| 15>    C       -9.35492        16.61625        -4.78569
| 16>    C       -9.04340        17.30870        -5.92773
| 17>    C       -8.10225        16.90067        -6.89542
| 18>    N       -7.35395        16.63419        -7.72489
| 19>    C       -9.63879        18.53250        -6.30077
| 20>    N      -10.08970        19.52293        -6.66634
| 21>    C      -10.30770        17.03888        -3.76810
| 22>    C      -10.35972        16.05667        -2.74745
| 23>    C      -11.17199        16.17406        -1.64591
| 24>    C      -11.96389        17.32188        -1.53834
| 25>    C      -11.90526        18.29928        -2.56193
| 26>    C      -11.09008        18.17662        -3.67961
| 27>    S      -12.96659        19.63416        -2.23224
| 28>    C      -13.46657        18.87467        -0.74431
| 29>    C      -12.87109        17.68162        -0.50509
| 30>   Br      -14.72865        19.72590         0.34922
| 31>    C       -9.44556        14.95085        -3.07930
| 32>    O       -9.36775        13.88100        -2.52211
| 33>    C       -8.76697        15.36378        -4.34523
| 34>    C       -7.85797        14.60397        -5.01191
| 35>    C       -7.14699        13.51840        -4.43451
| 36>    O       -6.65397        12.54531        -5.25111
| 37>    C       -6.72418        13.25579        -3.14580
| 38>    C       -6.66917        13.78902        -1.77396
| 39>    O       -7.06844        14.82230        -1.30892
| 40>    N       -5.95046        12.82050        -1.08014
| 41>    C       -5.48382        11.75324        -1.84572
| 42>    O       -4.83101        10.83294        -1.43198
| 43>    C       -5.97173        12.06141        -3.19512
| 44>    C       -5.95600        11.64443        -4.51450
| 45>    C       -5.35724        10.50605        -5.12077
| 46>    C       -5.42851        10.25377        -6.44652
| 47>    C       -4.84006         9.10315        -7.05611
| 48>    C       -4.89435         8.77418        -8.35926
| 49>    C       -5.55391         9.57671        -9.43121
| 50>    C       -4.23032         7.50481        -8.84810
| 51>    N       -3.07098         7.79366        -9.66036
| 52>    C       -3.13110         8.00875       -10.98454
| 53>    C       -2.11891         8.53244       -11.73495
| 54>    C       -2.22892         8.72819       -13.11810
| 55>    C       -1.24356         9.24182       -13.92436
| 56>    C       -1.33445         9.51245       -15.30872
| 57>    C       -0.19553        10.02255       -15.85566
| 58>    C        0.86468        10.16546       -14.93309
| 59>    S        0.36590         9.66000       -13.34359
| 60>    C        2.15435        10.59916       -15.19545
| 61>    C        2.70201        11.03044       -16.41823
| 62>    C        4.03574        11.31216       -16.34951
| 63>    C        4.61839        11.08069       -15.08293
| 64>    S        3.39006        10.58120       -13.95506
| 65>    C        5.95818        11.29252       -14.78095
| 66>    C        6.67312        11.02722       -13.62359
| 67>    C        6.40688        10.24429       -12.50643
| 68>    C        7.13135        10.55828       -11.25538
| 69>    O        8.04331        11.34586       -11.11271
| 70>    C        6.48499         9.73820       -10.20455
| 71>    C        6.72452         9.70723        -8.86330
| 72>    C        5.94968         8.84926        -8.04709
| 73>    C        4.93969         8.04351        -8.64548
| 74>    C        4.16367         7.20029        -7.82668
| 75>    C        4.38215         7.15537        -6.47811
| 76>    C        5.38436         7.94714        -5.88859
| 77>    C        6.15315         8.77757        -6.65614
| 78>    F        5.57903         7.88257        -4.56093
| 79>    F        3.63392         6.35213        -5.70217
| 80>    C        4.72660         8.08726       -10.04413
| 81>    C        5.49263         8.91936       -10.81181
| 82>    C        5.53046         9.14860       -12.25713
| 83>    C        4.95195         8.31349       -13.19636
| 84>    C        5.29473         8.33621       -14.55903
| 85>    N        5.57046         8.30951       -15.67441
| 86>    C        4.03296         7.29643       -12.89039
| 87>    N        3.24038         6.48352       -12.70723
| 88>    H      -11.18748        15.40777        -0.88730
| 89>    H      -11.08429        18.94692        -4.43252
| 90>    H      -13.06279        17.07909         0.36387
| 91>    H       -7.62050        14.80690        -6.04771
| 92>    H       -5.75587        12.90015        -0.09189
| 93>    H       -4.83596         9.84541        -4.44347
| 94>    H       -5.96604        10.95458        -7.06805
| 95>    H       -4.32393         8.43585        -6.37667
| 96>    H       -4.84844         9.77461       -10.23932
| 97>    H       -5.92887        10.52621        -9.06720
| 98>    H       -6.38811         9.01502        -9.85321
| 99>    H       -4.93504         6.93015        -9.45661
|100>    H       -3.91631         6.88874        -8.00223
|101>    H       -2.25719         8.14141        -9.17267
|102>    H       -4.04805         7.69199       -11.46488
|103>    H       -1.19341         8.82092       -11.25554
|104>    H       -3.16659         8.47119       -13.59476
|105>    H       -2.23977         9.32273       -15.85828
|106>    H       -0.08406        10.28354       -16.89217
|107>    H        2.11170        11.11452       -17.31254
|108>    H        4.62968        11.64129       -17.18308
|109>    H        6.50736        11.80077       -15.56464
|110>    H        7.60762        11.57408       -13.52734
|111>    H        7.49297        10.32673        -8.42649
|112>    H        3.39569         6.58145        -8.26407
|113>    H        6.91759         9.37864        -6.18917
|114>    H        3.95789         7.46299       -10.47056
|115> *
|116>
|117>                          ****END OF INPUT****

CARTESIAN COORDINATES (ANGSTROEM)
---------------------------------
  C     -9.354920   16.616250   -4.785690
  C     -9.043400   17.308700   -5.927730
  C     -8.102250   16.900670   -6.895420
  N     -7.353950   16.634190   -7.724890
  C     -9.638790   18.532500   -6.300770
  N    -10.089700   19.522930   -6.666340
  C    -10.307700   17.038880   -3.768100
  C    -10.359720   16.056670   -2.747450
  C    -11.171990   16.174060   -1.645910
  C    -11.963890   17.321880   -1.538340
  C    -11.905260   18.299280   -2.561930
  C    -11.090080   18.176620   -3.679610
  S    -12.966590   19.634160   -2.232240
  C    -13.466570   18.874670   -0.744310
  C    -12.871090   17.681620   -0.505090
  Br   -14.728650   19.725900    0.349220
  C     -9.445560   14.950850   -3.079300
  O     -9.367750   13.881000   -2.522110
  C     -8.766970   15.363780   -4.345230
  C     -7.857970   14.603970   -5.011910
  C     -7.146990   13.518400   -4.434510
  O     -6.653970   12.545310   -5.251110
  C     -6.724180   13.255790   -3.145800
  C     -6.669170   13.789020   -1.773960
  O     -7.068440   14.822300   -1.308920
  N     -5.950460   12.820500   -1.080140
  C     -5.483820   11.753240   -1.845720
  O     -4.831010   10.832940   -1.431980
  C     -5.971730   12.061410   -3.195120
  C     -5.956000   11.644430   -4.514500
  C     -5.357240   10.506050   -5.120770
  C     -5.428510   10.253770   -6.446520
  C     -4.840060    9.103150   -7.056110
  C     -4.894350    8.774180   -8.359260
  C     -5.553910    9.576710   -9.431210
  C     -4.230320    7.504810   -8.848100
  N     -3.070980    7.793660   -9.660360
  C     -3.131100    8.008750  -10.984540
  C     -2.118910    8.532440  -11.734950
  C     -2.228920    8.728190  -13.118100
  C     -1.243560    9.241820  -13.924360
  C     -1.334450    9.512450  -15.308720
  C     -0.195530   10.022550  -15.855660
  C      0.864680   10.165460  -14.933090
  S      0.365900    9.660000  -13.343590
  C      2.154350   10.599160  -15.195450
  C      2.702010   11.030440  -16.418230
  C      4.035740   11.312160  -16.349510
  C      4.618390   11.080690  -15.082930
  S      3.390060   10.581200  -13.955060
  C      5.958180   11.292520  -14.780950
  C      6.673120   11.027220  -13.623590
  C      6.406880   10.244290  -12.506430
  C      7.131350   10.558280  -11.255380
  O      8.043310   11.345860  -11.112710
  C      6.484990    9.738200  -10.204550
  C      6.724520    9.707230   -8.863300
  C      5.949680    8.849260   -8.047090
  C      4.939690    8.043510   -8.645480
  C      4.163670    7.200290   -7.826680
  C      4.382150    7.155370   -6.478110
  C      5.384360    7.947140   -5.888590
  C      6.153150    8.777570   -6.656140
  F      5.579030    7.882570   -4.560930
  F      3.633920    6.352130   -5.702170
  C      4.726600    8.087260  -10.044130
  C      5.492630    8.919360  -10.811810
  C      5.530460    9.148600  -12.257130
  C      4.951950    8.313490  -13.196360
  C      5.294730    8.336210  -14.559030
  N      5.570460    8.309510  -15.674410
  C      4.032960    7.296430  -12.890390
  N      3.240380    6.483520  -12.707230
  H    -11.187480   15.407770   -0.887300
  H    -11.084290   18.946920   -4.432520
  H    -13.062790   17.079090    0.363870
  H     -7.620500   14.806900   -6.047710
  H     -5.755870   12.900150   -0.091890
  H     -4.835960    9.845410   -4.443470
  H     -5.966040   10.954580   -7.068050
  H     -4.323930    8.435850   -6.376670
  H     -4.848440    9.774610  -10.239320
  H     -5.928870   10.526210   -9.067200
  H     -6.388110    9.015020   -9.853210
  H     -4.935040    6.930150   -9.456610
  H     -3.916310    6.888740   -8.002230
  H     -2.257190    8.141410   -9.172670
  H     -4.048050    7.691990  -11.464880
  H     -1.193410    8.820920  -11.255540
  H     -3.166590    8.471190  -13.594760
  H     -2.239770    9.322730  -15.858280
  H     -0.084060   10.283540  -16.892170
  H      2.111700   11.114520  -17.312540
  H      4.629680   11.641290  -17.183080
  H      6.507360   11.800770  -15.564640
  H      7.607620   11.574080  -13.527340
  H      7.492970   10.326730   -8.426490
  H      3.395690    6.581450   -8.264070
  H      6.917590    9.378640   -6.189170
  H      3.957890    7.462990  -10.470560

 Total Charge           Charge          ....    0
 Multiplicity           Mult            ....    1
 Number of Electrons    NEL             ....  546
 Basis Dimension        Dim             .... 1187

ORBITAL ENERGIES
----------------

  NO   OCC          E(Eh)            E(eV)
   0   2.0000    -482.891089    -13140.1346
   1   2.0000     -88.981852     -2421.3193
   2   2.0000     -88.958460     -2420.6827
   3   2.0000     -88.954520     -2420.5756
   4   2.0000     -62.568803     -1702.5837
   5   2.0000     -56.402759     -1534.7971
   6   2.0000     -56.400031     -1534.7229
   7   2.0000     -56.400004     -1534.7221
   8   2.0000     -24.782479      -674.3655
   9   2.0000     -24.781421      -674.3367
  10   2.0000     -19.327294      -525.9224
  11   2.0000     -19.224961      -523.1378
  12   2.0000     -19.221896      -523.0544
  13   2.0000     -19.220954      -523.0288
  14   2.0000     -19.185316      -522.0590
  15   2.0000     -14.474242      -393.8641
  16   2.0000     -14.464214      -393.5913
  17   2.0000     -14.427282      -392.5863
  18   2.0000     -14.424761      -392.5177
  19   2.0000     -14.387602      -391.5065
  20   2.0000     -14.382941      -391.3797
  21   2.0000     -10.410568      -283.2860
  22   2.0000     -10.410360      -283.2803
  23   2.0000     -10.380162      -282.4586
  24   2.0000     -10.377268      -282.3798
  25   2.0000     -10.373877      -282.2875
  26   2.0000     -10.365447      -282.0582
  27   2.0000     -10.362552      -281.9794
  28   2.0000     -10.361688      -281.9559
  29   2.0000     -10.354379      -281.7570
  30   2.0000     -10.354010      -281.7469
  31   2.0000     -10.352427      -281.7038
  32   2.0000     -10.343558      -281.4625
  33   2.0000     -10.335528      -281.2440
  34   2.0000     -10.333346      -281.1846
  35   2.0000     -10.332873      -281.1718
  36   2.0000     -10.331811      -281.1429
  37   2.0000     -10.329670      -281.0846
  38   2.0000     -10.327164      -281.0164
  39   2.0000     -10.316966      -280.7389
  40   2.0000     -10.316787      -280.7341
  41   2.0000     -10.314990      -280.6852
  42   2.0000     -10.314549      -280.6732
  43   2.0000     -10.313372      -280.6411
  44   2.0000     -10.312731      -280.6237
  45   2.0000     -10.312677      -280.6222
  46   2.0000     -10.311500      -280.5902
  47   2.0000     -10.310752      -280.5698
  48   2.0000     -10.310658      -280.5673
  49   2.0000     -10.308561      -280.5102
  50   2.0000     -10.307958      -280.4938
  51   2.0000     -10.307161      -280.4721
  52   2.0000     -10.304115      -280.3892
  53   2.0000     -10.303245      -280.3656
  54   2.0000     -10.303181      -280.3638
  55   2.0000     -10.302699      -280.3507
  56   2.0000     -10.302363      -280.3415
  57   2.0000     -10.300340      -280.2865
  58   2.0000     -10.300136      -280.2809
  59   2.0000     -10.295041      -280.1423
  60   2.0000     -10.293213      -280.0926
  61   2.0000     -10.290696      -280.0241
  62   2.0000     -10.288401      -279.9616
  63   2.0000     -10.287632      -279.9407
  64   2.0000     -10.286345      -279.9057
  65   2.0000     -10.286214      -279.9021
  66   2.0000     -10.285509      -279.8829
  67   2.0000     -10.282761      -279.8081
  68   2.0000     -10.282379      -279.7978
  69   2.0000     -10.280818      -279.7553
  70   2.0000     -10.278351      -279.6881
  71   2.0000     -10.278139      -279.6824
  72   2.0000     -10.274648      -279.5874
  73   2.0000     -10.272667      -279.5335
  74   2.0000     -10.266984      -279.3788
  75   2.0000     -10.266678      -279.3705
  76   2.0000     -10.260672      -279.2071
  77   2.0000      -8.798236      -239.4122
  78   2.0000      -8.077897      -219.8108
  79   2.0000      -8.054490      -219.1738
  80   2.0000      -8.049194      -219.0297
  81   2.0000      -6.634559      -180.5355
  82   2.0000      -6.619972      -180.1386
  83   2.0000      -6.619743      -180.1324
  84   2.0000      -6.047589      -164.5633
  85   2.0000      -6.043291      -164.4463
  86   2.0000      -6.039115      -164.3327
  87   2.0000      -6.024102      -163.9241
  88   2.0000      -6.020094      -163.8151
  89   2.0000      -6.018572      -163.7737
  90   2.0000      -6.015675      -163.6948
  91   2.0000      -6.014423      -163.6608
  92   2.0000      -6.011137      -163.5714
  93   2.0000      -2.750437       -74.8432
  94   2.0000      -2.746343       -74.7318
  95   2.0000      -2.746156       -74.7267
  96   2.0000      -2.734568       -74.4114
  97   2.0000      -2.734555       -74.4110
  98   2.0000      -1.303451       -35.4687
  99   2.0000      -1.288823       -35.0707
 100   2.0000      -1.243366       -33.8337
 101   2.0000      -1.166467       -31.7412
 102   2.0000      -1.147266       -31.2187
 103   2.0000      -1.139865       -31.0173
 104   2.0000      -1.099243       -29.9119
 105   2.0000      -1.074452       -29.2373
 106   2.0000      -1.053498       -28.6671
 107   2.0000      -1.031634       -28.0722
 108   2.0000      -1.022192       -27.8153
 109   2.0000      -1.004338       -27.3294
 110   2.0000      -1.003170       -27.2976
 111   2.0000      -0.999035       -27.1851
 112   2.0000      -0.991234       -26.9729
 113   2.0000      -0.980289       -26.6750
 114   2.0000      -0.975960       -26.5572
 115   2.0000      -0.963940       -26.2302
 116   2.0000      -0.957934       -26.0667
 117   2.0000      -0.954590       -25.9757
 118   2.0000      -0.951394       -25.8887
 119   2.0000      -0.937690       -25.5158
 120   2.0000      -0.935726       -25.4624
 121   2.0000      -0.919811       -25.0293
 122   2.0000      -0.916482       -24.9387
 123   2.0000      -0.907550       -24.6957
 124   2.0000      -0.904727       -24.6189
 125   2.0000      -0.893325       -24.3086
 126   2.0000      -0.887187       -24.1416
 127   2.0000      -0.879790       -23.9403
 128   2.0000      -0.873717       -23.7751
 129   2.0000      -0.866680       -23.5836
 130   2.0000      -0.858948       -23.3732
 131   2.0000      -0.852438       -23.1960
 132   2.0000      -0.844524       -22.9807
 133   2.0000      -0.836468       -22.7614
 134   2.0000      -0.829997       -22.5854
 135   2.0000      -0.825413       -22.4606
 136   2.0000      -0.817480       -22.2448
 137   2.0000      -0.810710       -22.0605
 138   2.0000      -0.806655       -21.9502
 139   2.0000      -0.790036       -21.4980
 140   2.0000      -0.785494       -21.3744
 141   2.0000      -0.777121       -21.1465
 142   2.0000      -0.771163       -20.9844
 143   2.0000      -0.764008       -20.7897
 144   2.0000      -0.759539       -20.6681
 145   2.0000      -0.738982       -20.1087
 146   2.0000      -0.736695       -20.0465
 147   2.0000      -0.730580       -19.8801
 148   2.0000      -0.719669       -19.5832
 149   2.0000      -0.712951       -19.4004
 150   2.0000      -0.706829       -19.2338
 151   2.0000      -0.701524       -19.0894
 152   2.0000      -0.697788       -18.9878
 153   2.0000      -0.692636       -18.8476
 154   2.0000      -0.684718       -18.6321
 155   2.0000      -0.682362       -18.5680
 156   2.0000      -0.667725       -18.1697
 157   2.0000      -0.665184       -18.1006
 158   2.0000      -0.654881       -17.8202
 159   2.0000      -0.650867       -17.7110
 160   2.0000      -0.646222       -17.5846
 161   2.0000      -0.638250       -17.3677
 162   2.0000      -0.637813       -17.3558
 163   2.0000      -0.634990       -17.2790
 164   2.0000      -0.631182       -17.1753
 165   2.0000      -0.628511       -17.1027
 166   2.0000      -0.618746       -16.8369
 167   2.0000      -0.618200       -16.8221
 168   2.0000      -0.616002       -16.7623
 169   2.0000      -0.610491       -16.6123
 170   2.0000      -0.606505       -16.5038
 171   2.0000      -0.604559       -16.4509
 172   2.0000      -0.602675       -16.3996
 173   2.0000      -0.597480       -16.2583
 174   2.0000      -0.595814       -16.2129
 175   2.0000      -0.592354       -16.1188
 176   2.0000      -0.588305       -16.0086
 177   2.0000      -0.585973       -15.9451
 178   2.0000      -0.575194       -15.6518
 179   2.0000      -0.568608       -15.4726
 180   2.0000      -0.567369       -15.4389
 181   2.0000      -0.565397       -15.3852
 182   2.0000      -0.560372       -15.2485
 183   2.0000      -0.558841       -15.2068
 184   2.0000      -0.556153       -15.1337
 185   2.0000      -0.555297       -15.1104
 186   2.0000      -0.552608       -15.0372
 187   2.0000      -0.546741       -14.8776
 188   2.0000      -0.543425       -14.7873
 189   2.0000      -0.541930       -14.7467
 190   2.0000      -0.534578       -14.5466
 191   2.0000      -0.533921       -14.5287
 192   2.0000      -0.531157       -14.4535
 193   2.0000      -0.531067       -14.4511
 194   2.0000      -0.528031       -14.3685
 195   2.0000      -0.526432       -14.3249
 196   2.0000      -0.524252       -14.2656
 197   2.0000      -0.521474       -14.1900
 198   2.0000      -0.519755       -14.1433
 199   2.0000      -0.517134       -14.0719
 200   2.0000      -0.515093       -14.0164
 201   2.0000      -0.513830       -13.9820
 202   2.0000      -0.510434       -13.8896
 203   2.0000      -0.508107       -13.8263
 204   2.0000      -0.507168       -13.8007
 205   2.0000      -0.503689       -13.7061
 206   2.0000      -0.502796       -13.6818
 207   2.0000      -0.501622       -13.6498
 208   2.0000      -0.498788       -13.5727
 209   2.0000      -0.496419       -13.5082
 210   2.0000      -0.493073       -13.4172
 211   2.0000      -0.490774       -13.3546
 212   2.0000      -0.489454       -13.3187
 213   2.0000      -0.488649       -13.2968
 214   2.0000      -0.486532       -13.2392
 215   2.0000      -0.484917       -13.1953
 216   2.0000      -0.482354       -13.1255
 217   2.0000      -0.480748       -13.0818
 218   2.0000      -0.479417       -13.0456
 219   2.0000      -0.475175       -12.9302
 220   2.0000      -0.468925       -12.7601
 221   2.0000      -0.465617       -12.6701
 222   2.0000      -0.464879       -12.6500
 223   2.0000      -0.461274       -12.5519
 224   2.0000      -0.459003       -12.4901
 225   2.0000      -0.455292       -12.3891
 226   2.0000      -0.454895       -12.3783
 227   2.0000      -0.454195       -12.3593
 228   2.0000      -0.453391       -12.3374
 229   2.0000      -0.446824       -12.1587
 230   2.0000      -0.445526       -12.1234
 231   2.0000      -0.444692       -12.1007
 232   2.0000      -0.442086       -12.0298
 233   2.0000      -0.437335       -11.9005
 234   2.0000      -0.436995       -11.8912
 235   2.0000      -0.434232       -11.8160
 236   2.0000      -0.431667       -11.7462
 237   2.0000      -0.428466       -11.6592
 238   2.0000      -0.425836       -11.5876
 239   2.0000      -0.425398       -11.5757
 240   2.0000      -0.421127       -11.4595
 241   2.0000      -0.418392       -11.3850
 242   2.0000      -0.416482       -11.3331
 243   2.0000      -0.412826       -11.2336
 244   2.0000      -0.406533       -11.0623
 245   2.0000      -0.400957       -10.9106
 246   2.0000      -0.399487       -10.8706
 247   2.0000      -0.398814       -10.8523
 248   2.0000      -0.392765       -10.6877
 249   2.0000      -0.390609       -10.6290
 250   2.0000      -0.389921       -10.6103
 251   2.0000      -0.383905       -10.4466
 252   2.0000      -0.380830       -10.3629
 253   2.0000      -0.380208       -10.3460
 254   2.0000      -0.374275       -10.1845
 255   2.0000      -0.371116       -10.0986
 256   2.0000      -0.368103       -10.0166
 257   2.0000      -0.364244        -9.9116
 258   2.0000      -0.355526        -9.6743
 259   2.0000      -0.347827        -9.4649
 260   2.0000      -0.347405        -9.4534
 261   2.0000      -0.341857        -9.3024
 262   2.0000      -0.335334        -9.1249
 263   2.0000      -0.325955        -8.8697
 264   2.0000      -0.321924        -8.7600
 265   2.0000      -0.316659        -8.6167
 266   2.0000      -0.307985        -8.3807
 267   2.0000      -0.300919        -8.1884
 268   2.0000      -0.292447        -7.9579
 269   2.0000      -0.283609        -7.7174
 270   2.0000      -0.277277        -7.5451
 271   2.0000      -0.268004        -7.2928
 272   2.0000      -0.217867        -5.9285
 273   0.0000      -0.109998        -2.9932
 274   0.0000      -0.091493        -2.4897
 275   0.0000      -0.071494        -1.9454
 276   0.0000      -0.062717        -1.7066
 277   0.0000      -0.039901        -1.0858

MULLIKEN ATOMIC CHARGES
-----------------------
   0 C :    0.305651
   1 C :   -0.343818
   2 C :   -0.189445
   3 N :    0.151998
   4 C :   -0.184842
   5 N :    0.158712
   6 C :    0.022052
   7 C :   -0.014378
   8 C :   -0.062498
   9 C :    0.116782
  10 C :   -0.088933
  11 C :   -0.023691
  12 S :    0.190157
  13 C :   -0.123142
  14 C :    0.041266
  15 Br:    0.029204
  16 C :    0.156885
  17 O :   -0.143301
  18 C :   -0.067273
  19 C :   -0.037191
  20 C :    0.117660
  21 O :   -0.202771
  22 C :   -0.015235
  23 C :    0.181883
  24 O :   -0.137945
  25 N :   -0.162528
  26 C :    0.171834
  27 O :   -0.136720
  28 C :   -0.049780
  29 C :    0.098285
  30 C :   -0.037963
  31 C :    0.034787
  32 C :    0.012696
  33 C :   -0.175186
  34 C :    0.091603
  35 C :    0.194823
  36 N :   -0.130829
  37 C :    0.060897
  38 C :   -0.027157
  39 C :    0.015876
  40 C :   -0.052153
  41 C :    0.061046
  42 C :    0.006082
  43 C :   -0.009241
  44 S :    0.110273
  45 C :   -0.077932
  46 C :    0.041196
  47 C :    0.052295
  48 C :   -0.043885
  49 S :    0.133568
  50 C :   -0.003450
  51 C :    0.024614
  52 C :   -0.153019
  53 C :    0.132030
  54 O :   -0.159289
  55 C :    0.017807
  56 C :   -0.095849
  57 C :    0.112405
  58 C :    0.117155
  59 C :   -0.116706
  60 C :    0.236313
  61 C :    0.232117
  62 C :   -0.107008
  63 F :   -0.182299
  64 F :   -0.183358
  65 C :   -0.106630
  66 C :    0.049263
  67 C :    0.289807
  68 C :   -0.380162
  69 C :   -0.210550
  70 N :    0.150634
  71 C :   -0.169438
  72 N :    0.117611
  73 H :   -0.006006
  74 H :   -0.003349
  75 H :   -0.001477
  76 H :    0.030375
  77 H :    0.142145
  78 H :    0.015763
  79 H :    0.008276
  80 H :   -0.015526
  81 H :    0.039156
  82 H :    0.022807
  83 H :    0.029108
  84 H :    0.026774
  85 H :    0.023041
  86 H :    0.132536
  87 H :    0.015526
  88 H :    0.000688
  89 H :   -0.009098
  90 H :   -0.007338
  91 H :   -0.008292
  92 H :   -0.014765
  93 H :   -0.012269
  94 H :   -0.007451
  95 H :    0.016798
  96 H :   -0.017943
  97 H :   -0.006892
  98 H :   -0.006384
  99 H :   -0.017877
Sum of atomic charges:   -0.0000000

LOEWDIN ATOMIC CHARGES
----------------------
   0 C :    0.074155
   1 C :   -0.133460
   2 C :   -0.019929
   3 N :   -0.048693
   4 C :   -0.018511
   5 N :   -0.046497
   6 C :   -0.020512
   7 C :   -0.045798
   8 C :    0.027292
   9 C :   -0.029588
  10 C :   -0.142208
  11 C :   -0.008740
  12 S :    0.435550
  13 C :   -0.269493
  14 C :   -0.069392
  15 Br:    0.141423
  16 C :    0.088716
  17 O :   -0.129881
  18 C :   -0.065165
  19 C :    0.043549
  20 C :    0.048781
  21 O :    0.020749
  22 C :   -0.052877
  23 C :    0.089215
  24 O :   -0.145688
  25 N :   -0.000219
  26 C :    0.086272
  27 O :   -0.153898
  28 C :   -0.097992
  29 C :    0.081860
  30 C :   -0.040917
  31 C :    0.011808
  32 C :   -0.046837
  33 C :   -0.023845
  34 C :   -0.049415
  35 C :    0.048778
  36 N :    0.023988
  37 C :    0.066092
  38 C :   -0.121014
  39 C :    0.005038
  40 C :   -0.186087
  41 C :   -0.000553
  42 C :   -0.055641
  43 C :   -0.127049
  44 S :    0.399177
  45 C :   -0.215318
  46 C :   -0.017608
  47 C :   -0.043354
  48 C :   -0.111710
  49 S :    0.471924
  50 C :   -0.078762
  51 C :    0.033003
  52 C :   -0.123074
  53 C :    0.079202
  54 O :   -0.159828
  55 C :   -0.049176
  56 C :    0.020273
  57 C :   -0.015151
  58 C :   -0.008107
  59 C :   -0.037827
  60 C :    0.059879
  61 C :    0.058200
  62 C :   -0.034616
  63 F :   -0.059117
  64 F :   -0.060662
  65 C :   -0.005478
  66 C :   -0.009715
  67 C :    0.033978
  68 C :   -0.181143
  69 C :   -0.027733
  70 N :   -0.071179
  71 C :   -0.020469
  72 N :   -0.087687
  73 H :    0.042929
  74 H :    0.041609
  75 H :    0.039764
  76 H :    0.051337
  77 H :    0.097133
  78 H :    0.046691
  79 H :    0.031708
  80 H :    0.029647
  81 H :    0.039427
  82 H :    0.034114
  83 H :    0.040039
  84 H :    0.034529
  85 H :    0.033481
  86 H :    0.088526
  87 H :    0.032118
  88 H :    0.024609
  89 H :    0.036266
  90 H :    0.036139
  91 H :    0.033851
  92 H :    0.032209
  93 H :    0.034758
  94 H :    0.038566
  95 H :    0.043246
  96 H :    0.036780
  97 H :    0.041903
  98 H :    0.042258
  99 H :    0.035077

  Mayer bond orders larger than 0.100000
B(  0-C ,  1-C ) :   1.6363 B(  0-C ,  6-C ) :   1.0147 B(  0-C , 18-C ) :   1.0728
B(  1-C ,  2-C ) :   1.1447 B(  1-C ,  4-C ) :   1.1416 B(  2-C ,  3-N ) :   2.9689
B(  4-C ,  5-N ) :   2.9703 B(  6-C ,  7-C ) :   1.2694 B(  6-C , 11-C ) :   1.4008
B(  7-C ,  8-C ) :   1.4261 B(  7-C , 16-C ) :   0.9420 B(  8-C ,  9-C ) :   1.2493
B(  8-C , 73-H ) :   1.0153 B(  9-C , 10-C ) :   1.2978 B(  9-C , 14-C ) :   1.1658
B( 10-C , 11-C ) :   1.3397 B( 10-C , 12-S ) :   1.0872 B( 11-C , 74-H ) :   0.9785
B( 12-S , 13-C ) :   1.0869 B( 13-C , 14-C ) :   1.6152 B( 13-C , 15-Br) :   1.0225
B( 14-C , 75-H ) :   1.0004 B( 16-C , 17-O ) :   2.2267 B( 16-C , 18-C ) :   0.9222
B( 18-C , 19-C ) :   1.6302 B( 19-C , 20-C ) :   1.1480 B( 19-C , 76-H ) :   0.9301
B( 20-C , 21-O ) :   1.1219 B( 20-C , 22-C ) :   1.4476 B( 21-O , 29-C ) :   1.1702
B( 22-C , 23-C ) :   0.8641 B( 22-C , 28-C ) :   1.3110 B( 23-C , 24-O ) :   2.2434
B( 23-C , 25-N ) :   1.0889 B( 25-N , 26-C ) :   1.0761 B( 25-N , 77-H ) :   0.9141
B( 26-C , 27-O ) :   2.2731 B( 26-C , 28-C ) :   0.8769 B( 28-C , 29-C ) :   1.3740
B( 29-C , 30-C ) :   1.1493 B( 30-C , 31-C ) :   1.6628 B( 30-C , 78-H ) :   0.9709
B( 31-C , 32-C ) :   1.0903 B( 31-C , 79-H ) :   0.9794 B( 32-C , 33-C ) :   1.7558
B( 32-C , 80-H ) :   0.9771 B( 33-C , 34-C ) :   1.0791 B( 33-C , 35-C ) :   1.0353
B( 34-C , 81-H ) :   0.9394 B( 34-C , 82-H ) :   0.9490 B( 34-C , 83-H ) :   0.9437
B( 35-C , 36-N ) :   0.9990 B( 35-C , 84-H ) :   0.9319 B( 35-C , 85-H ) :   0.9432
B( 36-N , 37-C ) :   1.2768 B( 36-N , 86-H ) :   0.9340 B( 37-C , 38-C ) :   1.5336
B( 37-C , 87-H ) :   0.9648 B( 38-C , 39-C ) :   1.2171 B( 38-C , 88-H ) :   0.9637
B( 39-C , 40-C ) :   1.5388 B( 39-C , 89-H ) :   0.9775 B( 40-C , 41-C ) :   1.1736
B( 40-C , 44-S ) :   1.0171 B( 41-C , 42-C ) :   1.5514 B( 41-C , 90-H ) :   0.9982
B( 42-C , 43-C ) :   1.2202 B( 42-C , 91-H ) :   0.9956 B( 43-C , 44-S ) :   1.1115
B( 43-C , 45-C ) :   1.4215 B( 45-C , 46-C ) :   1.2380 B( 45-C , 49-S ) :   1.0423
B( 46-C , 47-C ) :   1.5262 B( 46-C , 92-H ) :   0.9912 B( 47-C , 48-C ) :   1.2086
B( 47-C , 93-H ) :   0.9968 B( 48-C , 49-S ) :   1.1360 B( 48-C , 50-C ) :   1.3755
B( 50-C , 51-C ) :   1.4052 B( 50-C , 94-H ) :   0.9528 B( 51-C , 52-C ) :   1.3904
B( 51-C , 95-H ) :   0.9319 B( 52-C , 53-C ) :   0.9772 B( 52-C , 67-C ) :   1.1774
B( 53-C , 54-O ) :   2.2479 B( 53-C , 55-C ) :   0.9081 B( 55-C , 56-C ) :   1.4918
B( 55-C , 66-C ) :   1.2211 B( 56-C , 57-C ) :   1.1746 B( 56-C , 96-H ) :   1.0160
B( 57-C , 58-C ) :   1.2695 B( 57-C , 62-C ) :   1.1979 B( 58-C , 59-C ) :   1.1955
B( 58-C , 65-C ) :   1.1931 B( 59-C , 60-C ) :   1.4324 B( 59-C , 62-C ) :   0.1098
B( 59-C , 97-H ) :   1.0072 B( 60-C , 61-C ) :   1.2037 B( 60-C , 64-F ) :   1.1223
B( 61-C , 62-C ) :   1.4359 B( 61-C , 63-F ) :   1.1226 B( 62-C , 98-H ) :   1.0069
B( 65-C , 66-C ) :   1.4791 B( 65-C , 99-H ) :   0.9921 B( 66-C , 67-C ) :   0.9884
B( 67-C , 68-C ) :   1.5062 B( 68-C , 69-C ) :   1.1745 B( 68-C , 71-C ) :   1.1518
B( 69-C , 70-N ) :   3.0020 B( 71-C , 72-N ) :   2.9574

-----------------------------------------------------------------------------
         ABSORPTION SPECTRUM VIA TRANSITION ELECTRIC DIPOLE MOMENTS
-----------------------------------------------------------------------------
State   Energy  Wavelength   fosc         T2         TX        TY        TZ
        (cm-1)    (nm)                  (au**2)     (au)      (au)      (au)
-----------------------------------------------------------------------------
   0   12573.3    795.3   0.783831530  20.52333  -4.51645   0.18002   0.30429
   1   15810.0    632.5   0.028081681   0.58474  -0.03700   0.47249   0.60011
   2   20582.6    485.8   0.643276458  10.28901  -1.91372   2.50239   0.60394
   3   21644.5    462.0   0.028200469   0.42893  -0.44699  -0.41996   0.22971
   4   23260.4    429.9   0.200175301   2.83315  -0.51959  -0.69674   1.44143
   5   23461.1    426.2   0.169610238   2.38001  -0.94156  -1.16949   0.35462
   6   24890.5    401.8   0.036861790   0.48755  -0.09627  -0.12739  -0.67974
   7   25242.5    396.2   0.233432800   3.04443  -0.99321   0.31736   1.39902
   8   25732.2    388.6   0.115067486   1.47215  -0.29140  -0.30568   1.13745
   9   26249.7    381.0   0.616570111   7.73275  -1.11943  -0.92395   2.37191
  10   26520.1    377.1   0.278083383   3.45204  -0.14371  -1.42845   1.17937
  11   27409.6    364.8   0.013676322   0.16426   0.33889  -0.14162  -0.17135
  12   28027.3    356.8   0.023502834   0.27607  -0.13170  -0.27161   0.43005
  13   28609.6    349.5   0.033909963   0.39020   0.35495   0.02326  -0.51349
  14   28698.4    348.5   0.124164494   1.42435  -0.79363   0.52317   0.72166
  15   29261.8    341.7   0.024633534   0.27714   0.39735  -0.19469  -0.28521
  16   29452.0    339.5   0.008998331   0.10058   0.20755   0.16326  -0.17564
  17   30185.2    331.3   0.164965451   1.79918   0.12775   0.04580  -1.33445
  18   30702.4    325.7   0.461883175   4.95262   0.10577  -1.68122  -1.45428
  19   31472.7    317.7   0.081013690   0.84742   0.50630  -0.57592   0.50932
  20   31839.2    314.1   0.090045485   0.93105  -0.55409   0.13987   0.77748
  21   32154.1    311.0   0.419084876   4.29083  -1.05872   0.79742   1.59187
  22   32287.7    309.7   0.218230201   2.22512   1.07689   0.23167  -1.00586
  23   32580.0    306.9   0.228919489   2.31317  -0.17218   0.33207   1.47420
  24   32810.0    304.8   0.313111092   3.14172  -0.33799   0.27131  -1.71868
  25   32879.9    304.1   0.046833822   0.46893   0.03890  -0.14178  -0.66881
  26   33574.4    297.8   0.116840031   1.14567  -0.03686   0.11250  -1.06379
  27   33599.9    297.6   0.138870969   1.36066  -0.02650  -0.23392   1.14247
  28   33962.5    294.4   0.067093455   0.65036  -0.46421   0.27805  -0.59796
  29   34363.4    291.0   0.105334562   1.00914  -0.45726  -0.00996  -0.89440
  30   34659.0    288.5   0.007022606   0.06670   0.06367  -0.06493   0.24173
  31   34969.0    286.0   0.042410136   0.39927   0.05760  -0.03430   0.62831
  32   35331.9    283.0   0.109539520   1.02066  -0.23780  -0.21483   0.95810
  33   35738.7    279.8   0.003357477   0.03093   0.02009  -0.06467  -0.16230
  34   36314.9    275.4   0.042789774   0.38791  -0.18869   0.15583  -0.57273
  35   36522.0    273.8   0.008875687   0.08001  -0.10239   0.09877   0.24447
  36   36864.9    271.3   0.003085279   0.02755  -0.05645   0.15382  -0.02656
  37   36956.0    270.6   0.250154083   2.22843   0.36226  -1.27210   0.69206
  38   37059.9    269.8   0.299993059   2.66491   1.01681   0.13759   1.26967
  39   37319.2    268.0   0.008425363   0.07432  -0.08588   0.02613  -0.25742
  40   38007.1    263.1   0.015628807   0.13537  -0.27669   0.09115  -0.22474
  41   38379.4    260.6   0.030992970   0.26585  -0.13532  -0.03890  -0.49601
  42   38413.6    260.3   0.017379496   0.14895   0.36267   0.08144  -0.10385
  43   38866.7    257.3   0.052945353   0.44846  -0.38150  -0.24411  -0.49329
  44   38964.0    256.6   0.015761534   0.13317   0.12155   0.34401  -0.00720
  45   39155.5    255.4   0.096464361   0.81105  -0.67881  -0.57106  -0.15544
  46   39311.1    254.4   0.001356262   0.01136  -0.02257  -0.10345   0.01209
  47   39758.0    251.5   0.033324874   0.27594  -0.04697  -0.50301   0.14392
  48   39806.1    251.2   0.007204731   0.05959  -0.06262   0.07643   0.22321
  49   39826.6    251.1   0.018513738   0.15304  -0.01408   0.22158  -0.32209
  50   39955.1    250.3   0.019911564   0.16406  -0.00036  -0.36181   0.18210
  51   40046.9    249.7   0.021169013   0.17402  -0.13582   0.35806   0.16545

FINAL SINGLE POINT ENERGY     -6818.784831152873

DIPOLE MOMENT
-------------
                                X             Y             Z
Electronic contribution:   -121.93308     104.51584     123.92216
Nuclear contribution   :    115.81336    -104.83726    -122.63925
                        -----------------------------------------
Total Dipole Moment    :     -6.11972      -0.32142       1.28292
                        -----------------------------------------
Magnitude (a.u.)       :      6.26100
Magnitude (Debye)      :     15.91420

Rotational constants in cm-1:     0.001258     0.000182     0.000173
Rotational constants in MHz :    37.699735     5.466333     5.179508

                             ****ORCA TERMINATED NORMALLY****
TOTAL RUN TIME: 0 days 0 hours 10 minutes 0 seconds 750 msec
