                         Program Version 4.2.0 -  RELEASE  -
|  1> # ORCA input file
|  2> # SCF done       -174.996956957123          0.000640988641
|  3> ! CAM-B3LYP def2-SVP def2/J RIJCOSX Grid4 TightSCF
|  4> %maxcore 5000
|  5> %tddft
|  6>     Mode sTDDFT
|  7>     Ethresh 5.0
|  8>     maxcore 5000
|  9> end
| 10>
| 11> %pal
| 12>   nprocs 6
| 13>   end
| 14> * xyz 0 1
| 15>    C        1.63466         7.42139         2.52316
| 16>    C        1.85632         7.23775         3.85640
| 17>    C        2.70317         8.05318         4.63518
| 18>    N        3.36909         8.67811         5.33138
| 19>    C        1.29106         6.21149         4.64715
| 20>    N        0.88801         5.42529         5.37872
| 21>    C        2.21576         8.46011         1.68713
| 22>    C        1.95592         8.15345         0.32769
| 23>    C        2.33944         8.97813        -0.70090
| 24>    C        2.97303        10.17982        -0.36945
| 25>    C        3.23439        10.47695         0.99188
| 26>    C        2.88419         9.62214         2.02802
| 27>    S        3.96717        12.03729         1.18658
| 28>    C        3.88903        12.27751        -0.53773
| 29>    C        3.36893        11.23678        -1.23131
| 30>   Br        4.43134        13.91088        -1.27481
| 31>    C        1.23744         6.86350         0.24566
| 32>    O        1.13181         6.15783        -0.72396
| 33>    C        0.80320         6.58846         1.65587
| 34>    C       -0.23249         5.82786         2.04995
| 35>    C       -1.14081         5.13065         1.14669
| 36>    N       -1.68073         4.00495         1.61442
| 37>    C       -2.47767         3.34319         0.79435
| 38>    C       -2.74115         3.76958        -0.49710
| 39>    C       -2.15587         4.98130        -0.88977
| 40>    N       -1.38392         5.65789        -0.04216
| 41>    C       -2.28777         5.57730        -2.20648
| 42>    C       -2.89347         5.02050        -3.26191
| 43>    C       -2.90513         5.63034        -4.58139
| 44>    N       -3.50443         4.92504        -5.54615
| 45>    C       -3.49212         5.43768        -6.76329
| 46>    C       -2.88932         6.64982        -7.05210
| 47>    C       -2.30259         7.33348        -5.97522
| 48>    N       -2.32261         6.80953        -4.74798
| 49>    C       -1.66762         8.61570        -6.15651
| 50>    C       -1.17210         9.33632        -5.12145
| 51>    C       -0.57219        10.60520        -5.25458
| 52>    C       -0.15754        11.36705        -4.19488
| 53>    C        0.41184        12.66758        -4.23906
| 54>    C        0.66564        13.20816        -3.01723
| 55>    C        0.31681        12.36049        -1.93828
| 56>    S       -0.32098        10.84581        -2.52277
| 57>    C        0.43823        12.61122        -0.58491
| 58>    C        0.90573        13.77884         0.05564
| 59>    C        0.94345        13.67843         1.41505
| 60>    C        0.51932        12.42443         1.91332
| 61>    S        0.01961        11.38803         0.59640
| 62>    C        0.55334        11.99547         3.22361
| 63>    C        0.19725        10.70113         3.59539
| 64>    C        0.32092        10.08249         4.81648
| 65>    C        1.00951        10.44237         6.02844
| 66>    C        2.11314        11.25568         6.14037
| 67>    C        2.74218        11.56861         7.36137
| 68>    N        3.26389        11.89478         8.33050
| 69>    C        2.82105        11.76532         5.03703
| 70>    N        3.45973        12.14507         4.15994
| 71>    C        0.49506         9.58092         7.09104
| 72>    C       -0.32694         8.58255         6.50776
| 73>    C       -0.43032         8.83112         5.06031
| 74>    O       -1.01511         8.16637         4.22688
| 75>    C       -0.89093         7.56631         7.23917
| 76>    C       -0.65124         7.54740         8.61685
| 77>    C        0.15007         8.56112         9.19358
| 78>    C        0.73614         9.57936         8.45018
| 79>    S        0.30454         8.35271        10.91068
| 80>    C       -0.69283         6.92400        10.83124
| 81>    C       -1.12049         6.61702         9.58420
| 82>   Br       -1.07843         5.97903        12.40334
| 83>    H        2.13023         8.71980        -1.72692
| 84>    H        3.10817         9.89213         3.04621
| 85>    H        3.25212        11.22060        -2.29979
| 86>    H       -0.46199         5.71062         3.10002
| 87>    H       -2.91053         2.43404         1.19302
| 88>    H       -3.37300         3.19983        -1.15678
| 89>    H       -1.79022         6.52976        -2.31900
| 90>    H       -3.39000         4.06239        -3.21656
| 91>    H       -3.98265         4.84900        -7.52860
| 92>    H       -2.87604         7.05576        -8.05058
| 93>    H       -1.61581         8.99515        -7.16821
| 94>    H       -1.26082         8.91715        -4.12767
| 95>    H       -0.45113        11.01741        -6.24814
| 96>    H        0.60657        13.16052        -5.17502
| 97>    H        1.09557        14.18074        -2.85955
| 98>    H        1.20526        14.65194        -0.49578
| 99>    H        1.28836        14.45376         2.07531
|100>    H        0.88179        12.70662         3.96620
|101>    H       -0.29834        10.09562         2.83958
|102>    H       -1.48891         6.80536         6.76362
|103>    H        1.34565        10.32507         8.93300
|104>    H       -1.73909         5.76980         9.35109
|105> *
|106>
|107>                          ****END OF INPUT****

CARTESIAN COORDINATES (ANGSTROEM)
---------------------------------
  C      1.634660    7.421390    2.523160
  C      1.856320    7.237750    3.856400
  C      2.703170    8.053180    4.635180
  N      3.369090    8.678110    5.331380
  C      1.291060    6.211490    4.647150
  N      0.888010    5.425290    5.378720
  C      2.215760    8.460110    1.687130
  C      1.955920    8.153450    0.327690
  C      2.339440    8.978130   -0.700900
  C      2.973030   10.179820   -0.369450
  C      3.234390   10.476950    0.991880
  C      2.884190    9.622140    2.028020
  S      3.967170   12.037290    1.186580
  C      3.889030   12.277510   -0.537730
  C      3.368930   11.236780   -1.231310
  Br     4.431340   13.910880   -1.274810
  C      1.237440    6.863500    0.245660
  O      1.131810    6.157830   -0.723960
  C      0.803200    6.588460    1.655870
  C     -0.232490    5.827860    2.049950
  C     -1.140810    5.130650    1.146690
  N     -1.680730    4.004950    1.614420
  C     -2.477670    3.343190    0.794350
  C     -2.741150    3.769580   -0.497100
  C     -2.155870    4.981300   -0.889770
  N     -1.383920    5.657890   -0.042160
  C     -2.287770    5.577300   -2.206480
  C     -2.893470    5.020500   -3.261910
  C     -2.905130    5.630340   -4.581390
  N     -3.504430    4.925040   -5.546150
  C     -3.492120    5.437680   -6.763290
  C     -2.889320    6.649820   -7.052100
  C     -2.302590    7.333480   -5.975220
  N     -2.322610    6.809530   -4.747980
  C     -1.667620    8.615700   -6.156510
  C     -1.172100    9.336320   -5.121450
  C     -0.572190   10.605200   -5.254580
  C     -0.157540   11.367050   -4.194880
  C      0.411840   12.667580   -4.239060
  C      0.665640   13.208160   -3.017230
  C      0.316810   12.360490   -1.938280
  S     -0.320980   10.845810   -2.522770
  C      0.438230   12.611220   -0.584910
  C      0.905730   13.778840    0.055640
  C      0.943450   13.678430    1.415050
  C      0.519320   12.424430    1.913320
  S      0.019610   11.388030    0.596400
  C      0.553340   11.995470    3.223610
  C      0.197250   10.701130    3.595390
  C      0.320920   10.082490    4.816480
  C      1.009510   10.442370    6.028440
  C      2.113140   11.255680    6.140370
  C      2.742180   11.568610    7.361370
  N      3.263890   11.894780    8.330500
  C      2.821050   11.765320    5.037030
  N      3.459730   12.145070    4.159940
  C      0.495060    9.580920    7.091040
  C     -0.326940    8.582550    6.507760
  C     -0.430320    8.831120    5.060310
  O     -1.015110    8.166370    4.226880
  C     -0.890930    7.566310    7.239170
  C     -0.651240    7.547400    8.616850
  C      0.150070    8.561120    9.193580
  C      0.736140    9.579360    8.450180
  S      0.304540    8.352710   10.910680
  C     -0.692830    6.924000   10.831240
  C     -1.120490    6.617020    9.584200
  Br    -1.078430    5.979030   12.403340
  H      2.130230    8.719800   -1.726920
  H      3.108170    9.892130    3.046210
  H      3.252120   11.220600   -2.299790
  H     -0.461990    5.710620    3.100020
  H     -2.910530    2.434040    1.193020
  H     -3.373000    3.199830   -1.156780
  H     -1.790220    6.529760   -2.319000
  H     -3.390000    4.062390   -3.216560
  H     -3.982650    4.849000   -7.528600
  H     -2.876040    7.055760   -8.050580
  H     -1.615810    8.995150   -7.168210
  H     -1.260820    8.917150   -4.127670
  H     -0.451130   11.017410   -6.248140
  H      0.606570   13.160520   -5.175020
  H      1.095570   14.180740   -2.859550
  H      1.205260   14.651940   -0.495780
  H      1.288360   14.453760    2.075310
  H      0.881790   12.706620    3.966200
  H     -0.298340   10.095620    2.839580
  H     -1.488910    6.805360    6.763620
  H      1.345650   10.325070    8.933000
  H     -1.739090    5.769800    9.351090

 Total Charge           Charge          ....    0
 Multiplicity           Mult            ....    1
 Number of Electrons    NEL             ....  540
 Basis Dimension        Dim             .... 1114

ORBITAL ENERGIES
----------------

  NO   OCC          E(Eh)            E(eV)
   0   2.0000    -482.886942    -13140.0217
   1   2.0000    -482.874662    -13139.6876
   2   2.0000     -88.968916     -2420.9673
   3   2.0000     -88.965809     -2420.8827
   4   2.0000     -88.965322     -2420.8695
   5   2.0000     -88.963497     -2420.8198
   6   2.0000     -62.564432     -1702.4647
   7   2.0000     -62.552410     -1702.1376
   8   2.0000     -56.398290     -1534.6755
   9   2.0000     -56.395714     -1534.6054
  10   2.0000     -56.395697     -1534.6049
  11   2.0000     -56.386346     -1534.3505
  12   2.0000     -56.383656     -1534.2773
  13   2.0000     -56.383615     -1534.2762
  14   2.0000     -19.206051      -522.6232
  15   2.0000     -19.205907      -522.6193
  16   2.0000     -14.412604      -392.1869
  17   2.0000     -14.412125      -392.1739
  18   2.0000     -14.410114      -392.1191
  19   2.0000     -14.409559      -392.1040
  20   2.0000     -14.407747      -392.0547
  21   2.0000     -14.407635      -392.0517
  22   2.0000     -14.405216      -391.9858
  23   2.0000     -14.402542      -391.9131
  24   2.0000     -10.358490      -281.8688
  25   2.0000     -10.355395      -281.7846
  26   2.0000     -10.350658      -281.6557
  27   2.0000     -10.346192      -281.5342
  28   2.0000     -10.345376      -281.5120
  29   2.0000     -10.341156      -281.3972
  30   2.0000     -10.338328      -281.3202
  31   2.0000     -10.336652      -281.2746
  32   2.0000     -10.334213      -281.2082
  33   2.0000     -10.333969      -281.2016
  34   2.0000     -10.333632      -281.1924
  35   2.0000     -10.331030      -281.1216
  36   2.0000     -10.329612      -281.0830
  37   2.0000     -10.329044      -281.0676
  38   2.0000     -10.329031      -281.0672
  39   2.0000     -10.325969      -280.9839
  40   2.0000     -10.323937      -280.9286
  41   2.0000     -10.317617      -280.7566
  42   2.0000     -10.316551      -280.7276
  43   2.0000     -10.315444      -280.6975
  44   2.0000     -10.315407      -280.6965
  45   2.0000     -10.313323      -280.6398
  46   2.0000     -10.311078      -280.5787
  47   2.0000     -10.310493      -280.5628
  48   2.0000     -10.310395      -280.5601
  49   2.0000     -10.309140      -280.5260
  50   2.0000     -10.306719      -280.4601
  51   2.0000     -10.305673      -280.4316
  52   2.0000     -10.303820      -280.3812
  53   2.0000     -10.300720      -280.2969
  54   2.0000     -10.299826      -280.2725
  55   2.0000     -10.299112      -280.2531
  56   2.0000     -10.297452      -280.2079
  57   2.0000     -10.295922      -280.1663
  58   2.0000     -10.295813      -280.1633
  59   2.0000     -10.295628      -280.1583
  60   2.0000     -10.294179      -280.1189
  61   2.0000     -10.293662      -280.1048
  62   2.0000     -10.292103      -280.0624
  63   2.0000     -10.292025      -280.0602
  64   2.0000     -10.291608      -280.0489
  65   2.0000     -10.290350      -280.0147
  66   2.0000     -10.289870      -280.0016
  67   2.0000     -10.288918      -279.9757
  68   2.0000     -10.287934      -279.9489
  69   2.0000     -10.286139      -279.9001
  70   2.0000     -10.284667      -279.8600
  71   2.0000     -10.284582      -279.8577
  72   2.0000     -10.284226      -279.8480
  73   2.0000     -10.279452      -279.7181
  74   2.0000     -10.278459      -279.6911
  75   2.0000     -10.277360      -279.6612
  76   2.0000      -8.793816      -239.2919
  77   2.0000      -8.781862      -238.9666
  78   2.0000      -8.064819      -219.4549
  79   2.0000      -8.060796      -219.3454
  80   2.0000      -8.060544      -219.3386
  81   2.0000      -8.059517      -219.3106
  82   2.0000      -6.629728      -180.4041
  83   2.0000      -6.618124      -180.0883
  84   2.0000      -6.615865      -180.0268
  85   2.0000      -6.615464      -180.0159
  86   2.0000      -6.603597      -179.6930
  87   2.0000      -6.603446      -179.6889
  88   2.0000      -6.034477      -164.2065
  89   2.0000      -6.030508      -164.0985
  90   2.0000      -6.030483      -164.0978
  91   2.0000      -6.030345      -164.0940
  92   2.0000      -6.029210      -164.0631
  93   2.0000      -6.026466      -163.9885
  94   2.0000      -6.025829      -163.9711
  95   2.0000      -6.025814      -163.9707
  96   2.0000      -6.024937      -163.9469
  97   2.0000      -6.021862      -163.8632
  98   2.0000      -6.021831      -163.8623
  99   2.0000      -6.020737      -163.8326
 100   2.0000      -2.745723       -74.7149
 101   2.0000      -2.741824       -74.6088
 102   2.0000      -2.741529       -74.6008
 103   2.0000      -2.733996       -74.3958
 104   2.0000      -2.730496       -74.3006
 105   2.0000      -2.730482       -74.3002
 106   2.0000      -2.729943       -74.2855
 107   2.0000      -2.729785       -74.2812
 108   2.0000      -2.718266       -73.9678
 109   2.0000      -2.718248       -73.9673
 110   2.0000      -1.123106       -30.5613
 111   2.0000      -1.119472       -30.4624
 112   2.0000      -1.085147       -29.5284
 113   2.0000      -1.081402       -29.4264
 114   2.0000      -1.019620       -27.7453
 115   2.0000      -1.015702       -27.6386
 116   2.0000      -1.011488       -27.5240
 117   2.0000      -1.007130       -27.4054
 118   2.0000      -1.003386       -27.3035
 119   2.0000      -0.995160       -27.0797
 120   2.0000      -0.988950       -26.9107
 121   2.0000      -0.985629       -26.8203
 122   2.0000      -0.984473       -26.7889
 123   2.0000      -0.982852       -26.7448
 124   2.0000      -0.978784       -26.6341
 125   2.0000      -0.977614       -26.6022
 126   2.0000      -0.937802       -25.5189
 127   2.0000      -0.933963       -25.4144
 128   2.0000      -0.929046       -25.2806
 129   2.0000      -0.918769       -25.0010
 130   2.0000      -0.910600       -24.7787
 131   2.0000      -0.904225       -24.6052
 132   2.0000      -0.903056       -24.5734
 133   2.0000      -0.896968       -24.4077
 134   2.0000      -0.881801       -23.9950
 135   2.0000      -0.878463       -23.9042
 136   2.0000      -0.877854       -23.8876
 137   2.0000      -0.873171       -23.7602
 138   2.0000      -0.867967       -23.6186
 139   2.0000      -0.860601       -23.4181
 140   2.0000      -0.851009       -23.1571
 141   2.0000      -0.843028       -22.9400
 142   2.0000      -0.834133       -22.6979
 143   2.0000      -0.831189       -22.6178
 144   2.0000      -0.821551       -22.3555
 145   2.0000      -0.816899       -22.2290
 146   2.0000      -0.800864       -21.7926
 147   2.0000      -0.777189       -21.1484
 148   2.0000      -0.774628       -21.0787
 149   2.0000      -0.771705       -20.9992
 150   2.0000      -0.753870       -20.5139
 151   2.0000      -0.751730       -20.4556
 152   2.0000      -0.744011       -20.2456
 153   2.0000      -0.731987       -19.9184
 154   2.0000      -0.728660       -19.8279
 155   2.0000      -0.715854       -19.4794
 156   2.0000      -0.705033       -19.1849
 157   2.0000      -0.694402       -18.8956
 158   2.0000      -0.690694       -18.7947
 159   2.0000      -0.682464       -18.5708
 160   2.0000      -0.678459       -18.4618
 161   2.0000      -0.672589       -18.3021
 162   2.0000      -0.669240       -18.2110
 163   2.0000      -0.664122       -18.0717
 164   2.0000      -0.655306       -17.8318
 165   2.0000      -0.651215       -17.7205
 166   2.0000      -0.647972       -17.6322
 167   2.0000      -0.643293       -17.5049
 168   2.0000      -0.637348       -17.3431
 169   2.0000      -0.630128       -17.1467
 170   2.0000      -0.624778       -17.0011
 171   2.0000      -0.619732       -16.8638
 172   2.0000      -0.614870       -16.7315
 173   2.0000      -0.611977       -16.6527
 174   2.0000      -0.611077       -16.6283
 175   2.0000      -0.594058       -16.1651
 176   2.0000      -0.592819       -16.1314
 177   2.0000      -0.591563       -16.0973
 178   2.0000      -0.586728       -15.9657
 179   2.0000      -0.584284       -15.8992
 180   2.0000      -0.577057       -15.7025
 181   2.0000      -0.573299       -15.6003
 182   2.0000      -0.565119       -15.3777
 183   2.0000      -0.557659       -15.1747
 184   2.0000      -0.547164       -14.8891
 185   2.0000      -0.545419       -14.8416
 186   2.0000      -0.542904       -14.7732
 187   2.0000      -0.541754       -14.7419
 188   2.0000      -0.538084       -14.6420
 189   2.0000      -0.534128       -14.5344
 190   2.0000      -0.532002       -14.4765
 191   2.0000      -0.531138       -14.4530
 192   2.0000      -0.528598       -14.3839
 193   2.0000      -0.528380       -14.3779
 194   2.0000      -0.525799       -14.3077
 195   2.0000      -0.522099       -14.2070
 196   2.0000      -0.520638       -14.1673
 197   2.0000      -0.518492       -14.1089
 198   2.0000      -0.514793       -14.0082
 199   2.0000      -0.512392       -13.9429
 200   2.0000      -0.508433       -13.8352
 201   2.0000      -0.507226       -13.8023
 202   2.0000      -0.501537       -13.6475
 203   2.0000      -0.499391       -13.5891
 204   2.0000      -0.498104       -13.5541
 205   2.0000      -0.497434       -13.5359
 206   2.0000      -0.494880       -13.4664
 207   2.0000      -0.492812       -13.4101
 208   2.0000      -0.488936       -13.3046
 209   2.0000      -0.487973       -13.2784
 210   2.0000      -0.485893       -13.2218
 211   2.0000      -0.483771       -13.1641
 212   2.0000      -0.480427       -13.0731
 213   2.0000      -0.475048       -12.9267
 214   2.0000      -0.474196       -12.9035
 215   2.0000      -0.472977       -12.8703
 216   2.0000      -0.470818       -12.8116
 217   2.0000      -0.467322       -12.7165
 218   2.0000      -0.460730       -12.5371
 219   2.0000      -0.458598       -12.4791
 220   2.0000      -0.454255       -12.3609
 221   2.0000      -0.450642       -12.2626
 222   2.0000      -0.447540       -12.1782
 223   2.0000      -0.445798       -12.1308
 224   2.0000      -0.443313       -12.0632
 225   2.0000      -0.442526       -12.0417
 226   2.0000      -0.441887       -12.0244
 227   2.0000      -0.438729       -11.9384
 228   2.0000      -0.437727       -11.9112
 229   2.0000      -0.434799       -11.8315
 230   2.0000      -0.433680       -11.8010
 231   2.0000      -0.430040       -11.7020
 232   2.0000      -0.427813       -11.6414
 233   2.0000      -0.424230       -11.5439
 234   2.0000      -0.421641       -11.4734
 235   2.0000      -0.419243       -11.4082
 236   2.0000      -0.418464       -11.3870
 237   2.0000      -0.415221       -11.2987
 238   2.0000      -0.411736       -11.2039
 239   2.0000      -0.409672       -11.1477
 240   2.0000      -0.407610       -11.0916
 241   2.0000      -0.404277       -11.0009
 242   2.0000      -0.400946       -10.9103
 243   2.0000      -0.396562       -10.7910
 244   2.0000      -0.385501       -10.4900
 245   2.0000      -0.384534       -10.4637
 246   2.0000      -0.381899       -10.3920
 247   2.0000      -0.381161       -10.3719
 248   2.0000      -0.377336       -10.2678
 249   2.0000      -0.375024       -10.2049
 250   2.0000      -0.374650       -10.1947
 251   2.0000      -0.371804       -10.1173
 252   2.0000      -0.364283        -9.9127
 253   2.0000      -0.358049        -9.7430
 254   2.0000      -0.355679        -9.6785
 255   2.0000      -0.352208        -9.5841
 256   2.0000      -0.344073        -9.3627
 257   2.0000      -0.337189        -9.1754
 258   2.0000      -0.329003        -8.9526
 259   2.0000      -0.327433        -8.9099
 260   2.0000      -0.326172        -8.8756
 261   2.0000      -0.314695        -8.5633
 262   2.0000      -0.312986        -8.5168
 263   2.0000      -0.305921        -8.3245
 264   2.0000      -0.303315        -8.2536
 265   2.0000      -0.299995        -8.1633
 266   2.0000      -0.292495        -7.9592
 267   2.0000      -0.286502        -7.7961
 268   2.0000      -0.280688        -7.6379
 269   2.0000      -0.234540        -6.3821
 270   0.0000      -0.114431        -3.1138
 271   0.0000      -0.080360        -2.1867
 272   0.0000      -0.067111        -1.8262
 273   0.0000      -0.052162        -1.4194
 274   0.0000      -0.049299        -1.3415

MULLIKEN ATOMIC CHARGES
-----------------------
   0 C :    0.301867
   1 C :   -0.356500
   2 C :   -0.194166
   3 N :    0.160254
   4 C :   -0.188805
   5 N :    0.169057
   6 C :    0.027460
   7 C :    0.009007
   8 C :   -0.093775
   9 C :    0.125926
  10 C :   -0.092433
  11 C :   -0.024845
  12 S :    0.220717
  13 C :   -0.142334
  14 C :    0.065213
  15 Br:    0.000246
  16 C :    0.147610
  17 O :   -0.125545
  18 C :   -0.070574
  19 C :    0.059804
  20 C :   -0.066471
  21 N :   -0.065659
  22 C :    0.077655
  23 C :   -0.043908
  24 C :    0.046570
  25 N :   -0.039384
  26 C :    0.073288
  27 C :    0.063377
  28 C :   -0.076263
  29 N :   -0.071375
  30 C :    0.083354
  31 C :   -0.044363
  32 C :    0.056476
  33 N :   -0.060017
  34 C :   -0.013231
  35 C :    0.041549
  36 C :   -0.001346
  37 C :   -0.018869
  38 C :    0.044336
  39 C :    0.033520
  40 C :   -0.037992
  41 S :    0.098286
  42 C :   -0.053834
  43 C :    0.048610
  44 C :    0.053486
  45 C :   -0.025091
  46 S :    0.099802
  47 C :   -0.003818
  48 C :   -0.006929
  49 C :   -0.120619
  50 C :    0.289193
  51 C :   -0.331636
  52 C :   -0.170012
  53 N :    0.144397
  54 C :   -0.166923
  55 N :    0.117680
  56 C :    0.020986
  57 C :   -0.002867
  58 C :    0.130627
  59 O :   -0.173491
  60 C :   -0.049639
  61 C :    0.108197
  62 C :   -0.084486
  63 C :   -0.025737
  64 S :    0.180508
  65 C :   -0.124745
  66 C :    0.043958
  67 Br:    0.016462
  68 H :   -0.017316
  69 H :   -0.016740
  70 H :   -0.012322
  71 H :    0.042696
  72 H :    0.008014
  73 H :   -0.000071
  74 H :    0.004574
  75 H :   -0.013599
  76 H :    0.007691
  77 H :   -0.007066
  78 H :   -0.019156
  79 H :    0.032105
  80 H :   -0.007430
  81 H :   -0.002173
  82 H :   -0.004032
  83 H :   -0.004270
  84 H :    0.001823
  85 H :    0.010043
  86 H :    0.023529
  87 H :   -0.008159
  88 H :   -0.007479
  89 H :   -0.002454
Sum of atomic charges:   -0.0000000

LOEWDIN ATOMIC CHARGES
----------------------
   0 C :    0.082609
   1 C :   -0.134176
   2 C :   -0.015916
   3 N :   -0.051424
   4 C :   -0.018348
   5 N :   -0.048034
   6 C :   -0.025310
   7 C :   -0.047865
   8 C :    0.012368
   9 C :   -0.036885
  10 C :   -0.144609
  11 C :   -0.007115
  12 S :    0.475534
  13 C :   -0.281741
  14 C :   -0.073211
  15 Br:    0.125808
  16 C :    0.083451
  17 O :   -0.118370
  18 C :   -0.053314
  19 C :    0.066389
  20 C :    0.020514
  21 N :   -0.077254
  22 C :    0.047049
  23 C :   -0.045455
  24 C :    0.035513
  25 N :   -0.060436
  26 C :    0.011380
  27 C :   -0.018819
  28 C :    0.030751
  29 N :   -0.093799
  30 C :    0.050682
  31 C :   -0.064331
  32 C :    0.032907
  33 N :   -0.082293
  34 C :   -0.028836
  35 C :    0.003955
  36 C :   -0.038118
  37 C :   -0.141049
  38 C :   -0.019024
  39 C :   -0.027112
  40 C :   -0.157366
  41 S :    0.398825
  42 C :   -0.181752
  43 C :   -0.009288
  44 C :   -0.033709
  45 C :   -0.103768
  46 S :    0.416292
  47 C :   -0.068093
  48 C :    0.045323
  49 C :   -0.104478
  50 C :    0.073318
  51 C :   -0.143390
  52 C :   -0.014778
  53 N :   -0.057400
  54 C :    0.000719
  55 N :   -0.085730
  56 C :   -0.012293
  57 C :   -0.056398
  58 C :    0.080443
  59 O :   -0.164557
  60 C :    0.034097
  61 C :   -0.033247
  62 C :   -0.141253
  63 C :   -0.012735
  64 S :    0.429230
  65 C :   -0.274555
  66 C :   -0.065758
  67 Br:    0.131674
  68 H :    0.035029
  69 H :    0.037486
  70 H :    0.033973
  71 H :    0.050445
  72 H :    0.027546
  73 H :    0.034197
  74 H :    0.038986
  75 H :    0.030820
  76 H :    0.026978
  77 H :    0.032715
  78 H :    0.028362
  79 H :    0.030828
  80 H :    0.035734
  81 H :    0.038153
  82 H :    0.035550
  83 H :    0.034019
  84 H :    0.040087
  85 H :    0.038265
  86 H :    0.033045
  87 H :    0.042259
  88 H :    0.040396
  89 H :    0.039688

  Mayer bond orders larger than 0.100000
B(  0-C ,  1-C ) :   1.6724 B(  0-C ,  6-C ) :   1.0240 B(  0-C , 18-C ) :   1.0285
B(  1-C ,  2-C ) :   1.1538 B(  1-C ,  4-C ) :   1.1334 B(  2-C ,  3-N ) :   2.9335
B(  4-C ,  5-N ) :   2.9663 B(  6-C ,  7-C ) :   1.2620 B(  6-C , 11-C ) :   1.3802
B(  7-C ,  8-C ) :   1.4100 B(  7-C , 16-C ) :   0.9189 B(  8-C ,  9-C ) :   1.2465
B(  8-C , 68-H ) :   1.0181 B(  9-C , 10-C ) :   1.2808 B(  9-C , 14-C ) :   1.1740
B( 10-C , 11-C ) :   1.3547 B( 10-C , 12-S ) :   1.1091 B( 11-C , 69-H ) :   0.9782
B( 12-S , 13-C ) :   1.0779 B( 13-C , 14-C ) :   1.5968 B( 13-C , 15-Br) :   1.0089
B( 14-C , 70-H ) :   0.9982 B( 16-C , 17-O ) :   2.2731 B( 16-C , 18-C ) :   0.8941
B( 18-C , 19-C ) :   1.7794 B( 19-C , 20-C ) :   0.9949 B( 19-C , 71-H ) :   0.9348
B( 20-C , 21-N ) :   1.5204 B( 20-C , 25-N ) :   1.5170 B( 21-N , 22-C ) :   1.5382
B( 22-C , 23-C ) :   1.3922 B( 22-C , 72-H ) :   0.9795 B( 23-C , 24-C ) :   1.3470
B( 23-C , 73-H ) :   0.9684 B( 24-C , 25-N ) :   1.5057 B( 24-C , 26-C ) :   1.0345
B( 26-C , 27-C ) :   1.7084 B( 26-C , 74-H ) :   0.9808 B( 27-C , 28-C ) :   1.0260
B( 27-C , 75-H ) :   0.9606 B( 28-C , 29-N ) :   1.5307 B( 28-C , 33-N ) :   1.5544
B( 29-N , 30-C ) :   1.5427 B( 30-C , 31-C ) :   1.3790 B( 30-C , 76-H ) :   0.9795
B( 31-C , 32-C ) :   1.3189 B( 31-C , 77-H ) :   0.9771 B( 32-C , 33-N ) :   1.5105
B( 32-C , 34-C ) :   1.0686 B( 34-C , 35-C ) :   1.6740 B( 34-C , 78-H ) :   0.9836
B( 35-C , 36-C ) :   1.1199 B( 35-C , 79-H ) :   0.9647 B( 36-C , 37-C ) :   1.5783
B( 36-C , 80-H ) :   0.9841 B( 37-C , 38-C ) :   1.1301 B( 37-C , 41-S ) :   1.0284
B( 38-C , 39-C ) :   1.5896 B( 38-C , 81-H ) :   1.0009 B( 39-C , 40-C ) :   1.1867
B( 39-C , 82-H ) :   0.9947 B( 40-C , 41-S ) :   1.0674 B( 40-C , 42-C ) :   1.4893
B( 42-C , 43-C ) :   1.1983 B( 42-C , 46-S ) :   1.0485 B( 43-C , 44-C ) :   1.5601
B( 43-C , 83-H ) :   0.9977 B( 44-C , 45-C ) :   1.1516 B( 44-C , 84-H ) :   1.0036
B( 45-C , 46-S ) :   1.0827 B( 45-C , 47-C ) :   1.5196 B( 47-C , 48-C ) :   1.1875
B( 47-C , 85-H ) :   0.9645 B( 48-C , 49-C ) :   1.5673 B( 48-C , 86-H ) :   0.9303
B( 49-C , 50-C ) :   1.0538 B( 49-C , 58-C ) :   0.9693 B( 50-C , 51-C ) :   1.6076
B( 50-C , 56-C ) :   1.0144 B( 51-C , 52-C ) :   1.1293 B( 51-C , 54-C ) :   1.1872
B( 52-C , 53-N ) :   2.9798 B( 54-C , 55-N ) :   2.9084 B( 56-C , 57-C ) :   1.2696
B( 56-C , 63-C ) :   1.4145 B( 57-C , 58-C ) :   0.9408 B( 57-C , 60-C ) :   1.4256
B( 58-C , 59-O ) :   2.1694 B( 60-C , 61-C ) :   1.2478 B( 60-C , 87-H ) :   1.0143
B( 61-C , 62-C ) :   1.3115 B( 61-C , 66-C ) :   1.1626 B( 62-C , 63-C ) :   1.3171
B( 62-C , 64-S ) :   1.0857 B( 63-C , 88-H ) :   0.9823 B( 64-S , 65-C ) :   1.0834
B( 65-C , 66-C ) :   1.6200 B( 65-C , 67-Br) :   1.0144 B( 66-C , 89-H ) :   1.0006

-----------------------------------------------------------------------------
         ABSORPTION SPECTRUM VIA TRANSITION ELECTRIC DIPOLE MOMENTS
-----------------------------------------------------------------------------
State   Energy  Wavelength   fosc         T2         TX        TY        TZ
        (cm-1)    (nm)                  (au**2)     (au)      (au)      (au)
-----------------------------------------------------------------------------
   0   12193.6    820.1   1.078815140  29.12669   1.01295   0.42767   5.28372
   1   17575.4    569.0   0.003982571   0.07460   0.04305  -0.02781  -0.26828
   2   20451.9    489.0   0.088062284   1.41753   0.04372   0.04121   1.18908
   3   21228.3    471.1   0.073767821   1.14400   0.15524   0.87256   0.59879
   4   22742.5    439.7   0.040032494   0.57950  -0.07521   0.57921   0.48821
   5   23279.0    429.6   0.027740953   0.39231   0.07936   0.30649  -0.54044
   6   23963.5    417.3   0.029110313   0.39992   0.50577   0.08864  -0.36913
   7   24724.5    404.5   0.025228683   0.33593  -0.10472  -0.56990   0.01308
   8   25998.9    384.6   0.199108008   2.52121  -0.51296  -1.49346   0.16630
   9   26485.9    377.6   0.010191534   0.12668  -0.13576  -0.32863   0.01571
  10   26744.7    373.9   0.020931414   0.25765  -0.04155  -0.43134  -0.26433
  11   26937.4    371.2   0.008076147   0.09870  -0.14802  -0.14840  -0.23402
  12   27355.6    365.6   0.010097138   0.12151  -0.17476  -0.17396   0.24640
  13   27657.0    361.6   0.243827651   2.90238  -0.50335  -1.54795   0.50287
  14   27917.7    358.2   0.067349472   0.79420   0.26476   0.82739   0.19882
  15   28471.4    351.2   0.042025034   0.48593   0.02343  -0.15377   0.67951
  16   28669.0    348.8   0.092236204   1.05917   0.03883  -0.69806   0.75523
  17   28969.5    345.2   0.053833205   0.61177  -0.04056   0.43086  -0.65152
  18   29304.2    341.2   0.004585136   0.05151  -0.18433  -0.05173   0.12190
  19   29694.1    336.8   0.119791489   1.32810  -0.41085  -0.93561   0.53286
  20   30459.4    328.3   0.082318765   0.88972   0.13605  -0.02638   0.93301
  21   30682.2    325.9   0.034053560   0.36539  -0.38087  -0.07584   0.46322
  22   30835.5    324.3   0.527046780   5.62696  -0.49120  -1.42051   1.83516
  23   31241.2    320.1   0.090668939   0.95545   0.61183   0.71634   0.26070
  24   31485.7    317.6   0.024232815   0.25338  -0.14036   0.39460  -0.27922
  25   31635.1    316.1   0.007789856   0.08107   0.13596   0.01053   0.24994
  26   31671.6    315.7   0.284010947   2.95217   1.01553   1.25729  -0.58319
  27   31986.2    312.6   0.042809088   0.44060   0.47761   0.14910   0.43619
  28   32552.2    307.2   0.122016721   1.23400  -0.79318  -0.77481  -0.06735
  29   32776.3    305.1   0.063624887   0.63906   0.42375   0.54737   0.39986
  30   32876.8    304.2   0.005629362   0.05637   0.04639  -0.04917  -0.22759
  31   32952.2    303.5   0.028897506   0.28870  -0.42670  -0.26656  -0.18862
  32   33016.9    302.9   0.091785255   0.91519   0.61736   0.17612   0.70926
  33   33593.3    297.7   0.305105842   2.99002  -0.43813  -0.95689   1.37202
  34   33611.4    297.5   0.127612106   1.24992   0.16836  -0.32932   1.05504
  35   33970.5    294.4   0.004862796   0.04713  -0.02354   0.06931  -0.20437
  36   34232.5    292.1   0.024497532   0.23559   0.05980  -0.13653   0.46193
  37   34266.9    291.8   0.131278344   1.26123  -0.65734  -0.86284   0.29092
  38   34633.9    288.7   0.060346869   0.57363   0.22476  -0.17346   0.70216
  39   35046.6    285.3   0.002140713   0.02011   0.00447  -0.11804   0.07845
  40   35197.1    284.1   0.053711852   0.50239  -0.04510  -0.42641   0.56438
  41   35227.4    283.9   0.031322043   0.29271  -0.05346  -0.38586   0.37546
  42   35494.5    281.7   0.052352595   0.48557  -0.38646  -0.44675  -0.36963
  43   35548.3    281.3   0.210365654   1.94819  -0.45265  -0.91113   0.95558
  44   36299.8    275.5   0.085951603   0.77952   0.51763   0.70054  -0.14427
  45   36650.2    272.8   0.031098902   0.27935  -0.21766  -0.38884   0.28421
  46   36797.2    271.8   0.107993606   0.96618  -0.38660  -0.80926   0.40226
  47   37082.7    269.7   0.026253343   0.23307  -0.00223  -0.05092   0.48008
  48   37315.9    268.0   0.453101106   3.99740  -1.32778  -1.16325  -0.93876
  49   37650.2    265.6   0.103395343   0.90409  -0.25236  -0.28774   0.87041
  50   37776.2    264.7   0.179690852   1.56597  -0.29530   0.02904  -1.21570
  51   38287.4    261.2   0.381600793   3.28117   0.97566   1.52607  -0.01945
  52   38716.1    258.3   0.116319151   0.98909  -0.43377  -0.78002   0.43875
  53   38888.4    257.1   0.186622046   1.57986  -0.71353  -0.65280  -0.80286
  54   39135.9    255.5   0.059933869   0.50417  -0.32627  -0.15892  -0.61030
  55   39260.6    254.7   0.005545950   0.04650  -0.03859  -0.07638  -0.19794
  56   39298.8    254.5   0.046655305   0.39084   0.40270   0.11911   0.46313
  57   39452.3    253.5   0.009538732   0.07960  -0.15555  -0.14815   0.18290
  58   39481.8    253.3   0.017699640   0.14759   0.18907   0.19100   0.27451
  59   39535.8    252.9   0.009835845   0.08190   0.08791   0.24023  -0.12831
  60   39901.0    250.6   0.035240556   0.29076   0.38139   0.36958   0.09337
  61   40068.0    249.6   0.095715823   0.78643  -0.16373   0.03633   0.87081
  62   40237.0    248.5   0.025804609   0.21113  -0.21306   0.00555  -0.40707

FINAL SINGLE POINT ENERGY     -9320.042883772430

DIPOLE MOMENT
-------------
                                X             Y             Z
Electronic contribution:     40.22027      22.75135     113.47531
Nuclear contribution   :    -42.40412     -21.02773    -118.33347
                        -----------------------------------------
Total Dipole Moment    :     -2.18385       1.72362      -4.85815
                        -----------------------------------------
Magnitude (a.u.)       :      5.59837
Magnitude (Debye)      :     14.22993

Rotational constants in cm-1:     0.001206     0.000533     0.000398
Rotational constants in MHz :    36.168550    15.971585    11.926366

                             ****ORCA TERMINATED NORMALLY****
TOTAL RUN TIME: 0 days 0 hours 10 minutes 10 seconds 453 msec
