                         Program Version 4.2.0 -  RELEASE  -
|  1> # ORCA input file
|  2> # SCF done       -192.844281197844          0.000839881073
|  3> ! CAM-B3LYP def2-SVP def2/J RIJCOSX Grid4 TightSCF
|  4> %maxcore 5000
|  5> %tddft
|  6>     Mode sTDDFT
|  7>     Ethresh 5.0
|  8>     maxcore 5000
|  9> end
| 10>
| 11> %pal
| 12>   nprocs 6
| 13>   end
| 14> * xyz 0 1
| 15>    C        4.39008        -0.23580        -4.77659
| 16>    C        4.19095         1.09282        -5.03311
| 17>    F        5.17036         1.97601        -4.80427
| 18>    C        2.95785         1.54865        -5.53697
| 19>    F        2.79544         2.85305        -5.78933
| 20>    C        1.93268         0.67126        -5.76242
| 21>    C        2.09997        -0.69869        -5.48538
| 22>    C        3.35425        -1.16426        -4.99548
| 23>    C        3.55070        -2.53927        -4.72563
| 24>    C        2.51298        -3.41512        -4.90076
| 25>    C        1.24626        -2.93184        -5.34033
| 26>    C        1.03917        -1.61676        -5.65055
| 27>    C        0.29870        -4.04799        -5.36123
| 28>    O       -0.90777        -3.99849        -5.60067
| 29>    C        1.06032        -5.24660        -5.00402
| 30>    C        2.42232        -4.86221        -4.70821
| 31>    C        3.44409        -5.68283        -4.30704
| 32>    C        4.74611        -5.23451        -4.00425
| 33>    N        5.81907        -4.92434        -3.73964
| 34>    C        3.31565        -7.07662        -4.13930
| 35>    N        3.24684        -8.21245        -3.98847
| 36>    C        0.47870        -6.49336        -4.98413
| 37>    N       -0.82824        -6.62618        -5.23949
| 38>    C       -1.56591        -7.76700        -5.24910
| 39>    S       -0.85894        -9.32683        -4.96313
| 40>    C       -2.44088       -10.03184        -5.03531
| 41>    N       -2.54793       -11.41932        -4.86669
| 42>    O       -3.66154       -11.90687        -4.90735
| 43>    O       -1.50910       -12.03020        -4.69084
| 44>    C       -3.44124        -9.12052        -5.25257
| 45>    C       -2.95689        -7.81030        -5.39774
| 46>    C       -3.79681        -6.64207        -5.58158
| 47>    C       -3.46232        -5.58970        -6.34598
| 48>    C       -4.10502        -4.30256        -6.42160
| 49>    C       -4.76617        -3.66043        -5.44726
| 50>    C       -5.07531        -4.21755        -4.09428
| 51>    C       -5.16377        -2.22149        -5.64805
| 52>    N       -4.23934        -1.32129        -4.97861
| 53>    C       -3.05219        -1.66352        -4.46505
| 54>    C       -2.14527        -0.78776        -3.93907
| 55>    C       -0.94832        -1.22941        -3.36001
| 56>    C        0.08121        -0.41968        -2.94465
| 57>    C        1.31358        -0.81699        -2.38250
| 58>    C        2.18647         0.20758        -2.15988
| 59>    C        1.68540         1.47433        -2.52502
| 60>    S        0.06320         1.32874        -3.14741
| 61>    C        2.32451         2.70186        -2.44193
| 62>    C        3.64019         2.96605        -2.01264
| 63>    C        3.96877         4.29156        -2.01990
| 64>    C        2.92467         5.13931        -2.45184
| 65>    S        1.52188         4.19351        -2.87758
| 66>    C        2.88181         6.52296        -2.52836
| 67>    C        3.92934         7.34194        -2.12934
| 68>    C        3.89558         8.72613        -2.12624
| 69>    C        4.94422         9.60039        -1.67464
| 70>    C        6.16738         9.24014        -1.15147
| 71>    C        7.14486        10.15741        -0.72148
| 72>    N        7.98501        10.84997        -0.35358
| 73>    C        6.61940         7.92186        -0.95401
| 74>    N        7.06605         6.88000        -0.75950
| 75>    C        4.48056        10.97764        -1.84215
| 76>    C        3.17036        10.95053        -2.37677
| 77>    C        2.75491         9.54361        -2.57416
| 78>    O        1.68347         9.17163        -3.01408
| 79>    C        2.45251        12.09019        -2.63916
| 80>    C        3.05705        13.32142        -2.36006
| 81>    C        4.36652        13.33906        -1.82911
| 82>    C        5.09355        12.18377        -1.56413
| 83>    S        4.92366        14.96345        -1.55587
| 84>    C        3.40734        15.58602        -2.14994
| 85>    C        2.52912        14.63066        -2.53441
| 86>   Br        3.12563        17.44064        -2.20516
| 87>    H        5.34490        -0.56881        -4.40058
| 88>    H        0.99162         1.03809        -6.14066
| 89>    H        4.51903        -2.86257        -4.37979
| 90>    H        0.07903        -1.28008        -6.00967
| 91>    H        1.03949        -7.39419        -4.77208
| 92>    H       -1.31908        -5.73096        -5.41460
| 93>    H       -4.47688        -9.40063        -5.31982
| 94>    H       -4.75284        -6.68301        -5.08224
| 95>    H       -2.59780        -5.67300        -6.99385
| 96>    H       -3.90639        -3.75974        -7.33676
| 97>    H       -4.30475        -4.91568        -3.77166
| 98>    H       -6.02609        -4.75064        -4.11230
| 99>    H       -5.15788        -3.41648        -3.36258
|100>    H       -6.16555        -2.04735        -5.23684
|101>    H       -5.18925        -1.97956        -6.71798
|102>    H       -4.47607        -0.33964        -5.00454
|103>    H       -2.81255        -2.71651        -4.49110
|104>    H       -2.33222         0.27724        -3.97364
|105>    H       -0.81037        -2.29630        -3.24342
|106>    H        1.52416        -1.84986        -2.16629
|107>    H        3.16800         0.08464        -1.73978
|108>    H        4.31257         2.18226        -1.71278
|109>    H        4.93179         4.66762        -1.72558
|110>    H        1.97403         6.98400        -2.88884
|111>    H        4.83189         6.86479        -1.77743
|112>    H        1.45451        12.03565        -3.04519
|113>    H        6.08892        12.25271        -1.15863
|114>    H        1.54902        14.83751        -2.92399
|115> *
|116>
|117>                          ****END OF INPUT****

CARTESIAN COORDINATES (ANGSTROEM)
---------------------------------
  C      4.390080   -0.235800   -4.776590
  C      4.190950    1.092820   -5.033110
  F      5.170360    1.976010   -4.804270
  C      2.957850    1.548650   -5.536970
  F      2.795440    2.853050   -5.789330
  C      1.932680    0.671260   -5.762420
  C      2.099970   -0.698690   -5.485380
  C      3.354250   -1.164260   -4.995480
  C      3.550700   -2.539270   -4.725630
  C      2.512980   -3.415120   -4.900760
  C      1.246260   -2.931840   -5.340330
  C      1.039170   -1.616760   -5.650550
  C      0.298700   -4.047990   -5.361230
  O     -0.907770   -3.998490   -5.600670
  C      1.060320   -5.246600   -5.004020
  C      2.422320   -4.862210   -4.708210
  C      3.444090   -5.682830   -4.307040
  C      4.746110   -5.234510   -4.004250
  N      5.819070   -4.924340   -3.739640
  C      3.315650   -7.076620   -4.139300
  N      3.246840   -8.212450   -3.988470
  C      0.478700   -6.493360   -4.984130
  N     -0.828240   -6.626180   -5.239490
  C     -1.565910   -7.767000   -5.249100
  S     -0.858940   -9.326830   -4.963130
  C     -2.440880  -10.031840   -5.035310
  N     -2.547930  -11.419320   -4.866690
  O     -3.661540  -11.906870   -4.907350
  O     -1.509100  -12.030200   -4.690840
  C     -3.441240   -9.120520   -5.252570
  C     -2.956890   -7.810300   -5.397740
  C     -3.796810   -6.642070   -5.581580
  C     -3.462320   -5.589700   -6.345980
  C     -4.105020   -4.302560   -6.421600
  C     -4.766170   -3.660430   -5.447260
  C     -5.075310   -4.217550   -4.094280
  C     -5.163770   -2.221490   -5.648050
  N     -4.239340   -1.321290   -4.978610
  C     -3.052190   -1.663520   -4.465050
  C     -2.145270   -0.787760   -3.939070
  C     -0.948320   -1.229410   -3.360010
  C      0.081210   -0.419680   -2.944650
  C      1.313580   -0.816990   -2.382500
  C      2.186470    0.207580   -2.159880
  C      1.685400    1.474330   -2.525020
  S      0.063200    1.328740   -3.147410
  C      2.324510    2.701860   -2.441930
  C      3.640190    2.966050   -2.012640
  C      3.968770    4.291560   -2.019900
  C      2.924670    5.139310   -2.451840
  S      1.521880    4.193510   -2.877580
  C      2.881810    6.522960   -2.528360
  C      3.929340    7.341940   -2.129340
  C      3.895580    8.726130   -2.126240
  C      4.944220    9.600390   -1.674640
  C      6.167380    9.240140   -1.151470
  C      7.144860   10.157410   -0.721480
  N      7.985010   10.849970   -0.353580
  C      6.619400    7.921860   -0.954010
  N      7.066050    6.880000   -0.759500
  C      4.480560   10.977640   -1.842150
  C      3.170360   10.950530   -2.376770
  C      2.754910    9.543610   -2.574160
  O      1.683470    9.171630   -3.014080
  C      2.452510   12.090190   -2.639160
  C      3.057050   13.321420   -2.360060
  C      4.366520   13.339060   -1.829110
  C      5.093550   12.183770   -1.564130
  S      4.923660   14.963450   -1.555870
  C      3.407340   15.586020   -2.149940
  C      2.529120   14.630660   -2.534410
  Br     3.125630   17.440640   -2.205160
  H      5.344900   -0.568810   -4.400580
  H      0.991620    1.038090   -6.140660
  H      4.519030   -2.862570   -4.379790
  H      0.079030   -1.280080   -6.009670
  H      1.039490   -7.394190   -4.772080
  H     -1.319080   -5.730960   -5.414600
  H     -4.476880   -9.400630   -5.319820
  H     -4.752840   -6.683010   -5.082240
  H     -2.597800   -5.673000   -6.993850
  H     -3.906390   -3.759740   -7.336760
  H     -4.304750   -4.915680   -3.771660
  H     -6.026090   -4.750640   -4.112300
  H     -5.157880   -3.416480   -3.362580
  H     -6.165550   -2.047350   -5.236840
  H     -5.189250   -1.979560   -6.717980
  H     -4.476070   -0.339640   -5.004540
  H     -2.812550   -2.716510   -4.491100
  H     -2.332220    0.277240   -3.973640
  H     -0.810370   -2.296300   -3.243420
  H      1.524160   -1.849860   -2.166290
  H      3.168000    0.084640   -1.739780
  H      4.312570    2.182260   -1.712780
  H      4.931790    4.667620   -1.725580
  H      1.974030    6.984000   -2.888840
  H      4.831890    6.864790   -1.777430
  H      1.454510   12.035650   -3.045190
  H      6.088920   12.252710   -1.158630
  H      1.549020   14.837510   -2.923990

 Total Charge           Charge          ....    0
 Multiplicity           Mult            ....    1
 Number of Electrons    NEL             ....  550
 Basis Dimension        Dim             .... 1182

ORBITAL ENERGIES
----------------

  NO   OCC          E(Eh)            E(eV)
   0   2.0000    -482.871258    -13139.5949
   1   2.0000     -89.007294     -2422.0116
   2   2.0000     -88.964127     -2420.8370
   3   2.0000     -88.957394     -2420.6537
   4   2.0000     -88.951960     -2420.5059
   5   2.0000     -62.548954     -1702.0436
   6   2.0000     -56.382885     -1534.2563
   7   2.0000     -56.380210     -1534.1835
   8   2.0000     -56.380166     -1534.1823
   9   2.0000     -24.805837      -675.0011
  10   2.0000     -24.803335      -674.9331
  11   2.0000     -19.252623      -523.8905
  12   2.0000     -19.251874      -523.8701
  13   2.0000     -19.251829      -523.8689
  14   2.0000     -19.187828      -522.1274
  15   2.0000     -14.664296      -399.0358
  16   2.0000     -14.513358      -394.9286
  17   2.0000     -14.480423      -394.0323
  18   2.0000     -14.433565      -392.7573
  19   2.0000     -14.427940      -392.6042
  20   2.0000     -14.392014      -391.6266
  21   2.0000     -14.387499      -391.5038
  22   2.0000     -10.397937      -282.9423
  23   2.0000     -10.390036      -282.7273
  24   2.0000     -10.389393      -282.7098
  25   2.0000     -10.388343      -282.6812
  26   2.0000     -10.387656      -282.6625
  27   2.0000     -10.363194      -281.9969
  28   2.0000     -10.361038      -281.9382
  29   2.0000     -10.356930      -281.8264
  30   2.0000     -10.353903      -281.7440
  31   2.0000     -10.347830      -281.5788
  32   2.0000     -10.341254      -281.3998
  33   2.0000     -10.338161      -281.3157
  34   2.0000     -10.335645      -281.2472
  35   2.0000     -10.333731      -281.1951
  36   2.0000     -10.330734      -281.1136
  37   2.0000     -10.327782      -281.0332
  38   2.0000     -10.324352      -280.9399
  39   2.0000     -10.322297      -280.8840
  40   2.0000     -10.321229      -280.8549
  41   2.0000     -10.320341      -280.8307
  42   2.0000     -10.319116      -280.7974
  43   2.0000     -10.318502      -280.7807
  44   2.0000     -10.318004      -280.7672
  45   2.0000     -10.317622      -280.7568
  46   2.0000     -10.315978      -280.7120
  47   2.0000     -10.315352      -280.6950
  48   2.0000     -10.314563      -280.6735
  49   2.0000     -10.312948      -280.6296
  50   2.0000     -10.312773      -280.6248
  51   2.0000     -10.311336      -280.5857
  52   2.0000     -10.309884      -280.5462
  53   2.0000     -10.309434      -280.5340
  54   2.0000     -10.309032      -280.5230
  55   2.0000     -10.308641      -280.5124
  56   2.0000     -10.308292      -280.5029
  57   2.0000     -10.305377      -280.4236
  58   2.0000     -10.304789      -280.4076
  59   2.0000     -10.304579      -280.4019
  60   2.0000     -10.298667      -280.2410
  61   2.0000     -10.297017      -280.1961
  62   2.0000     -10.295453      -280.1535
  63   2.0000     -10.294810      -280.1360
  64   2.0000     -10.292639      -280.0769
  65   2.0000     -10.286591      -279.9124
  66   2.0000     -10.286456      -279.9087
  67   2.0000     -10.285242      -279.8757
  68   2.0000     -10.284052      -279.8433
  69   2.0000     -10.282536      -279.8020
  70   2.0000     -10.279889      -279.7300
  71   2.0000     -10.278701      -279.6977
  72   2.0000     -10.278270      -279.6859
  73   2.0000     -10.267842      -279.4022
  74   2.0000     -10.261195      -279.2213
  75   2.0000     -10.260711      -279.2081
  76   2.0000      -8.778361      -238.8714
  77   2.0000      -8.102460      -220.4791
  78   2.0000      -8.059608      -219.3131
  79   2.0000      -8.053318      -219.1419
  80   2.0000      -8.048290      -219.0051
  81   2.0000      -6.614570      -179.9916
  82   2.0000      -6.600125      -179.5985
  83   2.0000      -6.599975      -179.5945
  84   2.0000      -6.072065      -165.2293
  85   2.0000      -6.067675      -165.1098
  86   2.0000      -6.064033      -165.0107
  87   2.0000      -6.029232      -164.0637
  88   2.0000      -6.025281      -163.9562
  89   2.0000      -6.023005      -163.8943
  90   2.0000      -6.020834      -163.8352
  91   2.0000      -6.018771      -163.7791
  92   2.0000      -6.017867      -163.7545
  93   2.0000      -6.014560      -163.6645
  94   2.0000      -6.013791      -163.6436
  95   2.0000      -6.009560      -163.5284
  96   2.0000      -2.730450       -74.2993
  97   2.0000      -2.726406       -74.1893
  98   2.0000      -2.726286       -74.1860
  99   2.0000      -2.714805       -73.8736
 100   2.0000      -2.714791       -73.8732
 101   2.0000      -1.333975       -36.2993
 102   2.0000      -1.327308       -36.1179
 103   2.0000      -1.312164       -35.7058
 104   2.0000      -1.165725       -31.7210
 105   2.0000      -1.153305       -31.3830
 106   2.0000      -1.120840       -30.4996
 107   2.0000      -1.101279       -29.9673
 108   2.0000      -1.076836       -29.3022
 109   2.0000      -1.036275       -28.1985
 110   2.0000      -1.026928       -27.9441
 111   2.0000      -1.019177       -27.7332
 112   2.0000      -1.009251       -27.4631
 113   2.0000      -1.007178       -27.4067
 114   2.0000      -1.000839       -27.2342
 115   2.0000      -0.993949       -27.0467
 116   2.0000      -0.989743       -26.9323
 117   2.0000      -0.981920       -26.7194
 118   2.0000      -0.969429       -26.3795
 119   2.0000      -0.964309       -26.2402
 120   2.0000      -0.957817       -26.0635
 121   2.0000      -0.945723       -25.7344
 122   2.0000      -0.934382       -25.4258
 123   2.0000      -0.923787       -25.1375
 124   2.0000      -0.920891       -25.0587
 125   2.0000      -0.915873       -24.9222
 126   2.0000      -0.905169       -24.6309
 127   2.0000      -0.900494       -24.5037
 128   2.0000      -0.894838       -24.3498
 129   2.0000      -0.886193       -24.1145
 130   2.0000      -0.879347       -23.9283
 131   2.0000      -0.873357       -23.7652
 132   2.0000      -0.866991       -23.5920
 133   2.0000      -0.864138       -23.5144
 134   2.0000      -0.855360       -23.2755
 135   2.0000      -0.852646       -23.2017
 136   2.0000      -0.851933       -23.1823
 137   2.0000      -0.834332       -22.7033
 138   2.0000      -0.828734       -22.5510
 139   2.0000      -0.826107       -22.4795
 140   2.0000      -0.817343       -22.2410
 141   2.0000      -0.808539       -22.0015
 142   2.0000      -0.802185       -21.8286
 143   2.0000      -0.784700       -21.3528
 144   2.0000      -0.780146       -21.2289
 145   2.0000      -0.773083       -21.0367
 146   2.0000      -0.756703       -20.5909
 147   2.0000      -0.752400       -20.4738
 148   2.0000      -0.739485       -20.1224
 149   2.0000      -0.735745       -20.0206
 150   2.0000      -0.731750       -19.9119
 151   2.0000      -0.728734       -19.8299
 152   2.0000      -0.718767       -19.5586
 153   2.0000      -0.709647       -19.3105
 154   2.0000      -0.709040       -19.2939
 155   2.0000      -0.698769       -19.0145
 156   2.0000      -0.689164       -18.7531
 157   2.0000      -0.678568       -18.4648
 158   2.0000      -0.674731       -18.3604
 159   2.0000      -0.667424       -18.1615
 160   2.0000      -0.666050       -18.1241
 161   2.0000      -0.658432       -17.9168
 162   2.0000      -0.654452       -17.8086
 163   2.0000      -0.652335       -17.7509
 164   2.0000      -0.651237       -17.7211
 165   2.0000      -0.648515       -17.6470
 166   2.0000      -0.645611       -17.5680
 167   2.0000      -0.640282       -17.4230
 168   2.0000      -0.639397       -17.3989
 169   2.0000      -0.634960       -17.2781
 170   2.0000      -0.631804       -17.1923
 171   2.0000      -0.621526       -16.9126
 172   2.0000      -0.620015       -16.8715
 173   2.0000      -0.614641       -16.7252
 174   2.0000      -0.612657       -16.6713
 175   2.0000      -0.603081       -16.4107
 176   2.0000      -0.602107       -16.3842
 177   2.0000      -0.599400       -16.3105
 178   2.0000      -0.597597       -16.2614
 179   2.0000      -0.594057       -16.1651
 180   2.0000      -0.593435       -16.1482
 181   2.0000      -0.591218       -16.0879
 182   2.0000      -0.586090       -15.9483
 183   2.0000      -0.582424       -15.8486
 184   2.0000      -0.575400       -15.6574
 185   2.0000      -0.573781       -15.6134
 186   2.0000      -0.571477       -15.5507
 187   2.0000      -0.565965       -15.4007
 188   2.0000      -0.563925       -15.3452
 189   2.0000      -0.556544       -15.1443
 190   2.0000      -0.554927       -15.1003
 191   2.0000      -0.553568       -15.0633
 192   2.0000      -0.550373       -14.9764
 193   2.0000      -0.545602       -14.8466
 194   2.0000      -0.543585       -14.7917
 195   2.0000      -0.542209       -14.7542
 196   2.0000      -0.537335       -14.6216
 197   2.0000      -0.535612       -14.5747
 198   2.0000      -0.529853       -14.4180
 199   2.0000      -0.529333       -14.4039
 200   2.0000      -0.527190       -14.3456
 201   2.0000      -0.524156       -14.2630
 202   2.0000      -0.521229       -14.1834
 203   2.0000      -0.517872       -14.0920
 204   2.0000      -0.515783       -14.0352
 205   2.0000      -0.515046       -14.0151
 206   2.0000      -0.514968       -14.0130
 207   2.0000      -0.514713       -14.0060
 208   2.0000      -0.509521       -13.8648
 209   2.0000      -0.505859       -13.7651
 210   2.0000      -0.502046       -13.6614
 211   2.0000      -0.499857       -13.6018
 212   2.0000      -0.496012       -13.4972
 213   2.0000      -0.492816       -13.4102
 214   2.0000      -0.487998       -13.2791
 215   2.0000      -0.487521       -13.2661
 216   2.0000      -0.484769       -13.1912
 217   2.0000      -0.483363       -13.1530
 218   2.0000      -0.481923       -13.1138
 219   2.0000      -0.477447       -12.9920
 220   2.0000      -0.475953       -12.9513
 221   2.0000      -0.473697       -12.8900
 222   2.0000      -0.471842       -12.8395
 223   2.0000      -0.471221       -12.8226
 224   2.0000      -0.468522       -12.7491
 225   2.0000      -0.467461       -12.7203
 226   2.0000      -0.464422       -12.6376
 227   2.0000      -0.459422       -12.5015
 228   2.0000      -0.458552       -12.4778
 229   2.0000      -0.456612       -12.4250
 230   2.0000      -0.455091       -12.3837
 231   2.0000      -0.450148       -12.2491
 232   2.0000      -0.449891       -12.2421
 233   2.0000      -0.444486       -12.0951
 234   2.0000      -0.441869       -12.0239
 235   2.0000      -0.441553       -12.0153
 236   2.0000      -0.440374       -11.9832
 237   2.0000      -0.437355       -11.9010
 238   2.0000      -0.432986       -11.7821
 239   2.0000      -0.427442       -11.6313
 240   2.0000      -0.426077       -11.5941
 241   2.0000      -0.424639       -11.5550
 242   2.0000      -0.422167       -11.4877
 243   2.0000      -0.419979       -11.4282
 244   2.0000      -0.419859       -11.4250
 245   2.0000      -0.418376       -11.3846
 246   2.0000      -0.410739       -11.1768
 247   2.0000      -0.403761       -10.9869
 248   2.0000      -0.402415       -10.9503
 249   2.0000      -0.399249       -10.8641
 250   2.0000      -0.399189       -10.8625
 251   2.0000      -0.396295       -10.7837
 252   2.0000      -0.392382       -10.6773
 253   2.0000      -0.390117       -10.6156
 254   2.0000      -0.383137       -10.4257
 255   2.0000      -0.381375       -10.3777
 256   2.0000      -0.375784       -10.2256
 257   2.0000      -0.375370       -10.2143
 258   2.0000      -0.373659       -10.1678
 259   2.0000      -0.365409        -9.9433
 260   2.0000      -0.362285        -9.8583
 261   2.0000      -0.360965        -9.8224
 262   2.0000      -0.349331        -9.5058
 263   2.0000      -0.345472        -9.4008
 264   2.0000      -0.332689        -9.0529
 265   2.0000      -0.331473        -9.0198
 266   2.0000      -0.328375        -8.9355
 267   2.0000      -0.315697        -8.5905
 268   2.0000      -0.309166        -8.4128
 269   2.0000      -0.308623        -8.3981
 270   2.0000      -0.294982        -8.0269
 271   2.0000      -0.290732        -7.9112
 272   2.0000      -0.277944        -7.5632
 273   2.0000      -0.270169        -7.3517
 274   2.0000      -0.214238        -5.8297
 275   0.0000      -0.106146        -2.8884
 276   0.0000      -0.095218        -2.5910
 277   0.0000      -0.085114        -2.3161
 278   0.0000      -0.060717        -1.6522
 279   0.0000      -0.048446        -1.3183

MULLIKEN ATOMIC CHARGES
-----------------------
   0 C :   -0.134454
   1 C :    0.249872
   2 F :   -0.165027
   3 C :    0.250426
   4 F :   -0.163946
   5 C :   -0.084960
   6 C :    0.102620
   7 C :    0.145933
   8 C :   -0.108900
   9 C :    0.050578
  10 C :   -0.024068
  11 C :   -0.039306
  12 C :    0.166158
  13 O :   -0.236873
  14 C :   -0.129476
  15 C :    0.331864
  16 C :   -0.346854
  17 C :   -0.180093
  18 N :    0.157144
  19 C :   -0.195880
  20 N :    0.145097
  21 C :    0.031937
  22 N :   -0.004306
  23 C :   -0.123956
  24 S :    0.187550
  25 C :    0.003789
  26 N :    0.275600
  27 O :   -0.244459
  28 O :   -0.252410
  29 C :    0.011329
  30 C :    0.101955
  31 C :   -0.034986
  32 C :   -0.014621
  33 C :    0.056711
  34 C :   -0.294231
  35 C :    0.088597
  36 C :    0.259462
  37 N :   -0.159326
  38 C :    0.081725
  39 C :   -0.060486
  40 C :    0.023049
  41 C :   -0.059463
  42 C :    0.061845
  43 C :    0.012347
  44 C :   -0.043816
  45 S :    0.069169
  46 C :   -0.079728
  47 C :    0.044008
  48 C :    0.008916
  49 C :   -0.019073
  50 S :    0.118535
  51 C :    0.014494
  52 C :   -0.027630
  53 C :   -0.099440
  54 C :    0.331521
  55 C :   -0.374488
  56 C :   -0.188522
  57 N :    0.129880
  58 C :   -0.190171
  59 N :    0.120594
  60 C :    0.009766
  61 C :   -0.010867
  62 C :    0.134699
  63 O :   -0.170766
  64 C :   -0.078091
  65 C :    0.116926
  66 C :   -0.094963
  67 C :   -0.022607
  68 S :    0.175325
  69 C :   -0.124383
  70 C :    0.038570
  71 Br:    0.007835
  72 H :    0.005647
  73 H :   -0.005067
  74 H :   -0.005955
  75 H :   -0.020213
  76 H :    0.046656
  77 H :    0.174385
  78 H :    0.013818
  79 H :    0.009664
  80 H :    0.016527
  81 H :   -0.009188
  82 H :    0.033773
  83 H :    0.047340
  84 H :    0.023652
  85 H :    0.019632
  86 H :    0.021929
  87 H :    0.132449
  88 H :    0.045648
  89 H :   -0.009864
  90 H :   -0.010130
  91 H :   -0.010968
  92 H :   -0.010758
  93 H :   -0.009798
  94 H :    0.013529
  95 H :    0.004580
  96 H :   -0.007987
  97 H :   -0.020261
  98 H :   -0.012423
  99 H :   -0.009818
Sum of atomic charges:   -0.0000000

LOEWDIN ATOMIC CHARGES
----------------------
   0 C :   -0.035323
   1 C :    0.071316
   2 F :   -0.041001
   3 C :    0.069299
   4 F :   -0.041177
   5 C :   -0.031365
   6 C :   -0.010113
   7 C :   -0.001955
   8 C :    0.014044
   9 C :   -0.024396
  10 C :   -0.068953
  11 C :    0.043936
  12 C :    0.094371
  13 O :   -0.191370
  14 C :   -0.144745
  15 C :    0.076687
  16 C :   -0.145720
  17 C :   -0.019884
  18 N :   -0.048567
  19 C :   -0.020887
  20 N :   -0.050510
  21 C :    0.113904
  22 N :    0.079321
  23 C :   -0.112583
  24 S :    0.480562
  25 C :   -0.200906
  26 N :    0.273327
  27 O :   -0.210102
  28 O :   -0.219452
  29 C :    0.000666
  30 C :   -0.088252
  31 C :   -0.024492
  32 C :   -0.026219
  33 C :   -0.031836
  34 C :   -0.034289
  35 C :   -0.053285
  36 C :    0.053754
  37 N :    0.021918
  38 C :    0.079735
  39 C :   -0.139889
  40 C :    0.007730
  41 C :   -0.196601
  42 C :   -0.006959
  43 C :   -0.059264
  44 C :   -0.143531
  45 S :    0.389148
  46 C :   -0.218584
  47 C :   -0.007143
  48 C :   -0.050816
  49 C :   -0.100205
  50 S :    0.404146
  51 C :   -0.083394
  52 C :    0.056453
  53 C :   -0.122323
  54 C :    0.075146
  55 C :   -0.167573
  56 C :   -0.019675
  57 N :   -0.076696
  58 C :   -0.016431
  59 N :   -0.081674
  60 C :   -0.017340
  61 C :   -0.047159
  62 C :    0.079669
  63 O :   -0.164750
  64 C :    0.014056
  65 C :   -0.037872
  66 C :   -0.147287
  67 C :   -0.014861
  68 S :    0.423786
  69 C :   -0.276928
  70 C :   -0.071448
  71 Br:    0.124813
  72 H :    0.046701
  73 H :    0.039828
  74 H :    0.040349
  75 H :    0.037954
  76 H :    0.037293
  77 H :    0.084294
  78 H :    0.048441
  79 H :    0.034301
  80 H :    0.032304
  81 H :    0.031893
  82 H :    0.035022
  83 H :    0.043528
  84 H :    0.031595
  85 H :    0.029693
  86 H :    0.027139
  87 H :    0.087162
  88 H :    0.036967
  89 H :    0.018845
  90 H :    0.034353
  91 H :    0.033682
  92 H :    0.031922
  93 H :    0.033843
  94 H :    0.041120
  95 H :    0.031147
  96 H :    0.035948
  97 H :    0.037058
  98 H :    0.039382
  99 H :    0.036233

  Mayer bond orders larger than 0.100000
B(  0-C ,  1-C ) :   1.4218 B(  0-C ,  5-C ) :   0.1041 B(  0-C ,  7-C ) :   1.1877
B(  0-C , 72-H ) :   1.0096 B(  1-C ,  2-F ) :   1.1311 B(  1-C ,  3-C ) :   1.2006
B(  3-C ,  4-F ) :   1.1362 B(  3-C ,  5-C ) :   1.4308 B(  5-C ,  6-C ) :   1.2017
B(  5-C , 73-H ) :   1.0001 B(  6-C ,  7-C ) :   1.2626 B(  6-C , 11-C ) :   1.1900
B(  7-C ,  8-C ) :   1.1975 B(  8-C ,  9-C ) :   1.4521 B(  8-C , 74-H ) :   0.9920
B(  9-C , 10-C ) :   1.2203 B(  9-C , 15-C ) :   0.9847 B( 10-C , 11-C ) :   1.4565
B( 10-C , 12-C ) :   0.9913 B( 11-C , 75-H ) :   1.0045 B( 12-C , 13-O ) :   1.9772
B( 12-C , 14-C ) :   1.0149 B( 13-O , 77-H ) :   0.1356 B( 14-C , 15-C ) :   1.0915
B( 14-C , 21-C ) :   1.4472 B( 15-C , 16-C ) :   1.6352 B( 16-C , 17-C ) :   1.1467
B( 16-C , 19-C ) :   1.1448 B( 17-C , 18-N ) :   2.9631 B( 19-C , 20-N ) :   2.9538
B( 21-C , 22-N ) :   1.3403 B( 21-C , 76-H ) :   0.9307 B( 22-N , 23-C ) :   1.1825
B( 22-N , 77-H ) :   0.8246 B( 23-C , 24-S ) :   1.1440 B( 23-C , 30-C ) :   1.4063
B( 24-S , 25-C ) :   1.0894 B( 25-C , 26-N ) :   0.9629 B( 25-C , 29-C ) :   1.4893
B( 26-N , 27-O ) :   1.5387 B( 26-N , 28-O ) :   1.5181 B( 27-O , 28-O ) :   0.2649
B( 29-C , 30-C ) :   1.2265 B( 29-C , 78-H ) :   1.0096 B( 30-C , 31-C ) :   1.0389
B( 31-C , 32-C ) :   1.7541 B( 31-C , 79-H ) :   0.9680 B( 32-C , 33-C ) :   1.1156
B( 32-C , 80-H ) :   0.9543 B( 33-C , 34-C ) :   1.8241 B( 33-C , 81-H ) :   0.9494
B( 34-C , 35-C ) :   1.0698 B( 34-C , 36-C ) :   1.0575 B( 35-C , 82-H ) :   0.9404
B( 35-C , 83-H ) :   0.9429 B( 35-C , 84-H ) :   0.9485 B( 36-C , 37-N ) :   0.9669
B( 36-C , 85-H ) :   0.9287 B( 36-C , 86-H ) :   0.9364 B( 37-N , 38-C ) :   1.3058
B( 37-N , 87-H ) :   0.9371 B( 38-C , 39-C ) :   1.4987 B( 38-C , 88-H ) :   0.9536
B( 39-C , 40-C ) :   1.2298 B( 39-C , 89-H ) :   0.9717 B( 40-C , 41-C ) :   1.5073
B( 40-C , 90-H ) :   0.9782 B( 41-C , 42-C ) :   1.1788 B( 41-C , 45-S ) :   1.0147
B( 42-C , 43-C ) :   1.5344 B( 42-C , 91-H ) :   1.0003 B( 43-C , 44-C ) :   1.2297
B( 43-C , 92-H ) :   0.9928 B( 44-C , 45-S ) :   1.0862 B( 44-C , 46-C ) :   1.4239
B( 46-C , 47-C ) :   1.2356 B( 46-C , 50-S ) :   1.0394 B( 47-C , 48-C ) :   1.5334
B( 47-C , 93-H ) :   0.9926 B( 48-C , 49-C ) :   1.2149 B( 48-C , 94-H ) :   0.9899
B( 49-C , 50-S ) :   1.1063 B( 49-C , 51-C ) :   1.3459 B( 51-C , 52-C ) :   1.3445
B( 51-C , 95-H ) :   0.9633 B( 52-C , 53-C ) :   1.4274 B( 52-C , 96-H ) :   0.9473
B( 53-C , 54-C ) :   1.1334 B( 53-C , 62-C ) :   0.9739 B( 54-C , 55-C ) :   1.5628
B( 54-C , 60-C ) :   0.9847 B( 55-C , 56-C ) :   1.1523 B( 55-C , 58-C ) :   1.1560
B( 56-C , 57-N ) :   2.9591 B( 58-C , 59-N ) :   2.9717 B( 60-C , 61-C ) :   1.2787
B( 60-C , 67-C ) :   1.4244 B( 61-C , 62-C ) :   0.9317 B( 61-C , 64-C ) :   1.4371
B( 62-C , 63-O ) :   2.1817 B( 64-C , 65-C ) :   1.2352 B( 64-C , 97-H ) :   1.0147
B( 65-C , 66-C ) :   1.3206 B( 65-C , 70-C ) :   1.1597 B( 66-C , 67-C ) :   1.3176
B( 66-C , 68-S ) :   1.0807 B( 67-C , 98-H ) :   0.9779 B( 68-S , 69-C ) :   1.0853
B( 69-C , 70-C ) :   1.6229 B( 69-C , 71-Br) :   1.0086 B( 70-C , 99-H ) :   0.9990

-----------------------------------------------------------------------------
         ABSORPTION SPECTRUM VIA TRANSITION ELECTRIC DIPOLE MOMENTS
-----------------------------------------------------------------------------
State   Energy  Wavelength   fosc         T2         TX        TY        TZ
        (cm-1)    (nm)                  (au**2)     (au)      (au)      (au)
-----------------------------------------------------------------------------
   0   11500.2    869.5   0.594154379  17.00858  -1.43102  -3.76796  -0.87363
   1   12537.8    797.6   1.208956528  31.74435  -2.87228  -4.77573  -0.82871
   2   14137.8    707.3   0.008291394   0.19307  -0.42375  -0.06517   0.09624
   3   21569.8    463.6   0.007447595   0.11367  -0.22770  -0.14237  -0.20384
   4   22275.1    448.9   0.041484887   0.61312   0.18755  -0.74907  -0.12977
   5   22695.0    440.6   0.732448590  10.62484  -2.49130  -2.10156  -0.04098
   6   23696.9    422.0   0.005644137   0.07841  -0.23006   0.11869  -0.10676
   7   24352.8    410.6   0.052710652   0.71257   0.41152   0.73564  -0.04523
   8   25301.4    395.2   0.010178778   0.13244   0.32278   0.16396  -0.03703
   9   25652.5    389.8   0.036780415   0.47202  -0.54159  -0.30625  -0.29140
  10   26360.5    379.4   0.086062019   1.07481   0.54451  -0.84185   0.26385
  11   26779.4    373.4   0.011528360   0.14172   0.21883  -0.30626   0.00625
  12   27048.7    369.7   0.474084744   5.77013   1.13642  -2.02822   0.60416
  13   27716.1    360.8   0.000189075   0.00225  -0.00761  -0.04602   0.00838
  14   28409.9    352.0   0.110226546   1.27730  -0.67087  -0.90936   0.01718
  15   29188.0    342.6   0.018277049   0.20615   0.07760   0.44730   0.00697
  16   29417.0    339.9   0.044897113   0.50245  -0.68903   0.12911  -0.10498
  17   29646.4    337.3   0.004535587   0.05037   0.04495  -0.13647   0.17240
  18   29748.4    336.2   0.005869353   0.06495  -0.00887  -0.23007   0.10929
  19   30643.8    326.3   0.005842273   0.06276  -0.17698  -0.17574  -0.02368
  20   30828.2    324.4   0.000361769   0.00386   0.03024   0.03372   0.04256
  21   31438.4    318.1   0.000874209   0.00915  -0.01278   0.08764  -0.03621
  22   31444.7    318.0   0.115667226   1.21098   0.53448   0.96164   0.02356
  23   31744.4    315.0   0.017356008   0.17999   0.35892  -0.10294   0.20142
  24   32476.2    307.9   0.597113385   6.05294   1.07822  -2.12740   0.60376
  25   32847.8    304.4   0.724701375   7.26321   0.34892  -2.65263   0.32411
  26   32882.1    304.1   0.030250380   0.30286   0.33018  -0.43618   0.05993
  27   33074.8    302.3   0.010882944   0.10832  -0.25344  -0.20864   0.02367
  28   33309.1    300.2   0.052548777   0.51937   0.64815   0.30533   0.07770
  29   33981.8    294.3   0.270289731   2.61854  -0.36855   1.56201  -0.20697
  30   34194.7    292.4   0.016581715   0.15964  -0.37099  -0.10921  -0.10041
  31   34750.8    287.8   0.061803978   0.58550  -0.49686  -0.57787  -0.06848
  32   35051.3    285.3   0.099897179   0.93826  -0.55465   0.71512  -0.34530
  33   35383.8    282.6   0.007587726   0.07060   0.08733   0.25064  -0.01213
  34   35449.7    282.1   0.065378912   0.60716   0.59613   0.49685   0.07020
  35   35579.7    281.1   0.014064773   0.13014  -0.04195   0.33804   0.11876
  36   35714.7    280.0   0.046473158   0.42838  -0.50625  -0.40612  -0.08463
  37   35851.7    278.9   0.078784446   0.72345  -0.10435  -0.80049  -0.26790
  38   35994.7    277.8   0.171647403   1.56991  -0.37733   1.19476   0.00827
  39   36089.4    277.1   0.104683548   0.95494   0.19656  -0.92656   0.24040
  40   36292.0    275.5   0.054886864   0.49789   0.68962   0.12315   0.08454
  41   36789.4    271.8   0.005630594   0.05039  -0.18408   0.11393  -0.05935
  42   36907.0    271.0   0.256085382   2.28429   0.99483  -1.03786   0.46633
  43   37101.8    269.5   0.039721578   0.35246  -0.53576  -0.04048  -0.25254
  44   37401.9    267.4   0.019456598   0.17126  -0.33911  -0.18120  -0.15307
  45   37662.7    265.5   0.015553984   0.13596   0.25196   0.26583   0.04253
  46   37854.3    264.2   0.014553297   0.12657   0.34204  -0.04146   0.08864
  47   38183.3    261.9   0.157215977   1.35550   0.89932  -0.53374   0.51171
  48   38424.9    260.2   0.022289564   0.19097   0.36963   0.23254   0.01640
  49   38614.7    259.0   0.062369956   0.53174  -0.40732  -0.60482   0.00416
  50   38640.7    258.8   0.025122660   0.21404   0.43899   0.12456   0.07624
  51   38799.3    257.7   0.012392864   0.10515   0.12471   0.26906  -0.13118
  52   39037.8    256.2   0.005342147   0.04505   0.20432   0.04883   0.03031
  53   39229.3    254.9   0.147953208   1.24162   0.82529  -0.68598   0.29993
  54   39602.6    252.5   0.038666409   0.32143  -0.31497   0.45779  -0.11251
  55   40243.8    248.5   0.114089420   0.93330  -0.80485  -0.37856  -0.37712
  56   40278.0    248.3   0.008754249   0.07155   0.21292   0.13364   0.09141

FINAL SINGLE POINT ENERGY     -7120.783525593152

DIPOLE MOMENT
-------------
                                X             Y             Z
Electronic contribution:     65.72505     200.97437      19.94658
Nuclear contribution   :    -72.70214    -204.14888     -22.71265
                        -----------------------------------------
Total Dipole Moment    :     -6.97710      -3.17452      -2.76607
                        -----------------------------------------
Magnitude (a.u.)       :      8.14915
Magnitude (Debye)      :     20.71349

Rotational constants in cm-1:     0.002276     0.000202     0.000190
Rotational constants in MHz :    68.224206     6.060870     5.681265

                             ****ORCA TERMINATED NORMALLY****
TOTAL RUN TIME: 0 days 0 hours 11 minutes 56 seconds 50 msec
