                         Program Version 4.2.0 -  RELEASE  -
|  1> # ORCA input file
|  2> # SCF done       -196.597274507906          0.000895221984
|  3> ! CAM-B3LYP def2-SVP def2/J RIJCOSX Grid4 TightSCF
|  4> %maxcore 5000
|  5> %tddft
|  6>     Mode sTDDFT
|  7>     Ethresh 5.0
|  8>     maxcore 5000
|  9> end
| 10>
| 11> %pal
| 12>   nprocs 6
| 13>   end
| 14> * xyz 0 1
| 15>    C        1.37165        -8.41205         3.32793
| 16>    C        2.53724        -9.07651         3.06624
| 17>    F        3.30208        -9.51530         4.07344
| 18>    C        2.94828        -9.30759         1.73804
| 19>    F        4.09466        -9.96072         1.51142
| 20>    C        2.18816        -8.86972         0.68925
| 21>    C        0.98362        -8.18049         0.92646
| 22>    C        0.56551        -7.94866         2.26909
| 23>    C       -0.64284        -7.26309         2.53187
| 24>    C       -1.40704        -6.82319         1.48360
| 25>    C       -0.97698        -7.05176         0.14547
| 26>    C        0.18371        -7.70986        -0.13949
| 27>    C       -1.94956        -6.45452        -0.78320
| 28>    O       -1.84301        -6.33978        -1.99271
| 29>    C       -3.01387        -5.88897         0.05312
| 30>    C       -2.68330        -6.11792         1.44643
| 31>    C       -3.46878        -5.81781         2.52991
| 32>    C       -4.75685        -5.25197         2.44549
| 33>    N       -5.81998        -4.81681         2.42075
| 34>    C       -3.09959        -6.06955         3.86791
| 35>    N       -2.84778        -6.23575         4.97496
| 36>    C       -4.03434        -5.08486        -0.38491
| 37>    N       -4.58472        -4.96597        -1.60714
| 38>    C       -4.67827        -5.78653        -2.69877
| 39>    S       -3.94319        -7.33687        -2.85754
| 40>    C       -4.65371        -7.49819        -4.42296
| 41>    N       -4.40063        -8.68436        -5.12457
| 42>    O       -4.87818        -8.80287        -6.23558
| 43>    O       -3.72214        -9.51871        -4.55120
| 44>    C       -5.38495        -6.40534        -4.81792
| 45>    C       -5.45067        -5.42689        -3.81664
| 46>    C       -6.23370        -4.21631        -3.94026
| 47>    C       -7.00307        -3.68342        -2.96709
| 48>    C       -7.71902        -2.45838        -3.08961
| 49>    S       -7.50100        -1.40295        -4.45356
| 50>    C       -8.55399        -0.19379        -3.76666
| 51>    C       -9.10056        -0.64142        -2.55895
| 52>    C       -8.61767        -1.91426        -2.17976
| 53>    O       -9.01639        -2.52495        -1.03349
| 54>    O      -10.03523         0.11144        -1.94909
| 55>    C      -10.44659        -0.19705        -0.63160
| 56>    C       -8.70095         1.02214        -4.45502
| 57>    C       -9.17649         2.23231        -4.01309
| 58>    C       -9.21474         3.40358        -4.81688
| 59>    C       -9.61152         4.52676        -4.16038
| 60>    C       -9.90595         4.30452        -2.79554
| 61>    S       -9.69165         2.62212        -2.38566
| 62>    C      -10.30141         5.23409        -1.84962
| 63>    C      -10.47635         6.62496        -2.01013
| 64>    C      -10.83692         7.27303        -0.86612
| 65>    C      -10.96089         6.42786         0.26056
| 66>    S      -10.65230         4.77282        -0.20056
| 67>    C      -11.36321         6.73499         1.54756
| 68>    C      -11.44181         8.00270         2.12128
| 69>    C      -10.69500         9.12600         1.80744
| 70>    C      -10.91784        10.44132         2.35124
| 71>    C      -12.08168        10.89511         2.92648
| 72>    C      -12.25536        12.19741         3.43208
| 73>    N      -12.44912        13.24433         3.86390
| 74>    C      -13.26208        10.13439         3.04262
| 75>    N      -14.26651         9.58536         3.14242
| 76>    C       -9.72412        11.24323         2.10011
| 77>    C       -8.80244        10.45216         1.37330
| 78>    C       -9.38143         9.11056         1.13916
| 79>    O       -8.82714         8.18719         0.57180
| 80>    C       -7.57224        10.92002         0.98399
| 81>    C       -7.23607        12.23490         1.32714
| 82>    C       -8.16297        13.01632         2.05429
| 83>    C       -9.40911        12.54150         2.44886
| 84>    S       -7.54193        14.60663         2.38029
| 85>    C       -6.06643        14.20539         1.54259
| 86>    C       -6.03755        12.94670         1.04509
| 87>   Br       -4.70160        15.48573         1.40543
| 88>    H        1.07085        -8.24499         4.35043
| 89>    H        2.51666        -9.05481        -0.32142
| 90>    H       -0.93102        -7.10004         3.55786
| 91>    H        0.48539        -7.87377        -1.16262
| 92>    H       -4.47985        -4.40693         0.33401
| 93>    H       -5.12148        -4.11386        -1.75031
| 94>    H       -5.87403        -6.33891        -5.77246
| 95>    H       -6.22848        -3.74199        -4.91230
| 96>    H       -7.12929        -4.21677        -2.02925
| 97>    H       -8.64261        -3.41114        -0.96986
| 98>    H      -11.09181         0.62881        -0.33718
| 99>    H       -9.59516        -0.25701         0.04841
|100>    H      -11.00371        -1.13485        -0.59993
|101>    H       -8.31515         1.01665        -5.46782
|102>    H       -8.94322         3.37191        -5.85747
|103>    H       -9.70340         5.49545        -4.61703
|104>    H      -10.33318         7.11092        -2.95852
|105>    H      -11.05591         8.32341        -0.80938
|106>    H      -11.68493         5.90433         2.16295
|107>    H      -12.10570         8.08439         2.97442
|108>    H       -6.88977        10.29369         0.43106
|109>    H      -10.07943        13.17278         3.00794
|110>    H       -5.20605        12.53438         0.50316
|111> *
|112>
|113>                          ****END OF INPUT****

CARTESIAN COORDINATES (ANGSTROEM)
---------------------------------
  C      1.371650   -8.412050    3.327930
  C      2.537240   -9.076510    3.066240
  F      3.302080   -9.515300    4.073440
  C      2.948280   -9.307590    1.738040
  F      4.094660   -9.960720    1.511420
  C      2.188160   -8.869720    0.689250
  C      0.983620   -8.180490    0.926460
  C      0.565510   -7.948660    2.269090
  C     -0.642840   -7.263090    2.531870
  C     -1.407040   -6.823190    1.483600
  C     -0.976980   -7.051760    0.145470
  C      0.183710   -7.709860   -0.139490
  C     -1.949560   -6.454520   -0.783200
  O     -1.843010   -6.339780   -1.992710
  C     -3.013870   -5.888970    0.053120
  C     -2.683300   -6.117920    1.446430
  C     -3.468780   -5.817810    2.529910
  C     -4.756850   -5.251970    2.445490
  N     -5.819980   -4.816810    2.420750
  C     -3.099590   -6.069550    3.867910
  N     -2.847780   -6.235750    4.974960
  C     -4.034340   -5.084860   -0.384910
  N     -4.584720   -4.965970   -1.607140
  C     -4.678270   -5.786530   -2.698770
  S     -3.943190   -7.336870   -2.857540
  C     -4.653710   -7.498190   -4.422960
  N     -4.400630   -8.684360   -5.124570
  O     -4.878180   -8.802870   -6.235580
  O     -3.722140   -9.518710   -4.551200
  C     -5.384950   -6.405340   -4.817920
  C     -5.450670   -5.426890   -3.816640
  C     -6.233700   -4.216310   -3.940260
  C     -7.003070   -3.683420   -2.967090
  C     -7.719020   -2.458380   -3.089610
  S     -7.501000   -1.402950   -4.453560
  C     -8.553990   -0.193790   -3.766660
  C     -9.100560   -0.641420   -2.558950
  C     -8.617670   -1.914260   -2.179760
  O     -9.016390   -2.524950   -1.033490
  O    -10.035230    0.111440   -1.949090
  C    -10.446590   -0.197050   -0.631600
  C     -8.700950    1.022140   -4.455020
  C     -9.176490    2.232310   -4.013090
  C     -9.214740    3.403580   -4.816880
  C     -9.611520    4.526760   -4.160380
  C     -9.905950    4.304520   -2.795540
  S     -9.691650    2.622120   -2.385660
  C    -10.301410    5.234090   -1.849620
  C    -10.476350    6.624960   -2.010130
  C    -10.836920    7.273030   -0.866120
  C    -10.960890    6.427860    0.260560
  S    -10.652300    4.772820   -0.200560
  C    -11.363210    6.734990    1.547560
  C    -11.441810    8.002700    2.121280
  C    -10.695000    9.126000    1.807440
  C    -10.917840   10.441320    2.351240
  C    -12.081680   10.895110    2.926480
  C    -12.255360   12.197410    3.432080
  N    -12.449120   13.244330    3.863900
  C    -13.262080   10.134390    3.042620
  N    -14.266510    9.585360    3.142420
  C     -9.724120   11.243230    2.100110
  C     -8.802440   10.452160    1.373300
  C     -9.381430    9.110560    1.139160
  O     -8.827140    8.187190    0.571800
  C     -7.572240   10.920020    0.983990
  C     -7.236070   12.234900    1.327140
  C     -8.162970   13.016320    2.054290
  C     -9.409110   12.541500    2.448860
  S     -7.541930   14.606630    2.380290
  C     -6.066430   14.205390    1.542590
  C     -6.037550   12.946700    1.045090
  Br    -4.701600   15.485730    1.405430
  H      1.070850   -8.244990    4.350430
  H      2.516660   -9.054810   -0.321420
  H     -0.931020   -7.100040    3.557860
  H      0.485390   -7.873770   -1.162620
  H     -4.479850   -4.406930    0.334010
  H     -5.121480   -4.113860   -1.750310
  H     -5.874030   -6.338910   -5.772460
  H     -6.228480   -3.741990   -4.912300
  H     -7.129290   -4.216770   -2.029250
  H     -8.642610   -3.411140   -0.969860
  H    -11.091810    0.628810   -0.337180
  H     -9.595160   -0.257010    0.048410
  H    -11.003710   -1.134850   -0.599930
  H     -8.315150    1.016650   -5.467820
  H     -8.943220    3.371910   -5.857470
  H     -9.703400    5.495450   -4.617030
  H    -10.333180    7.110920   -2.958520
  H    -11.055910    8.323410   -0.809380
  H    -11.684930    5.904330    2.162950
  H    -12.105700    8.084390    2.974420
  H     -6.889770   10.293690    0.431060
  H    -10.079430   13.172780    3.007940
  H     -5.206050   12.534380    0.503160

 Total Charge           Charge          ....    0
 Multiplicity           Mult            ....    1
 Number of Electrons    NEL             ....  564
 Basis Dimension        Dim             .... 1175

ORBITAL ENERGIES
----------------

  NO   OCC          E(Eh)            E(eV)
   0   2.0000    -482.877885    -13139.7753
   1   2.0000     -89.000207     -2421.8188
   2   2.0000     -88.977337     -2421.1964
   3   2.0000     -88.964978     -2420.8601
   4   2.0000     -88.961372     -2420.7620
   5   2.0000     -88.957589     -2420.6591
   6   2.0000     -62.555570     -1702.2236
   7   2.0000     -56.389505     -1534.4364
   8   2.0000     -56.386820     -1534.3634
   9   2.0000     -56.386781     -1534.3623
  10   2.0000     -24.804618      -674.9680
  11   2.0000     -24.803706      -674.9431
  12   2.0000     -19.284161      -524.7487
  13   2.0000     -19.273790      -524.4665
  14   2.0000     -19.244632      -523.6731
  15   2.0000     -19.244268      -523.6632
  16   2.0000     -19.231669      -523.3203
  17   2.0000     -19.197764      -522.3977
  18   2.0000     -14.656339      -398.8193
  19   2.0000     -14.523557      -395.2061
  20   2.0000     -14.432973      -392.7412
  21   2.0000     -14.426019      -392.5519
  22   2.0000     -14.398007      -391.7897
  23   2.0000     -14.396252      -391.7419
  24   2.0000     -10.388509      -282.6857
  25   2.0000     -10.387605      -282.6611
  26   2.0000     -10.384186      -282.5681
  27   2.0000     -10.381775      -282.5025
  28   2.0000     -10.381578      -282.4971
  29   2.0000     -10.370324      -282.1909
  30   2.0000     -10.364347      -282.0282
  31   2.0000     -10.357386      -281.8388
  32   2.0000     -10.354741      -281.7668
  33   2.0000     -10.350083      -281.6401
  34   2.0000     -10.348818      -281.6056
  35   2.0000     -10.348217      -281.5893
  36   2.0000     -10.336559      -281.2721
  37   2.0000     -10.332998      -281.1752
  38   2.0000     -10.330284      -281.1013
  39   2.0000     -10.328882      -281.0632
  40   2.0000     -10.327856      -281.0353
  41   2.0000     -10.327400      -281.0228
  42   2.0000     -10.326636      -281.0020
  43   2.0000     -10.326488      -280.9980
  44   2.0000     -10.325647      -280.9751
  45   2.0000     -10.321800      -280.8705
  46   2.0000     -10.320801      -280.8433
  47   2.0000     -10.318659      -280.7850
  48   2.0000     -10.318498      -280.7806
  49   2.0000     -10.318431      -280.7788
  50   2.0000     -10.318090      -280.7695
  51   2.0000     -10.317092      -280.7423
  52   2.0000     -10.317016      -280.7403
  53   2.0000     -10.315648      -280.7031
  54   2.0000     -10.314667      -280.6764
  55   2.0000     -10.313878      -280.6549
  56   2.0000     -10.312831      -280.6264
  57   2.0000     -10.312497      -280.6173
  58   2.0000     -10.311255      -280.5835
  59   2.0000     -10.308014      -280.4953
  60   2.0000     -10.307617      -280.4845
  61   2.0000     -10.306132      -280.4441
  62   2.0000     -10.303432      -280.3706
  63   2.0000     -10.302026      -280.3324
  64   2.0000     -10.301285      -280.3122
  65   2.0000     -10.300379      -280.2876
  66   2.0000     -10.299117      -280.2532
  67   2.0000     -10.298270      -280.2302
  68   2.0000     -10.295086      -280.1435
  69   2.0000     -10.292777      -280.0807
  70   2.0000     -10.291924      -280.0575
  71   2.0000     -10.287685      -279.9421
  72   2.0000     -10.287234      -279.9299
  73   2.0000     -10.287036      -279.9245
  74   2.0000     -10.277893      -279.6757
  75   2.0000     -10.277133      -279.6550
  76   2.0000     -10.274237      -279.5762
  77   2.0000      -8.784980      -239.0515
  78   2.0000      -8.094327      -220.2578
  79   2.0000      -8.072835      -219.6730
  80   2.0000      -8.060985      -219.3505
  81   2.0000      -8.056701      -219.2340
  82   2.0000      -8.054121      -219.1638
  83   2.0000      -6.621186      -180.1716
  84   2.0000      -6.606745      -179.7787
  85   2.0000      -6.606584      -179.7743
  86   2.0000      -6.063777      -165.0038
  87   2.0000      -6.059136      -164.8775
  88   2.0000      -6.056423      -164.8037
  89   2.0000      -6.042291      -164.4191
  90   2.0000      -6.038593      -164.3185
  91   2.0000      -6.034160      -164.1978
  92   2.0000      -6.030668      -164.1028
  93   2.0000      -6.026520      -163.9899
  94   2.0000      -6.026419      -163.9872
  95   2.0000      -6.023701      -163.9132
  96   2.0000      -6.022209      -163.8726
  97   2.0000      -6.022198      -163.8723
  98   2.0000      -6.019634      -163.8026
  99   2.0000      -6.017693      -163.7497
 100   2.0000      -6.015345      -163.6859
 101   2.0000      -2.737123       -74.4809
 102   2.0000      -2.732989       -74.3684
 103   2.0000      -2.732878       -74.3654
 104   2.0000      -2.721393       -74.0529
 105   2.0000      -2.721389       -74.0528
 106   2.0000      -1.327433       -36.1213
 107   2.0000      -1.326494       -36.0958
 108   2.0000      -1.312521       -35.7155
 109   2.0000      -1.188073       -32.3291
 110   2.0000      -1.168948       -31.8087
 111   2.0000      -1.149227       -31.2721
 112   2.0000      -1.145563       -31.1724
 113   2.0000      -1.118618       -30.4391
 114   2.0000      -1.111850       -30.2550
 115   2.0000      -1.033711       -28.1287
 116   2.0000      -1.020157       -27.7599
 117   2.0000      -1.015489       -27.6329
 118   2.0000      -1.011454       -27.5231
 119   2.0000      -1.009221       -27.4623
 120   2.0000      -1.007511       -27.4158
 121   2.0000      -1.005461       -27.3600
 122   2.0000      -0.997229       -27.1360
 123   2.0000      -0.991357       -26.9762
 124   2.0000      -0.986180       -26.8353
 125   2.0000      -0.976267       -26.5656
 126   2.0000      -0.973618       -26.4935
 127   2.0000      -0.946658       -25.7599
 128   2.0000      -0.940419       -25.5901
 129   2.0000      -0.930485       -25.3198
 130   2.0000      -0.919186       -25.0123
 131   2.0000      -0.911598       -24.8059
 132   2.0000      -0.904170       -24.6037
 133   2.0000      -0.900442       -24.5023
 134   2.0000      -0.895955       -24.3802
 135   2.0000      -0.893395       -24.3105
 136   2.0000      -0.878920       -23.9166
 137   2.0000      -0.875035       -23.8109
 138   2.0000      -0.873114       -23.7586
 139   2.0000      -0.867664       -23.6103
 140   2.0000      -0.859513       -23.3885
 141   2.0000      -0.856026       -23.2937
 142   2.0000      -0.849462       -23.1150
 143   2.0000      -0.844431       -22.9781
 144   2.0000      -0.838159       -22.8075
 145   2.0000      -0.827586       -22.5198
 146   2.0000      -0.820795       -22.3350
 147   2.0000      -0.816634       -22.2217
 148   2.0000      -0.798238       -21.7212
 149   2.0000      -0.792898       -21.5758
 150   2.0000      -0.780418       -21.2363
 151   2.0000      -0.778053       -21.1719
 152   2.0000      -0.767319       -20.8798
 153   2.0000      -0.744895       -20.2696
 154   2.0000      -0.742160       -20.1952
 155   2.0000      -0.738486       -20.0952
 156   2.0000      -0.731531       -19.9060
 157   2.0000      -0.725030       -19.7291
 158   2.0000      -0.722812       -19.6687
 159   2.0000      -0.710393       -19.3308
 160   2.0000      -0.703514       -19.1436
 161   2.0000      -0.701223       -19.0812
 162   2.0000      -0.693182       -18.8624
 163   2.0000      -0.688671       -18.7397
 164   2.0000      -0.677007       -18.4223
 165   2.0000      -0.673878       -18.3372
 166   2.0000      -0.672521       -18.3002
 167   2.0000      -0.664519       -18.0825
 168   2.0000      -0.660993       -17.9865
 169   2.0000      -0.651797       -17.7363
 170   2.0000      -0.649420       -17.6716
 171   2.0000      -0.645003       -17.5514
 172   2.0000      -0.644521       -17.5383
 173   2.0000      -0.639622       -17.4050
 174   2.0000      -0.639512       -17.4020
 175   2.0000      -0.638079       -17.3630
 176   2.0000      -0.637804       -17.3555
 177   2.0000      -0.628777       -17.1099
 178   2.0000      -0.621824       -16.9207
 179   2.0000      -0.619056       -16.8454
 180   2.0000      -0.614042       -16.7089
 181   2.0000      -0.609282       -16.5794
 182   2.0000      -0.605399       -16.4737
 183   2.0000      -0.599330       -16.3086
 184   2.0000      -0.598119       -16.2756
 185   2.0000      -0.591911       -16.1067
 186   2.0000      -0.590295       -16.0627
 187   2.0000      -0.585530       -15.9331
 188   2.0000      -0.580438       -15.7945
 189   2.0000      -0.580137       -15.7863
 190   2.0000      -0.577298       -15.7091
 191   2.0000      -0.568960       -15.4822
 192   2.0000      -0.567944       -15.4546
 193   2.0000      -0.564108       -15.3502
 194   2.0000      -0.560639       -15.2558
 195   2.0000      -0.557698       -15.1757
 196   2.0000      -0.553329       -15.0568
 197   2.0000      -0.552714       -15.0401
 198   2.0000      -0.551398       -15.0043
 199   2.0000      -0.547909       -14.9094
 200   2.0000      -0.540555       -14.7093
 201   2.0000      -0.538134       -14.6434
 202   2.0000      -0.535493       -14.5715
 203   2.0000      -0.534199       -14.5363
 204   2.0000      -0.532729       -14.4963
 205   2.0000      -0.528258       -14.3746
 206   2.0000      -0.527661       -14.3584
 207   2.0000      -0.524960       -14.2849
 208   2.0000      -0.524513       -14.2727
 209   2.0000      -0.522563       -14.2197
 210   2.0000      -0.520499       -14.1635
 211   2.0000      -0.518871       -14.1192
 212   2.0000      -0.513338       -13.9686
 213   2.0000      -0.511647       -13.9226
 214   2.0000      -0.510772       -13.8988
 215   2.0000      -0.510148       -13.8818
 216   2.0000      -0.507494       -13.8096
 217   2.0000      -0.503900       -13.7118
 218   2.0000      -0.500941       -13.6313
 219   2.0000      -0.497697       -13.5430
 220   2.0000      -0.495027       -13.4704
 221   2.0000      -0.494116       -13.4456
 222   2.0000      -0.484563       -13.1856
 223   2.0000      -0.483316       -13.1517
 224   2.0000      -0.480384       -13.0719
 225   2.0000      -0.478733       -13.0270
 226   2.0000      -0.476617       -12.9694
 227   2.0000      -0.472855       -12.8670
 228   2.0000      -0.472100       -12.8465
 229   2.0000      -0.468527       -12.7493
 230   2.0000      -0.466086       -12.6829
 231   2.0000      -0.465522       -12.6675
 232   2.0000      -0.462874       -12.5954
 233   2.0000      -0.460431       -12.5290
 234   2.0000      -0.458574       -12.4784
 235   2.0000      -0.457579       -12.4514
 236   2.0000      -0.454412       -12.3652
 237   2.0000      -0.448315       -12.1993
 238   2.0000      -0.446524       -12.1505
 239   2.0000      -0.445235       -12.1155
 240   2.0000      -0.443937       -12.0801
 241   2.0000      -0.441825       -12.0227
 242   2.0000      -0.439194       -11.9511
 243   2.0000      -0.438791       -11.9401
 244   2.0000      -0.434032       -11.8106
 245   2.0000      -0.433651       -11.8002
 246   2.0000      -0.432457       -11.7678
 247   2.0000      -0.428382       -11.6569
 248   2.0000      -0.426242       -11.5986
 249   2.0000      -0.425287       -11.5727
 250   2.0000      -0.423376       -11.5206
 251   2.0000      -0.419194       -11.4069
 252   2.0000      -0.410956       -11.1827
 253   2.0000      -0.408422       -11.1137
 254   2.0000      -0.404350       -11.0029
 255   2.0000      -0.403703       -10.9853
 256   2.0000      -0.397452       -10.8152
 257   2.0000      -0.394541       -10.7360
 258   2.0000      -0.392311       -10.6753
 259   2.0000      -0.391638       -10.6570
 260   2.0000      -0.389665       -10.6033
 261   2.0000      -0.384699       -10.4682
 262   2.0000      -0.378213       -10.2917
 263   2.0000      -0.373273       -10.1573
 264   2.0000      -0.371253       -10.1023
 265   2.0000      -0.367418        -9.9980
 266   2.0000      -0.366298        -9.9675
 267   2.0000      -0.355714        -9.6795
 268   2.0000      -0.348463        -9.4822
 269   2.0000      -0.344804        -9.3826
 270   2.0000      -0.338546        -9.2123
 271   2.0000      -0.333770        -9.0823
 272   2.0000      -0.326058        -8.8725
 273   2.0000      -0.323428        -8.8009
 274   2.0000      -0.315422        -8.5831
 275   2.0000      -0.307942        -8.3795
 276   2.0000      -0.307106        -8.3568
 277   2.0000      -0.302857        -8.2412
 278   2.0000      -0.293007        -7.9731
 279   2.0000      -0.282608        -7.6902
 280   2.0000      -0.272166        -7.4060
 281   2.0000      -0.226300        -6.1579
 282   0.0000      -0.109064        -2.9678
 283   0.0000      -0.099305        -2.7022
 284   0.0000      -0.070156        -1.9090
 285   0.0000      -0.063449        -1.7265
 286   0.0000      -0.055686        -1.5153

MULLIKEN ATOMIC CHARGES
-----------------------
   0 C :   -0.113222
   1 C :    0.245329
   2 F :   -0.168349
   3 C :    0.242783
   4 F :   -0.168800
   5 C :   -0.108457
   6 C :    0.120216
   7 C :    0.118278
   8 C :   -0.088453
   9 C :    0.047446
  10 C :    0.008441
  11 C :   -0.084901
  12 C :    0.146689
  13 O :   -0.172670
  14 C :   -0.136423
  15 C :    0.306108
  16 C :   -0.337458
  17 C :   -0.210316
  18 N :    0.141155
  19 C :   -0.177905
  20 N :    0.148979
  21 C :    0.012110
  22 N :    0.036754
  23 C :   -0.099054
  24 S :    0.240943
  25 C :   -0.017446
  26 N :    0.272888
  27 O :   -0.245870
  28 O :   -0.260996
  29 C :    0.021989
  30 C :    0.091283
  31 C :   -0.047692
  32 C :   -0.050401
  33 C :   -0.135807
  34 S :    0.124790
  35 C :   -0.170816
  36 C :    0.193789
  37 C :    0.103775
  38 O :   -0.177622
  39 O :   -0.315214
  40 C :    0.190020
  41 C :    0.032924
  42 C :   -0.025368
  43 C :    0.043243
  44 C :    0.027552
  45 C :   -0.020072
  46 S :    0.117532
  47 C :   -0.063572
  48 C :    0.016052
  49 C :    0.092655
  50 C :   -0.026526
  51 S :    0.107395
  52 C :    0.017743
  53 C :   -0.002960
  54 C :   -0.131282
  55 C :    0.290888
  56 C :   -0.353052
  57 C :   -0.184488
  58 N :    0.138743
  59 C :   -0.216789
  60 N :    0.152366
  61 C :    0.019111
  62 C :   -0.006816
  63 C :    0.122547
  64 O :   -0.163964
  65 C :   -0.086489
  66 C :    0.120785
  67 C :   -0.090427
  68 C :   -0.031767
  69 S :    0.178886
  70 C :   -0.123472
  71 C :    0.035026
  72 Br:    0.013232
  73 H :    0.008500
  74 H :    0.001846
  75 H :   -0.004225
  76 H :   -0.006672
  77 H :    0.051350
  78 H :    0.150741
  79 H :    0.008100
  80 H :    0.022453
  81 H :   -0.019962
  82 H :    0.189117
  83 H :    0.039291
  84 H :    0.032212
  85 H :    0.038966
  86 H :   -0.008382
  87 H :   -0.004118
  88 H :   -0.006885
  89 H :   -0.009389
  90 H :    0.001318
  91 H :   -0.004736
  92 H :    0.029714
  93 H :   -0.018083
  94 H :   -0.008295
  95 H :   -0.008386
Sum of atomic charges:   -0.0000000

LOEWDIN ATOMIC CHARGES
----------------------
   0 C :   -0.028411
   1 C :    0.067481
   2 F :   -0.046840
   3 C :    0.069388
   4 F :   -0.046723
   5 C :   -0.031969
   6 C :   -0.007455
   7 C :   -0.007452
   8 C :    0.021536
   9 C :   -0.025737
  10 C :   -0.051189
  11 C :    0.031228
  12 C :    0.064243
  13 O :   -0.174519
  14 C :   -0.146289
  15 C :    0.082977
  16 C :   -0.147732
  17 C :   -0.022154
  18 N :   -0.064777
  19 C :   -0.019587
  20 N :   -0.049687
  21 C :    0.098830
  22 N :    0.085868
  23 C :   -0.119190
  24 S :    0.555705
  25 C :   -0.212524
  26 N :    0.273564
  27 O :   -0.211397
  28 O :   -0.228040
  29 C :   -0.010526
  30 C :   -0.093970
  31 C :   -0.025894
  32 C :   -0.062752
  33 C :   -0.223170
  34 S :    0.431273
  35 C :   -0.194560
  36 C :    0.004470
  37 C :    0.002030
  38 O :   -0.041279
  39 O :   -0.094046
  40 C :    0.081476
  41 C :   -0.051136
  42 C :   -0.151805
  43 C :   -0.011630
  44 C :   -0.038576
  45 C :   -0.151257
  46 S :    0.420384
  47 C :   -0.192062
  48 C :   -0.007248
  49 C :   -0.023746
  50 C :   -0.086581
  51 S :    0.401061
  52 C :   -0.089849
  53 C :    0.056846
  54 C :   -0.128255
  55 C :    0.073978
  56 C :   -0.156501
  57 C :   -0.019205
  58 N :   -0.067947
  59 C :   -0.026546
  60 N :   -0.064619
  61 C :   -0.019963
  62 C :   -0.046787
  63 C :    0.070592
  64 O :   -0.155247
  65 C :    0.013186
  66 C :   -0.036689
  67 C :   -0.147455
  68 C :   -0.013511
  69 S :    0.426833
  70 C :   -0.275406
  71 C :   -0.072001
  72 Br:    0.128671
  73 H :    0.048100
  74 H :    0.045836
  75 H :    0.040705
  76 H :    0.041829
  77 H :    0.045748
  78 H :    0.100772
  79 H :    0.046037
  80 H :    0.032503
  81 H :    0.021869
  82 H :    0.096147
  83 H :    0.025631
  84 H :    0.020532
  85 H :    0.021745
  86 H :    0.037898
  87 H :    0.036343
  88 H :    0.034075
  89 H :    0.034629
  90 H :    0.036977
  91 H :    0.033226
  92 H :    0.045584
  93 H :    0.037369
  94 H :    0.040052
  95 H :    0.036660

  Mayer bond orders larger than 0.100000
B(  0-C ,  1-C ) :   1.4385 B(  0-C ,  5-C ) :   0.1083 B(  0-C ,  7-C ) :   1.1872
B(  0-C , 73-H ) :   1.0082 B(  1-C ,  2-F ) :   1.1382 B(  1-C ,  3-C ) :   1.1919
B(  3-C ,  4-F ) :   1.1367 B(  3-C ,  5-C ) :   1.4388 B(  5-C ,  6-C ) :   1.1941
B(  5-C , 74-H ) :   1.0082 B(  6-C ,  7-C ) :   1.2585 B(  6-C , 11-C ) :   1.1816
B(  7-C ,  8-C ) :   1.2126 B(  8-C ,  9-C ) :   1.4501 B(  8-C , 75-H ) :   0.9921
B(  9-C , 10-C ) :   1.2221 B(  9-C , 15-C ) :   0.9980 B( 10-C , 11-C ) :   1.4735
B( 10-C , 12-C ) :   0.9412 B( 11-C , 76-H ) :   1.0194 B( 12-C , 13-O ) :   2.1682
B( 12-C , 14-C ) :   0.9785 B( 14-C , 15-C ) :   1.1033 B( 14-C , 21-C ) :   1.4916
B( 15-C , 16-C ) :   1.6327 B( 16-C , 17-C ) :   1.1393 B( 16-C , 19-C ) :   1.1426
B( 17-C , 18-N ) :   2.9875 B( 19-C , 20-N ) :   2.9655 B( 21-C , 22-N ) :   1.3296
B( 21-C , 77-H ) :   0.9338 B( 22-N , 23-C ) :   1.1607 B( 22-N , 78-H ) :   0.8791
B( 23-C , 24-S ) :   1.1648 B( 23-C , 30-C ) :   1.3882 B( 24-S , 25-C ) :   1.1402
B( 25-C , 26-N ) :   0.9652 B( 25-C , 29-C ) :   1.4480 B( 26-N , 27-O ) :   1.5414
B( 26-N , 28-O ) :   1.5159 B( 27-O , 28-O ) :   0.2611 B( 29-C , 30-C ) :   1.2740
B( 29-C , 79-H ) :   1.0052 B( 30-C , 31-C ) :   1.0355 B( 31-C , 32-C ) :   1.7098
B( 31-C , 80-H ) :   0.9651 B( 32-C , 33-C ) :   1.1390 B( 32-C , 81-H ) :   0.9637
B( 33-C , 34-S ) :   1.0852 B( 33-C , 35-C ) :   0.1145 B( 33-C , 37-C ) :   1.4246
B( 34-S , 35-C ) :   1.0939 B( 35-C , 36-C ) :   1.4454 B( 35-C , 41-C ) :   1.1738
B( 36-C , 37-C ) :   1.2230 B( 36-C , 39-O ) :   1.1764 B( 37-C , 38-O ) :   1.2409
B( 38-O , 82-H ) :   0.9522 B( 39-O , 40-C ) :   0.9119 B( 40-C , 83-H ) :   0.9743
B( 40-C , 84-H ) :   0.9742 B( 40-C , 85-H ) :   0.9768 B( 41-C , 42-C ) :   1.6052
B( 41-C , 86-H ) :   0.9403 B( 42-C , 43-C ) :   1.1412 B( 42-C , 46-S ) :   1.0424
B( 43-C , 44-C ) :   1.5881 B( 43-C , 87-H ) :   0.9993 B( 44-C , 45-C ) :   1.1853
B( 44-C , 88-H ) :   0.9952 B( 45-C , 46-S ) :   1.0623 B( 45-C , 47-C ) :   1.4765
B( 47-C , 48-C ) :   1.2104 B( 47-C , 51-S ) :   1.0394 B( 48-C , 49-C ) :   1.5651
B( 48-C , 89-H ) :   0.9946 B( 49-C , 50-C ) :   1.1968 B( 49-C , 90-H ) :   0.9823
B( 50-C , 51-S ) :   1.1011 B( 50-C , 52-C ) :   1.4311 B( 52-C , 53-C ) :   1.3745
B( 52-C , 91-H ) :   0.9420 B( 53-C , 54-C ) :   1.4332 B( 53-C , 92-H ) :   0.9479
B( 54-C , 55-C ) :   1.1140 B( 54-C , 63-C ) :   0.9867 B( 55-C , 56-C ) :   1.6062
B( 55-C , 61-C ) :   0.9938 B( 56-C , 57-C ) :   1.1451 B( 56-C , 59-C ) :   1.1458
B( 57-C , 58-N ) :   2.9678 B( 59-C , 60-N ) :   3.0057 B( 61-C , 62-C ) :   1.2746
B( 61-C , 68-C ) :   1.4232 B( 62-C , 63-C ) :   0.9350 B( 62-C , 65-C ) :   1.4338
B( 63-C , 64-O ) :   2.1833 B( 65-C , 66-C ) :   1.2359 B( 65-C , 93-H ) :   1.0166
B( 66-C , 67-C ) :   1.3179 B( 66-C , 71-C ) :   1.1610 B( 67-C , 68-C ) :   1.3154
B( 67-C , 69-S ) :   1.0822 B( 68-C , 94-H ) :   0.9809 B( 69-S , 70-C ) :   1.0861
B( 70-C , 71-C ) :   1.6209 B( 70-C , 72-Br) :   1.0131 B( 71-C , 95-H ) :   0.9997

-----------------------------------------------------------------------------
         ABSORPTION SPECTRUM VIA TRANSITION ELECTRIC DIPOLE MOMENTS
-----------------------------------------------------------------------------
State   Energy  Wavelength   fosc         T2         TX        TY        TZ
        (cm-1)    (nm)                  (au**2)     (au)      (au)      (au)
-----------------------------------------------------------------------------
   0   11863.5    842.9   1.691504968  46.93926  -1.62114   6.12275   2.61210
   1   17860.4    559.9   0.158351905   2.91882   0.75647   0.19736   1.51909
   2   20537.3    486.9   0.064877221   1.03998   0.47886  -0.74547   0.50493
   3   21368.1    468.0   0.136954558   2.11001  -0.68312   0.96497  -0.84392
   4   23060.5    433.6   0.039754738   0.56754   0.49393  -0.54045  -0.17744
   5   23880.0    418.8   0.565186048   7.79172   1.44976   0.00954   2.38533
   6   25162.2    397.4   0.009419139   0.12324  -0.10993  -0.03217   0.33184
   7   25364.1    394.3   0.082528987   1.07118   0.98342   0.31346  -0.07617
   8   26000.8    384.6   0.094640350   1.19830   0.77373  -0.67985   0.37074
   9   27178.2    367.9   0.125278087   1.51751  -0.57596   0.60331   0.90653
  10   27654.3    361.6   0.017060669   0.20310   0.42226  -0.07594  -0.13795
  11   28066.2    356.3   0.076746571   0.90022  -0.60200   0.67033   0.29745
  12   28266.7    353.8   0.006168085   0.07184  -0.05349   0.09947   0.24307
  13   28990.9    344.9   0.011784299   0.13382   0.21420  -0.24374  -0.16891
  14   29231.3    342.1   0.013768136   0.15506   0.32009  -0.20830  -0.09598
  15   29531.5    338.6   0.185389151   2.06668   0.87538  -0.30754   1.09810
  16   30038.1    332.9   0.154933531   1.69804   0.69815  -0.92585  -0.59450
  17   30217.7    330.9   0.129866007   1.41485  -1.17955   0.07958  -0.13102
  18   30359.0    329.4   0.005482282   0.05945  -0.13132   0.14193   0.14852
  19   30826.6    324.4   0.116126936   1.24017   1.04466   0.26583   0.27963
  20   31390.6    318.6   0.114897773   1.20500  -0.88904   0.64363  -0.01847
  21   31740.5    315.1   0.181441539   1.88191  -1.18649  -0.66570  -0.17608
  22   31932.2    313.2   0.258194382   2.66191  -1.26706  -0.97757   0.31751
  23   32284.6    309.7   0.034655380   0.35339   0.58736   0.04705   0.07861
  24   32995.5    303.1   0.095501911   0.95287  -0.04302   0.30901   0.92495
  25   33360.5    299.8   0.141833454   1.39966   0.44603  -1.09379  -0.06592
  26   33751.4    296.3   0.042309292   0.41269   0.49076   0.38191   0.16119
  27   33977.8    294.3   0.017796159   0.17243   0.40419  -0.02519   0.09178
  28   34259.3    291.9   0.139578601   1.34127   1.12787  -0.23342   0.12124
  29   34482.4    290.0   0.598299997   5.71212  -1.97529   0.81342   1.07177
  30   34686.9    288.3   0.293849249   2.78891  -0.53392  -1.42392   0.69015
  31   35536.1    281.4   0.148298981   1.37387  -0.83829   0.20668   0.79273
  32   35697.7    280.1   0.011308363   0.10429  -0.31743   0.04702  -0.03631
  33   35910.8    278.5   0.019792125   0.18144  -0.39856   0.09588  -0.11575
  34   35967.8    278.0   0.048870143   0.44731  -0.66412   0.07684  -0.01874
  35   36318.3    275.3   0.056257380   0.50995  -0.49486  -0.44776   0.25413
  36   36553.6    273.6   0.063483476   0.57175  -0.03505   0.04851  -0.75377
  37   37055.3    269.9   0.211362525   1.87782  -1.12514   0.51392   0.58972
  38   37414.2    267.3   0.110873403   0.97559   0.75955  -0.15778  -0.61138
  39   37991.4    263.2   0.013451153   0.11656   0.10480  -0.31926   0.06041
  40   38172.9    262.0   0.113691862   0.98051   0.46922  -0.67686  -0.54973
  41   38552.9    259.4   0.046430196   0.39648  -0.02365   0.46903   0.41944
  42   38826.1    257.6   0.040591069   0.34418  -0.34644   0.31439  -0.35400
  43   38986.9    256.5   0.049877079   0.42117   0.06706  -0.01077   0.64541
  44   39198.6    255.1   0.068245210   0.57316   0.43003   0.18454   0.59513
  45   39575.0    252.7   0.010778671   0.08966   0.02700  -0.03385   0.29629
  46   39723.4    251.7   0.000965055   0.00800   0.00893  -0.00372  -0.08891
  47   39971.9    250.2   0.047728904   0.39310   0.40636  -0.45225   0.15310
  48   40064.6    249.6   0.025711731   0.21127  -0.29486   0.30974  -0.16850
  49   40149.6    249.1   0.219383917   1.79887  -0.80653   0.98812   0.41472

FINAL SINGLE POINT ENERGY     -7573.358501033288

DIPOLE MOMENT
-------------
                                X             Y             Z
Electronic contribution:     50.99312     124.44223      31.84434
Nuclear contribution   :    -48.67077    -126.70823     -35.12051
                        -----------------------------------------
Total Dipole Moment    :      2.32235      -2.26600      -3.27617
                        -----------------------------------------
Magnitude (a.u.)       :      4.61100
Magnitude (Debye)      :     11.72024

Rotational constants in cm-1:     0.000899     0.000177     0.000160
Rotational constants in MHz :    26.945565     5.292215     4.802408

                             ****ORCA TERMINATED NORMALLY****
TOTAL RUN TIME: 0 days 0 hours 21 minutes 49 seconds 459 msec
