                         Program Version 4.2.0 -  RELEASE  -
|  1> # ORCA input file
|  2> # SCF done       -193.209236136870          0.000445237676
|  3> ! CAM-B3LYP def2-SVP def2/J RIJCOSX Grid4 TightSCF
|  4> %maxcore 5000
|  5> %tddft
|  6>     Mode sTDDFT
|  7>     Ethresh 5.0
|  8>     maxcore 5000
|  9> end
| 10>
| 11> %pal
| 12>   nprocs 6
| 13>   end
| 14> * xyz 0 1
| 15>    C      -11.23596         1.23637        -2.41875
| 16>    C      -12.33117         1.49081        -3.19627
| 17>    F      -12.66364         2.75221        -3.49992
| 18>    C      -13.12095         0.43377        -3.68999
| 19>    F      -14.18699         0.71134        -4.45307
| 20>    C      -12.80592        -0.86419        -3.39761
| 21>    C      -11.68313        -1.15838        -2.60132
| 22>    C      -10.88200        -0.09056        -2.10296
| 23>    C       -9.74529        -0.36294        -1.30684
| 24>    C       -9.41924        -1.66328        -1.02416
| 25>    C      -10.22664        -2.72162        -1.52286
| 26>    C      -11.33106        -2.49156        -2.28892
| 27>    C       -9.66758        -4.01953        -1.08557
| 28>    O      -10.15049        -5.10542        -1.32637
| 29>    C       -8.41930        -3.68878        -0.35845
| 30>    C       -8.32970        -2.25022        -0.25412
| 31>    C       -7.42331        -1.53597         0.50231
| 32>    C       -7.35276        -0.12940         0.52407
| 33>    N       -7.23842         1.01244         0.57599
| 34>    C       -6.49005        -2.09561         1.38282
| 35>    N       -5.73354        -2.45246         2.17692
| 36>    C       -7.38272        -4.52596        -0.01673
| 37>    C       -7.26383        -5.93410         0.02850
| 38>    C       -8.31362        -6.86704         0.05854
| 39>    C       -8.11376        -8.21692         0.27407
| 40>    C       -6.84442        -8.76335         0.49438
| 41>    C       -5.73901        -7.88340         0.25052
| 42>    C       -5.94109        -6.47222         0.10662
| 43>    N       -4.81362        -5.77128        -0.00011
| 44>   Se       -3.44471        -6.87040         0.01809
| 45>    N       -4.47267        -8.26904         0.14255
| 46>    C       -6.60833       -10.09920         0.92306
| 47>    C       -5.53953       -10.40578         1.73634
| 48>    C       -4.78103       -11.59584         1.85045
| 49>    C       -3.56432       -11.41260         2.44885
| 50>    C       -3.34212       -10.08476         2.87728
| 51>    S       -4.81902        -9.16496         2.74870
| 52>    C       -2.16786        -9.37969         3.08227
| 53>    C       -0.83259        -9.82184         3.19716
| 54>    C        0.06893        -8.80293         3.16515
| 55>    C       -0.49913        -7.50457         3.01465
| 56>    S       -2.24027        -7.63532         2.94909
| 57>    C        0.25003        -6.35686         2.94459
| 58>    C       -0.10464        -4.99289         2.79981
| 59>    C        0.91204        -4.03587         2.93383
| 60>    C        0.68578        -2.67172         2.92772
| 61>    C       -0.59379        -2.13472         2.81926
| 62>    C       -1.65182        -3.05489         2.57834
| 63>    C       -1.41551        -4.47957         2.54473
| 64>    N       -2.49230        -5.18058         2.24619
| 65>   Se       -3.87725        -4.10636         2.04950
| 66>    N       -2.90527        -2.69850         2.33958
| 67>    C       -0.82604        -0.72614         2.88958
| 68>    C       -1.96063        -0.08067         3.26505
| 69>    C       -2.17614         1.33369         2.84305
| 70>    O       -1.34159         2.09899         2.41927
| 71>    C       -3.62784         1.55946         2.99626
| 72>    C       -4.38119         2.62439         2.59241
| 73>    C       -5.77796         2.59684         2.80276
| 74>    C       -6.36716         1.46717         3.44109
| 75>    C       -7.76334         1.43756         3.62912
| 76>    C       -8.53842         2.47255         3.18988
| 77>    C       -7.95543         3.58793         2.55814
| 78>    C       -6.60349         3.65401         2.37456
| 79>    F       -8.74365         4.58900         2.13864
| 80>    F       -9.87019         2.43315         3.35399
| 81>    C       -5.56201         0.38412         3.85837
| 82>    C       -4.21225         0.42901         3.63562
| 83>    C       -3.16095        -0.53333         3.93907
| 84>    C       -3.25285        -1.54199         4.85953
| 85>    C       -2.16234        -2.33809         5.26172
| 86>    N       -1.30085        -2.99630         5.64063
| 87>    C       -4.43566        -1.87020         5.55323
| 88>    N       -5.36347        -2.18321         6.15226
| 89>    H      -10.64347         2.05770        -2.04695
| 90>    H      -13.42120        -1.66215        -3.78286
| 91>    H       -9.15618         0.46603        -0.94983
| 92>    H      -11.92747        -3.31387        -2.65389
| 93>    H       -6.44508        -4.03233         0.22463
| 94>    H       -9.32350        -6.50540        -0.03922
| 95>    H       -8.97361        -8.86369         0.36833
| 96>    H       -7.26889       -10.88471         0.58150
| 97>    H       -5.09172       -12.51179         1.37938
| 98>    H       -2.80124       -12.16818         2.51166
| 99>    H       -0.57570       -10.86202         3.29165
|100>    H        1.13518        -8.93737         3.22324
|101>    H        1.31762        -6.52094         3.05285
|102>    H        1.92226        -4.38797         3.08528
|103>    H        1.51790        -1.99978         3.07733
|104>    H       -0.02094        -0.08756         2.53808
|105>    H       -3.92062         3.47173         2.10741
|106>    H       -8.22465         0.58994         4.11180
|107>    H       -6.17310         4.51303         1.88433
|108>    H       -6.03127        -0.46987         4.31973
|109> *
|110>
|111>                          ****END OF INPUT****

CARTESIAN COORDINATES (ANGSTROEM)
---------------------------------
  C    -11.235960    1.236370   -2.418750
  C    -12.331170    1.490810   -3.196270
  F    -12.663640    2.752210   -3.499920
  C    -13.120950    0.433770   -3.689990
  F    -14.186990    0.711340   -4.453070
  C    -12.805920   -0.864190   -3.397610
  C    -11.683130   -1.158380   -2.601320
  C    -10.882000   -0.090560   -2.102960
  C     -9.745290   -0.362940   -1.306840
  C     -9.419240   -1.663280   -1.024160
  C    -10.226640   -2.721620   -1.522860
  C    -11.331060   -2.491560   -2.288920
  C     -9.667580   -4.019530   -1.085570
  O    -10.150490   -5.105420   -1.326370
  C     -8.419300   -3.688780   -0.358450
  C     -8.329700   -2.250220   -0.254120
  C     -7.423310   -1.535970    0.502310
  C     -7.352760   -0.129400    0.524070
  N     -7.238420    1.012440    0.575990
  C     -6.490050   -2.095610    1.382820
  N     -5.733540   -2.452460    2.176920
  C     -7.382720   -4.525960   -0.016730
  C     -7.263830   -5.934100    0.028500
  C     -8.313620   -6.867040    0.058540
  C     -8.113760   -8.216920    0.274070
  C     -6.844420   -8.763350    0.494380
  C     -5.739010   -7.883400    0.250520
  C     -5.941090   -6.472220    0.106620
  N     -4.813620   -5.771280   -0.000110
  Se    -3.444710   -6.870400    0.018090
  N     -4.472670   -8.269040    0.142550
  C     -6.608330  -10.099200    0.923060
  C     -5.539530  -10.405780    1.736340
  C     -4.781030  -11.595840    1.850450
  C     -3.564320  -11.412600    2.448850
  C     -3.342120  -10.084760    2.877280
  S     -4.819020   -9.164960    2.748700
  C     -2.167860   -9.379690    3.082270
  C     -0.832590   -9.821840    3.197160
  C      0.068930   -8.802930    3.165150
  C     -0.499130   -7.504570    3.014650
  S     -2.240270   -7.635320    2.949090
  C      0.250030   -6.356860    2.944590
  C     -0.104640   -4.992890    2.799810
  C      0.912040   -4.035870    2.933830
  C      0.685780   -2.671720    2.927720
  C     -0.593790   -2.134720    2.819260
  C     -1.651820   -3.054890    2.578340
  C     -1.415510   -4.479570    2.544730
  N     -2.492300   -5.180580    2.246190
  Se    -3.877250   -4.106360    2.049500
  N     -2.905270   -2.698500    2.339580
  C     -0.826040   -0.726140    2.889580
  C     -1.960630   -0.080670    3.265050
  C     -2.176140    1.333690    2.843050
  O     -1.341590    2.098990    2.419270
  C     -3.627840    1.559460    2.996260
  C     -4.381190    2.624390    2.592410
  C     -5.777960    2.596840    2.802760
  C     -6.367160    1.467170    3.441090
  C     -7.763340    1.437560    3.629120
  C     -8.538420    2.472550    3.189880
  C     -7.955430    3.587930    2.558140
  C     -6.603490    3.654010    2.374560
  F     -8.743650    4.589000    2.138640
  F     -9.870190    2.433150    3.353990
  C     -5.562010    0.384120    3.858370
  C     -4.212250    0.429010    3.635620
  C     -3.160950   -0.533330    3.939070
  C     -3.252850   -1.541990    4.859530
  C     -2.162340   -2.338090    5.261720
  N     -1.300850   -2.996300    5.640630
  C     -4.435660   -1.870200    5.553230
  N     -5.363470   -2.183210    6.152260
  H    -10.643470    2.057700   -2.046950
  H    -13.421200   -1.662150   -3.782860
  H     -9.156180    0.466030   -0.949830
  H    -11.927470   -3.313870   -2.653890
  H     -6.445080   -4.032330    0.224630
  H     -9.323500   -6.505400   -0.039220
  H     -8.973610   -8.863690    0.368330
  H     -7.268890  -10.884710    0.581500
  H     -5.091720  -12.511790    1.379380
  H     -2.801240  -12.168180    2.511660
  H     -0.575700  -10.862020    3.291650
  H      1.135180   -8.937370    3.223240
  H      1.317620   -6.520940    3.052850
  H      1.922260   -4.387970    3.085280
  H      1.517900   -1.999780    3.077330
  H     -0.020940   -0.087560    2.538080
  H     -3.920620    3.471730    2.107410
  H     -8.224650    0.589940    4.111800
  H     -6.173100    4.513030    1.884330
  H     -6.031270   -0.469870    4.319730

 Total Charge           Charge          ....    0
 Multiplicity           Mult            ....    1
 Number of Electrons    NEL             ....  564
 Basis Dimension        Dim             .... 1180

ORBITAL ENERGIES
----------------

  NO   OCC          E(Eh)            E(eV)
   0   2.0000    -453.978697    -12353.3884
   1   2.0000    -453.966399    -12353.0537
   2   2.0000     -88.956139     -2420.6196
   3   2.0000     -88.945919     -2420.3415
   4   2.0000     -58.191599     -1583.4739
   5   2.0000     -58.178092     -1583.1064
   6   2.0000     -52.262216     -1422.1272
   7   2.0000     -52.259978     -1422.0663
   8   2.0000     -52.259611     -1422.0563
   9   2.0000     -52.248814     -1421.7625
  10   2.0000     -52.246389     -1421.6965
  11   2.0000     -52.246007     -1421.6861
  12   2.0000     -24.797445      -674.7728
  13   2.0000     -24.795955      -674.7322
  14   2.0000     -24.783143      -674.3836
  15   2.0000     -24.782745      -674.3728
  16   2.0000     -19.216743      -522.9142
  17   2.0000     -19.203080      -522.5424
  18   2.0000     -14.431102      -392.6902
  19   2.0000     -14.430484      -392.6734
  20   2.0000     -14.429244      -392.6397
  21   2.0000     -14.423168      -392.4744
  22   2.0000     -14.420543      -392.4029
  23   2.0000     -14.417645      -392.3241
  24   2.0000     -14.402015      -391.8988
  25   2.0000     -14.399736      -391.8367
  26   2.0000     -10.380466      -282.4668
  27   2.0000     -10.379417      -282.4383
  28   2.0000     -10.368703      -282.1467
  29   2.0000     -10.363444      -282.0036
  30   2.0000     -10.362796      -281.9860
  31   2.0000     -10.354075      -281.7487
  32   2.0000     -10.343980      -281.4740
  33   2.0000     -10.339901      -281.3630
  34   2.0000     -10.338585      -281.3272
  35   2.0000     -10.324643      -280.9478
  36   2.0000     -10.324043      -280.9315
  37   2.0000     -10.323401      -280.9140
  38   2.0000     -10.322093      -280.8784
  39   2.0000     -10.321320      -280.8574
  40   2.0000     -10.320259      -280.8285
  41   2.0000     -10.320211      -280.8272
  42   2.0000     -10.319519      -280.8084
  43   2.0000     -10.318722      -280.7867
  44   2.0000     -10.317075      -280.7419
  45   2.0000     -10.315871      -280.7091
  46   2.0000     -10.312748      -280.6241
  47   2.0000     -10.309465      -280.5348
  48   2.0000     -10.309266      -280.5294
  49   2.0000     -10.309079      -280.5243
  50   2.0000     -10.305886      -280.4374
  51   2.0000     -10.304185      -280.3911
  52   2.0000     -10.302952      -280.3576
  53   2.0000     -10.302453      -280.3440
  54   2.0000     -10.302354      -280.3413
  55   2.0000     -10.301867      -280.3281
  56   2.0000     -10.301296      -280.3125
  57   2.0000     -10.300648      -280.2949
  58   2.0000     -10.300539      -280.2919
  59   2.0000     -10.299920      -280.2751
  60   2.0000     -10.299741      -280.2702
  61   2.0000     -10.299441      -280.2620
  62   2.0000     -10.297213      -280.2014
  63   2.0000     -10.295217      -280.1471
  64   2.0000     -10.294050      -280.1153
  65   2.0000     -10.292632      -280.0768
  66   2.0000     -10.292369      -280.0696
  67   2.0000     -10.292060      -280.0612
  68   2.0000     -10.291572      -280.0479
  69   2.0000     -10.291478      -280.0453
  70   2.0000     -10.290551      -280.0201
  71   2.0000     -10.289616      -279.9947
  72   2.0000     -10.289015      -279.9783
  73   2.0000     -10.288281      -279.9584
  74   2.0000     -10.286691      -279.9151
  75   2.0000     -10.285792      -279.8906
  76   2.0000     -10.285619      -279.8859
  77   2.0000     -10.283301      -279.8228
  78   2.0000     -10.282870      -279.8111
  79   2.0000     -10.282786      -279.8088
  80   2.0000     -10.282599      -279.8038
  81   2.0000     -10.277238      -279.6579
  82   2.0000      -8.049985      -219.0512
  83   2.0000      -8.042215      -218.8398
  84   2.0000      -7.967091      -216.7956
  85   2.0000      -7.953844      -216.4351
  86   2.0000      -6.019767      -163.8062
  87   2.0000      -6.015416      -163.6878
  88   2.0000      -6.012006      -163.5950
  89   2.0000      -6.011146      -163.5716
  90   2.0000      -6.007878      -163.4827
  91   2.0000      -6.002999      -163.3499
  92   2.0000      -5.916994      -161.0096
  93   2.0000      -5.910294      -160.8273
  94   2.0000      -5.907371      -160.7477
  95   2.0000      -5.903855      -160.6520
  96   2.0000      -5.896938      -160.4639
  97   2.0000      -5.893814      -160.3788
  98   2.0000      -2.270906       -61.7945
  99   2.0000      -2.270390       -61.7804
 100   2.0000      -2.266459       -61.6735
 101   2.0000      -2.261394       -61.5357
 102   2.0000      -2.261106       -61.5278
 103   2.0000      -2.257962       -61.4423
 104   2.0000      -2.257057       -61.4176
 105   2.0000      -2.253104       -61.3101
 106   2.0000      -2.247943       -61.1696
 107   2.0000      -2.247608       -61.1605
 108   2.0000      -1.319659       -35.9097
 109   2.0000      -1.304997       -35.5108
 110   2.0000      -1.304762       -35.5044
 111   2.0000      -1.290227       -35.1089
 112   2.0000      -1.132078       -30.8054
 113   2.0000      -1.118139       -30.4261
 114   2.0000      -1.089200       -29.6386
 115   2.0000      -1.082173       -29.4474
 116   2.0000      -1.027039       -27.9471
 117   2.0000      -1.008511       -27.4430
 118   2.0000      -1.006510       -27.3885
 119   2.0000      -1.004340       -27.3295
 120   2.0000      -1.001150       -27.2427
 121   2.0000      -0.987452       -26.8699
 122   2.0000      -0.985902       -26.8278
 123   2.0000      -0.982087       -26.7239
 124   2.0000      -0.979934       -26.6654
 125   2.0000      -0.967931       -26.3387
 126   2.0000      -0.966914       -26.3111
 127   2.0000      -0.961009       -26.1504
 128   2.0000      -0.959013       -26.0961
 129   2.0000      -0.955458       -25.9993
 130   2.0000      -0.931480       -25.3469
 131   2.0000      -0.913617       -24.8608
 132   2.0000      -0.906741       -24.6737
 133   2.0000      -0.902329       -24.5536
 134   2.0000      -0.893908       -24.3245
 135   2.0000      -0.890827       -24.2406
 136   2.0000      -0.883651       -24.0454
 137   2.0000      -0.875738       -23.8301
 138   2.0000      -0.871915       -23.7260
 139   2.0000      -0.861757       -23.4496
 140   2.0000      -0.856801       -23.3147
 141   2.0000      -0.848451       -23.0875
 142   2.0000      -0.841545       -22.8996
 143   2.0000      -0.839773       -22.8514
 144   2.0000      -0.837496       -22.7894
 145   2.0000      -0.830779       -22.6066
 146   2.0000      -0.823182       -22.3999
 147   2.0000      -0.820528       -22.3277
 148   2.0000      -0.802468       -21.8363
 149   2.0000      -0.786978       -21.4148
 150   2.0000      -0.769363       -20.9354
 151   2.0000      -0.767737       -20.8912
 152   2.0000      -0.752351       -20.4725
 153   2.0000      -0.748502       -20.3678
 154   2.0000      -0.738003       -20.0821
 155   2.0000      -0.730684       -19.8829
 156   2.0000      -0.725195       -19.7336
 157   2.0000      -0.719121       -19.5683
 158   2.0000      -0.715274       -19.4636
 159   2.0000      -0.709115       -19.2960
 160   2.0000      -0.701303       -19.0834
 161   2.0000      -0.700712       -19.0673
 162   2.0000      -0.693586       -18.8734
 163   2.0000      -0.690309       -18.7843
 164   2.0000      -0.687381       -18.7046
 165   2.0000      -0.681895       -18.5553
 166   2.0000      -0.666721       -18.1424
 167   2.0000      -0.665307       -18.1039
 168   2.0000      -0.664024       -18.0690
 169   2.0000      -0.656134       -17.8543
 170   2.0000      -0.645337       -17.5605
 171   2.0000      -0.641938       -17.4680
 172   2.0000      -0.639302       -17.3963
 173   2.0000      -0.633706       -17.2440
 174   2.0000      -0.630453       -17.1555
 175   2.0000      -0.626093       -17.0369
 176   2.0000      -0.621638       -16.9156
 177   2.0000      -0.620016       -16.8715
 178   2.0000      -0.615236       -16.7414
 179   2.0000      -0.612725       -16.6731
 180   2.0000      -0.598988       -16.2993
 181   2.0000      -0.592407       -16.1202
 182   2.0000      -0.590335       -16.0638
 183   2.0000      -0.584204       -15.8970
 184   2.0000      -0.584103       -15.8943
 185   2.0000      -0.581878       -15.8337
 186   2.0000      -0.580219       -15.7886
 187   2.0000      -0.576262       -15.6809
 188   2.0000      -0.572701       -15.5840
 189   2.0000      -0.569973       -15.5097
 190   2.0000      -0.569489       -15.4966
 191   2.0000      -0.563691       -15.3388
 192   2.0000      -0.560375       -15.2486
 193   2.0000      -0.558700       -15.2030
 194   2.0000      -0.553375       -15.0581
 195   2.0000      -0.549852       -14.9622
 196   2.0000      -0.545749       -14.8506
 197   2.0000      -0.541384       -14.7318
 198   2.0000      -0.539226       -14.6731
 199   2.0000      -0.537427       -14.6241
 200   2.0000      -0.536780       -14.6065
 201   2.0000      -0.534249       -14.5377
 202   2.0000      -0.531933       -14.4746
 203   2.0000      -0.531255       -14.4562
 204   2.0000      -0.530595       -14.4382
 205   2.0000      -0.525392       -14.2966
 206   2.0000      -0.522152       -14.2085
 207   2.0000      -0.519814       -14.1448
 208   2.0000      -0.518121       -14.0988
 209   2.0000      -0.516440       -14.0530
 210   2.0000      -0.514129       -13.9902
 211   2.0000      -0.511361       -13.9148
 212   2.0000      -0.510710       -13.8971
 213   2.0000      -0.507537       -13.8108
 214   2.0000      -0.505742       -13.7619
 215   2.0000      -0.501501       -13.6465
 216   2.0000      -0.499553       -13.5935
 217   2.0000      -0.499322       -13.5872
 218   2.0000      -0.496533       -13.5114
 219   2.0000      -0.495565       -13.4850
 220   2.0000      -0.490505       -13.3473
 221   2.0000      -0.485314       -13.2061
 222   2.0000      -0.484254       -13.1772
 223   2.0000      -0.482198       -13.1213
 224   2.0000      -0.478511       -13.0210
 225   2.0000      -0.477910       -13.0046
 226   2.0000      -0.475912       -12.9502
 227   2.0000      -0.473657       -12.8889
 228   2.0000      -0.469957       -12.7882
 229   2.0000      -0.467126       -12.7111
 230   2.0000      -0.464269       -12.6334
 231   2.0000      -0.461052       -12.5459
 232   2.0000      -0.456264       -12.4156
 233   2.0000      -0.454296       -12.3620
 234   2.0000      -0.452443       -12.3116
 235   2.0000      -0.450346       -12.2545
 236   2.0000      -0.448195       -12.1960
 237   2.0000      -0.446649       -12.1539
 238   2.0000      -0.444786       -12.1032
 239   2.0000      -0.443684       -12.0733
 240   2.0000      -0.442924       -12.0526
 241   2.0000      -0.438377       -11.9289
 242   2.0000      -0.438168       -11.9232
 243   2.0000      -0.436156       -11.8684
 244   2.0000      -0.434098       -11.8124
 245   2.0000      -0.429836       -11.6964
 246   2.0000      -0.428365       -11.6564
 247   2.0000      -0.428147       -11.6505
 248   2.0000      -0.425126       -11.5683
 249   2.0000      -0.421587       -11.4720
 250   2.0000      -0.421352       -11.4656
 251   2.0000      -0.417174       -11.3519
 252   2.0000      -0.412433       -11.2229
 253   2.0000      -0.409787       -11.1509
 254   2.0000      -0.407873       -11.0988
 255   2.0000      -0.403019       -10.9667
 256   2.0000      -0.394160       -10.7256
 257   2.0000      -0.393629       -10.7112
 258   2.0000      -0.388208       -10.5637
 259   2.0000      -0.383796       -10.4436
 260   2.0000      -0.381839       -10.3904
 261   2.0000      -0.375719       -10.2238
 262   2.0000      -0.369648       -10.0586
 263   2.0000      -0.363996        -9.9048
 264   2.0000      -0.355409        -9.6712
 265   2.0000      -0.351658        -9.5691
 266   2.0000      -0.349375        -9.5070
 267   2.0000      -0.340591        -9.2680
 268   2.0000      -0.338592        -9.2136
 269   2.0000      -0.329912        -8.9774
 270   2.0000      -0.327768        -8.9190
 271   2.0000      -0.322046        -8.7633
 272   2.0000      -0.317729        -8.6458
 273   2.0000      -0.317123        -8.6293
 274   2.0000      -0.311949        -8.4886
 275   2.0000      -0.302330        -8.2268
 276   2.0000      -0.299870        -8.1599
 277   2.0000      -0.297511        -8.0957
 278   2.0000      -0.293249        -7.9797
 279   2.0000      -0.280354        -7.6288
 280   2.0000      -0.268709        -7.3119
 281   2.0000      -0.224469        -6.1081
 282   0.0000      -0.115763        -3.1501
 283   0.0000      -0.092082        -2.5057
 284   0.0000      -0.070921        -1.9299
 285   0.0000      -0.059483        -1.6186
 286   0.0000      -0.054613        -1.4861

MULLIKEN ATOMIC CHARGES
-----------------------
   0 C :   -0.105386
   1 C :    0.240422
   2 F :   -0.171048
   3 C :    0.237828
   4 F :   -0.172019
   5 C :   -0.103905
   6 C :    0.115799
   7 C :    0.111859
   8 C :   -0.080316
   9 C :    0.046803
  10 C :   -0.001048
  11 C :   -0.083704
  12 C :    0.158792
  13 O :   -0.155169
  14 C :   -0.077120
  15 C :    0.310414
  16 C :   -0.372741
  17 C :   -0.162530
  18 N :    0.128239
  19 C :   -0.095758
  20 N :    0.061440
  21 C :   -0.045621
  22 C :    0.029232
  23 C :    0.020319
  24 C :   -0.028942
  25 C :    0.070385
  26 C :   -0.031035
  27 C :    0.056771
  28 N :   -0.348470
  29 Se:    0.579928
  30 N :   -0.263365
  31 C :   -0.014213
  32 C :   -0.048573
  33 C :    0.058563
  34 C :    0.035496
  35 C :   -0.079373
  36 S :    0.097108
  37 C :   -0.008406
  38 C :    0.045897
  39 C :    0.034935
  40 C :   -0.012367
  41 S :    0.129427
  42 C :   -0.058227
  43 C :    0.087459
  44 C :   -0.019485
  45 C :   -0.005088
  46 C :    0.092184
  47 C :   -0.033954
  48 C :    0.095966
  49 N :   -0.372115
  50 Se:    0.607144
  51 N :   -0.263740
  52 C :   -0.003590
  53 C :   -0.113324
  54 C :    0.127987
  55 O :   -0.145254
  56 C :    0.026522
  57 C :   -0.098958
  58 C :    0.145851
  59 C :    0.113390
  60 C :   -0.112901
  61 C :    0.242211
  62 C :    0.247179
  63 C :   -0.095960
  64 F :   -0.179507
  65 F :   -0.179698
  66 C :   -0.089976
  67 C :    0.025327
  68 C :    0.361565
  69 C :   -0.342071
  70 C :   -0.208641
  71 N :    0.162728
  72 C :   -0.183902
  73 N :    0.146720
  74 H :    0.006933
  75 H :   -0.000868
  76 H :   -0.007813
  77 H :   -0.011706
  78 H :    0.019548
  79 H :    0.009267
  80 H :   -0.016061
  81 H :    0.004679
  82 H :   -0.006903
  83 H :   -0.004382
  84 H :   -0.009251
  85 H :   -0.004311
  86 H :   -0.017410
  87 H :   -0.018078
  88 H :   -0.013069
  89 H :    0.016254
  90 H :   -0.015356
  91 H :   -0.003678
  92 H :   -0.008796
  93 H :   -0.003391
Sum of atomic charges:   -0.0000000

LOEWDIN ATOMIC CHARGES
----------------------
   0 C :   -0.028523
   1 C :    0.065765
   2 F :   -0.048884
   3 C :    0.067894
   4 F :   -0.049629
   5 C :   -0.033722
   6 C :   -0.007886
   7 C :   -0.007898
   8 C :    0.018346
   9 C :   -0.025349
  10 C :   -0.048919
  11 C :    0.027760
  12 C :    0.085404
  13 O :   -0.142805
  14 C :   -0.111241
  15 C :    0.089344
  16 C :   -0.165388
  17 C :   -0.009335
  18 N :   -0.062252
  19 C :    0.023396
  20 N :   -0.085904
  21 C :    0.086355
  22 C :   -0.075223
  23 C :    0.041929
  24 C :   -0.036135
  25 C :    0.002450
  26 C :   -0.062705
  27 C :   -0.027195
  28 N :   -0.292210
  29 Se:    0.611224
  30 N :   -0.251096
  31 C :   -0.068034
  32 C :   -0.105522
  33 C :   -0.036636
  34 C :   -0.015762
  35 C :   -0.183313
  36 S :    0.406918
  37 C :   -0.166327
  38 C :   -0.036873
  39 C :   -0.015464
  40 C :   -0.151028
  41 S :    0.452149
  42 C :   -0.022679
  43 C :   -0.021654
  44 C :   -0.006730
  45 C :    0.008819
  46 C :   -0.035810
  47 C :   -0.045129
  48 C :   -0.033691
  49 N :   -0.294102
  50 Se:    0.630556
  51 N :   -0.234749
  52 C :    0.064036
  53 C :   -0.070889
  54 C :    0.085275
  55 O :   -0.145275
  56 C :   -0.054878
  57 C :    0.029487
  58 C :   -0.003004
  59 C :   -0.003816
  60 C :   -0.033475
  61 C :    0.067735
  62 C :    0.068422
  63 C :   -0.026113
  64 F :   -0.055663
  65 F :   -0.056397
  66 C :    0.014985
  67 C :   -0.015583
  68 C :    0.084703
  69 C :   -0.137366
  70 C :   -0.016219
  71 N :   -0.059395
  72 C :   -0.016454
  73 N :   -0.060995
  74 H :    0.047543
  75 H :    0.044605
  76 H :    0.039194
  77 H :    0.039601
  78 H :    0.042186
  79 H :    0.035779
  80 H :    0.033372
  81 H :    0.036179
  82 H :    0.034401
  83 H :    0.034270
  84 H :    0.033112
  85 H :    0.034801
  86 H :    0.038828
  87 H :    0.031636
  88 H :    0.036179
  89 H :    0.045442
  90 H :    0.038295
  91 H :    0.043260
  92 H :    0.041991
  93 H :    0.037697

  Mayer bond orders larger than 0.100000
B(  0-C ,  1-C ) :   1.4394 B(  0-C ,  5-C ) :   0.1081 B(  0-C ,  7-C ) :   1.1905
B(  0-C , 74-H ) :   1.0062 B(  1-C ,  2-F ) :   1.1346 B(  1-C ,  3-C ) :   1.1946
B(  3-C ,  4-F ) :   1.1332 B(  3-C ,  5-C ) :   1.4389 B(  5-C ,  6-C ) :   1.1975
B(  5-C , 75-H ) :   1.0066 B(  6-C ,  7-C ) :   1.2587 B(  6-C , 11-C ) :   1.1800
B(  7-C ,  8-C ) :   1.2129 B(  8-C ,  9-C ) :   1.4514 B(  8-C , 76-H ) :   0.9897
B(  9-C , 10-C ) :   1.2178 B(  9-C , 15-C ) :   0.9870 B( 10-C , 11-C ) :   1.4839
B( 10-C , 12-C ) :   0.9442 B( 11-C , 77-H ) :   1.0158 B( 12-C , 13-O ) :   2.1875
B( 12-C , 14-C ) :   0.9471 B( 14-C , 15-C ) :   1.1155 B( 14-C , 21-C ) :   1.4503
B( 15-C , 16-C ) :   1.5612 B( 16-C , 17-C ) :   1.1494 B( 16-C , 19-C ) :   1.1954
B( 17-C , 18-N ) :   2.9069 B( 19-C , 20-N ) :   2.7834 B( 20-N , 50-Se) :   0.1269
B( 21-C , 22-C ) :   1.2671 B( 21-C , 78-H ) :   0.9423 B( 22-C , 23-C ) :   1.3239
B( 22-C , 27-C ) :   1.1363 B( 23-C , 24-C ) :   1.3410 B( 23-C , 79-H ) :   0.9751
B( 24-C , 25-C ) :   1.3342 B( 24-C , 80-H ) :   0.9933 B( 25-C , 26-C ) :   1.1378
B( 25-C , 31-C ) :   1.1848 B( 26-C , 27-C ) :   1.1233 B( 26-C , 30-N ) :   1.5708
B( 27-C , 28-N ) :   1.5381 B( 28-N , 29-Se) :   1.1994 B( 28-N , 30-N ) :   0.1082
B( 29-Se, 30-N ) :   1.2767 B( 31-C , 32-C ) :   1.5093 B( 31-C , 81-H ) :   0.9634
B( 32-C , 33-C ) :   1.1748 B( 32-C , 36-S ) :   1.0755 B( 33-C , 34-C ) :   1.5677
B( 33-C , 82-H ) :   0.9951 B( 34-C , 35-C ) :   1.2140 B( 34-C , 83-H ) :   0.9914
B( 35-C , 36-S ) :   1.0536 B( 35-C , 37-C ) :   1.4526 B( 37-C , 38-C ) :   1.1764
B( 37-C , 41-S ) :   1.0497 B( 38-C , 39-C ) :   1.5901 B( 38-C , 84-H ) :   0.9968
B( 39-C , 40-C ) :   1.1331 B( 39-C , 85-H ) :   1.0002 B( 40-C , 41-S ) :   1.0382
B( 40-C , 42-C ) :   1.5574 B( 42-C , 43-C ) :   1.1660 B( 42-C , 86-H ) :   0.9588
B( 43-C , 44-C ) :   1.3792 B( 43-C , 48-C ) :   1.1206 B( 44-C , 45-C ) :   1.2656
B( 44-C , 87-H ) :   0.9951 B( 45-C , 46-C ) :   1.3993 B( 45-C , 88-H ) :   0.9953
B( 46-C , 47-C ) :   1.1577 B( 46-C , 52-C ) :   1.0786 B( 47-C , 48-C ) :   1.1406
B( 47-C , 51-N ) :   1.5836 B( 48-C , 49-N ) :   1.5273 B( 49-N , 50-Se) :   1.1704
B( 50-Se, 51-N ) :   1.2418 B( 52-C , 53-C ) :   1.6875 B( 52-C , 89-H ) :   0.9449
B( 53-C , 54-C ) :   0.9395 B( 53-C , 68-C ) :   1.0195 B( 54-C , 55-O ) :   2.2705
B( 54-C , 56-C ) :   0.9165 B( 56-C , 57-C ) :   1.4586 B( 56-C , 67-C ) :   1.2218
B( 57-C , 58-C ) :   1.1956 B( 57-C , 90-H ) :   1.0161 B( 58-C , 59-C ) :   1.2607
B( 58-C , 63-C ) :   1.1922 B( 59-C , 60-C ) :   1.1835 B( 59-C , 66-C ) :   1.2136
B( 60-C , 61-C ) :   1.4407 B( 60-C , 63-C ) :   0.1102 B( 60-C , 91-H ) :   1.0083
B( 61-C , 62-C ) :   1.1966 B( 61-C , 65-F ) :   1.1277 B( 62-C , 63-C ) :   1.4478
B( 62-C , 64-F ) :   1.1259 B( 63-C , 92-H ) :   1.0023 B( 66-C , 67-C ) :   1.4539
B( 66-C , 93-H ) :   0.9924 B( 67-C , 68-C ) :   1.0060 B( 68-C , 69-C ) :   1.6448
B( 69-C , 70-C ) :   1.1649 B( 69-C , 72-C ) :   1.1451 B( 70-C , 71-N ) :   3.0077
B( 72-C , 73-N ) :   2.9825

-----------------------------------------------------------------------------
         ABSORPTION SPECTRUM VIA TRANSITION ELECTRIC DIPOLE MOMENTS
-----------------------------------------------------------------------------
State   Energy  Wavelength   fosc         T2         TX        TY        TZ
        (cm-1)    (nm)                  (au**2)     (au)      (au)      (au)
-----------------------------------------------------------------------------
   0    8409.1   1189.2   0.255697483  10.01046  -2.69929  -0.30750  -1.62165
   1   14241.9    702.2   0.346227183   8.00330   0.30763  -2.80633   0.18207
   2   18665.5    535.7   1.262414336  22.26579   1.22955  -4.55000   0.22693
   3   18749.7    533.3   0.035668150   0.62627   0.53705  -0.42535   0.39613
   4   21116.4    473.6   0.078485814   1.22362   1.03706   0.37616   0.08138
   5   21356.5    468.2   0.080022852   1.23356  -0.18114  -1.04367   0.33392
   6   21936.6    455.9   0.031922129   0.47907   0.57768   0.36290   0.11689
   7   22806.3    438.5   0.024900950   0.35945   0.52193  -0.28596  -0.07254
   8   23129.9    432.3   0.092430136   1.31558   0.66359   0.87369  -0.33448
   9   23248.1    430.1   0.082583288   1.16945   0.65816  -0.75709   0.40383
  10   24605.7    406.4   0.288002406   3.85332   1.81870   0.43942   0.59379
  11   25104.4    398.3   0.028698893   0.37635   0.17138  -0.28477   0.51564
  12   25188.8    397.0   0.019497146   0.25482   0.32382  -0.19574  -0.33414
  13   26298.3    380.3   0.001898603   0.02377  -0.00041   0.00705  -0.15400
  14   26376.5    379.1   0.076715861   0.95751   0.40788  -0.76499   0.45380
  15   26919.0    371.5   0.056196453   0.68727   0.68416  -0.46799  -0.01325
  16   27137.1    368.5   0.037220773   0.45154   0.07519  -0.60449   0.28368
  17   27263.4    366.8   0.011744207   0.14181   0.09285   0.20893   0.29924
  18   27520.7    363.4   0.029706127   0.35535   0.32579  -0.48544  -0.11645
  19   27789.4    359.8   0.058682726   0.69519  -0.63558   0.50186   0.19840
  20   27841.2    359.2   0.006044843   0.07148   0.03885  -0.24469  -0.10048
  21   28653.4    349.0   0.042589241   0.48933   0.59663   0.15617   0.33012
  22   28721.7    348.2   0.012636949   0.14485   0.30038   0.23309  -0.01681
  23   29175.6    342.8   0.006069751   0.06849   0.20683   0.07338   0.14257
  24   29371.9    340.5   0.007013524   0.07861  -0.08731   0.24981   0.09265
  25   29492.9    339.1   0.026316468   0.29376  -0.32239   0.43500  -0.02437
  26   30174.9    331.4   0.130262780   1.42118  -0.72125   0.85796  -0.40605
  27   30353.3    329.5   0.094252778   1.02227   0.91389   0.13816   0.40985
  28   30651.0    326.3   0.063668296   0.68384  -0.39742   0.43790  -0.57804
  29   30954.4    323.1   0.078242992   0.83215  -0.84493  -0.02667  -0.34281
  30   31225.8    320.2   0.015513774   0.16356  -0.32154   0.19531   0.14843
  31   31411.2    318.4   0.142278142   1.49118   0.18892  -0.99397   0.68375
  32   31658.7    315.9   0.082521303   0.85812  -0.34949   0.85371  -0.08461
  33   32335.3    309.3   0.281598965   2.86701   0.96250  -1.04349   0.92289
  34   32394.0    308.7   0.150205652   1.52650  -0.96266   0.33448  -0.69850
  35   32558.7    307.1   0.004044737   0.04090   0.03281  -0.19952   0.00343
  36   32635.6    306.4   0.012480174   0.12589  -0.34633   0.06298  -0.04449
  37   32775.9    305.1   0.074830920   0.75163   0.73743   0.26445   0.37133
  38   32837.9    304.5   0.189328879   1.89809   1.01271  -0.49685   0.79097
  39   32956.8    303.4   0.111339434   1.11219  -0.74469   0.62646  -0.40642
  40   33125.0    301.9   0.127370817   1.26587   0.66112  -0.88473   0.21459
  41   33391.4    299.5   0.006393998   0.06304   0.22618   0.07393  -0.08010
  42   33930.3    294.7   0.007943549   0.07707  -0.22352   0.03232  -0.16146
  43   34055.1    293.6   0.025370648   0.24526  -0.32099   0.12838  -0.35460
  44   34398.8    290.7   0.221203831   2.11702   1.38347   0.40702   0.19332
  45   34710.8    288.1   0.035312546   0.33492  -0.03296  -0.32237   0.47949
  46   34831.8    287.1   0.076392997   0.72203  -0.74877  -0.01399  -0.40147
  47   34948.8    286.1   0.028652478   0.26990   0.14119   0.48237   0.13149
  48   35219.4    283.9   0.049487954   0.46259  -0.51330  -0.15540  -0.41828
  49   35405.2    282.4   0.114930948   1.06867   0.93927  -0.01710   0.43146
  50   35578.3    281.1   0.090669588   0.83898   0.45341  -0.77734   0.17070
  51   35736.3    279.8   0.080058314   0.73752   0.43352  -0.71335   0.20178
  52   35812.2    279.2   0.001032220   0.00949  -0.05858  -0.05476  -0.05530
  53   36146.4    276.7   0.020960621   0.19090  -0.22373   0.00238   0.37529
  54   36276.3    275.7   0.059745546   0.54220   0.56736  -0.44207   0.15772
  55   36454.7    274.3   0.028999170   0.26188   0.35901  -0.16841   0.32348
  56   36598.4    273.2   0.082377336   0.74101  -0.74305  -0.37409  -0.22123
  57   36687.1    272.6   0.210141507   1.88571   1.00371  -0.65600   0.66927
  58   36818.1    271.6   0.096606224   0.86381  -0.36155   0.34778  -0.78239
  59   36944.9    270.7   0.047770699   0.42568  -0.15532  -0.52728  -0.35147
  60   37031.5    270.0   0.078613227   0.69888  -0.43518   0.67355  -0.23629
  61   37368.7    267.6   0.051097064   0.45016  -0.34054  -0.30100   0.49355
  62   37452.6    267.0   0.108511760   0.95383  -0.49496  -0.76335   0.35517
  63   37599.1    266.0   0.051221315   0.44849  -0.58288   0.20821  -0.25571
  64   37816.3    264.4   0.067996701   0.59195   0.60007   0.27182   0.39747
  65   37944.3    263.5   0.012102124   0.10500  -0.31122   0.08931   0.01280
  66   38269.6    261.3   0.009117811   0.07844   0.06786   0.23890   0.12945
  67   38424.0    260.3   0.022487582   0.19267  -0.24795   0.29605  -0.20867
  68   38449.8    260.1   0.004046100   0.03464  -0.14618   0.09807  -0.06046
  69   38632.3    258.9   0.022082495   0.18818   0.16450   0.40108   0.01581
  70   38839.6    257.5   0.043704666   0.37045   0.41275   0.41515   0.16655
  71   38888.1    257.1   0.008012140   0.06783   0.09419   0.06821   0.23303
  72   39019.3    256.3   0.038491707   0.32476   0.17123  -0.42226   0.34225
  73   39155.2    255.4   0.124103702   1.04345   0.42432  -0.92519   0.08613
  74   39317.4    254.3   0.056123320   0.46993  -0.49434  -0.44069  -0.17705
  75   39408.2    253.8   0.022382308   0.18698  -0.16794  -0.37721  -0.12839
  76   39663.0    252.1   0.015717248   0.13046  -0.30593  -0.17423   0.08065
  77   39705.3    251.9   0.033742407   0.27977   0.45264  -0.15723   0.22399
  78   39942.0    250.4   0.023718034   0.19549   0.41204  -0.13921   0.07958
  79   40068.9    249.6   0.069560019   0.57152   0.54953  -0.51599   0.05731
  80   40258.0    248.4   0.022283249   0.18222   0.35243  -0.18348  -0.15603

FINAL SINGLE POINT ENERGY     -8728.639938561550

DIPOLE MOMENT
-------------
                                X             Y             Z
Electronic contribution:     11.82631     -11.59113     -15.21793
Nuclear contribution   :    -10.71050       8.08500      13.25052
                        -----------------------------------------
Total Dipole Moment    :      1.11581      -3.50614      -1.96741
                        -----------------------------------------
Magnitude (a.u.)       :      4.17238
Magnitude (Debye)      :     10.60534

Rotational constants in cm-1:     0.001148     0.000617     0.000437
Rotational constants in MHz :    34.416562    18.491507    13.114441

                             ****ORCA TERMINATED NORMALLY****
TOTAL RUN TIME: 0 days 0 hours 13 minutes 13 seconds 602 msec
