                         Program Version 4.2.0 -  RELEASE  -
|  1> # ORCA input file
|  2> # SCF done       -217.271883200907          0.000929354564
|  3> ! CAM-B3LYP def2-SVP def2/J RIJCOSX Grid4 TightSCF
|  4> %maxcore 5000
|  5> %tddft
|  6>     Mode sTDDFT
|  7>     Ethresh 5.0
|  8>     maxcore 5000
|  9> end
| 10>
| 11> %pal
| 12>   nprocs 6
| 13>   end
| 14> * xyz 0 1
| 15>    C       -1.31119        -0.23151        -1.32943
| 16>    C       -2.20705        -1.26094        -1.43212
| 17>    C       -1.82159        -2.57059        -1.10873
| 18>    C       -0.54659        -2.83273        -0.68721
| 19>    C        0.40165        -1.79616        -0.56899
| 20>    C        1.71848        -2.06073        -0.12825
| 21>    C        2.61472        -1.03031        -0.02768
| 22>    C        2.22173         0.29503        -0.37769
| 23>    C        0.95398         0.58014        -0.79696
| 24>    C        0.00996        -0.46639        -0.89998
| 25>    C        3.37460         1.19989        -0.23016
| 26>    O        3.40953         2.39838        -0.37594
| 27>    C        4.53478         0.30574         0.08386
| 28>    C        4.00568        -1.00592         0.40508
| 29>    C        4.62901        -1.97186         1.14626
| 30>    C        4.04446        -3.21371         1.46982
| 31>    N        3.62306        -4.24610         1.74136
| 32>    C        5.90433        -1.81568         1.72487
| 33>    N        6.92703        -1.72908         2.23906
| 34>    C        5.78815         0.78513        -0.07285
| 35>    C        7.04858         0.09037        -0.17526
| 36>    C        8.20362         0.74956         0.26492
| 37>    F        8.01560         1.97277         0.81138
| 38>    C        9.47919         0.20542         0.17992
| 39>    O       10.64498         0.78534         0.52855
| 40>    C       10.65053         1.95308         1.32759
| 41>    C        9.58095        -1.07647        -0.39396
| 42>    C        8.44516        -1.73038        -0.85552
| 43>    C        7.16886        -1.18006        -0.78119
| 44>    O        6.03355        -1.74439        -1.24856
| 45>    C        6.09389        -2.79492        -2.19694
| 46>    F        8.60160        -2.99294        -1.31615
| 47>    C       10.88207        -1.73666        -0.51143
| 48>    C       11.30512        -2.26230        -1.74154
| 49>    C       12.51859        -3.03264        -1.86186
| 50>    N       12.80120        -3.65337        -3.02341
| 51>    C       12.02671        -3.45719        -4.05231
| 52>    C       10.89889        -2.56190        -3.97070
| 53>    N       10.56012        -2.01532        -2.83704
| 54>    C       10.12907        -2.27929        -5.12700
| 55>    N        9.51071        -2.07977        -6.07031
| 56>    C       12.30757        -4.12418        -5.27173
| 57>    N       12.51341        -4.63149        -6.27760
| 58>    C       13.38633        -3.20739        -0.77462
| 59>    C       12.99740        -2.62988         0.43692
| 60>    C       11.74152        -1.91640         0.57489
| 61>    N       11.55039        -1.50129         1.83303
| 62>    S       12.80790        -1.92656         2.71509
| 63>    N       13.67130        -2.66426         1.59442
| 64>    C       14.60168        -4.01274        -0.91202
| 65>    C       14.81579        -5.08439        -0.05049
| 66>    F       13.85236        -5.33778         0.86616
| 67>    C       15.93090        -5.91110        -0.15003
| 68>    O       16.27398        -6.93665         0.65496
| 69>    C       15.44684        -7.31676         1.73744
| 70>    C       16.83449        -5.65127        -1.20408
| 71>    C       16.58571        -4.60825        -2.09677
| 72>    C       15.51319        -3.73377        -1.94877
| 73>    O       15.27168        -2.62446        -2.67868
| 74>    C       16.28211        -2.11950        -3.53225
| 75>    F       17.37444        -4.53176        -3.19021
| 76>    C       17.95665        -6.55133        -1.36777
| 77>    C       19.21426        -6.19888        -1.71119
| 78>    C       20.31504        -7.10357        -2.02649
| 79>    C       20.30746        -8.46809        -1.93493
| 80>    C       21.41201        -9.28780        -2.25529
| 81>    N       22.27043       -10.01113        -2.49440
| 82>    C       19.22893        -9.26170        -1.48683
| 83>    N       18.41238        -9.98598        -1.13116
| 84>    C       21.44078        -6.28827        -2.46261
| 85>    C       21.09936        -4.91294        -2.31618
| 86>    C       21.96937        -3.91468        -2.64968
| 87>    C       23.23855        -4.25070        -3.17029
| 88>    C       24.17170        -3.26435        -3.54614
| 89>    C       25.39320        -3.61459        -4.05398
| 90>    C       25.73598        -4.96659        -4.20780
| 91>    C       24.85331        -5.94918        -3.85155
| 92>    C       23.58571        -5.62410        -3.32609
| 93>    C       22.66979        -6.63586        -2.96112
| 94>    C       19.73103        -4.79780        -1.78782
| 95>    O       19.17274        -3.78742        -1.42266
| 96>    H       -1.60241         0.77863        -1.57750
| 97>    H       -3.21713        -1.07214        -1.76351
| 98>    H       -2.54071        -3.37129        -1.19518
| 99>    H       -0.24590        -3.83887        -0.43428
|100>    H        1.99139        -3.07745         0.10803
|101>    H        0.67429         1.59181        -1.05082
|102>    H        5.84757         1.86420        -0.18757
|103>    H       11.69625         2.11643         1.58351
|104>    H       10.06985         1.81338         2.24133
|105>    H       10.27290         2.82032         0.78092
|106>    H        6.37043        -3.74291        -1.73033
|107>    H        6.79133        -2.56680        -3.00558
|108>    H        5.08417        -2.87214        -2.59858
|109>    H       14.46490        -7.65238         1.39735
|110>    H       15.32672        -6.50248         2.45553
|111>    H       15.96876        -8.14692         2.21038
|112>    H       16.37551        -2.71765        -4.44154
|113>    H       17.24689        -2.07414        -3.02180
|114>    H       15.95887        -1.11290        -3.79453
|115>    H       17.72434        -7.58971        -1.17111
|116>    H       21.68778        -2.87937        -2.52669
|117>    H       23.90259        -2.22512        -3.42598
|118>    H       26.10210        -2.85229        -4.34061
|119>    H       26.70356        -5.22527        -4.61091
|120>    H       25.11212        -6.99136        -3.96775
|121>    H       22.96287        -7.66527        -3.09217
|122> *
|123>
|124>                          ****END OF INPUT****

CARTESIAN COORDINATES (ANGSTROEM)
---------------------------------
  C     -1.311190   -0.231510   -1.329430
  C     -2.207050   -1.260940   -1.432120
  C     -1.821590   -2.570590   -1.108730
  C     -0.546590   -2.832730   -0.687210
  C      0.401650   -1.796160   -0.568990
  C      1.718480   -2.060730   -0.128250
  C      2.614720   -1.030310   -0.027680
  C      2.221730    0.295030   -0.377690
  C      0.953980    0.580140   -0.796960
  C      0.009960   -0.466390   -0.899980
  C      3.374600    1.199890   -0.230160
  O      3.409530    2.398380   -0.375940
  C      4.534780    0.305740    0.083860
  C      4.005680   -1.005920    0.405080
  C      4.629010   -1.971860    1.146260
  C      4.044460   -3.213710    1.469820
  N      3.623060   -4.246100    1.741360
  C      5.904330   -1.815680    1.724870
  N      6.927030   -1.729080    2.239060
  C      5.788150    0.785130   -0.072850
  C      7.048580    0.090370   -0.175260
  C      8.203620    0.749560    0.264920
  F      8.015600    1.972770    0.811380
  C      9.479190    0.205420    0.179920
  O     10.644980    0.785340    0.528550
  C     10.650530    1.953080    1.327590
  C      9.580950   -1.076470   -0.393960
  C      8.445160   -1.730380   -0.855520
  C      7.168860   -1.180060   -0.781190
  O      6.033550   -1.744390   -1.248560
  C      6.093890   -2.794920   -2.196940
  F      8.601600   -2.992940   -1.316150
  C     10.882070   -1.736660   -0.511430
  C     11.305120   -2.262300   -1.741540
  C     12.518590   -3.032640   -1.861860
  N     12.801200   -3.653370   -3.023410
  C     12.026710   -3.457190   -4.052310
  C     10.898890   -2.561900   -3.970700
  N     10.560120   -2.015320   -2.837040
  C     10.129070   -2.279290   -5.127000
  N      9.510710   -2.079770   -6.070310
  C     12.307570   -4.124180   -5.271730
  N     12.513410   -4.631490   -6.277600
  C     13.386330   -3.207390   -0.774620
  C     12.997400   -2.629880    0.436920
  C     11.741520   -1.916400    0.574890
  N     11.550390   -1.501290    1.833030
  S     12.807900   -1.926560    2.715090
  N     13.671300   -2.664260    1.594420
  C     14.601680   -4.012740   -0.912020
  C     14.815790   -5.084390   -0.050490
  F     13.852360   -5.337780    0.866160
  C     15.930900   -5.911100   -0.150030
  O     16.273980   -6.936650    0.654960
  C     15.446840   -7.316760    1.737440
  C     16.834490   -5.651270   -1.204080
  C     16.585710   -4.608250   -2.096770
  C     15.513190   -3.733770   -1.948770
  O     15.271680   -2.624460   -2.678680
  C     16.282110   -2.119500   -3.532250
  F     17.374440   -4.531760   -3.190210
  C     17.956650   -6.551330   -1.367770
  C     19.214260   -6.198880   -1.711190
  C     20.315040   -7.103570   -2.026490
  C     20.307460   -8.468090   -1.934930
  C     21.412010   -9.287800   -2.255290
  N     22.270430  -10.011130   -2.494400
  C     19.228930   -9.261700   -1.486830
  N     18.412380   -9.985980   -1.131160
  C     21.440780   -6.288270   -2.462610
  C     21.099360   -4.912940   -2.316180
  C     21.969370   -3.914680   -2.649680
  C     23.238550   -4.250700   -3.170290
  C     24.171700   -3.264350   -3.546140
  C     25.393200   -3.614590   -4.053980
  C     25.735980   -4.966590   -4.207800
  C     24.853310   -5.949180   -3.851550
  C     23.585710   -5.624100   -3.326090
  C     22.669790   -6.635860   -2.961120
  C     19.731030   -4.797800   -1.787820
  O     19.172740   -3.787420   -1.422660
  H     -1.602410    0.778630   -1.577500
  H     -3.217130   -1.072140   -1.763510
  H     -2.540710   -3.371290   -1.195180
  H     -0.245900   -3.838870   -0.434280
  H      1.991390   -3.077450    0.108030
  H      0.674290    1.591810   -1.050820
  H      5.847570    1.864200   -0.187570
  H     11.696250    2.116430    1.583510
  H     10.069850    1.813380    2.241330
  H     10.272900    2.820320    0.780920
  H      6.370430   -3.742910   -1.730330
  H      6.791330   -2.566800   -3.005580
  H      5.084170   -2.872140   -2.598580
  H     14.464900   -7.652380    1.397350
  H     15.326720   -6.502480    2.455530
  H     15.968760   -8.146920    2.210380
  H     16.375510   -2.717650   -4.441540
  H     17.246890   -2.074140   -3.021800
  H     15.958870   -1.112900   -3.794530
  H     17.724340   -7.589710   -1.171110
  H     21.687780   -2.879370   -2.526690
  H     23.902590   -2.225120   -3.425980
  H     26.102100   -2.852290   -4.340610
  H     26.703560   -5.225270   -4.610910
  H     25.112120   -6.991360   -3.967750
  H     22.962870   -7.665270   -3.092170

 Total Charge           Charge          ....    0
 Multiplicity           Mult            ....    1
 Number of Electrons    NEL             ....  556
 Basis Dimension        Dim             .... 1268

ORBITAL ENERGIES
----------------

  NO   OCC          E(Eh)            E(eV)
   0   2.0000     -89.048237     -2423.1257
   1   2.0000     -24.798261      -674.7950
   2   2.0000     -24.797866      -674.7842
   3   2.0000     -24.794238      -674.6855
   4   2.0000     -24.792896      -674.6490
   5   2.0000     -19.266648      -524.2722
   6   2.0000     -19.261830      -524.1410
   7   2.0000     -19.257519      -524.0237
   8   2.0000     -19.255365      -523.9651
   9   2.0000     -19.216685      -522.9126
  10   2.0000     -19.213719      -522.8319
  11   2.0000     -14.461786      -393.5252
  12   2.0000     -14.460244      -393.4832
  13   2.0000     -14.450526      -393.2188
  14   2.0000     -14.450144      -393.2084
  15   2.0000     -14.431396      -392.6982
  16   2.0000     -14.429348      -392.6425
  17   2.0000     -14.416134      -392.2830
  18   2.0000     -14.415361      -392.2619
  19   2.0000     -14.415001      -392.2521
  20   2.0000     -14.413708      -392.2169
  21   2.0000     -10.381694      -282.5003
  22   2.0000     -10.380836      -282.4769
  23   2.0000     -10.371721      -282.2289
  24   2.0000     -10.370684      -282.2007
  25   2.0000     -10.369209      -282.1605
  26   2.0000     -10.368691      -282.1464
  27   2.0000     -10.367331      -282.1094
  28   2.0000     -10.364014      -282.0192
  29   2.0000     -10.358938      -281.8810
  30   2.0000     -10.356276      -281.8086
  31   2.0000     -10.356211      -281.8068
  32   2.0000     -10.352133      -281.6959
  33   2.0000     -10.347155      -281.5604
  34   2.0000     -10.346442      -281.5410
  35   2.0000     -10.343590      -281.4634
  36   2.0000     -10.342136      -281.4238
  37   2.0000     -10.341734      -281.4129
  38   2.0000     -10.341110      -281.3959
  39   2.0000     -10.340077      -281.3678
  40   2.0000     -10.335924      -281.2548
  41   2.0000     -10.328568      -281.0546
  42   2.0000     -10.325103      -280.9603
  43   2.0000     -10.324900      -280.9548
  44   2.0000     -10.324779      -280.9515
  45   2.0000     -10.322584      -280.8918
  46   2.0000     -10.322156      -280.8802
  47   2.0000     -10.321668      -280.8669
  48   2.0000     -10.320931      -280.8468
  49   2.0000     -10.318359      -280.7768
  50   2.0000     -10.318024      -280.7677
  51   2.0000     -10.317456      -280.7522
  52   2.0000     -10.316573      -280.7282
  53   2.0000     -10.314996      -280.6853
  54   2.0000     -10.313762      -280.6517
  55   2.0000     -10.308963      -280.5211
  56   2.0000     -10.307331      -280.4767
  57   2.0000     -10.307214      -280.4735
  58   2.0000     -10.303870      -280.3826
  59   2.0000     -10.301955      -280.3304
  60   2.0000     -10.301908      -280.3292
  61   2.0000     -10.300032      -280.2781
  62   2.0000     -10.299143      -280.2539
  63   2.0000     -10.298768      -280.2437
  64   2.0000     -10.297981      -280.2223
  65   2.0000     -10.297661      -280.2136
  66   2.0000     -10.297067      -280.1974
  67   2.0000     -10.296731      -280.1883
  68   2.0000     -10.296640      -280.1858
  69   2.0000     -10.296234      -280.1748
  70   2.0000     -10.295338      -280.1504
  71   2.0000     -10.289487      -279.9912
  72   2.0000     -10.287950      -279.9494
  73   2.0000     -10.287932      -279.9489
  74   2.0000     -10.287434      -279.9353
  75   2.0000     -10.287124      -279.9269
  76   2.0000     -10.286616      -279.9130
  77   2.0000     -10.285778      -279.8902
  78   2.0000     -10.285408      -279.8802
  79   2.0000     -10.285139      -279.8729
  80   2.0000     -10.284680      -279.8604
  81   2.0000      -8.139463      -221.4860
  82   2.0000      -6.110233      -166.2679
  83   2.0000      -6.102941      -166.0695
  84   2.0000      -6.102413      -166.0551
  85   2.0000      -1.311728       -35.6939
  86   2.0000      -1.311125       -35.6775
  87   2.0000      -1.307410       -35.5764
  88   2.0000      -1.307102       -35.5680
  89   2.0000      -1.169891       -31.8343
  90   2.0000      -1.165890       -31.7255
  91   2.0000      -1.163073       -31.6488
  92   2.0000      -1.160336       -31.5743
  93   2.0000      -1.142432       -31.0872
  94   2.0000      -1.131241       -30.7826
  95   2.0000      -1.129124       -30.7250
  96   2.0000      -1.120074       -30.4788
  97   2.0000      -1.047464       -28.5029
  98   2.0000      -1.018415       -27.7125
  99   2.0000      -1.016323       -27.6556
 100   2.0000      -1.014932       -27.6177
 101   2.0000      -1.004875       -27.3440
 102   2.0000      -0.999042       -27.1853
 103   2.0000      -0.996819       -27.1248
 104   2.0000      -0.995886       -27.0994
 105   2.0000      -0.994003       -27.0482
 106   2.0000      -0.993512       -27.0348
 107   2.0000      -0.988501       -26.8985
 108   2.0000      -0.976995       -26.5854
 109   2.0000      -0.972573       -26.4651
 110   2.0000      -0.969281       -26.3755
 111   2.0000      -0.965561       -26.2743
 112   2.0000      -0.927692       -25.2438
 113   2.0000      -0.924482       -25.1564
 114   2.0000      -0.917588       -24.9688
 115   2.0000      -0.909628       -24.7522
 116   2.0000      -0.904729       -24.6189
 117   2.0000      -0.894964       -24.3532
 118   2.0000      -0.886699       -24.1283
 119   2.0000      -0.882039       -24.0015
 120   2.0000      -0.880135       -23.9497
 121   2.0000      -0.872698       -23.7473
 122   2.0000      -0.861699       -23.4480
 123   2.0000      -0.860148       -23.4058
 124   2.0000      -0.847768       -23.0689
 125   2.0000      -0.834867       -22.7179
 126   2.0000      -0.830753       -22.6059
 127   2.0000      -0.829384       -22.5687
 128   2.0000      -0.827298       -22.5119
 129   2.0000      -0.816327       -22.2134
 130   2.0000      -0.812926       -22.1208
 131   2.0000      -0.803217       -21.8566
 132   2.0000      -0.800124       -21.7725
 133   2.0000      -0.789145       -21.4737
 134   2.0000      -0.777447       -21.1554
 135   2.0000      -0.767335       -20.8802
 136   2.0000      -0.762419       -20.7465
 137   2.0000      -0.760154       -20.6848
 138   2.0000      -0.753239       -20.4967
 139   2.0000      -0.736161       -20.0319
 140   2.0000      -0.735457       -20.0128
 141   2.0000      -0.713905       -19.4263
 142   2.0000      -0.709892       -19.3171
 143   2.0000      -0.708206       -19.2713
 144   2.0000      -0.704754       -19.1773
 145   2.0000      -0.702725       -19.1221
 146   2.0000      -0.701006       -19.0753
 147   2.0000      -0.700473       -19.0608
 148   2.0000      -0.695663       -18.9299
 149   2.0000      -0.689546       -18.7635
 150   2.0000      -0.679987       -18.5034
 151   2.0000      -0.675065       -18.3695
 152   2.0000      -0.674438       -18.3524
 153   2.0000      -0.672000       -18.2861
 154   2.0000      -0.656356       -17.8603
 155   2.0000      -0.652453       -17.7542
 156   2.0000      -0.647812       -17.6279
 157   2.0000      -0.644897       -17.5485
 158   2.0000      -0.640502       -17.4289
 159   2.0000      -0.637238       -17.3401
 160   2.0000      -0.632828       -17.2201
 161   2.0000      -0.630509       -17.1570
 162   2.0000      -0.626737       -17.0544
 163   2.0000      -0.625109       -17.0101
 164   2.0000      -0.612308       -16.6618
 165   2.0000      -0.608612       -16.5612
 166   2.0000      -0.607887       -16.5414
 167   2.0000      -0.606444       -16.5022
 168   2.0000      -0.605876       -16.4867
 169   2.0000      -0.604152       -16.4398
 170   2.0000      -0.599858       -16.3230
 171   2.0000      -0.592752       -16.1296
 172   2.0000      -0.588245       -16.0070
 173   2.0000      -0.586965       -15.9721
 174   2.0000      -0.583113       -15.8673
 175   2.0000      -0.581285       -15.8176
 176   2.0000      -0.575135       -15.6502
 177   2.0000      -0.572490       -15.5783
 178   2.0000      -0.568186       -15.4611
 179   2.0000      -0.565099       -15.3771
 180   2.0000      -0.560808       -15.2604
 181   2.0000      -0.555222       -15.1084
 182   2.0000      -0.554295       -15.0831
 183   2.0000      -0.551526       -15.0078
 184   2.0000      -0.550554       -14.9813
 185   2.0000      -0.549708       -14.9583
 186   2.0000      -0.547656       -14.9025
 187   2.0000      -0.545919       -14.8552
 188   2.0000      -0.545116       -14.8334
 189   2.0000      -0.543387       -14.7863
 190   2.0000      -0.542970       -14.7750
 191   2.0000      -0.540015       -14.6946
 192   2.0000      -0.538028       -14.6405
 193   2.0000      -0.535186       -14.5632
 194   2.0000      -0.532975       -14.5030
 195   2.0000      -0.530741       -14.4422
 196   2.0000      -0.529356       -14.4045
 197   2.0000      -0.527657       -14.3583
 198   2.0000      -0.520957       -14.1760
 199   2.0000      -0.519996       -14.1498
 200   2.0000      -0.517590       -14.0844
 201   2.0000      -0.517248       -14.0750
 202   2.0000      -0.514402       -13.9976
 203   2.0000      -0.511325       -13.9139
 204   2.0000      -0.508783       -13.8447
 205   2.0000      -0.505970       -13.7681
 206   2.0000      -0.505007       -13.7419
 207   2.0000      -0.499451       -13.5907
 208   2.0000      -0.496757       -13.5175
 209   2.0000      -0.496054       -13.4983
 210   2.0000      -0.494150       -13.4465
 211   2.0000      -0.492667       -13.4061
 212   2.0000      -0.491291       -13.3687
 213   2.0000      -0.489690       -13.3252
 214   2.0000      -0.485682       -13.2161
 215   2.0000      -0.485206       -13.2031
 216   2.0000      -0.484176       -13.1751
 217   2.0000      -0.482845       -13.1389
 218   2.0000      -0.481559       -13.1039
 219   2.0000      -0.477842       -13.0027
 220   2.0000      -0.475382       -12.9358
 221   2.0000      -0.468252       -12.7418
 222   2.0000      -0.466672       -12.6988
 223   2.0000      -0.465462       -12.6659
 224   2.0000      -0.462846       -12.5947
 225   2.0000      -0.457124       -12.4390
 226   2.0000      -0.454290       -12.3619
 227   2.0000      -0.450133       -12.2488
 228   2.0000      -0.448975       -12.2172
 229   2.0000      -0.445570       -12.1246
 230   2.0000      -0.444672       -12.1001
 231   2.0000      -0.444522       -12.0961
 232   2.0000      -0.443929       -12.0799
 233   2.0000      -0.443509       -12.0685
 234   2.0000      -0.441132       -12.0038
 235   2.0000      -0.438795       -11.9402
 236   2.0000      -0.437258       -11.8984
 237   2.0000      -0.435242       -11.8435
 238   2.0000      -0.434706       -11.8290
 239   2.0000      -0.433944       -11.8082
 240   2.0000      -0.431558       -11.7433
 241   2.0000      -0.431463       -11.7407
 242   2.0000      -0.426802       -11.6139
 243   2.0000      -0.426214       -11.5979
 244   2.0000      -0.423697       -11.5294
 245   2.0000      -0.421607       -11.4725
 246   2.0000      -0.420002       -11.4288
 247   2.0000      -0.417458       -11.3596
 248   2.0000      -0.416612       -11.3366
 249   2.0000      -0.415991       -11.3197
 250   2.0000      -0.413542       -11.2531
 251   2.0000      -0.410612       -11.1733
 252   2.0000      -0.410277       -11.1642
 253   2.0000      -0.408894       -11.1266
 254   2.0000      -0.406931       -11.0731
 255   2.0000      -0.404612       -11.0101
 256   2.0000      -0.402967       -10.9653
 257   2.0000      -0.394707       -10.7405
 258   2.0000      -0.381598       -10.3838
 259   2.0000      -0.380643       -10.3578
 260   2.0000      -0.377682       -10.2772
 261   2.0000      -0.374521       -10.1912
 262   2.0000      -0.368383       -10.0242
 263   2.0000      -0.359558        -9.7841
 264   2.0000      -0.356154        -9.6915
 265   2.0000      -0.353586        -9.6216
 266   2.0000      -0.344404        -9.3717
 267   2.0000      -0.338631        -9.2146
 268   2.0000      -0.334444        -9.1007
 269   2.0000      -0.321427        -8.7465
 270   2.0000      -0.317459        -8.6385
 271   2.0000      -0.314067        -8.5462
 272   2.0000      -0.306311        -8.3351
 273   2.0000      -0.296214        -8.0604
 274   2.0000      -0.293441        -7.9849
 275   2.0000      -0.288766        -7.8577
 276   2.0000      -0.281790        -7.6679
 277   2.0000      -0.274527        -7.4703
 278   0.0000      -0.118052        -3.2124
 279   0.0000      -0.089162        -2.4262
 280   0.0000      -0.084723        -2.3054
 281   0.0000      -0.056427        -1.5355
 282   0.0000      -0.052586        -1.4309

MULLIKEN ATOMIC CHARGES
-----------------------
   0 C :   -0.016097
   1 C :    0.037003
   2 C :    0.035111
   3 C :   -0.019432
   4 C :    0.097324
   5 C :   -0.089952
   6 C :    0.037152
   7 C :    0.014019
   8 C :   -0.083204
   9 C :    0.095461
  10 C :    0.134396
  11 O :   -0.138177
  12 C :   -0.104490
  13 C :    0.317577
  14 C :   -0.327016
  15 C :   -0.191144
  16 N :    0.153955
  17 C :   -0.203844
  18 N :    0.169584
  19 C :    0.019019
  20 C :   -0.040390
  21 C :    0.127522
  22 F :   -0.184213
  23 C :    0.192399
  24 O :   -0.298725
  25 C :    0.185480
  26 C :   -0.121792
  27 C :    0.190917
  28 C :    0.130145
  29 O :   -0.313095
  30 C :    0.180270
  31 F :   -0.190931
  32 C :    0.078734
  33 C :   -0.060949
  34 C :   -0.043094
  35 N :    0.082504
  36 C :   -0.141343
  37 C :   -0.145926
  38 N :    0.065062
  39 C :   -0.201901
  40 N :    0.232274
  41 C :   -0.203633
  42 N :    0.232699
  43 C :    0.078570
  44 C :   -0.000507
  45 C :    0.024240
  46 N :   -0.254556
  47 S :    0.554936
  48 N :   -0.263813
  49 C :   -0.125447
  50 C :    0.167856
  51 F :   -0.190120
  52 C :    0.134584
  53 O :   -0.297389
  54 C :    0.180253
  55 C :   -0.042656
  56 C :    0.152347
  57 C :    0.179601
  58 O :   -0.309770
  59 C :    0.176790
  60 F :   -0.186785
  61 C :   -0.010324
  62 C :   -0.058353
  63 C :    0.314509
  64 C :   -0.346531
  65 C :   -0.184658
  66 N :    0.149370
  67 C :   -0.185110
  68 N :    0.155235
  69 C :    0.053104
  70 C :    0.001040
  71 C :   -0.086221
  72 C :    0.102978
  73 C :   -0.019771
  74 C :    0.037418
  75 C :    0.040359
  76 C :   -0.022588
  77 C :    0.100060
  78 C :   -0.088342
  79 C :    0.146008
  80 O :   -0.146606
  81 H :   -0.017323
  82 H :   -0.005582
  83 H :   -0.003801
  84 H :   -0.011238
  85 H :   -0.008245
  86 H :   -0.011916
  87 H :    0.033873
  88 H :    0.029109
  89 H :    0.035253
  90 H :    0.031533
  91 H :    0.040001
  92 H :    0.038070
  93 H :    0.036556
  94 H :    0.033029
  95 H :    0.032981
  96 H :    0.043857
  97 H :    0.035002
  98 H :    0.038223
  99 H :    0.029956
 100 H :    0.039750
 101 H :   -0.015621
 102 H :   -0.017729
 103 H :   -0.004304
 104 H :   -0.004888
 105 H :   -0.008066
 106 H :   -0.007450
Sum of atomic charges:   -0.0000000

LOEWDIN ATOMIC CHARGES
----------------------
   0 C :   -0.008946
   1 C :   -0.013531
   2 C :   -0.012938
   3 C :   -0.007256
   4 C :   -0.005271
   5 C :    0.012901
   6 C :   -0.021202
   7 C :   -0.057855
   8 C :    0.033331
   9 C :   -0.009712
  10 C :    0.085953
  11 O :   -0.137079
  12 C :   -0.073562
  13 C :    0.073430
  14 C :   -0.130890
  15 C :   -0.018263
  16 N :   -0.054308
  17 C :   -0.017125
  18 N :   -0.048996
  19 C :    0.071761
  20 C :   -0.067935
  21 C :    0.066927
  22 F :   -0.056824
  23 C :    0.038585
  24 O :   -0.090220
  25 C :    0.079655
  26 C :   -0.040819
  27 C :    0.068707
  28 C :    0.033852
  29 O :   -0.080521
  30 C :    0.080885
  31 F :   -0.057140
  32 C :    0.003095
  33 C :   -0.004428
  34 C :   -0.000698
  35 N :    0.016441
  36 C :   -0.028955
  37 C :   -0.029421
  38 N :    0.006188
  39 C :   -0.036166
  40 N :   -0.008408
  41 C :   -0.035844
  42 N :   -0.006362
  43 C :    0.002658
  44 C :   -0.039835
  45 C :   -0.035675
  46 N :   -0.275417
  47 S :    0.701706
  48 N :   -0.286187
  49 C :   -0.045784
  50 C :    0.058466
  51 F :   -0.059327
  52 C :    0.038204
  53 O :   -0.087863
  54 C :    0.081140
  55 C :   -0.066634
  56 C :    0.070344
  57 C :    0.035625
  58 O :   -0.095858
  59 C :    0.078057
  60 F :   -0.050209
  61 C :    0.086858
  62 C :   -0.077769
  63 C :    0.077057
  64 C :   -0.131992
  65 C :   -0.016238
  66 N :   -0.051364
  67 C :   -0.020501
  68 N :   -0.045114
  69 C :   -0.025668
  70 C :   -0.054734
  71 C :    0.031323
  72 C :   -0.007592
  73 C :   -0.010141
  74 C :   -0.011668
  75 C :   -0.012748
  76 C :   -0.004717
  77 C :   -0.005670
  78 C :    0.020486
  79 C :    0.082997
  80 O :   -0.139944
  81 H :    0.031864
  82 H :    0.032644
  83 H :    0.033271
  84 H :    0.033955
  85 H :    0.037846
  86 H :    0.039299
  87 H :    0.048316
  88 H :    0.024672
  89 H :    0.021367
  90 H :    0.017363
  91 H :    0.020457
  92 H :    0.022720
  93 H :    0.027459
  94 H :    0.019219
  95 H :    0.019249
  96 H :    0.030520
  97 H :    0.018836
  98 H :    0.021796
  99 H :    0.024373
 100 H :    0.047024
 101 H :    0.037899
 102 H :    0.031623
 103 H :    0.033113
 104 H :    0.033375
 105 H :    0.035184
 106 H :    0.039246

  Mayer bond orders larger than 0.100000
B(  0-C ,  1-C ) :   1.4905 B(  0-C ,  9-C ) :   1.2441 B(  0-C , 81-H ) :   0.9978
B(  1-C ,  2-C ) :   1.2588 B(  1-C , 82-H ) :   0.9886 B(  2-C ,  3-C ) :   1.4898
B(  2-C , 83-H ) :   0.9894 B(  3-C ,  4-C ) :   1.2407 B(  3-C , 84-H ) :   0.9977
B(  4-C ,  5-C ) :   1.2035 B(  4-C ,  9-C ) :   1.2558 B(  5-C ,  6-C ) :   1.4529
B(  5-C , 85-H ) :   0.9943 B(  6-C ,  7-C ) :   1.2115 B(  6-C , 13-C ) :   1.0067
B(  7-C ,  8-C ) :   1.4702 B(  7-C , 10-C ) :   0.9226 B(  8-C ,  9-C ) :   1.1861
B(  8-C , 86-H ) :   1.0162 B( 10-C , 11-O ) :   2.2735 B( 10-C , 12-C ) :   0.9278
B( 12-C , 13-C ) :   1.0152 B( 12-C , 19-C ) :   1.7304 B( 13-C , 14-C ) :   1.6605
B( 14-C , 15-C ) :   1.1399 B( 14-C , 17-C ) :   1.1676 B( 15-C , 16-N ) :   2.9835
B( 17-C , 18-N ) :   3.0048 B( 19-C , 20-C ) :   1.0519 B( 19-C , 87-H ) :   0.9323
B( 20-C , 21-C ) :   1.3086 B( 20-C , 26-C ) :   0.1276 B( 20-C , 28-C ) :   1.3210
B( 21-C , 22-F ) :   1.1412 B( 21-C , 23-C ) :   1.2611 B( 23-C , 24-O ) :   1.2189
B( 23-C , 26-C ) :   1.3585 B( 24-O , 25-C ) :   0.9275 B( 25-C , 88-H ) :   0.9792
B( 25-C , 89-H ) :   0.9744 B( 25-C , 90-H ) :   0.9765 B( 26-C , 27-C ) :   1.3871
B( 26-C , 32-C ) :   0.9199 B( 27-C , 28-C ) :   1.2586 B( 27-C , 31-F ) :   1.1192
B( 28-C , 29-O ) :   1.1882 B( 29-O , 30-C ) :   0.9193 B( 30-C , 91-H ) :   0.9762
B( 30-C , 92-H ) :   0.9742 B( 30-C , 93-H ) :   0.9782 B( 32-C , 33-C ) :   1.3486
B( 32-C , 43-C ) :   0.1376 B( 32-C , 45-C ) :   1.3057 B( 33-C , 34-C ) :   1.0957
B( 33-C , 38-N ) :   1.4133 B( 34-C , 35-N ) :   1.4123 B( 34-C , 43-C ) :   1.3574
B( 35-N , 36-C ) :   1.7757 B( 36-C , 37-C ) :   1.1719 B( 36-C , 41-C ) :   1.1434
B( 37-C , 38-N ) :   1.7705 B( 37-C , 39-C ) :   1.1443 B( 39-C , 40-N ) :   3.0506
B( 41-C , 42-N ) :   3.0513 B( 43-C , 44-C ) :   1.2977 B( 43-C , 49-C ) :   0.9239
B( 44-C , 45-C ) :   1.0960 B( 44-C , 48-N ) :   1.4877 B( 45-C , 46-N ) :   1.4873
B( 46-N , 47-S ) :   1.3172 B( 46-N , 48-N ) :   0.1634 B( 47-S , 48-N ) :   1.3128
B( 49-C , 50-C ) :   1.3732 B( 49-C , 55-C ) :   0.1237 B( 49-C , 57-C ) :   1.3648
B( 50-C , 51-F ) :   1.1254 B( 50-C , 52-C ) :   1.2531 B( 52-C , 53-O ) :   1.2307
B( 52-C , 55-C ) :   1.3307 B( 53-O , 54-C ) :   0.9256 B( 54-C , 94-H ) :   0.9759
B( 54-C , 95-H ) :   0.9753 B( 54-C , 96-H ) :   0.9790 B( 55-C , 56-C ) :   1.3280
B( 55-C , 61-C ) :   1.0443 B( 56-C , 57-C ) :   1.2620 B( 56-C , 60-F ) :   1.1098
B( 57-C , 58-O ) :   1.2079 B( 58-O , 59-C ) :   0.9291 B( 59-C , 97-H ) :   0.9760
B( 59-C , 98-H ) :   0.9720 B( 59-C , 99-H ) :   0.9785 B( 61-C , 62-C ) :   1.7209
B( 61-C ,100-H ) :   0.9206 B( 62-C , 63-C ) :   1.0464 B( 62-C , 79-C ) :   0.9219
B( 63-C , 64-C ) :   1.6510 B( 63-C , 69-C ) :   0.9955 B( 64-C , 65-C ) :   1.1427
B( 64-C , 67-C ) :   1.1399 B( 65-C , 66-N ) :   2.9659 B( 67-C , 68-N ) :   2.9658
B( 69-C , 70-C ) :   1.2128 B( 69-C , 78-C ) :   1.4393 B( 70-C , 71-C ) :   1.4643
B( 70-C , 79-C ) :   0.9388 B( 71-C , 72-C ) :   1.1826 B( 71-C ,101-H ) :   1.0171
B( 72-C , 73-C ) :   1.2411 B( 72-C , 77-C ) :   1.2542 B( 73-C , 74-C ) :   1.4903
B( 73-C ,102-H ) :   0.9986 B( 74-C , 75-C ) :   1.2570 B( 74-C ,103-H ) :   0.9890
B( 75-C , 76-C ) :   1.4928 B( 75-C ,104-H ) :   0.9878 B( 76-C , 77-C ) :   1.2363
B( 76-C ,105-H ) :   0.9980 B( 77-C , 78-C ) :   1.2102 B( 78-C ,106-H ) :   0.9908
B( 79-C , 80-O ) :   2.2263

-----------------------------------------------------------------------------
         ABSORPTION SPECTRUM VIA TRANSITION ELECTRIC DIPOLE MOMENTS
-----------------------------------------------------------------------------
State   Energy  Wavelength   fosc         T2         TX        TY        TZ
        (cm-1)    (nm)                  (au**2)     (au)      (au)      (au)
-----------------------------------------------------------------------------
   0   15645.1    639.2   0.153648740   3.23315   1.64268  -0.63560  -0.36163
   1   17141.5    583.4   0.035450422   0.68085   0.64379  -0.49618  -0.14207
   2   20006.6    499.8   0.326667369   5.37536  -2.16768   0.80324   0.17702
   3   22698.8    440.6   0.193795016   2.81070  -1.53649   0.36491   0.56280
   4   23463.3    426.2   0.136470639   1.91481  -1.31524   0.36006   0.23521
   5   23783.1    420.5   0.022220019   0.30757   0.16487   0.40772  -0.33787
   6   26052.3    383.8   0.129294380   1.63384   1.11817  -0.60123  -0.14849
   7   26588.8    376.1   0.027308537   0.33812  -0.46349   0.34813  -0.04594
   8   26903.3    371.7   0.017509723   0.21426  -0.40396  -0.06273  -0.21713
   9   27197.3    367.7   0.060695840   0.73470   0.58671   0.49039  -0.38728
  10   27685.2    361.2   0.159980633   1.90237  -1.25727  -0.39245   0.40942
  11   28125.0    355.6   0.071528095   0.83726   0.81734   0.41019  -0.03098
  12   28984.0    345.0   0.011523174   0.13088  -0.21213  -0.23372  -0.17681
  13   29136.5    343.2   0.170935322   1.93139  -0.22461   0.18643   1.35874
  14   29359.6    340.6   0.023012098   0.25804   0.29184  -0.15848   0.38438
  15   29499.6    339.0   0.067374404   0.75189   0.84943  -0.16740   0.04828
  16   29752.1    336.1   0.104770214   1.15930   0.65320  -0.77332   0.36688
  17   30068.7    332.6   0.010547234   0.11548   0.00454   0.27857  -0.19457
  18   30524.1    327.6   0.039266587   0.42350  -0.58852  -0.09462  -0.26114
  19   30694.3    325.8   0.140521964   1.50717  -1.16333  -0.39079   0.03329
  20   31018.8    322.4   0.005590217   0.05933   0.19299  -0.14469   0.03392
  21   31681.8    315.6   0.095660875   0.99403   0.31424   0.53635   0.77949
  22   32007.1    312.4   0.004696604   0.04831   0.13700   0.00824   0.17167
  23   32040.4    312.1   0.052095185   0.53527  -0.33741  -0.40187  -0.50983
  24   32469.0    308.0   0.067320115   0.68258  -0.79581   0.19325  -0.10916
  25   32830.0    304.6   0.092320987   0.92577  -0.11879  -0.21882   0.92940
  26   32930.0    303.7   0.049545816   0.49533  -0.07812  -0.64423   0.27238
  27   33075.1    302.3   0.136734844   1.36098  -1.14652  -0.01281   0.21520
  28   33464.9    298.8   0.065378767   0.64317   0.64190   0.01494  -0.48053
  29   33883.8    295.1   0.003790067   0.03682   0.02230  -0.06224  -0.18015
  30   34154.1    292.8   0.132980013   1.28180  -0.73099   0.86410   0.02789
  31   34362.3    291.0   0.418568459   4.01014   1.94904   0.39984  -0.22698
  32   34616.7    288.9   0.038743250   0.36846  -0.47970  -0.33328   0.16515
  33   34654.7    288.6   0.195195012   1.85431  -0.53750  -1.17509  -0.42962
  34   34764.0    287.7   0.408017723   3.86389   0.86167   1.42413  -1.04559
  35   34896.6    286.6   0.197566875   1.86383   1.32449   0.22878   0.23918
  36   35408.7    282.4   0.782621362   7.27641  -2.55073   0.22707  -0.84772
  37   35891.5    278.6   0.056293668   0.51635   0.66691  -0.24178   0.11457
  38   36230.4    276.0   0.105402117   0.95775   0.73571   0.46036  -0.45227
  39   36334.0    275.2   0.023552375   0.21340  -0.19119  -0.25169   0.33690
  40   36398.2    274.7   0.117302195   1.06097   0.16167  -0.12191  -1.00993
  41   36859.2    271.3   0.053771687   0.48027   0.47275  -0.16267   0.47991
  42   37145.2    269.2   0.718207800   6.36536  -0.93295  -0.18146  -2.33710
  43   37405.9    267.3   0.008086644   0.07117  -0.04187  -0.06931  -0.25419
  44   38096.4    262.5   0.011109558   0.09600   0.08233   0.18138  -0.23734
  45   38985.6    256.5   0.011865667   0.10020   0.23693  -0.02300  -0.20865
  46   39090.8    255.8   0.078020638   0.65707   0.04852  -0.25263  -0.76869
  47   39323.7    254.3   0.069623192   0.58287   0.48797  -0.58374   0.06330
  48   39518.9    253.0   0.212354464   1.76902  -0.66081   0.96355   0.63555
  49   39538.7    252.9   0.059797815   0.49790  -0.03917   0.60214  -0.36578
  50   39975.3    250.2   0.033965228   0.27972  -0.47348  -0.02164   0.23467
  51   40074.5    249.5   0.038394023   0.31541   0.22353   0.05677   0.51207
  52   40318.6    248.0   0.022780009   0.18600   0.42751   0.04914  -0.02869

FINAL SINGLE POINT ENERGY     -4093.619981102238

DIPOLE MOMENT
-------------
                                X             Y             Z
Electronic contribution:      1.38474      -2.88950       9.28017
Nuclear contribution   :     -1.04945       5.54950      -8.59162
                        -----------------------------------------
Total Dipole Moment    :      0.33529       2.66000       0.68855
                        -----------------------------------------
Magnitude (a.u.)       :      2.76805
Magnitude (Debye)      :      7.03583

Rotational constants in cm-1:     0.002172     0.000262     0.000260
Rotational constants in MHz :    65.120782     7.854482     7.783916

                             ****ORCA TERMINATED NORMALLY****
TOTAL RUN TIME: 0 days 0 hours 12 minutes 14 seconds 400 msec
