                         Program Version 4.2.0 -  RELEASE  -
|  1> # ORCA input file
|  2> # SCF done       -195.246644700616          0.000873554767
|  3> ! CAM-B3LYP def2-SVP def2/J RIJCOSX Grid4 TightSCF
|  4> %maxcore 5000
|  5> %tddft
|  6>     Mode sTDDFT
|  7>     Ethresh 5.0
|  8>     maxcore 5000
|  9> end
| 10>
| 11> %pal
| 12>   nprocs 6
| 13>   end
| 14> * xyz 0 1
| 15>    C       -3.44465        -2.33235        -0.29640
| 16>    C       -3.19775        -2.57612        -1.62214
| 17>    C       -2.41771        -3.65242        -2.09473
| 18>    N       -1.79815        -4.51034        -2.53918
| 19>    C       -3.64808        -1.76951        -2.68868
| 20>    N       -3.96306        -1.14985        -3.60265
| 21>    C       -2.90042        -3.08310         0.82513
| 22>    C       -3.24200        -2.41287         2.02669
| 23>    C       -2.86593        -2.87535         3.26506
| 24>    C       -2.11975        -4.05596         3.32127
| 25>    C       -1.78850        -4.72252         2.11610
| 26>    C       -2.16667        -4.25396         0.86359
| 27>    S       -0.87311        -6.16327         2.42652
| 28>    C       -0.93717        -5.86665         4.12921
| 29>    C       -1.61143        -4.74336         4.45902
| 30>    C       -4.03517        -1.21097         1.71921
| 31>    O       -4.49410        -0.42878         2.52304
| 32>    C       -4.21691        -1.22460         0.24263
| 33>    C       -5.12096        -0.49092        -0.46809
| 34>    C       -5.85954         0.64038        -0.05152
| 35>    C       -5.62080         1.57366         0.94634
| 36>    C       -6.61419         2.54545         0.99966
| 37>    C       -7.62706         2.35211         0.03909
| 38>    S       -7.33075         1.00835        -0.95660
| 39>    C       -8.61765         3.35142         0.22397
| 40>    C       -8.22596         4.18132         1.28659
| 41>    C       -6.95163         3.70943         1.80591
| 42>    C       -6.23489         4.23946         2.83660
| 43>    C       -4.97899         3.73085         3.23535
| 44>    N       -3.94582         3.35315         3.55667
| 45>    C       -6.70181         5.34132         3.58641
| 46>    N       -7.08718         6.21782         4.21662
| 47>    C       -9.15174         5.19408         1.54996
| 48>    C      -10.24490         5.11786         0.71261
| 49>    S      -10.12690         3.79375        -0.43290
| 50>    C      -11.41149         5.95818         0.73475
| 51>    C      -12.68488         5.54034         0.38148
| 52>    C      -13.08091         4.27219        -0.04474
| 53>    N      -13.43096         3.23237        -0.38408
| 54>    S      -13.87934         6.78433         0.58686
| 55>    C      -12.67400         7.90346         1.14246
| 56>    C      -11.41260         7.31986         1.15921
| 57>    C      -10.24477         8.02179         1.49809
| 58>    N       -9.28566         8.60049         1.74751
| 59>    C      -13.06475         9.22154         1.50327
| 60>    C      -14.37213         9.67415         1.58321
| 61>    C      -14.43779        11.01115         1.96158
| 62>    C      -13.16776        11.58212         2.16070
| 63>    S      -11.89794        10.47373         1.89923
| 64>    C      -13.34138        12.94350         2.52060
| 65>    C      -14.71932        13.22547         2.56512
| 66>    C      -15.45405        12.02056         2.21845
| 67>    C      -16.80607        11.86094         2.15470
| 68>    C      -17.39469        10.62641         1.80526
| 69>    N      -17.86706         9.62010         1.52561
| 70>    C      -17.70433        12.91011         2.44680
| 71>    N      -18.43864        13.75505         2.69218
| 72>    C      -14.98855        14.54552         2.91732
| 73>    C      -13.83199        15.28511         3.09417
| 74>    S      -12.38564        14.30349         2.88451
| 75>    C      -13.77757        16.65043         3.47920
| 76>    C      -12.78392        17.55738         3.31165
| 77>    C      -11.58746        17.57000         2.49170
| 78>    C      -11.45080        16.98814         1.25885
| 79>    C      -10.30713        17.13140         0.44650
| 80>    N       -9.39373        17.20743        -0.24366
| 81>    C      -12.48036        16.26342         0.62454
| 82>    N      -13.31311        15.70362         0.06669
| 83>    C      -10.68343        18.55758         3.06518
| 84>    C      -11.39227        19.31294         4.03700
| 85>    C      -12.76057        18.78439         4.16539
| 86>    O      -13.66679        19.20133         4.84695
| 87>    C      -10.81610        20.35981         4.71639
| 88>    C       -9.48187        20.66697         4.43368
| 89>    C       -8.77970        19.89585         3.47420
| 90>    C       -9.36261        18.84258         2.77953
| 91>    S       -7.14552        20.44868         3.29763
| 92>    C       -7.41011        21.68471         4.47766
| 93>    C       -8.66100        21.68873         4.98821
| 94>    H       -3.13948        -2.33980         4.16085
| 95>    H       -1.89615        -4.79986        -0.02484
| 96>    H       -0.45834        -6.56409         4.78874
| 97>    H       -1.75350        -4.40010         5.46769
| 98>    H       -5.35530        -0.82664        -1.47195
| 99>    H       -4.76270         1.53581         1.59024
|100>    H       -9.04868         5.93083         2.32546
|101>    H      -15.22161         9.04710         1.37782
|102>    H      -15.96978        14.97499         3.00879
|103>    H      -14.63420        17.00454         4.04628
|104>    H      -11.37949        20.92563         5.44194
|105>    H       -8.79059        18.27737         2.06205
|106>    H       -6.59869        22.34283         4.72088
|107>    H       -9.00586        22.38402         5.73185
|108> *
|109>
|110>                          ****END OF INPUT****

CARTESIAN COORDINATES (ANGSTROEM)
---------------------------------
  C     -3.444650   -2.332350   -0.296400
  C     -3.197750   -2.576120   -1.622140
  C     -2.417710   -3.652420   -2.094730
  N     -1.798150   -4.510340   -2.539180
  C     -3.648080   -1.769510   -2.688680
  N     -3.963060   -1.149850   -3.602650
  C     -2.900420   -3.083100    0.825130
  C     -3.242000   -2.412870    2.026690
  C     -2.865930   -2.875350    3.265060
  C     -2.119750   -4.055960    3.321270
  C     -1.788500   -4.722520    2.116100
  C     -2.166670   -4.253960    0.863590
  S     -0.873110   -6.163270    2.426520
  C     -0.937170   -5.866650    4.129210
  C     -1.611430   -4.743360    4.459020
  C     -4.035170   -1.210970    1.719210
  O     -4.494100   -0.428780    2.523040
  C     -4.216910   -1.224600    0.242630
  C     -5.120960   -0.490920   -0.468090
  C     -5.859540    0.640380   -0.051520
  C     -5.620800    1.573660    0.946340
  C     -6.614190    2.545450    0.999660
  C     -7.627060    2.352110    0.039090
  S     -7.330750    1.008350   -0.956600
  C     -8.617650    3.351420    0.223970
  C     -8.225960    4.181320    1.286590
  C     -6.951630    3.709430    1.805910
  C     -6.234890    4.239460    2.836600
  C     -4.978990    3.730850    3.235350
  N     -3.945820    3.353150    3.556670
  C     -6.701810    5.341320    3.586410
  N     -7.087180    6.217820    4.216620
  C     -9.151740    5.194080    1.549960
  C    -10.244900    5.117860    0.712610
  S    -10.126900    3.793750   -0.432900
  C    -11.411490    5.958180    0.734750
  C    -12.684880    5.540340    0.381480
  C    -13.080910    4.272190   -0.044740
  N    -13.430960    3.232370   -0.384080
  S    -13.879340    6.784330    0.586860
  C    -12.674000    7.903460    1.142460
  C    -11.412600    7.319860    1.159210
  C    -10.244770    8.021790    1.498090
  N     -9.285660    8.600490    1.747510
  C    -13.064750    9.221540    1.503270
  C    -14.372130    9.674150    1.583210
  C    -14.437790   11.011150    1.961580
  C    -13.167760   11.582120    2.160700
  S    -11.897940   10.473730    1.899230
  C    -13.341380   12.943500    2.520600
  C    -14.719320   13.225470    2.565120
  C    -15.454050   12.020560    2.218450
  C    -16.806070   11.860940    2.154700
  C    -17.394690   10.626410    1.805260
  N    -17.867060    9.620100    1.525610
  C    -17.704330   12.910110    2.446800
  N    -18.438640   13.755050    2.692180
  C    -14.988550   14.545520    2.917320
  C    -13.831990   15.285110    3.094170
  S    -12.385640   14.303490    2.884510
  C    -13.777570   16.650430    3.479200
  C    -12.783920   17.557380    3.311650
  C    -11.587460   17.570000    2.491700
  C    -11.450800   16.988140    1.258850
  C    -10.307130   17.131400    0.446500
  N     -9.393730   17.207430   -0.243660
  C    -12.480360   16.263420    0.624540
  N    -13.313110   15.703620    0.066690
  C    -10.683430   18.557580    3.065180
  C    -11.392270   19.312940    4.037000
  C    -12.760570   18.784390    4.165390
  O    -13.666790   19.201330    4.846950
  C    -10.816100   20.359810    4.716390
  C     -9.481870   20.666970    4.433680
  C     -8.779700   19.895850    3.474200
  C     -9.362610   18.842580    2.779530
  S     -7.145520   20.448680    3.297630
  C     -7.410110   21.684710    4.477660
  C     -8.661000   21.688730    4.988210
  H     -3.139480   -2.339800    4.160850
  H     -1.896150   -4.799860   -0.024840
  H     -0.458340   -6.564090    4.788740
  H     -1.753500   -4.400100    5.467690
  H     -5.355300   -0.826640   -1.471950
  H     -4.762700    1.535810    1.590240
  H     -9.048680    5.930830    2.325460
  H    -15.221610    9.047100    1.377820
  H    -15.969780   14.974990    3.008790
  H    -14.634200   17.004540    4.046280
  H    -11.379490   20.925630    5.441940
  H     -8.790590   18.277370    2.062050
  H     -6.598690   22.342830    4.720880
  H     -9.005860   22.384020    5.731850

 Total Charge           Charge          ....    0
 Multiplicity           Mult            ....    1
 Number of Electrons    NEL             ....  572
 Basis Dimension        Dim             .... 1204

ORBITAL ENERGIES
----------------

  NO   OCC          E(Eh)            E(eV)
   0   2.0000     -89.012119     -2422.1429
   1   2.0000     -89.010354     -2422.0949
   2   2.0000     -89.006315     -2421.9850
   3   2.0000     -89.003551     -2421.9098
   4   2.0000     -88.999721     -2421.8055
   5   2.0000     -88.973778     -2421.0996
   6   2.0000     -88.968331     -2420.9514
   7   2.0000     -19.223939      -523.1100
   8   2.0000     -19.220516      -523.0168
   9   2.0000     -14.443573      -393.0296
  10   2.0000     -14.441758      -392.9802
  11   2.0000     -14.435087      -392.7987
  12   2.0000     -14.434030      -392.7699
  13   2.0000     -14.432304      -392.7230
  14   2.0000     -14.431918      -392.7124
  15   2.0000     -14.424801      -392.5188
  16   2.0000     -14.424672      -392.5153
  17   2.0000     -14.417846      -392.3295
  18   2.0000     -14.416651      -392.2970
  19   2.0000     -10.379700      -282.4460
  20   2.0000     -10.375468      -282.3308
  21   2.0000     -10.372431      -282.2482
  22   2.0000     -10.371971      -282.2357
  23   2.0000     -10.371356      -282.2190
  24   2.0000     -10.366632      -282.0904
  25   2.0000     -10.360821      -281.9323
  26   2.0000     -10.357933      -281.8537
  27   2.0000     -10.354399      -281.7575
  28   2.0000     -10.353301      -281.7276
  29   2.0000     -10.353153      -281.7236
  30   2.0000     -10.353048      -281.7208
  31   2.0000     -10.352881      -281.7162
  32   2.0000     -10.351222      -281.6711
  33   2.0000     -10.348183      -281.5884
  34   2.0000     -10.347912      -281.5810
  35   2.0000     -10.344722      -281.4942
  36   2.0000     -10.344642      -281.4920
  37   2.0000     -10.343517      -281.4614
  38   2.0000     -10.343410      -281.4585
  39   2.0000     -10.342728      -281.4399
  40   2.0000     -10.341310      -281.4013
  41   2.0000     -10.340047      -281.3670
  42   2.0000     -10.334404      -281.2134
  43   2.0000     -10.333595      -281.1914
  44   2.0000     -10.333470      -281.1880
  45   2.0000     -10.333158      -281.1795
  46   2.0000     -10.331656      -281.1387
  47   2.0000     -10.331611      -281.1374
  48   2.0000     -10.330300      -281.1018
  49   2.0000     -10.328810      -281.0612
  50   2.0000     -10.327627      -281.0290
  51   2.0000     -10.326762      -281.0055
  52   2.0000     -10.326705      -281.0039
  53   2.0000     -10.324433      -280.9421
  54   2.0000     -10.322541      -280.8906
  55   2.0000     -10.321658      -280.8666
  56   2.0000     -10.320903      -280.8460
  57   2.0000     -10.320743      -280.8417
  58   2.0000     -10.320310      -280.8299
  59   2.0000     -10.319331      -280.8033
  60   2.0000     -10.316204      -280.7182
  61   2.0000     -10.316183      -280.7176
  62   2.0000     -10.315902      -280.7100
  63   2.0000     -10.315758      -280.7061
  64   2.0000     -10.312657      -280.6217
  65   2.0000     -10.312157      -280.6081
  66   2.0000     -10.311480      -280.5896
  67   2.0000     -10.310814      -280.5715
  68   2.0000     -10.309544      -280.5370
  69   2.0000     -10.308557      -280.5101
  70   2.0000     -10.307446      -280.4799
  71   2.0000     -10.305413      -280.4245
  72   2.0000     -10.305264      -280.4205
  73   2.0000     -10.303757      -280.3795
  74   2.0000     -10.300769      -280.2982
  75   2.0000     -10.300137      -280.2810
  76   2.0000     -10.295629      -280.1583
  77   2.0000     -10.292755      -280.0801
  78   2.0000     -10.290609      -280.0217
  79   2.0000      -8.105965      -220.5745
  80   2.0000      -8.105406      -220.5593
  81   2.0000      -8.100496      -220.4257
  82   2.0000      -8.097693      -220.3494
  83   2.0000      -8.094477      -220.2619
  84   2.0000      -8.070038      -219.5969
  85   2.0000      -8.064634      -219.4499
  86   2.0000      -6.075267      -165.3164
  87   2.0000      -6.074906      -165.3066
  88   2.0000      -6.070887      -165.1972
  89   2.0000      -6.070556      -165.1882
  90   2.0000      -6.069752      -165.1664
  91   2.0000      -6.068356      -165.1284
  92   2.0000      -6.067197      -165.0968
  93   2.0000      -6.066972      -165.0907
  94   2.0000      -6.065479      -165.0501
  95   2.0000      -6.063579      -164.9984
  96   2.0000      -6.062935      -164.9808
  97   2.0000      -6.062610      -164.9720
  98   2.0000      -6.060174      -164.9057
  99   2.0000      -6.059445      -164.8859
 100   2.0000      -6.057030      -164.8202
 101   2.0000      -6.039554      -164.3446
 102   2.0000      -6.035220      -164.2267
 103   2.0000      -6.034144      -164.1974
 104   2.0000      -6.031726      -164.1316
 105   2.0000      -6.029829      -164.0800
 106   2.0000      -6.026298      -163.9839
 107   2.0000      -1.139707       -31.0130
 108   2.0000      -1.136312       -30.9206
 109   2.0000      -1.064953       -28.9789
 110   2.0000      -1.057584       -28.7783
 111   2.0000      -1.050042       -28.5731
 112   2.0000      -1.035272       -28.1712
 113   2.0000      -1.030690       -28.0465
 114   2.0000      -1.025948       -27.9175
 115   2.0000      -1.022700       -27.8291
 116   2.0000      -1.020913       -27.7804
 117   2.0000      -1.019697       -27.7474
 118   2.0000      -1.017431       -27.6857
 119   2.0000      -1.015373       -27.6297
 120   2.0000      -1.010777       -27.5046
 121   2.0000      -1.010195       -27.4888
 122   2.0000      -1.008656       -27.4469
 123   2.0000      -1.006358       -27.3844
 124   2.0000      -1.002522       -27.2800
 125   2.0000      -0.995894       -27.0996
 126   2.0000      -0.994397       -27.0589
 127   2.0000      -0.987662       -26.8756
 128   2.0000      -0.975898       -26.5555
 129   2.0000      -0.967852       -26.3366
 130   2.0000      -0.942943       -25.6588
 131   2.0000      -0.936978       -25.4965
 132   2.0000      -0.934290       -25.4233
 133   2.0000      -0.926515       -25.2118
 134   2.0000      -0.914207       -24.8768
 135   2.0000      -0.910258       -24.7694
 136   2.0000      -0.903746       -24.5922
 137   2.0000      -0.897400       -24.4195
 138   2.0000      -0.890034       -24.2190
 139   2.0000      -0.888358       -24.1735
 140   2.0000      -0.883439       -24.0396
 141   2.0000      -0.880729       -23.9658
 142   2.0000      -0.874790       -23.8043
 143   2.0000      -0.872974       -23.7548
 144   2.0000      -0.865895       -23.5622
 145   2.0000      -0.862826       -23.4787
 146   2.0000      -0.831151       -22.6168
 147   2.0000      -0.826673       -22.4949
 148   2.0000      -0.825062       -22.4511
 149   2.0000      -0.813352       -22.1324
 150   2.0000      -0.799466       -21.7546
 151   2.0000      -0.794623       -21.6228
 152   2.0000      -0.786822       -21.4105
 153   2.0000      -0.782083       -21.2816
 154   2.0000      -0.769161       -20.9299
 155   2.0000      -0.761854       -20.7311
 156   2.0000      -0.759317       -20.6621
 157   2.0000      -0.753054       -20.4916
 158   2.0000      -0.734459       -19.9856
 159   2.0000      -0.724124       -19.7044
 160   2.0000      -0.715223       -19.4622
 161   2.0000      -0.712881       -19.3985
 162   2.0000      -0.702932       -19.1278
 163   2.0000      -0.700255       -19.0549
 164   2.0000      -0.695957       -18.9380
 165   2.0000      -0.695193       -18.9172
 166   2.0000      -0.693257       -18.8645
 167   2.0000      -0.688522       -18.7356
 168   2.0000      -0.682311       -18.5666
 169   2.0000      -0.671184       -18.2638
 170   2.0000      -0.667351       -18.1595
 171   2.0000      -0.663754       -18.0617
 172   2.0000      -0.654785       -17.8176
 173   2.0000      -0.652362       -17.7517
 174   2.0000      -0.644900       -17.5486
 175   2.0000      -0.639713       -17.4075
 176   2.0000      -0.635480       -17.2923
 177   2.0000      -0.629754       -17.1365
 178   2.0000      -0.628490       -17.1021
 179   2.0000      -0.623904       -16.9773
 180   2.0000      -0.620687       -16.8898
 181   2.0000      -0.611524       -16.6404
 182   2.0000      -0.611224       -16.6322
 183   2.0000      -0.604820       -16.4580
 184   2.0000      -0.597824       -16.2676
 185   2.0000      -0.593347       -16.1458
 186   2.0000      -0.590932       -16.0801
 187   2.0000      -0.579991       -15.7823
 188   2.0000      -0.572181       -15.5698
 189   2.0000      -0.567057       -15.4304
 190   2.0000      -0.566910       -15.4264
 191   2.0000      -0.559475       -15.2241
 192   2.0000      -0.556619       -15.1464
 193   2.0000      -0.554083       -15.0774
 194   2.0000      -0.550779       -14.9874
 195   2.0000      -0.549904       -14.9637
 196   2.0000      -0.548660       -14.9298
 197   2.0000      -0.542831       -14.7712
 198   2.0000      -0.541137       -14.7251
 199   2.0000      -0.540479       -14.7072
 200   2.0000      -0.538348       -14.6492
 201   2.0000      -0.535547       -14.5730
 202   2.0000      -0.528523       -14.3818
 203   2.0000      -0.526631       -14.3304
 204   2.0000      -0.524242       -14.2654
 205   2.0000      -0.520936       -14.1754
 206   2.0000      -0.520193       -14.1552
 207   2.0000      -0.517315       -14.0769
 208   2.0000      -0.514339       -13.9959
 209   2.0000      -0.512224       -13.9383
 210   2.0000      -0.510524       -13.8921
 211   2.0000      -0.508729       -13.8432
 212   2.0000      -0.506205       -13.7745
 213   2.0000      -0.504837       -13.7373
 214   2.0000      -0.504065       -13.7163
 215   2.0000      -0.501648       -13.6505
 216   2.0000      -0.498761       -13.5720
 217   2.0000      -0.495836       -13.4924
 218   2.0000      -0.495082       -13.4719
 219   2.0000      -0.494417       -13.4538
 220   2.0000      -0.491632       -13.3780
 221   2.0000      -0.488405       -13.2902
 222   2.0000      -0.484718       -13.1899
 223   2.0000      -0.482605       -13.1324
 224   2.0000      -0.481561       -13.1039
 225   2.0000      -0.474924       -12.9234
 226   2.0000      -0.474416       -12.9095
 227   2.0000      -0.473011       -12.8713
 228   2.0000      -0.472711       -12.8631
 229   2.0000      -0.467678       -12.7262
 230   2.0000      -0.465692       -12.6721
 231   2.0000      -0.463498       -12.6124
 232   2.0000      -0.462539       -12.5863
 233   2.0000      -0.460137       -12.5210
 234   2.0000      -0.459822       -12.5124
 235   2.0000      -0.457823       -12.4580
 236   2.0000      -0.457481       -12.4487
 237   2.0000      -0.456988       -12.4353
 238   2.0000      -0.454729       -12.3738
 239   2.0000      -0.454173       -12.3587
 240   2.0000      -0.452432       -12.3113
 241   2.0000      -0.452231       -12.3058
 242   2.0000      -0.451579       -12.2881
 243   2.0000      -0.450306       -12.2534
 244   2.0000      -0.450236       -12.2516
 245   2.0000      -0.445066       -12.1109
 246   2.0000      -0.442947       -12.0532
 247   2.0000      -0.442081       -12.0296
 248   2.0000      -0.441780       -12.0215
 249   2.0000      -0.440666       -11.9911
 250   2.0000      -0.439646       -11.9634
 251   2.0000      -0.437255       -11.8983
 252   2.0000      -0.436973       -11.8906
 253   2.0000      -0.435530       -11.8514
 254   2.0000      -0.434644       -11.8273
 255   2.0000      -0.433180       -11.7874
 256   2.0000      -0.430512       -11.7148
 257   2.0000      -0.429130       -11.6772
 258   2.0000      -0.428354       -11.6561
 259   2.0000      -0.427132       -11.6229
 260   2.0000      -0.424185       -11.5427
 261   2.0000      -0.422622       -11.5001
 262   2.0000      -0.417283       -11.3549
 263   2.0000      -0.412288       -11.2189
 264   2.0000      -0.410882       -11.1807
 265   2.0000      -0.406763       -11.0686
 266   2.0000      -0.400631       -10.9017
 267   2.0000      -0.391973       -10.6661
 268   2.0000      -0.383338       -10.4311
 269   2.0000      -0.379389       -10.3237
 270   2.0000      -0.368877       -10.0377
 271   2.0000      -0.365393        -9.9429
 272   2.0000      -0.363694        -9.8966
 273   2.0000      -0.358663        -9.7597
 274   2.0000      -0.346874        -9.4389
 275   2.0000      -0.345051        -9.3893
 276   2.0000      -0.338535        -9.2120
 277   2.0000      -0.332857        -9.0575
 278   2.0000      -0.328198        -8.9307
 279   2.0000      -0.323472        -8.8021
 280   2.0000      -0.320979        -8.7343
 281   2.0000      -0.315958        -8.5977
 282   2.0000      -0.302974        -8.2443
 283   2.0000      -0.297116        -8.0849
 284   2.0000      -0.281319        -7.6551
 285   2.0000      -0.272714        -7.4209
 286   0.0000      -0.125558        -3.4166
 287   0.0000      -0.116332        -3.1655
 288   0.0000      -0.097462        -2.6521
 289   0.0000      -0.090295        -2.4570
 290   0.0000      -0.079111        -2.1527

MULLIKEN ATOMIC CHARGES
-----------------------
   0 C :    0.292228
   1 C :   -0.339004
   2 C :   -0.184711
   3 N :    0.151605
   4 C :   -0.205208
   5 N :    0.160576
   6 C :    0.018139
   7 C :   -0.020297
   8 C :   -0.062418
   9 C :    0.114664
  10 C :   -0.093578
  11 C :   -0.021375
  12 S :    0.143166
  13 C :   -0.047641
  14 C :    0.023992
  15 C :    0.148905
  16 O :   -0.149925
  17 C :   -0.086694
  18 C :    0.026741
  19 C :   -0.115882
  20 C :    0.040993
  21 C :   -0.020927
  22 C :   -0.085743
  23 S :    0.214649
  24 C :   -0.090478
  25 C :    0.018447
  26 C :    0.302782
  27 C :   -0.290186
  28 C :   -0.185726
  29 N :    0.189079
  30 C :   -0.191888
  31 N :    0.180452
  32 C :   -0.020465
  33 C :   -0.178919
  34 S :    0.229022
  35 C :    0.315397
  36 C :   -0.323095
  37 C :   -0.221685
  38 N :    0.165636
  39 S :    0.238652
  40 C :   -0.028362
  41 C :   -0.075046
  42 C :   -0.307224
  43 N :    0.184780
  44 C :   -0.081541
  45 C :   -0.060772
  46 C :    0.031728
  47 C :   -0.084981
  48 S :    0.239080
  49 C :   -0.087248
  50 C :    0.031094
  51 C :    0.299544
  52 C :   -0.285872
  53 C :   -0.186641
  54 N :    0.177432
  55 C :   -0.190018
  56 N :    0.184027
  57 C :    0.008649
  58 C :   -0.096520
  59 S :    0.221864
  60 C :    0.040343
  61 C :   -0.123689
  62 C :    0.244604
  63 C :   -0.323174
  64 C :   -0.176384
  65 N :    0.161387
  66 C :   -0.205261
  67 N :    0.172500
  68 C :    0.003859
  69 C :   -0.000604
  70 C :    0.137317
  71 O :   -0.137854
  72 C :   -0.064487
  73 C :    0.105909
  74 C :   -0.089920
  75 C :   -0.020234
  76 S :    0.145748
  77 C :   -0.048852
  78 C :    0.028119
  79 H :   -0.009186
  80 H :   -0.006096
  81 H :    0.040294
  82 H :   -0.005020
  83 H :    0.024782
  84 H :    0.032361
  85 H :    0.028804
  86 H :    0.023840
  87 H :    0.019626
  88 H :    0.037342
  89 H :   -0.006954
  90 H :   -0.000502
  91 H :    0.041940
  92 H :   -0.003813
Sum of atomic charges:   -0.0000000

LOEWDIN ATOMIC CHARGES
----------------------
   0 C :    0.075325
   1 C :   -0.139912
   2 C :   -0.018690
   3 N :   -0.050740
   4 C :   -0.025563
   5 N :   -0.051064
   6 C :   -0.022982
   7 C :   -0.053307
   8 C :    0.025944
   9 C :   -0.033877
  10 C :   -0.144940
  11 C :   -0.007906
  12 S :    0.431564
  13 C :   -0.148034
  14 C :   -0.056981
  15 C :    0.085041
  16 O :   -0.136936
  17 C :   -0.088764
  18 C :    0.041544
  19 C :   -0.174889
  20 C :    0.022227
  21 C :   -0.069283
  22 C :   -0.166317
  23 S :    0.500058
  24 C :   -0.178049
  25 C :   -0.060225
  26 C :    0.075320
  27 C :   -0.090494
  28 C :   -0.019141
  29 N :   -0.018675
  30 C :   -0.018122
  31 N :   -0.022727
  32 C :   -0.010662
  33 C :   -0.173103
  34 S :    0.520096
  35 C :   -0.012039
  36 C :   -0.231522
  37 C :   -0.077648
  38 N :   -0.032595
  39 S :    0.514843
  40 C :   -0.127602
  41 C :   -0.112907
  42 C :   -0.053600
  43 N :   -0.031890
  44 C :   -0.193818
  45 C :   -0.017899
  46 C :   -0.060047
  47 C :   -0.171091
  48 S :    0.531029
  49 C :   -0.161592
  50 C :   -0.063442
  51 C :    0.078652
  52 C :   -0.092520
  53 C :   -0.016132
  54 N :   -0.026681
  55 C :   -0.017830
  56 N :   -0.021183
  57 C :    0.009640
  58 C :   -0.171654
  59 S :    0.516753
  60 C :    0.045732
  61 C :   -0.089005
  62 C :    0.061544
  63 C :   -0.141180
  64 C :   -0.021307
  65 N :   -0.044329
  66 C :   -0.035068
  67 N :   -0.048110
  68 C :   -0.020720
  69 C :   -0.055896
  70 C :    0.084510
  71 O :   -0.137449
  72 C :    0.026477
  73 C :   -0.033920
  74 C :   -0.143878
  75 C :   -0.009419
  76 S :    0.434301
  77 C :   -0.146688
  78 C :   -0.056558
  79 H :    0.041626
  80 H :    0.040947
  81 H :    0.030017
  82 H :    0.036030
  83 H :    0.044429
  84 H :    0.045628
  85 H :    0.046137
  86 H :    0.038250
  87 H :    0.047832
  88 H :    0.056074
  89 H :    0.042271
  90 H :    0.041392
  91 H :    0.030837
  92 H :    0.036531

  Mayer bond orders larger than 0.100000
B(  0-C ,  1-C ) :   1.6417 B(  0-C ,  6-C ) :   1.0088 B(  0-C , 17-C ) :   1.0612
B(  1-C ,  2-C ) :   1.1394 B(  1-C ,  4-C ) :   1.1392 B(  2-C ,  3-N ) :   2.9749
B(  4-C ,  5-N ) :   2.9953 B(  6-C ,  7-C ) :   1.2670 B(  6-C , 11-C ) :   1.4094
B(  7-C ,  8-C ) :   1.4238 B(  7-C , 15-C ) :   0.9507 B(  8-C ,  9-C ) :   1.2466
B(  8-C , 79-H ) :   1.0169 B(  9-C , 10-C ) :   1.3004 B(  9-C , 14-C ) :   1.1702
B( 10-C , 11-C ) :   1.3233 B( 10-C , 12-S ) :   1.0998 B( 11-C , 80-H ) :   0.9839
B( 12-S , 13-C ) :   1.1265 B( 13-C , 14-C ) :   1.6291 B( 13-C , 81-H ) :   0.9683
B( 14-C , 82-H ) :   1.0003 B( 15-C , 16-O ) :   2.2002 B( 15-C , 17-C ) :   0.9379
B( 17-C , 18-C ) :   1.6276 B( 18-C , 19-C ) :   1.1721 B( 18-C , 83-H ) :   0.9283
B( 19-C , 20-C ) :   1.4235 B( 19-C , 23-S ) :   1.0832 B( 20-C , 21-C ) :   1.3304
B( 20-C , 84-H ) :   0.9761 B( 21-C , 22-C ) :   1.4004 B( 21-C , 26-C ) :   0.9931
B( 22-C , 23-S ) :   1.1623 B( 22-C , 24-C ) :   1.1873 B( 24-C , 25-C ) :   1.4327
B( 24-C , 34-S ) :   1.1370 B( 25-C , 26-C ) :   0.9902 B( 25-C , 32-C ) :   1.2962
B( 26-C , 27-C ) :   1.7247 B( 27-C , 28-C ) :   1.1327 B( 27-C , 30-C ) :   1.1363
B( 28-C , 29-N ) :   2.9948 B( 30-C , 31-N ) :   2.9860 B( 32-C , 33-C ) :   1.4765
B( 32-C , 85-H ) :   0.9826 B( 33-C , 34-S ) :   1.1164 B( 33-C , 35-C ) :   1.0486
B( 35-C , 36-C ) :   1.4978 B( 35-C , 41-C ) :   1.2665 B( 36-C , 37-C ) :   1.2118
B( 36-C , 39-S ) :   1.1128 B( 36-C , 40-C ) :   0.1097 B( 37-C , 38-N ) :   2.9948
B( 39-S , 40-C ) :   1.1619 B( 40-C , 41-C ) :   1.4746 B( 40-C , 44-C ) :   1.1763
B( 41-C , 42-C ) :   1.1100 B( 42-C , 43-N ) :   2.9747 B( 44-C , 45-C ) :   1.4220
B( 44-C , 48-S ) :   1.1092 B( 45-C , 46-C ) :   1.3254 B( 45-C , 86-H ) :   0.9834
B( 46-C , 47-C ) :   1.4226 B( 46-C , 51-C ) :   0.9905 B( 47-C , 48-S ) :   1.1371
B( 47-C , 49-C ) :   1.1963 B( 49-C , 50-C ) :   1.4155 B( 49-C , 59-S ) :   1.1500
B( 50-C , 51-C ) :   0.9930 B( 50-C , 57-C ) :   1.2925 B( 51-C , 52-C ) :   1.7233
B( 52-C , 53-C ) :   1.1339 B( 52-C , 55-C ) :   1.1332 B( 53-C , 54-N ) :   2.9860
B( 55-C , 56-N ) :   2.9934 B( 57-C , 58-C ) :   1.4184 B( 57-C , 87-H ) :   1.0019
B( 58-C , 59-S ) :   1.1018 B( 58-C , 60-C ) :   1.1054 B( 60-C , 61-C ) :   1.6875
B( 60-C , 88-H ) :   0.9438 B( 61-C , 62-C ) :   1.0213 B( 61-C , 70-C ) :   0.9285
B( 62-C , 63-C ) :   1.6614 B( 62-C , 68-C ) :   1.0217 B( 63-C , 64-C ) :   1.1284
B( 63-C , 66-C ) :   1.1563 B( 64-C , 65-N ) :   2.9963 B( 66-C , 67-N ) :   3.0170
B( 68-C , 69-C ) :   1.2663 B( 68-C , 75-C ) :   1.4108 B( 69-C , 70-C ) :   0.9270
B( 69-C , 72-C ) :   1.4251 B( 70-C , 71-O ) :   2.2723 B( 72-C , 73-C ) :   1.2524
B( 72-C , 89-H ) :   1.0174 B( 73-C , 74-C ) :   1.2986 B( 73-C , 78-C ) :   1.1743
B( 74-C , 75-C ) :   1.3225 B( 74-C , 76-S ) :   1.0997 B( 75-C , 90-H ) :   0.9875
B( 76-S , 77-C ) :   1.1280 B( 77-C , 78-C ) :   1.6283 B( 77-C , 91-H ) :   0.9682
B( 78-C , 92-H ) :   1.0002

-----------------------------------------------------------------------------
         ABSORPTION SPECTRUM VIA TRANSITION ELECTRIC DIPOLE MOMENTS
-----------------------------------------------------------------------------
State   Energy  Wavelength   fosc         T2         TX        TY        TZ
        (cm-1)    (nm)                  (au**2)     (au)      (au)      (au)
-----------------------------------------------------------------------------
   0   14803.2    675.5   0.311476640   6.92699   0.38710  -2.58033  -0.34501
   1   15995.7    625.2   0.214154889   4.40758  -1.52799   1.43015   0.16584
   2   21738.3    460.0   1.015557549  15.37994   0.18664   3.91170   0.20913
   3   22437.7    445.7   0.045250952   0.66393  -0.52492   0.61871  -0.07480
   4   22957.0    435.6   0.940022401  13.48027   2.73343  -2.37648  -0.60082
   5   24098.8    415.0   0.041592998   0.56820  -0.36104   0.56299   0.34769
   6   24660.6    405.5   0.068595578   0.91573   0.65898   0.50182   0.47922
   7   25867.3    386.6   0.116787251   1.48634   0.63158  -0.90568   0.51691
   8   26813.7    372.9   0.169344344   2.07917  -0.05165  -1.32461  -0.56737
   9   27280.7    366.6   0.153202085   1.84878   1.02344  -0.76284  -0.46843
  10   27563.5    362.8   0.279889978   3.34294  -0.60395   1.60383   0.63712
  11   28250.4    354.0   0.204953942   2.38840  -1.32441   0.66759  -0.43434
  12   28535.4    350.4   0.023048839   0.26591   0.08569  -0.24796   0.44395
  13   28783.4    347.4   0.049764027   0.56918  -0.41993   0.59178   0.20649
  14   29012.3    344.7   0.067043064   0.76076   0.11669  -0.86144  -0.07114
  15   29141.2    343.2   0.034951612   0.39485   0.43650  -0.44135  -0.09766
  16   30207.4    331.0   0.302631246   3.29819  -0.25894   1.79304  -0.12713
  17   30329.2    329.7   0.309291335   3.35725  -1.54230  -0.88417  -0.44362
  18   30478.5    328.1   0.145486653   1.57147   1.15278  -0.34912  -0.34738
  19   30870.9    323.9   0.465769791   4.96704  -0.98332  -0.03144  -1.99978
  20   31250.4    320.0   0.690648557   7.27574   2.15877   0.78288   1.41512
  21   31544.4    317.0   0.037525953   0.39164  -0.49943  -0.04669  -0.37420
  22   31650.4    316.0   0.090545638   0.94181   0.88656   0.38661   0.07969
  23   32006.3    312.4   0.040934441   0.42104   0.22909   0.42364  -0.43484
  24   32446.0    308.2   0.055132485   0.55940   0.72221   0.03495  -0.19129
  25   32514.0    307.6   0.163595833   1.65644  -0.06073   1.23579  -0.35439
  26   32722.9    305.6   0.098236101   0.98831   0.83807  -0.36620   0.38969
  27   32910.0    303.9   0.207977619   2.08048   0.06501   1.36466   0.46255
  28   33004.2    303.0   0.159532489   1.59131  -1.07515   0.65429   0.08530
  29   33636.5    297.3   0.075967024   0.74352  -0.15840  -0.51624  -0.67225
  30   33669.6    297.0   0.006958802   0.06804   0.06386   0.00838  -0.25277
  31   33752.8    296.3   0.043030227   0.41970   0.59607  -0.24826   0.05267
  32   33791.0    295.9   0.003358921   0.03272   0.06113  -0.16113  -0.05499
  33   33963.9    294.4   0.008865601   0.08593  -0.09811   0.17401   0.21454
  34   34345.4    291.2   0.265313522   2.54312  -1.56906  -0.09943  -0.26702
  35   34401.7    290.7   0.455244758   4.35653  -0.10715   0.46024  -2.03303
  36   34609.9    288.9   0.094527580   0.89915   0.90460   0.24472   0.14478
  37   34910.1    286.5   0.322902066   3.04506  -1.40350  -0.69067  -0.77345
  38   35010.9    285.6   0.154529019   1.45306   0.26642  -0.75307  -0.90276
  39   35541.3    281.4   0.036424398   0.33739   0.36112  -0.00799   0.45489
  40   35634.4    280.6   0.143664317   1.32726   0.27266   0.75731   0.82426
  41   36037.4    277.5   0.042393136   0.38727   0.12000   0.54576   0.27390
  42   36099.0    277.0   0.002816131   0.02568  -0.12438   0.08929   0.04731
  43   37068.6    269.8   0.098057868   0.87087  -0.08597  -0.69042  -0.62193
  44   37560.8    266.2   0.013210103   0.11578   0.26133   0.20808   0.06477
  45   37888.7    263.9   0.002115327   0.01838  -0.02715  -0.11283   0.07009
  46   38149.1    262.1   0.007548583   0.06514   0.14684  -0.12293   0.16872
  47   38206.7    261.7   0.015286737   0.13172  -0.23800   0.27381   0.01010
  48   38408.1    260.4   0.036661559   0.31424  -0.35289   0.23626   0.36591
  49   38551.9    259.4   0.107567287   0.91856  -0.30443   0.65139   0.63370
  50   38941.0    256.8   0.070410217   0.59526  -0.65093   0.12139   0.39600
  51   39166.9    255.3   0.034751331   0.29210   0.49517  -0.20785  -0.06081
  52   39227.7    254.9   0.023830762   0.20000   0.39106  -0.10528  -0.18969
  53   39434.0    253.6   0.082119282   0.68557  -0.32137   0.49321   0.58227
  54   39535.2    252.9   0.016016045   0.13337   0.02935  -0.28656   0.22447
  55   39793.6    251.3   0.029410054   0.24331   0.24565   0.07794  -0.42058
  56   39836.9    251.0   0.193462585   1.59877  -0.86502   0.70573   0.59367
  57   39891.7    250.7   0.052593392   0.43403   0.58680   0.26578   0.13807

FINAL SINGLE POINT ENERGY     -5775.247273188299

DIPOLE MOMENT
-------------
                                X             Y             Z
Electronic contribution:    -18.02267      -5.40022     -15.20379
Nuclear contribution   :     18.69746       6.69007      18.29761
                        -----------------------------------------
Total Dipole Moment    :      0.67480       1.28985       3.09382
                        -----------------------------------------
Magnitude (a.u.)       :      3.41918
Magnitude (Debye)      :      8.69086

Rotational constants in cm-1:     0.001206     0.000182     0.000166
Rotational constants in MHz :    36.152381     5.452834     4.975000

                             ****ORCA TERMINATED NORMALLY****
TOTAL RUN TIME: 0 days 0 hours 10 minutes 36 seconds 5 msec
