                         Program Version 4.2.0 -  RELEASE  -
|  1> # ORCA input file
|  2> # SCF done       -176.737274052751          0.000225609927
|  3> ! CAM-B3LYP def2-SVP def2/J RIJCOSX Grid4 TightSCF
|  4> %maxcore 5000
|  5> %tddft
|  6>     Mode sTDDFT
|  7>     Ethresh 5.0
|  8>     maxcore 5000
|  9> end
| 10>
| 11> %pal
| 12>   nprocs 6
| 13>   end
| 14> * xyz 0 1
| 15>    C       -2.90981        -0.93187        -1.84322
| 16>    C       -1.75365        -0.22176        -1.65211
| 17>    C       -0.46383        -0.73940        -1.89859
| 18>    N        0.60916        -1.10459        -2.07897
| 19>    C       -1.67126         1.12959        -1.25123
| 20>    N       -1.51321         2.23034        -0.96494
| 21>    C       -2.98638        -2.27788        -2.39557
| 22>    C       -4.34532        -2.58258        -2.64754
| 23>    C       -4.75027        -3.77763        -3.19131
| 24>    C       -3.76514        -4.72249        -3.49423
| 25>    C       -2.40871        -4.41378        -3.22966
| 26>    C       -1.99998        -3.20289        -2.68489
| 27>    S       -1.35770        -5.72430        -3.67169
| 28>    C       -2.73406        -6.65507        -4.20111
| 29>    C       -3.92112        -6.01967        -4.05422
| 30>   Br       -2.47450        -8.37677        -4.89664
| 31>    C       -5.19459        -1.44884        -2.23584
| 32>    O       -6.39921        -1.39207        -2.36462
| 33>    C       -4.27064        -0.45408        -1.63701
| 34>    C       -4.56983         0.65472        -0.89456
| 35>    C       -5.79681         1.29658        -0.62543
| 36>    C       -7.09019         1.09721        -1.08440
| 37>    C       -8.01959         2.01224        -0.59826
| 38>    C       -9.46922         1.89866        -0.92171
| 39>    C       -7.44015         2.94948         0.26190
| 40>    S       -5.75121         2.63768         0.48956
| 41>    C       -8.03292         4.06209         0.93904
| 42>    C       -7.54223         4.48301         2.20050
| 43>    C       -8.10317         5.59178         2.93381
| 44>    N       -7.56815         5.93624         4.11506
| 45>    C       -6.56066         5.25509         4.59846
| 46>    C       -6.03465         4.12271         3.89331
| 47>    N       -6.53366         3.77998         2.73507
| 48>    C       -4.98165         3.35494         4.45145
| 49>    N       -4.13463         2.75538         4.93532
| 50>    C       -6.00704         5.64666         5.84380
| 51>    N       -5.55110         5.94472         6.85109
| 52>    C       -9.18434         6.34651         2.41951
| 53>    C       -9.62514         5.96566         1.13483
| 54>    C       -9.07578         4.84625         0.40828
| 55>    N       -9.64002         4.73075        -0.79808
| 56>    S      -10.74895         5.86574        -0.98435
| 57>    N      -10.57423         6.58946         0.43490
| 58>    C       -9.82053         7.41743         3.10688
| 59>    C       -9.69989         7.81834         4.42901
| 60>    C      -10.53731         8.87209         4.78238
| 61>    C      -10.61798         9.44538         6.15333
| 62>    C      -11.34001         9.29094         3.71760
| 63>    S      -10.99637         8.37963         2.27430
| 64>    C      -12.26752        10.35565         3.72719
| 65>    C      -13.25453        10.62410         2.82700
| 66>    C      -13.83843         9.82202         1.77177
| 67>    C      -14.04313         8.46725         1.80731
| 68>    C      -14.60766         7.72535         0.75344
| 69>    N      -15.01512         7.06966        -0.09673
| 70>    C      -13.74806         7.68007         2.94063
| 71>    N      -13.58033         7.02388         3.86729
| 72>    C      -14.42058        10.74301         0.80446
| 73>    C      -14.43260        12.04433         1.36952
| 74>    C      -13.78469        12.00757         2.69803
| 75>    O      -13.65541        12.91355         3.48810
| 76>    C      -14.96897        13.12475         0.71210
| 77>    C      -15.50523        12.91344        -0.56293
| 78>    C      -15.47605        11.61253        -1.12138
| 79>    C      -14.94421        10.51655        -0.45352
| 80>    S      -16.18107        11.58229        -2.70865
| 81>    C      -16.50623        13.29233        -2.60173
| 82>    C      -16.10638        13.85882        -1.43845
| 83>   Br      -17.33864        14.16602        -4.03693
| 84>    H       -5.79433        -3.97681        -3.37544
| 85>    H       -0.95548        -3.01786        -2.49855
| 86>    H       -4.86835        -6.44674        -4.32862
| 87>    H       -3.73077         1.13946        -0.40807
| 88>    H       -7.34692         0.29713        -1.75413
| 89>    H       -9.70405         0.86557        -1.16551
| 90>    H       -9.71604         2.52216        -1.77881
| 91>    H      -10.08511         2.21803        -0.08507
| 92>    H       -9.02251         7.33942         5.11124
| 93>    H      -11.57593         9.19534         6.60819
| 94>    H      -10.53489        10.53085         6.12551
| 95>    H       -9.82241         9.04556         6.77551
| 96>    H      -12.12767        11.10864         4.49704
| 97>    H      -14.97618        14.10332         1.16579
| 98>    H      -14.93796         9.54275        -0.91506
| 99>    H      -16.22879        14.90082        -1.20585
|100> *
|101>
|102>                          ****END OF INPUT****

CARTESIAN COORDINATES (ANGSTROEM)
---------------------------------
  C     -2.909810   -0.931870   -1.843220
  C     -1.753650   -0.221760   -1.652110
  C     -0.463830   -0.739400   -1.898590
  N      0.609160   -1.104590   -2.078970
  C     -1.671260    1.129590   -1.251230
  N     -1.513210    2.230340   -0.964940
  C     -2.986380   -2.277880   -2.395570
  C     -4.345320   -2.582580   -2.647540
  C     -4.750270   -3.777630   -3.191310
  C     -3.765140   -4.722490   -3.494230
  C     -2.408710   -4.413780   -3.229660
  C     -1.999980   -3.202890   -2.684890
  S     -1.357700   -5.724300   -3.671690
  C     -2.734060   -6.655070   -4.201110
  C     -3.921120   -6.019670   -4.054220
  Br    -2.474500   -8.376770   -4.896640
  C     -5.194590   -1.448840   -2.235840
  O     -6.399210   -1.392070   -2.364620
  C     -4.270640   -0.454080   -1.637010
  C     -4.569830    0.654720   -0.894560
  C     -5.796810    1.296580   -0.625430
  C     -7.090190    1.097210   -1.084400
  C     -8.019590    2.012240   -0.598260
  C     -9.469220    1.898660   -0.921710
  C     -7.440150    2.949480    0.261900
  S     -5.751210    2.637680    0.489560
  C     -8.032920    4.062090    0.939040
  C     -7.542230    4.483010    2.200500
  C     -8.103170    5.591780    2.933810
  N     -7.568150    5.936240    4.115060
  C     -6.560660    5.255090    4.598460
  C     -6.034650    4.122710    3.893310
  N     -6.533660    3.779980    2.735070
  C     -4.981650    3.354940    4.451450
  N     -4.134630    2.755380    4.935320
  C     -6.007040    5.646660    5.843800
  N     -5.551100    5.944720    6.851090
  C     -9.184340    6.346510    2.419510
  C     -9.625140    5.965660    1.134830
  C     -9.075780    4.846250    0.408280
  N     -9.640020    4.730750   -0.798080
  S    -10.748950    5.865740   -0.984350
  N    -10.574230    6.589460    0.434900
  C     -9.820530    7.417430    3.106880
  C     -9.699890    7.818340    4.429010
  C    -10.537310    8.872090    4.782380
  C    -10.617980    9.445380    6.153330
  C    -11.340010    9.290940    3.717600
  S    -10.996370    8.379630    2.274300
  C    -12.267520   10.355650    3.727190
  C    -13.254530   10.624100    2.827000
  C    -13.838430    9.822020    1.771770
  C    -14.043130    8.467250    1.807310
  C    -14.607660    7.725350    0.753440
  N    -15.015120    7.069660   -0.096730
  C    -13.748060    7.680070    2.940630
  N    -13.580330    7.023880    3.867290
  C    -14.420580   10.743010    0.804460
  C    -14.432600   12.044330    1.369520
  C    -13.784690   12.007570    2.698030
  O    -13.655410   12.913550    3.488100
  C    -14.968970   13.124750    0.712100
  C    -15.505230   12.913440   -0.562930
  C    -15.476050   11.612530   -1.121380
  C    -14.944210   10.516550   -0.453520
  S    -16.181070   11.582290   -2.708650
  C    -16.506230   13.292330   -2.601730
  C    -16.106380   13.858820   -1.438450
  Br   -17.338640   14.166020   -4.036930
  H     -5.794330   -3.976810   -3.375440
  H     -0.955480   -3.017860   -2.498550
  H     -4.868350   -6.446740   -4.328620
  H     -3.730770    1.139460   -0.408070
  H     -7.346920    0.297130   -1.754130
  H     -9.704050    0.865570   -1.165510
  H     -9.716040    2.522160   -1.778810
  H    -10.085110    2.218030   -0.085070
  H     -9.022510    7.339420    5.111240
  H    -11.575930    9.195340    6.608190
  H    -10.534890   10.530850    6.125510
  H     -9.822410    9.045560    6.775510
  H    -12.127670   11.108640    4.497040
  H    -14.976180   14.103320    1.165790
  H    -14.937960    9.542750   -0.915060
  H    -16.228790   14.900820   -1.205850

 Total Charge           Charge          ....    0
 Multiplicity           Mult            ....    1
 Number of Electrons    NEL             ....  552
 Basis Dimension        Dim             .... 1102

ORBITAL ENERGIES
----------------

  NO   OCC          E(Eh)            E(eV)
   0   2.0000    -482.889207    -13140.0834
   1   2.0000    -482.887312    -13140.0318
   2   2.0000     -89.064090     -2423.5571
   3   2.0000     -88.979806     -2421.2636
   4   2.0000     -88.977366     -2421.1972
   5   2.0000     -88.971181     -2421.0289
   6   2.0000     -88.968623     -2420.9593
   7   2.0000     -62.566939     -1702.5330
   8   2.0000     -62.565026     -1702.4809
   9   2.0000     -56.400892     -1534.7463
  10   2.0000     -56.398979     -1534.6942
  11   2.0000     -56.398169     -1534.6722
  12   2.0000     -56.398137     -1534.6713
  13   2.0000     -56.396257     -1534.6202
  14   2.0000     -56.396227     -1534.6194
  15   2.0000     -19.223093      -523.0869
  16   2.0000     -19.217927      -522.9464
  17   2.0000     -14.475778      -393.9059
  18   2.0000     -14.475339      -393.8940
  19   2.0000     -14.469357      -393.7312
  20   2.0000     -14.468855      -393.7175
  21   2.0000     -14.440530      -392.9468
  22   2.0000     -14.439090      -392.9076
  23   2.0000     -14.422440      -392.4545
  24   2.0000     -14.417009      -392.3068
  25   2.0000     -14.416198      -392.2847
  26   2.0000     -14.415520      -392.2662
  27   2.0000     -10.395728      -282.8821
  28   2.0000     -10.395364      -282.8722
  29   2.0000     -10.374358      -282.3006
  30   2.0000     -10.369607      -282.1714
  31   2.0000     -10.365376      -282.0562
  32   2.0000     -10.364596      -282.0350
  33   2.0000     -10.362773      -281.9854
  34   2.0000     -10.360996      -281.9370
  35   2.0000     -10.360666      -281.9281
  36   2.0000     -10.358829      -281.8781
  37   2.0000     -10.346192      -281.5342
  38   2.0000     -10.345336      -281.5109
  39   2.0000     -10.344659      -281.4925
  40   2.0000     -10.343595      -281.4635
  41   2.0000     -10.338324      -281.3201
  42   2.0000     -10.336814      -281.2790
  43   2.0000     -10.333292      -281.1832
  44   2.0000     -10.331789      -281.1423
  45   2.0000     -10.330432      -281.1053
  46   2.0000     -10.329354      -281.0760
  47   2.0000     -10.327846      -281.0350
  48   2.0000     -10.327135      -281.0156
  49   2.0000     -10.326464      -280.9974
  50   2.0000     -10.325503      -280.9712
  51   2.0000     -10.323400      -280.9140
  52   2.0000     -10.319787      -280.8157
  53   2.0000     -10.319034      -280.7952
  54   2.0000     -10.318299      -280.7752
  55   2.0000     -10.316952      -280.7385
  56   2.0000     -10.313474      -280.6439
  57   2.0000     -10.311970      -280.6030
  58   2.0000     -10.311715      -280.5960
  59   2.0000     -10.310487      -280.5626
  60   2.0000     -10.310461      -280.5619
  61   2.0000     -10.309999      -280.5493
  62   2.0000     -10.307751      -280.4882
  63   2.0000     -10.305462      -280.4259
  64   2.0000     -10.304880      -280.4100
  65   2.0000     -10.303581      -280.3747
  66   2.0000     -10.302322      -280.3404
  67   2.0000     -10.300543      -280.2920
  68   2.0000     -10.300495      -280.2907
  69   2.0000     -10.299352      -280.2596
  70   2.0000     -10.298692      -280.2417
  71   2.0000     -10.297414      -280.2069
  72   2.0000     -10.294825      -280.1364
  73   2.0000     -10.286848      -279.9194
  74   2.0000     -10.282075      -279.7895
  75   2.0000     -10.279054      -279.7073
  76   2.0000     -10.270808      -279.4829
  77   2.0000      -8.796386      -239.3618
  78   2.0000      -8.794457      -239.3093
  79   2.0000      -8.154921      -221.9067
  80   2.0000      -8.075880      -219.7559
  81   2.0000      -8.073450      -219.6897
  82   2.0000      -8.065906      -219.4845
  83   2.0000      -8.062683      -219.3968
  84   2.0000      -6.632710      -180.4852
  85   2.0000      -6.630770      -180.4324
  86   2.0000      -6.618108      -180.0879
  87   2.0000      -6.617900      -180.0822
  88   2.0000      -6.616199      -180.0359
  89   2.0000      -6.615973      -180.0298
  90   2.0000      -6.125833      -166.6924
  91   2.0000      -6.118095      -166.4818
  92   2.0000      -6.118041      -166.4804
  93   2.0000      -6.045567      -164.5082
  94   2.0000      -6.043122      -164.4417
  95   2.0000      -6.041307      -164.3923
  96   2.0000      -6.038869      -164.3260
  97   2.0000      -6.037074      -164.2771
  98   2.0000      -6.035121      -164.2240
  99   2.0000      -6.034649      -164.2112
 100   2.0000      -6.032093      -164.1416
 101   2.0000      -6.030801      -164.1064
 102   2.0000      -6.028298      -164.0383
 103   2.0000      -6.027674      -164.0214
 104   2.0000      -6.024739      -163.9415
 105   2.0000      -2.748586       -74.7928
 106   2.0000      -2.746645       -74.7400
 107   2.0000      -2.744474       -74.6809
 108   2.0000      -2.744324       -74.6769
 109   2.0000      -2.742548       -74.6285
 110   2.0000      -2.742389       -74.6242
 111   2.0000      -2.732725       -74.3612
 112   2.0000      -2.732712       -74.3609
 113   2.0000      -2.730808       -74.3091
 114   2.0000      -2.730794       -74.3087
 115   2.0000      -1.160294       -31.5732
 116   2.0000      -1.138149       -30.9706
 117   2.0000      -1.136266       -30.9194
 118   2.0000      -1.133269       -30.8378
 119   2.0000      -1.063194       -28.9310
 120   2.0000      -1.028103       -27.9761
 121   2.0000      -1.025777       -27.9128
 122   2.0000      -1.025326       -27.9005
 123   2.0000      -1.020632       -27.7728
 124   2.0000      -1.017248       -27.6807
 125   2.0000      -1.015280       -27.6272
 126   2.0000      -1.013447       -27.5773
 127   2.0000      -1.008750       -27.4495
 128   2.0000      -1.000457       -27.2238
 129   2.0000      -0.995465       -27.0880
 130   2.0000      -0.994995       -27.0752
 131   2.0000      -0.993002       -27.0210
 132   2.0000      -0.991499       -26.9801
 133   2.0000      -0.982989       -26.7485
 134   2.0000      -0.946881       -25.7659
 135   2.0000      -0.945515       -25.7288
 136   2.0000      -0.924273       -25.1508
 137   2.0000      -0.922337       -25.0981
 138   2.0000      -0.912497       -24.8303
 139   2.0000      -0.910608       -24.7789
 140   2.0000      -0.907725       -24.7004
 141   2.0000      -0.898522       -24.4500
 142   2.0000      -0.890292       -24.2261
 143   2.0000      -0.888121       -24.1670
 144   2.0000      -0.879108       -23.9217
 145   2.0000      -0.877056       -23.8659
 146   2.0000      -0.870174       -23.6786
 147   2.0000      -0.858829       -23.3699
 148   2.0000      -0.849490       -23.1158
 149   2.0000      -0.833851       -22.6902
 150   2.0000      -0.831772       -22.6337
 151   2.0000      -0.827699       -22.5228
 152   2.0000      -0.821128       -22.3440
 153   2.0000      -0.810719       -22.0608
 154   2.0000      -0.787574       -21.4310
 155   2.0000      -0.785460       -21.3735
 156   2.0000      -0.779964       -21.2239
 157   2.0000      -0.764706       -20.8087
 158   2.0000      -0.762896       -20.7595
 159   2.0000      -0.751635       -20.4530
 160   2.0000      -0.750923       -20.4337
 161   2.0000      -0.730858       -19.8876
 162   2.0000      -0.719741       -19.5851
 163   2.0000      -0.714336       -19.4381
 164   2.0000      -0.709691       -19.3117
 165   2.0000      -0.699289       -19.0286
 166   2.0000      -0.694625       -18.9017
 167   2.0000      -0.693483       -18.8706
 168   2.0000      -0.687362       -18.7041
 169   2.0000      -0.680143       -18.5076
 170   2.0000      -0.670127       -18.2351
 171   2.0000      -0.665576       -18.1113
 172   2.0000      -0.661431       -17.9984
 173   2.0000      -0.659706       -17.9515
 174   2.0000      -0.644862       -17.5476
 175   2.0000      -0.639737       -17.4081
 176   2.0000      -0.635641       -17.2967
 177   2.0000      -0.630420       -17.1546
 178   2.0000      -0.628211       -17.0945
 179   2.0000      -0.625035       -17.0081
 180   2.0000      -0.614684       -16.7264
 181   2.0000      -0.603224       -16.4146
 182   2.0000      -0.601078       -16.3562
 183   2.0000      -0.600035       -16.3278
 184   2.0000      -0.593683       -16.1549
 185   2.0000      -0.593077       -16.1385
 186   2.0000      -0.585975       -15.9452
 187   2.0000      -0.581337       -15.8190
 188   2.0000      -0.573641       -15.6096
 189   2.0000      -0.565852       -15.3976
 190   2.0000      -0.559483       -15.2243
 191   2.0000      -0.553925       -15.0731
 192   2.0000      -0.548621       -14.9287
 193   2.0000      -0.546202       -14.8629
 194   2.0000      -0.544299       -14.8111
 195   2.0000      -0.543880       -14.7997
 196   2.0000      -0.542484       -14.7618
 197   2.0000      -0.540184       -14.6992
 198   2.0000      -0.534763       -14.5516
 199   2.0000      -0.530306       -14.4304
 200   2.0000      -0.529508       -14.4087
 201   2.0000      -0.523974       -14.2580
 202   2.0000      -0.522027       -14.2051
 203   2.0000      -0.519429       -14.1344
 204   2.0000      -0.514685       -14.0053
 205   2.0000      -0.513478       -13.9725
 206   2.0000      -0.510550       -13.8928
 207   2.0000      -0.509956       -13.8766
 208   2.0000      -0.507677       -13.8146
 209   2.0000      -0.504848       -13.7376
 210   2.0000      -0.501826       -13.6554
 211   2.0000      -0.501256       -13.6399
 212   2.0000      -0.499174       -13.5832
 213   2.0000      -0.496954       -13.5228
 214   2.0000      -0.496305       -13.5051
 215   2.0000      -0.494504       -13.4561
 216   2.0000      -0.492172       -13.3927
 217   2.0000      -0.479463       -13.0469
 218   2.0000      -0.477618       -12.9966
 219   2.0000      -0.475470       -12.9382
 220   2.0000      -0.471635       -12.8338
 221   2.0000      -0.470323       -12.7981
 222   2.0000      -0.465726       -12.6730
 223   2.0000      -0.465374       -12.6635
 224   2.0000      -0.463630       -12.6160
 225   2.0000      -0.462607       -12.5882
 226   2.0000      -0.460841       -12.5401
 227   2.0000      -0.458996       -12.4899
 228   2.0000      -0.457690       -12.4544
 229   2.0000      -0.456931       -12.4337
 230   2.0000      -0.454768       -12.3749
 231   2.0000      -0.452163       -12.3040
 232   2.0000      -0.451656       -12.2902
 233   2.0000      -0.450078       -12.2472
 234   2.0000      -0.449676       -12.2363
 235   2.0000      -0.449377       -12.2282
 236   2.0000      -0.447405       -12.1745
 237   2.0000      -0.446243       -12.1429
 238   2.0000      -0.444698       -12.1008
 239   2.0000      -0.442331       -12.0364
 240   2.0000      -0.440729       -11.9928
 241   2.0000      -0.437375       -11.9016
 242   2.0000      -0.432431       -11.7670
 243   2.0000      -0.430958       -11.7270
 244   2.0000      -0.428115       -11.6496
 245   2.0000      -0.426778       -11.6132
 246   2.0000      -0.425816       -11.5870
 247   2.0000      -0.424392       -11.5483
 248   2.0000      -0.420147       -11.4328
 249   2.0000      -0.415816       -11.3149
 250   2.0000      -0.414627       -11.2826
 251   2.0000      -0.411517       -11.1980
 252   2.0000      -0.410287       -11.1645
 253   2.0000      -0.407366       -11.0850
 254   2.0000      -0.393294       -10.7021
 255   2.0000      -0.391703       -10.6588
 256   2.0000      -0.386469       -10.5163
 257   2.0000      -0.383946       -10.4477
 258   2.0000      -0.378975       -10.3124
 259   2.0000      -0.378598       -10.3022
 260   2.0000      -0.376687       -10.2502
 261   2.0000      -0.370831       -10.0908
 262   2.0000      -0.363120        -9.8810
 263   2.0000      -0.361516        -9.8374
 264   2.0000      -0.354599        -9.6491
 265   2.0000      -0.344255        -9.3677
 266   2.0000      -0.339782        -9.2459
 267   2.0000      -0.327777        -8.9193
 268   2.0000      -0.325396        -8.8545
 269   2.0000      -0.321224        -8.7410
 270   2.0000      -0.319336        -8.6896
 271   2.0000      -0.317825        -8.6485
 272   2.0000      -0.299732        -8.1561
 273   2.0000      -0.296735        -8.0746
 274   2.0000      -0.293063        -7.9747
 275   2.0000      -0.261433        -7.1140
 276   0.0000      -0.141805        -3.8587
 277   0.0000      -0.093180        -2.5356
 278   0.0000      -0.090719        -2.4686
 279   0.0000      -0.066092        -1.7985
 280   0.0000      -0.062962        -1.7133

MULLIKEN ATOMIC CHARGES
-----------------------
   0 C :    0.295572
   1 C :   -0.343355
   2 C :   -0.183807
   3 N :    0.149153
   4 C :   -0.199228
   5 N :    0.161753
   6 C :    0.019287
   7 C :   -0.009523
   8 C :   -0.077194
   9 C :    0.123914
  10 C :   -0.088084
  11 C :   -0.023703
  12 S :    0.188931
  13 C :   -0.122644
  14 C :    0.035618
  15 Br:    0.025989
  16 C :    0.160716
  17 O :   -0.154300
  18 C :   -0.086180
  19 C :    0.057517
  20 C :   -0.080361
  21 C :   -0.045766
  22 C :   -0.033956
  23 C :    0.156629
  24 C :   -0.204972
  25 S :    0.196867
  26 C :    0.128744
  27 C :   -0.057772
  28 C :   -0.082034
  29 N :    0.049616
  30 C :   -0.122776
  31 C :   -0.117881
  32 N :    0.035737
  33 C :   -0.217879
  34 N :    0.251290
  35 C :   -0.223244
  36 N :    0.252518
  37 C :    0.232786
  38 C :   -0.023152
  39 C :   -0.001367
  40 N :   -0.274753
  41 S :    0.586252
  42 N :   -0.324326
  43 C :   -0.155045
  44 C :   -0.017049
  45 C :   -0.014220
  46 C :    0.115428
  47 C :   -0.108299
  48 S :    0.166402
  49 C :    0.037300
  50 C :   -0.128026
  51 C :    0.242285
  52 C :   -0.315807
  53 C :   -0.176223
  54 N :    0.143698
  55 C :   -0.206334
  56 N :    0.167943
  57 C :    0.012522
  58 C :    0.002619
  59 C :    0.137427
  60 O :   -0.143382
  61 C :   -0.074743
  62 C :    0.113978
  63 C :   -0.082983
  64 C :   -0.029349
  65 S :    0.183081
  66 C :   -0.125153
  67 C :    0.040766
  68 Br:    0.026095
  69 H :   -0.009988
  70 H :   -0.004152
  71 H :   -0.003304
  72 H :    0.016409
  73 H :    0.007186
  74 H :    0.019470
  75 H :    0.040155
  76 H :    0.007833
  77 H :   -0.007316
  78 H :    0.049119
  79 H :    0.037860
  80 H :    0.022154
  81 H :    0.018055
  82 H :   -0.007974
  83 H :   -0.007236
  84 H :   -0.001832
Sum of atomic charges:   -0.0000000

LOEWDIN ATOMIC CHARGES
----------------------
   0 C :    0.075652
   1 C :   -0.138309
   2 C :   -0.017532
   3 N :   -0.051511
   4 C :   -0.026429
   5 N :   -0.047587
   6 C :   -0.020807
   7 C :   -0.050779
   8 C :    0.022101
   9 C :   -0.031987
  10 C :   -0.143115
  11 C :   -0.009191
  12 S :    0.434510
  13 C :   -0.270900
  14 C :   -0.070331
  15 Br:    0.138569
  16 C :    0.089222
  17 O :   -0.140102
  18 C :   -0.089681
  19 C :    0.049633
  20 C :   -0.176430
  21 C :   -0.019038
  22 C :   -0.031855
  23 C :   -0.047152
  24 C :   -0.160560
  25 S :    0.500853
  26 C :   -0.032237
  27 C :   -0.007542
  28 C :   -0.002404
  29 N :    0.009404
  30 C :   -0.021074
  31 C :   -0.021818
  32 N :   -0.008546
  33 C :   -0.037687
  34 N :    0.005472
  35 C :   -0.038625
  36 N :    0.002593
  37 C :   -0.030908
  38 C :   -0.042151
  39 C :   -0.040433
  40 N :   -0.261363
  41 S :    0.709397
  42 N :   -0.299318
  43 C :   -0.144550
  44 C :   -0.035054
  45 C :   -0.015152
  46 C :   -0.043520
  47 C :   -0.188651
  48 S :    0.514103
  49 C :    0.052705
  50 C :   -0.095438
  51 C :    0.061609
  52 C :   -0.146175
  53 C :   -0.018754
  54 N :   -0.061329
  55 C :   -0.036309
  56 N :   -0.051204
  57 C :   -0.016577
  58 C :   -0.051711
  59 C :    0.082822
  60 O :   -0.142982
  61 C :    0.023064
  62 C :   -0.033279
  63 C :   -0.143074
  64 C :   -0.015291
  65 S :    0.430360
  66 C :   -0.271827
  67 C :   -0.069387
  68 Br:    0.138305
  69 H :    0.040813
  70 H :    0.041503
  71 H :    0.038911
  72 H :    0.044102
  73 H :    0.032237
  74 H :    0.034943
  75 H :    0.038404
  76 H :    0.029743
  77 H :    0.030514
  78 H :    0.047782
  79 H :    0.040425
  80 H :    0.038208
  81 H :    0.048574
  82 H :    0.042027
  83 H :    0.039645
  84 H :    0.039463

  Mayer bond orders larger than 0.100000
B(  0-C ,  1-C ) :   1.6350 B(  0-C ,  6-C ) :   1.0000 B(  0-C , 18-C ) :   1.0704
B(  1-C ,  2-C ) :   1.1438 B(  1-C ,  4-C ) :   1.1350 B(  2-C ,  3-N ) :   2.9724
B(  4-C ,  5-N ) :   2.9936 B(  6-C ,  7-C ) :   1.2756 B(  6-C , 11-C ) :   1.4053
B(  7-C ,  8-C ) :   1.4185 B(  7-C , 16-C ) :   0.9546 B(  8-C ,  9-C ) :   1.2452
B(  8-C , 69-H ) :   1.0180 B(  9-C , 10-C ) :   1.3018 B(  9-C , 14-C ) :   1.1619
B( 10-C , 11-C ) :   1.3314 B( 10-C , 12-S ) :   1.0873 B( 11-C , 70-H ) :   0.9817
B( 12-S , 13-C ) :   1.0862 B( 13-C , 14-C ) :   1.6190 B( 13-C , 15-Br) :   1.0205
B( 14-C , 71-H ) :   1.0010 B( 16-C , 17-O ) :   2.1683 B( 16-C , 18-C ) :   0.9366
B( 18-C , 19-C ) :   1.6042 B( 19-C , 20-C ) :   1.1983 B( 19-C , 72-H ) :   0.9186
B( 20-C , 21-C ) :   1.4065 B( 20-C , 25-S ) :   1.1138 B( 21-C , 22-C ) :   1.2971
B( 21-C , 73-H ) :   0.9817 B( 22-C , 23-C ) :   1.1205 B( 22-C , 24-C ) :   1.4361
B( 23-C , 74-H ) :   0.9415 B( 23-C , 75-H ) :   0.9236 B( 23-C , 76-H ) :   0.9422
B( 24-C , 25-S ) :   1.1636 B( 24-C , 26-C ) :   1.0948 B( 26-C , 27-C ) :   1.2676
B( 26-C , 37-C ) :   0.1232 B( 26-C , 39-C ) :   1.2460 B( 27-C , 28-C ) :   1.1138
B( 27-C , 32-N ) :   1.4164 B( 28-C , 29-N ) :   1.4489 B( 28-C , 37-C ) :   1.2568
B( 29-N , 30-C ) :   1.7359 B( 30-C , 31-C ) :   1.2057 B( 30-C , 35-C ) :   1.1517
B( 31-C , 32-N ) :   1.7285 B( 31-C , 33-C ) :   1.1586 B( 33-C , 34-N ) :   3.0442
B( 35-C , 36-N ) :   3.0512 B( 37-C , 38-C ) :   1.1990 B( 37-C , 43-C ) :   1.1607
B( 38-C , 39-C ) :   1.1067 B( 38-C , 42-N ) :   1.4698 B( 39-C , 40-N ) :   1.4937
B( 40-N , 41-S ) :   1.3090 B( 40-N , 42-N ) :   0.1536 B( 41-S , 42-N ) :   1.2820
B( 43-C , 44-C ) :   1.4174 B( 43-C , 48-S ) :   1.1537 B( 44-C , 45-C ) :   1.3020
B( 44-C , 77-H ) :   0.9881 B( 45-C , 46-C ) :   1.1104 B( 45-C , 47-C ) :   1.4010
B( 46-C , 78-H ) :   0.9429 B( 46-C , 79-H ) :   0.9339 B( 46-C , 80-H ) :   0.9481
B( 47-C , 48-S ) :   1.0842 B( 47-C , 49-C ) :   1.1546 B( 49-C , 50-C ) :   1.6456
B( 49-C , 81-H ) :   0.9412 B( 50-C , 51-C ) :   1.0311 B( 50-C , 59-C ) :   0.9430
B( 51-C , 52-C ) :   1.6510 B( 51-C , 57-C ) :   1.0249 B( 52-C , 53-C ) :   1.1375
B( 52-C , 55-C ) :   1.1485 B( 53-C , 54-N ) :   2.9846 B( 55-C , 56-N ) :   3.0231
B( 57-C , 58-C ) :   1.2742 B( 57-C , 64-C ) :   1.4127 B( 58-C , 59-C ) :   0.9204
B( 58-C , 61-C ) :   1.4241 B( 59-C , 60-O ) :   2.2641 B( 61-C , 62-C ) :   1.2515
B( 61-C , 82-H ) :   1.0169 B( 62-C , 63-C ) :   1.3089 B( 62-C , 67-C ) :   1.1620
B( 63-C , 64-C ) :   1.3241 B( 63-C , 65-S ) :   1.0837 B( 64-C , 83-H ) :   0.9853
B( 65-S , 66-C ) :   1.0859 B( 66-C , 67-C ) :   1.6198 B( 66-C , 68-Br) :   1.0208
B( 67-C , 84-H ) :   1.0008

-----------------------------------------------------------------------------
         ABSORPTION SPECTRUM VIA TRANSITION ELECTRIC DIPOLE MOMENTS
-----------------------------------------------------------------------------
State   Energy  Wavelength   fosc         T2         TX        TY        TZ
        (cm-1)    (nm)                  (au**2)     (au)      (au)      (au)
-----------------------------------------------------------------------------
   0   10191.5    981.2   0.654333078  21.13670  -2.79977   3.38187   1.36417
   1   18029.8    554.6   0.059048977   1.07819   0.25406   0.49000   0.87952
   2   20097.0    497.6   0.011120780   0.18217  -0.32297   0.20645  -0.18773
   3   20355.9    491.3   0.408012061   6.59871   2.15040  -1.28126   0.57694
   4   20868.7    479.2   0.032872434   0.51857   0.07690  -0.38528   0.60351
   5   22280.6    448.8   0.047774348   0.70590  -0.69230   0.29272   0.37540
   6   22510.6    444.2   0.559617842   8.18429   1.51259  -1.93956  -1.46099
   7   23298.8    429.2   0.032978903   0.46599  -0.42389  -0.41327  -0.33988
   8   25456.8    392.8   0.038074332   0.49238   0.42770  -0.48981   0.26371
   9   25941.1    385.5   0.059491265   0.75499   0.54476  -0.62335  -0.26392
  10   26459.7    377.9   0.037334475   0.46452   0.29056  -0.61651  -0.00230
  11   26870.1    372.2   0.015646552   0.19170  -0.22282   0.34887  -0.14263
  12   27080.8    369.3   0.042724288   0.51939   0.33907   0.46094   0.43813
  13   27514.8    363.4   0.001549194   0.01854  -0.07496   0.00867  -0.11332
  14   27639.5    361.8   0.006012092   0.07161  -0.09564   0.04469   0.24590
  15   27833.2    359.3   0.001918426   0.02269  -0.05286   0.05614   0.12941
  16   28367.0    352.5   0.033709217   0.39121   0.14076   0.60771  -0.04572
  17   28596.6    349.7   0.078684834   0.90584  -0.49904   0.67471   0.44897
  18   29185.4    342.6   0.085131542   0.96029  -0.26228   0.76393  -0.55490
  19   29259.7    341.8   0.553683953   6.22971   0.99610  -2.14260   0.80421
  20   29712.1    336.6   0.324253308   3.59275   0.99102   1.21208   1.06840
  21   30572.0    327.1   0.150487316   1.62051   0.48694  -0.63833   0.98789
  22   31116.3    321.4   0.352408576   3.72850  -0.76367   1.70535   0.48690
  23   31266.7    319.8   0.063281798   0.66630  -0.44824   0.68207  -0.01266
  24   31598.6    316.5   0.088336500   0.92034   0.56850  -0.20964   0.74377
  25   31703.7    315.4   0.040113169   0.41654   0.45598  -0.45257  -0.06160
  26   32043.9    312.1   0.641111480   6.58663  -1.60449   0.43480  -1.95530
  27   32672.4    306.1   0.040743841   0.41054   0.12957   0.21763   0.58855
  28   32914.2    303.8   0.114373316   1.14398  -0.67937   0.50338  -0.65501
  29   33089.4    302.2   0.073317081   0.72944  -0.00629   0.85175   0.06261
  30   33588.8    297.7   0.007229025   0.07085   0.19183   0.18124   0.03475
  31   33812.0    295.8   0.034947497   0.34027  -0.22911  -0.45446  -0.28503
  32   34358.7    291.0   0.321291609   3.07849  -0.81542  -1.47139  -0.49859
  33   34384.0    290.8   0.014116146   0.13516   0.29207   0.22142  -0.02876
  34   34604.1    289.0   0.101399793   0.96468   0.73055  -0.33341   0.56553
  35   34758.7    287.7   0.232792970   2.20487  -0.13242  -1.47328   0.12958
  36   35379.3    282.7   0.126482400   1.17695  -0.22198   1.01296  -0.31873
  37   35605.1    280.9   0.015323219   0.14168   0.25175   0.15210   0.23488
  38   36146.7    276.7   0.009030035   0.08224   0.11716   0.10430   0.24008
  39   36638.4    272.9   0.060790924   0.54623  -0.20280  -0.00011   0.71071
  40   36964.1    270.5   0.021342936   0.19009   0.32374  -0.13731   0.25773
  41   37053.3    269.9   0.006598645   0.05863  -0.20340  -0.01161  -0.13084
  42   37301.2    268.1   0.004608639   0.04067   0.17832  -0.09086   0.02496
  43   37645.9    265.6   0.068771648   0.60141  -0.12264   0.63398   0.42945
  44   37931.9    263.6   0.054466764   0.47272   0.28789   0.06815   0.62064
  45   38003.8    263.1   0.021724938   0.18819   0.00032   0.13303   0.41291
  46   38348.0    260.8   0.010165749   0.08727  -0.23244   0.16053   0.08644
  47   38795.5    257.8   0.038094288   0.32326  -0.48620   0.21618   0.20035
  48   38918.4    256.9   0.139526378   1.18026  -0.26745   0.52571   0.91234
  49   39135.5    255.5   0.020064820   0.16879   0.09759   0.38937   0.08748
  50   39412.0    253.7   0.165544795   1.38281   0.82549  -0.52740   0.65056
  51   39524.8    253.0   0.146040836   1.21641  -0.97307   0.33168  -0.39942
  52   39720.6    251.8   0.023431305   0.19420   0.41957  -0.06972   0.11535
  53   39851.9    250.9   0.082714519   0.68330   0.33836  -0.59905  -0.45820
  54   40068.6    249.6   0.038156110   0.31350   0.47313   0.19819   0.22443
  55   40276.1    248.3   0.015911031   0.13005  -0.04437  -0.35772   0.01120

FINAL SINGLE POINT ENERGY     -9747.761485175395

DIPOLE MOMENT
-------------
                                X             Y             Z
Electronic contribution:    -13.48342     -35.85883     -96.44731
Nuclear contribution   :     10.83378      36.32701      94.27912
                        -----------------------------------------
Total Dipole Moment    :     -2.64964       0.46818      -2.16819
                        -----------------------------------------
Magnitude (a.u.)       :      3.45555
Magnitude (Debye)      :      8.78332

Rotational constants in cm-1:     0.001314     0.000214     0.000192
Rotational constants in MHz :    39.399917     6.401168     5.748995

                             ****ORCA TERMINATED NORMALLY****
TOTAL RUN TIME: 0 days 0 hours 8 minutes 30 seconds 431 msec
