                         Program Version 4.2.0 -  RELEASE  -
|  1> # ORCA input file
|  2> # SCF done       -189.790536806731          0.000959290874
|  3> ! CAM-B3LYP def2-SVP def2/J RIJCOSX Grid4 TightSCF
|  4> %maxcore 5000
|  5> %tddft
|  6>     Mode sTDDFT
|  7>     Ethresh 5.0
|  8>     maxcore 5000
|  9> end
| 10>
| 11> %pal
| 12>   nprocs 6
| 13>   end
| 14> * xyz 0 1
| 15>    C        1.89394         0.29227        -1.91629
| 16>    O        1.81557        -0.87647        -2.19468
| 17>    C        3.03000         1.19351        -2.21773
| 18>    C        2.81110         2.45726        -1.64258
| 19>    C        3.76755         3.45059        -1.78584
| 20>    C        4.92227         3.16463        -2.50405
| 21>    C        5.12935         1.90515        -3.07453
| 22>    C        4.17680         0.90542        -2.92842
| 23>   Br        6.70673         1.54204        -4.04708
| 24>   Br        6.22558         4.51972        -2.69390
| 25>    C        1.52045         2.45311        -0.96110
| 26>    C        0.92647         3.53494        -0.37040
| 27>    C        1.51395         4.81747        -0.29708
| 28>    N        1.94223         5.87749        -0.20380
| 29>    C       -0.35280         3.53459         0.22827
| 30>    N       -1.38409         3.61443         0.72531
| 31>    C        0.95694         1.11960        -1.09771
| 32>    C       -0.14301         0.64577        -0.45688
| 33>    C       -0.77087        -0.60375        -0.70275
| 34>    S       -1.74697        -1.38484         0.54791
| 35>    C       -2.06725        -2.61654        -0.66474
| 36>    N       -1.49268        -2.34646        -1.81000
| 37>    N       -0.79271        -1.26426        -1.82452
| 38>    C       -2.85435        -3.76297        -0.38139
| 39>    C       -3.16889        -4.66634        -1.34332
| 40>    C       -3.93427        -5.85638        -1.24030
| 41>    N       -4.40575        -6.51349        -0.12170
| 42>    C       -4.13755        -6.24111         1.27065
| 43>    C       -2.68453        -6.52325         1.64206
| 44>    C       -5.14352        -7.66068        -0.46617
| 45>    O       -5.64365        -8.40525         0.35667
| 46>    C       -5.13433        -7.68622        -1.90966
| 47>    C       -4.37444        -6.57688        -2.34770
| 48>    C       -4.36105        -6.58163        -3.79687
| 49>    O       -3.85009        -5.85040        -4.61233
| 50>    N       -5.12378        -7.72288        -4.13896
| 51>    C       -5.38663        -8.05151        -5.51971
| 52>    C       -6.77016        -7.58110        -5.96193
| 53>    C       -5.59383        -8.37908        -3.03120
| 54>    C       -6.39838        -9.55112        -3.08464
| 55>    C       -6.83410       -10.16425        -1.96050
| 56>    C       -7.65731       -11.34339        -1.89388
| 57>    C       -8.23027       -11.95429        -3.00886
| 58>    C       -9.03485       -13.07433        -2.87826
| 59>    N       -9.61295       -13.57871        -4.09542
| 60>    O       -9.04077       -13.31896        -5.13093
| 61>    O      -10.63822       -14.23145        -4.03013
| 62>    C       -9.29815       -13.65516        -1.62067
| 63>    C       -8.70136       -13.03884        -0.51235
| 64>    C       -7.91974       -11.91603        -0.63810
| 65>    C      -10.12642       -14.82877        -1.47098
| 66>    C      -10.82354       -15.13834        -0.36206
| 67>    C      -11.67640       -16.28498        -0.26978
| 68>    C      -12.47168       -16.80670        -1.23183
| 69>    C      -13.01359       -18.18869        -1.06713
| 70>    O      -13.00875       -18.85089        -0.05840
| 71>    C      -13.49142       -18.57297        -2.41071
| 72>    C      -13.38220       -17.47302        -3.28222
| 73>    C      -12.89721       -16.31429        -2.53550
| 74>    C      -13.06692       -15.01594        -2.91822
| 75>    C      -12.77743       -13.89189        -2.11610
| 76>    N      -12.59490       -12.93365        -1.51224
| 77>    C      -13.63878       -14.63164        -4.15250
| 78>    N      -14.12043       -14.27098        -5.12813
| 79>    C      -13.73006       -17.61200        -4.61544
| 80>    C      -14.20064       -18.84390        -5.05395
| 81>    C      -14.32817       -19.92531        -4.17718
| 82>    C      -13.96680       -19.79489        -2.84318
| 83>   Br      -14.98694       -21.58357        -4.79856
| 84>   Br      -14.66920       -19.04229        -6.87295
| 85>    H        3.64637         4.43120        -1.35498
| 86>    H        4.32402        -0.07250        -3.36001
| 87>    H       -0.60567         1.24113         0.31967
| 88>    H       -3.19188        -3.85161         0.63822
| 89>    H       -2.82685        -4.45776        -2.34965
| 90>    H       -4.79356        -6.91673         1.82865
| 91>    H       -4.42260        -5.21448         1.51368
| 92>    H       -2.45374        -7.57021         1.46104
| 93>    H       -2.52818        -6.31160         2.69621
| 94>    H       -2.00026        -5.91415         1.05622
| 95>    H       -5.27301        -9.12869        -5.66868
| 96>    H       -4.62124        -7.53312        -6.10391
| 97>    H       -7.55262        -8.04248        -5.36327
| 98>    H       -6.92937        -7.83970        -7.00487
| 99>    H       -6.84579        -6.50175        -5.85664
|100>    H       -6.64400        -9.93852        -4.06219
|101>    H       -6.54707        -9.74928        -1.00307
|102>    H       -8.08471       -11.55537        -4.00101
|103>    H       -8.84945       -13.47216         0.46385
|104>    H       -7.48792       -11.45965         0.23995
|105>    H      -10.21311       -15.48733        -2.32454
|106>    H      -10.74250       -14.53241         0.53010
|107>    H      -11.66583       -16.82760         0.67109
|108>    H      -13.63233       -16.79942        -5.31722
|109>    H      -14.05382       -20.62595        -2.16061
|110> *
|111>
|112>                          ****END OF INPUT****

CARTESIAN COORDINATES (ANGSTROEM)
---------------------------------
  C      1.893940    0.292270   -1.916290
  O      1.815570   -0.876470   -2.194680
  C      3.030000    1.193510   -2.217730
  C      2.811100    2.457260   -1.642580
  C      3.767550    3.450590   -1.785840
  C      4.922270    3.164630   -2.504050
  C      5.129350    1.905150   -3.074530
  C      4.176800    0.905420   -2.928420
  Br     6.706730    1.542040   -4.047080
  Br     6.225580    4.519720   -2.693900
  C      1.520450    2.453110   -0.961100
  C      0.926470    3.534940   -0.370400
  C      1.513950    4.817470   -0.297080
  N      1.942230    5.877490   -0.203800
  C     -0.352800    3.534590    0.228270
  N     -1.384090    3.614430    0.725310
  C      0.956940    1.119600   -1.097710
  C     -0.143010    0.645770   -0.456880
  C     -0.770870   -0.603750   -0.702750
  S     -1.746970   -1.384840    0.547910
  C     -2.067250   -2.616540   -0.664740
  N     -1.492680   -2.346460   -1.810000
  N     -0.792710   -1.264260   -1.824520
  C     -2.854350   -3.762970   -0.381390
  C     -3.168890   -4.666340   -1.343320
  C     -3.934270   -5.856380   -1.240300
  N     -4.405750   -6.513490   -0.121700
  C     -4.137550   -6.241110    1.270650
  C     -2.684530   -6.523250    1.642060
  C     -5.143520   -7.660680   -0.466170
  O     -5.643650   -8.405250    0.356670
  C     -5.134330   -7.686220   -1.909660
  C     -4.374440   -6.576880   -2.347700
  C     -4.361050   -6.581630   -3.796870
  O     -3.850090   -5.850400   -4.612330
  N     -5.123780   -7.722880   -4.138960
  C     -5.386630   -8.051510   -5.519710
  C     -6.770160   -7.581100   -5.961930
  C     -5.593830   -8.379080   -3.031200
  C     -6.398380   -9.551120   -3.084640
  C     -6.834100  -10.164250   -1.960500
  C     -7.657310  -11.343390   -1.893880
  C     -8.230270  -11.954290   -3.008860
  C     -9.034850  -13.074330   -2.878260
  N     -9.612950  -13.578710   -4.095420
  O     -9.040770  -13.318960   -5.130930
  O    -10.638220  -14.231450   -4.030130
  C     -9.298150  -13.655160   -1.620670
  C     -8.701360  -13.038840   -0.512350
  C     -7.919740  -11.916030   -0.638100
  C    -10.126420  -14.828770   -1.470980
  C    -10.823540  -15.138340   -0.362060
  C    -11.676400  -16.284980   -0.269780
  C    -12.471680  -16.806700   -1.231830
  C    -13.013590  -18.188690   -1.067130
  O    -13.008750  -18.850890   -0.058400
  C    -13.491420  -18.572970   -2.410710
  C    -13.382200  -17.473020   -3.282220
  C    -12.897210  -16.314290   -2.535500
  C    -13.066920  -15.015940   -2.918220
  C    -12.777430  -13.891890   -2.116100
  N    -12.594900  -12.933650   -1.512240
  C    -13.638780  -14.631640   -4.152500
  N    -14.120430  -14.270980   -5.128130
  C    -13.730060  -17.612000   -4.615440
  C    -14.200640  -18.843900   -5.053950
  C    -14.328170  -19.925310   -4.177180
  C    -13.966800  -19.794890   -2.843180
  Br   -14.986940  -21.583570   -4.798560
  Br   -14.669200  -19.042290   -6.872950
  H      3.646370    4.431200   -1.354980
  H      4.324020   -0.072500   -3.360010
  H     -0.605670    1.241130    0.319670
  H     -3.191880   -3.851610    0.638220
  H     -2.826850   -4.457760   -2.349650
  H     -4.793560   -6.916730    1.828650
  H     -4.422600   -5.214480    1.513680
  H     -2.453740   -7.570210    1.461040
  H     -2.528180   -6.311600    2.696210
  H     -2.000260   -5.914150    1.056220
  H     -5.273010   -9.128690   -5.668680
  H     -4.621240   -7.533120   -6.103910
  H     -7.552620   -8.042480   -5.363270
  H     -6.929370   -7.839700   -7.004870
  H     -6.845790   -6.501750   -5.856640
  H     -6.644000   -9.938520   -4.062190
  H     -6.547070   -9.749280   -1.003070
  H     -8.084710  -11.555370   -4.001010
  H     -8.849450  -13.472160    0.463850
  H     -7.487920  -11.459650    0.239950
  H    -10.213110  -15.487330   -2.324540
  H    -10.742500  -14.532410    0.530100
  H    -11.665830  -16.827600    0.671090
  H    -13.632330  -16.799420   -5.317220
  H    -14.053820  -20.625950   -2.160610

 Total Charge           Charge          ....    0
 Multiplicity           Mult            ....    1
 Number of Electrons    NEL             ....  592
 Basis Dimension        Dim             .... 1181

ORBITAL ENERGIES
----------------

  NO   OCC          E(Eh)            E(eV)
   0   2.0000    -482.879927    -13139.8308
   1   2.0000    -482.879292    -13139.8136
   2   2.0000    -482.878536    -13139.7930
   3   2.0000    -482.878014    -13139.7788
   4   2.0000     -88.985064     -2421.4067
   5   2.0000     -62.557552     -1702.2775
   6   2.0000     -62.556881     -1702.2593
   7   2.0000     -62.556146     -1702.2393
   8   2.0000     -62.555619     -1702.2249
   9   2.0000     -56.391502     -1534.4908
  10   2.0000     -56.390832     -1534.4725
  11   2.0000     -56.390109     -1534.4529
  12   2.0000     -56.389585     -1534.4386
  13   2.0000     -56.388850     -1534.4186
  14   2.0000     -56.388747     -1534.4158
  15   2.0000     -56.388176     -1534.4003
  16   2.0000     -56.388086     -1534.3978
  17   2.0000     -56.387435     -1534.3801
  18   2.0000     -56.387340     -1534.3775
  19   2.0000     -56.386915     -1534.3660
  20   2.0000     -56.386811     -1534.3631
  21   2.0000     -19.264227      -524.2063
  22   2.0000     -19.263156      -524.1771
  23   2.0000     -19.228318      -523.2291
  24   2.0000     -19.224196      -523.1170
  25   2.0000     -19.204376      -522.5776
  26   2.0000     -19.198575      -522.4198
  27   2.0000     -14.668903      -399.1611
  28   2.0000     -14.465176      -393.6175
  29   2.0000     -14.462106      -393.5339
  30   2.0000     -14.453031      -393.2870
  31   2.0000     -14.446875      -393.1195
  32   2.0000     -14.428829      -392.6284
  33   2.0000     -14.426446      -392.5636
  34   2.0000     -14.421558      -392.4305
  35   2.0000     -14.419933      -392.3863
  36   2.0000     -10.386725      -282.6372
  37   2.0000     -10.382137      -282.5123
  38   2.0000     -10.379068      -282.4288
  39   2.0000     -10.377128      -282.3760
  40   2.0000     -10.358630      -281.8726
  41   2.0000     -10.357903      -281.8529
  42   2.0000     -10.357488      -281.8416
  43   2.0000     -10.357370      -281.8384
  44   2.0000     -10.357340      -281.8375
  45   2.0000     -10.357319      -281.8370
  46   2.0000     -10.356314      -281.8096
  47   2.0000     -10.354911      -281.7714
  48   2.0000     -10.354161      -281.7511
  49   2.0000     -10.352159      -281.6966
  50   2.0000     -10.350276      -281.6453
  51   2.0000     -10.349054      -281.6121
  52   2.0000     -10.344389      -281.4851
  53   2.0000     -10.334345      -281.2118
  54   2.0000     -10.330625      -281.1106
  55   2.0000     -10.330411      -281.1048
  56   2.0000     -10.328160      -281.0435
  57   2.0000     -10.324825      -280.9528
  58   2.0000     -10.323766      -280.9240
  59   2.0000     -10.322893      -280.9002
  60   2.0000     -10.322196      -280.8812
  61   2.0000     -10.321427      -280.8603
  62   2.0000     -10.317732      -280.7598
  63   2.0000     -10.317606      -280.7563
  64   2.0000     -10.315918      -280.7104
  65   2.0000     -10.315797      -280.7071
  66   2.0000     -10.315741      -280.7056
  67   2.0000     -10.315210      -280.6911
  68   2.0000     -10.314630      -280.6753
  69   2.0000     -10.314503      -280.6719
  70   2.0000     -10.314032      -280.6591
  71   2.0000     -10.311434      -280.5884
  72   2.0000     -10.310598      -280.5656
  73   2.0000     -10.309598      -280.5384
  74   2.0000     -10.308484      -280.5081
  75   2.0000     -10.307832      -280.4904
  76   2.0000     -10.307826      -280.4902
  77   2.0000     -10.307675      -280.4861
  78   2.0000     -10.307667      -280.4859
  79   2.0000     -10.307639      -280.4851
  80   2.0000     -10.307467      -280.4804
  81   2.0000     -10.305729      -280.4331
  82   2.0000     -10.276767      -279.6451
  83   2.0000     -10.271149      -279.4922
  84   2.0000     -10.270875      -279.4847
  85   2.0000     -10.270498      -279.4745
  86   2.0000      -8.786888      -239.1034
  87   2.0000      -8.786194      -239.0845
  88   2.0000      -8.785469      -239.0648
  89   2.0000      -8.784933      -239.0502
  90   2.0000      -8.081351      -219.9048
  91   2.0000      -6.623034      -180.2219
  92   2.0000      -6.622303      -180.2020
  93   2.0000      -6.621628      -180.1837
  94   2.0000      -6.621113      -180.1696
  95   2.0000      -6.609010      -179.8403
  96   2.0000      -6.608318      -179.8215
  97   2.0000      -6.608211      -179.8186
  98   2.0000      -6.607566      -179.8010
  99   2.0000      -6.607550      -179.8006
 100   2.0000      -6.607048      -179.7869
 101   2.0000      -6.606798      -179.7801
 102   2.0000      -6.606220      -179.7644
 103   2.0000      -6.049904      -164.6263
 104   2.0000      -6.046684      -164.5386
 105   2.0000      -6.043815      -164.4606
 106   2.0000      -2.738926       -74.5300
 107   2.0000      -2.738258       -74.5118
 108   2.0000      -2.737581       -74.4934
 109   2.0000      -2.737012       -74.4779
 110   2.0000      -2.735209       -74.4288
 111   2.0000      -2.734523       -74.4102
 112   2.0000      -2.734424       -74.4075
 113   2.0000      -2.733841       -74.3916
 114   2.0000      -2.733723       -74.3884
 115   2.0000      -2.733216       -74.3746
 116   2.0000      -2.733129       -74.3722
 117   2.0000      -2.732626       -74.3585
 118   2.0000      -2.723400       -74.1075
 119   2.0000      -2.723387       -74.1071
 120   2.0000      -2.722718       -74.0889
 121   2.0000      -2.722702       -74.0885
 122   2.0000      -2.721949       -74.0680
 123   2.0000      -2.721942       -74.0678
 124   2.0000      -2.721409       -74.0533
 125   2.0000      -2.721395       -74.0529
 126   2.0000      -1.344072       -36.5741
 127   2.0000      -1.162195       -31.6249
 128   2.0000      -1.158049       -31.5121
 129   2.0000      -1.145059       -31.1586
 130   2.0000      -1.144196       -31.1352
 131   2.0000      -1.141271       -31.0556
 132   2.0000      -1.136799       -30.9339
 133   2.0000      -1.075184       -29.2573
 134   2.0000      -1.063713       -28.9451
 135   2.0000      -1.032644       -28.0997
 136   2.0000      -1.029022       -28.0011
 137   2.0000      -1.015766       -27.6404
 138   2.0000      -1.012109       -27.5409
 139   2.0000      -1.008135       -27.4327
 140   2.0000      -1.005752       -27.3679
 141   2.0000      -0.998961       -27.1831
 142   2.0000      -0.984953       -26.8019
 143   2.0000      -0.981899       -26.7188
 144   2.0000      -0.958415       -26.0798
 145   2.0000      -0.947826       -25.7916
 146   2.0000      -0.940754       -25.5992
 147   2.0000      -0.938572       -25.5398
 148   2.0000      -0.932740       -25.3812
 149   2.0000      -0.926462       -25.2103
 150   2.0000      -0.922807       -25.1109
 151   2.0000      -0.916289       -24.9335
 152   2.0000      -0.914820       -24.8935
 153   2.0000      -0.911049       -24.7909
 154   2.0000      -0.901277       -24.5250
 155   2.0000      -0.897299       -24.4167
 156   2.0000      -0.890007       -24.2183
 157   2.0000      -0.879495       -23.9323
 158   2.0000      -0.872294       -23.7363
 159   2.0000      -0.857992       -23.3471
 160   2.0000      -0.856431       -23.3047
 161   2.0000      -0.853860       -23.2347
 162   2.0000      -0.840449       -22.8698
 163   2.0000      -0.829700       -22.5773
 164   2.0000      -0.816812       -22.2266
 165   2.0000      -0.808121       -21.9901
 166   2.0000      -0.800641       -21.7866
 167   2.0000      -0.790747       -21.5173
 168   2.0000      -0.779244       -21.2043
 169   2.0000      -0.772877       -21.0310
 170   2.0000      -0.769496       -20.9391
 171   2.0000      -0.767217       -20.8770
 172   2.0000      -0.749881       -20.4053
 173   2.0000      -0.734242       -19.9797
 174   2.0000      -0.731168       -19.8961
 175   2.0000      -0.721804       -19.6413
 176   2.0000      -0.718436       -19.5496
 177   2.0000      -0.707044       -19.2396
 178   2.0000      -0.705220       -19.1900
 179   2.0000      -0.702255       -19.1093
 180   2.0000      -0.700238       -19.0544
 181   2.0000      -0.694758       -18.9053
 182   2.0000      -0.689198       -18.7540
 183   2.0000      -0.688408       -18.7325
 184   2.0000      -0.671033       -18.2597
 185   2.0000      -0.669102       -18.2072
 186   2.0000      -0.662591       -18.0300
 187   2.0000      -0.658584       -17.9210
 188   2.0000      -0.652856       -17.7651
 189   2.0000      -0.640694       -17.4342
 190   2.0000      -0.628842       -17.1117
 191   2.0000      -0.625470       -17.0199
 192   2.0000      -0.623560       -16.9679
 193   2.0000      -0.621914       -16.9231
 194   2.0000      -0.615560       -16.7502
 195   2.0000      -0.613078       -16.6827
 196   2.0000      -0.610622       -16.6159
 197   2.0000      -0.602597       -16.3975
 198   2.0000      -0.599099       -16.3023
 199   2.0000      -0.594175       -16.1683
 200   2.0000      -0.590966       -16.0810
 201   2.0000      -0.584842       -15.9144
 202   2.0000      -0.581652       -15.8276
 203   2.0000      -0.578099       -15.7309
 204   2.0000      -0.574777       -15.6405
 205   2.0000      -0.572079       -15.5671
 206   2.0000      -0.561513       -15.2795
 207   2.0000      -0.557917       -15.1817
 208   2.0000      -0.557130       -15.1603
 209   2.0000      -0.554803       -15.0970
 210   2.0000      -0.552564       -15.0360
 211   2.0000      -0.550572       -14.9818
 212   2.0000      -0.546499       -14.8710
 213   2.0000      -0.546076       -14.8595
 214   2.0000      -0.544362       -14.8129
 215   2.0000      -0.541951       -14.7472
 216   2.0000      -0.538649       -14.6574
 217   2.0000      -0.537551       -14.6275
 218   2.0000      -0.533013       -14.5040
 219   2.0000      -0.530972       -14.4485
 220   2.0000      -0.527642       -14.3579
 221   2.0000      -0.525512       -14.2999
 222   2.0000      -0.522216       -14.2102
 223   2.0000      -0.517812       -14.0904
 224   2.0000      -0.516917       -14.0660
 225   2.0000      -0.512254       -13.9391
 226   2.0000      -0.511944       -13.9307
 227   2.0000      -0.508193       -13.8286
 228   2.0000      -0.507510       -13.8100
 229   2.0000      -0.503494       -13.7008
 230   2.0000      -0.499523       -13.5927
 231   2.0000      -0.499154       -13.5827
 232   2.0000      -0.495035       -13.4706
 233   2.0000      -0.492992       -13.4150
 234   2.0000      -0.492351       -13.3975
 235   2.0000      -0.482792       -13.1374
 236   2.0000      -0.478964       -13.0333
 237   2.0000      -0.476533       -12.9671
 238   2.0000      -0.473408       -12.8821
 239   2.0000      -0.471003       -12.8166
 240   2.0000      -0.467345       -12.7171
 241   2.0000      -0.466937       -12.7060
 242   2.0000      -0.466220       -12.6865
 243   2.0000      -0.464376       -12.6363
 244   2.0000      -0.463644       -12.6164
 245   2.0000      -0.462306       -12.5800
 246   2.0000      -0.461020       -12.5450
 247   2.0000      -0.459547       -12.5049
 248   2.0000      -0.457125       -12.4390
 249   2.0000      -0.456131       -12.4119
 250   2.0000      -0.454724       -12.3737
 251   2.0000      -0.453911       -12.3515
 252   2.0000      -0.451220       -12.2783
 253   2.0000      -0.447380       -12.1738
 254   2.0000      -0.443069       -12.0565
 255   2.0000      -0.438934       -11.9440
 256   2.0000      -0.438630       -11.9357
 257   2.0000      -0.436074       -11.8662
 258   2.0000      -0.434972       -11.8362
 259   2.0000      -0.433815       -11.8047
 260   2.0000      -0.430472       -11.7137
 261   2.0000      -0.430369       -11.7109
 262   2.0000      -0.422795       -11.5048
 263   2.0000      -0.421415       -11.4673
 264   2.0000      -0.418559       -11.3896
 265   2.0000      -0.411468       -11.1966
 266   2.0000      -0.404930       -11.0187
 267   2.0000      -0.404248       -11.0002
 268   2.0000      -0.403406       -10.9772
 269   2.0000      -0.401842       -10.9347
 270   2.0000      -0.400703       -10.9037
 271   2.0000      -0.398277       -10.8377
 272   2.0000      -0.396096       -10.7783
 273   2.0000      -0.392483       -10.6800
 274   2.0000      -0.392451       -10.6791
 275   2.0000      -0.387628       -10.5479
 276   2.0000      -0.380931       -10.3657
 277   2.0000      -0.371804       -10.1173
 278   2.0000      -0.362156        -9.8548
 279   2.0000      -0.358475        -9.7546
 280   2.0000      -0.354162        -9.6372
 281   2.0000      -0.352094        -9.5810
 282   2.0000      -0.351865        -9.5747
 283   2.0000      -0.347455        -9.4547
 284   2.0000      -0.346338        -9.4243
 285   2.0000      -0.344171        -9.3654
 286   2.0000      -0.342009        -9.3065
 287   2.0000      -0.338833        -9.2201
 288   2.0000      -0.334330        -9.0976
 289   2.0000      -0.326691        -8.8897
 290   2.0000      -0.325794        -8.8653
 291   2.0000      -0.317990        -8.6530
 292   2.0000      -0.315144        -8.5755
 293   2.0000      -0.307556        -8.3690
 294   2.0000      -0.302267        -8.2251
 295   2.0000      -0.249224        -6.7817
 296   0.0000      -0.115143        -3.1332
 297   0.0000      -0.099862        -2.7174
 298   0.0000      -0.087894        -2.3917
 299   0.0000      -0.073476        -1.9994
 300   0.0000      -0.069089        -1.8800

MULLIKEN ATOMIC CHARGES
-----------------------
   0 C :    0.150871
   1 O :   -0.094309
   2 C :   -0.027847
   3 C :    0.036976
   4 C :   -0.006795
   5 C :   -0.025738
   6 C :   -0.013058
   7 C :   -0.015268
   8 Br:    0.019317
   9 Br:    0.024616
  10 C :    0.301735
  11 C :   -0.332926
  12 C :   -0.183847
  13 N :    0.161233
  14 C :   -0.195977
  15 N :    0.169463
  16 C :   -0.072061
  17 C :    0.040292
  18 C :   -0.123993
  19 S :    0.112817
  20 C :   -0.100474
  21 N :   -0.045969
  22 N :    0.016055
  23 C :    0.065075
  24 C :   -0.018562
  25 C :    0.107052
  26 N :   -0.264940
  27 C :    0.096622
  28 C :   -0.003590
  29 C :    0.167989
  30 O :   -0.224829
  31 C :   -0.076482
  32 C :   -0.022353
  33 C :    0.154246
  34 O :   -0.165792
  35 N :   -0.265043
  36 C :    0.092426
  37 C :    0.002445
  38 C :    0.148809
  39 C :    0.003142
  40 C :    0.011769
  41 C :    0.104076
  42 C :   -0.053635
  43 C :    0.144016
  44 N :    0.265940
  45 O :   -0.218236
  46 O :   -0.246855
  47 C :    0.064685
  48 C :   -0.022651
  49 C :    0.024185
  50 C :    0.014268
  51 C :   -0.004327
  52 C :    0.035515
  53 C :   -0.115292
  54 C :    0.137114
  55 O :   -0.130045
  56 C :    0.000009
  57 C :    0.015864
  58 C :    0.258761
  59 C :   -0.296894
  60 C :   -0.187538
  61 N :    0.168933
  62 C :   -0.185386
  63 N :    0.171878
  64 C :   -0.009404
  65 C :   -0.023185
  66 C :   -0.014464
  67 C :   -0.023151
  68 Br:    0.015567
  69 Br:    0.024848
  70 H :    0.007779
  71 H :    0.009452
  72 H :    0.032177
  73 H :   -0.019076
  74 H :    0.043150
  75 H :    0.046272
  76 H :    0.025988
  77 H :    0.026622
  78 H :    0.024161
  79 H :    0.026165
  80 H :    0.027688
  81 H :    0.048673
  82 H :    0.015049
  83 H :    0.030203
  84 H :    0.034082
  85 H :   -0.024419
  86 H :    0.011347
  87 H :    0.001950
  88 H :   -0.009916
  89 H :    0.011712
  90 H :    0.030979
  91 H :    0.023190
  92 H :    0.033055
  93 H :    0.017125
  94 H :    0.008898
Sum of atomic charges:   -0.0000000

LOEWDIN ATOMIC CHARGES
----------------------
   0 C :    0.078383
   1 O :   -0.098625
   2 C :   -0.039593
   3 C :   -0.014592
   4 C :   -0.006551
   5 C :   -0.118652
   6 C :   -0.120466
   7 C :    0.008325
   8 Br:    0.142187
   9 Br:    0.143726
  10 C :    0.071491
  11 C :   -0.124874
  12 C :   -0.019461
  13 N :   -0.037902
  14 C :   -0.022507
  15 N :   -0.039370
  16 C :   -0.063143
  17 C :    0.035153
  18 C :   -0.164916
  19 S :    0.397591
  20 C :   -0.131439
  21 N :   -0.068833
  22 N :   -0.019890
  23 C :   -0.059106
  24 C :    0.021352
  25 C :    0.054222
  26 N :   -0.002240
  27 C :    0.034787
  28 C :   -0.062961
  29 C :    0.079988
  30 O :   -0.210612
  31 C :   -0.132551
  32 C :   -0.092413
  33 C :    0.084751
  34 O :   -0.169442
  35 N :   -0.002742
  36 C :    0.035945
  37 C :   -0.060403
  38 C :    0.094877
  39 C :   -0.045393
  40 C :    0.045330
  41 C :   -0.028641
  42 C :    0.022813
  43 C :   -0.022514
  44 N :    0.292912
  45 O :   -0.185757
  46 O :   -0.193483
  47 C :    0.004719
  48 C :    0.000785
  49 C :    0.026906
  50 C :    0.012458
  51 C :   -0.014446
  52 C :    0.063047
  53 C :   -0.076133
  54 C :    0.084425
  55 O :   -0.130297
  56 C :   -0.047899
  57 C :   -0.006748
  58 C :    0.056713
  59 C :   -0.109587
  60 C :   -0.014099
  61 N :   -0.046685
  62 C :   -0.018068
  63 N :   -0.037205
  64 C :   -0.006954
  65 C :   -0.116469
  66 C :   -0.124410
  67 C :    0.007956
  68 Br:    0.138371
  69 Br:    0.145088
  70 H :    0.044676
  71 H :    0.047736
  72 H :    0.047336
  73 H :    0.029277
  74 H :    0.057172
  75 H :    0.038050
  76 H :    0.019464
  77 H :    0.032030
  78 H :    0.031429
  79 H :    0.023128
  80 H :    0.024313
  81 H :    0.040139
  82 H :    0.021657
  83 H :    0.033488
  84 H :    0.033964
  85 H :    0.029066
  86 H :    0.039428
  87 H :    0.038020
  88 H :    0.036367
  89 H :    0.044046
  90 H :    0.032125
  91 H :    0.038409
  92 H :    0.048758
  93 H :    0.046785
  94 H :    0.046906

  Mayer bond orders larger than 0.100000
B(  0-C ,  1-O ) :   2.2886 B(  0-C ,  2-C ) :   0.9334 B(  0-C , 16-C ) :   0.9125
B(  2-C ,  3-C ) :   1.3299 B(  2-C ,  7-C ) :   1.3755 B(  3-C ,  4-C ) :   1.3562
B(  3-C , 10-C ) :   1.0001 B(  4-C ,  5-C ) :   1.3792 B(  4-C , 70-H ) :   0.9782
B(  5-C ,  6-C ) :   1.4146 B(  5-C ,  9-Br) :   1.0591 B(  6-C ,  7-C ) :   1.3544
B(  6-C ,  8-Br) :   1.0366 B(  7-C , 71-H ) :   1.0069 B( 10-C , 11-C ) :   1.6567
B( 10-C , 16-C ) :   1.0585 B( 11-C , 12-C ) :   1.1365 B( 11-C , 14-C ) :   1.1412
B( 12-C , 13-N ) :   2.9725 B( 14-C , 15-N ) :   2.9835 B( 16-C , 17-C ) :   1.6924
B( 17-C , 18-C ) :   1.1173 B( 17-C , 72-H ) :   0.9243 B( 18-C , 19-S ) :   1.0709
B( 18-C , 22-N ) :   1.6291 B( 19-S , 20-C ) :   1.1229 B( 19-S , 22-N ) :   0.1088
B( 20-C , 21-N ) :   1.6235 B( 20-C , 23-C ) :   1.1208 B( 21-N , 22-N ) :   1.2782
B( 23-C , 24-C ) :   1.6167 B( 23-C , 73-H ) :   0.9481 B( 24-C , 25-C ) :   1.1583
B( 24-C , 74-H ) :   0.9528 B( 25-C , 26-N ) :   1.1503 B( 25-C , 32-C ) :   1.3707
B( 26-N , 27-C ) :   0.9449 B( 26-N , 29-C ) :   1.0743 B( 27-C , 28-C ) :   1.1157
B( 27-C , 75-H ) :   0.9224 B( 27-C , 76-H ) :   0.9505 B( 28-C , 77-H ) :   0.9622
B( 28-C , 78-H ) :   0.9676 B( 28-C , 79-H ) :   0.9676 B( 29-C , 30-O ) :   1.9936
B( 29-C , 31-C ) :   1.0011 B( 30-O , 86-H ) :   0.1236 B( 31-C , 32-C ) :   1.2502
B( 31-C , 38-C ) :   1.3192 B( 32-C , 33-C ) :   0.9597 B( 33-C , 34-O ) :   2.1618
B( 33-C , 35-N ) :   1.0175 B( 35-N , 36-C ) :   0.9413 B( 35-N , 38-C ) :   1.1848
B( 36-C , 37-C ) :   1.1203 B( 36-C , 80-H ) :   0.9505 B( 36-C , 81-H ) :   0.9274
B( 37-C , 82-H ) :   0.9683 B( 37-C , 83-H ) :   0.9680 B( 37-C , 84-H ) :   0.9638
B( 38-C , 39-C ) :   1.1485 B( 39-C , 40-C ) :   1.6102 B( 39-C , 85-H ) :   0.9597
B( 40-C , 41-C ) :   1.0752 B( 40-C , 86-H ) :   0.9617 B( 41-C , 42-C ) :   1.2929
B( 41-C , 49-C ) :   1.3092 B( 42-C , 43-C ) :   1.3910 B( 42-C , 87-H ) :   0.9861
B( 43-C , 44-N ) :   0.8850 B( 43-C , 47-C ) :   1.3414 B( 44-N , 45-O ) :   1.5672
B( 44-N , 46-O ) :   1.4830 B( 45-O , 46-O ) :   0.2579 B( 47-C , 48-C ) :   1.3434
B( 47-C , 50-C ) :   1.0825 B( 48-C , 49-C ) :   1.3905 B( 48-C , 88-H ) :   0.9905
B( 49-C , 89-H ) :   1.0012 B( 50-C , 51-C ) :   1.7618 B( 50-C , 90-H ) :   0.9475
B( 51-C , 52-C ) :   1.0722 B( 51-C , 91-H ) :   0.9461 B( 52-C , 53-C ) :   1.7615
B( 52-C , 92-H ) :   0.9275 B( 53-C , 54-C ) :   0.9328 B( 53-C , 58-C ) :   1.0082
B( 54-C , 55-O ) :   2.2817 B( 54-C , 56-C ) :   0.9223 B( 56-C , 57-C ) :   1.3280
B( 56-C , 67-C ) :   1.3653 B( 57-C , 58-C ) :   1.0032 B( 57-C , 64-C ) :   1.3664
B( 58-C , 59-C ) :   1.7104 B( 59-C , 60-C ) :   1.1600 B( 59-C , 62-C ) :   1.1209
B( 60-C , 61-N ) :   2.9870 B( 62-C , 63-N ) :   3.0031 B( 64-C , 65-C ) :   1.3726
B( 64-C , 93-H ) :   0.9840 B( 65-C , 66-C ) :   1.4134 B( 65-C , 69-Br) :   1.0555
B( 66-C , 67-C ) :   1.3612 B( 66-C , 68-Br) :   1.0353 B( 67-C , 94-H ) :   1.0087

-----------------------------------------------------------------------------
         ABSORPTION SPECTRUM VIA TRANSITION ELECTRIC DIPOLE MOMENTS
-----------------------------------------------------------------------------
State   Energy  Wavelength   fosc         T2         TX        TY        TZ
        (cm-1)    (nm)                  (au**2)     (au)      (au)      (au)
-----------------------------------------------------------------------------
   0   14799.9    675.7   1.296916652  28.84893   2.94331   4.31222   1.26119
   1   20237.3    494.1   0.008852687   0.14401   0.24281  -0.08866   0.27784
   2   22194.7    450.6   0.034421680   0.51057  -0.25239  -0.66253   0.08903
   3   22796.5    438.7   0.077594065   1.12056   0.68001   0.39911  -0.70630
   4   25697.0    389.2   0.052465308   0.67215   0.79762   0.18869   0.01841
   5   26009.4    384.5   0.155695929   1.97071  -0.79340  -1.15466   0.08935
   6   26401.5    378.8   0.315061425   3.92865  -1.45397  -1.31466  -0.29370
   7   26703.8    374.5   0.013362010   0.16473  -0.15689   0.36772   0.06996
   8   26837.3    372.6   0.109708769   1.34579   0.69946   0.86814  -0.32076
   9   28327.6    353.0   0.175118165   2.03515   0.23470  -1.32761  -0.46639
  10   28428.2    351.8   0.034986848   0.40516  -0.09746  -0.44184  -0.44771
  11   28507.5    350.8   0.024856470   0.28705  -0.43324  -0.05755   0.30990
  12   28830.8    346.9   0.526003258   6.00630  -1.90392  -1.35917   0.73078
  13   29221.5    342.2   0.102708738   1.15712   0.73404   0.78469  -0.05080
  14   29802.1    335.5   0.391370934   4.32331  -0.79974  -1.87762   0.39786
  15   29942.1    334.0   0.018706336   0.20568   0.03069  -0.44984  -0.04877
  16   31083.6    321.7   0.005579095   0.05909   0.05765  -0.12082   0.20290
  17   31377.2    318.7   0.049849798   0.52303  -0.20558  -0.55169  -0.42001
  18   31590.4    316.6   0.041108379   0.42840  -0.26057  -0.60016   0.01756
  19   32036.6    312.1   0.019903432   0.20453   0.01958   0.38498  -0.23650
  20   32049.3    312.0   0.032336996   0.33217   0.01570   0.52955  -0.22693
  21   32498.0    307.7   0.078748151   0.79774  -0.83786  -0.20957   0.22762
  22   33062.8    302.5   0.016038206   0.15970   0.30114   0.24465  -0.09567
  23   33614.7    297.5   0.097906594   0.95887   0.03243  -0.93930   0.27484
  24   34289.0    291.6   0.027575011   0.26475  -0.16940  -0.43462  -0.21717
  25   34552.1    289.4   0.044625128   0.42519  -0.42346  -0.42230  -0.25988
  26   35337.2    283.0   0.484038136   4.50945  -1.84212   0.21386   1.03455
  27   35422.7    282.3   0.506747262   4.70961   0.36531   2.12035   0.28329
  28   35798.4    279.3   0.379795082   3.49270   0.51904  -1.53754  -0.92698
  29   36093.5    277.1   0.070291449   0.64113   0.12868  -0.70622   0.35472
  30   36338.1    275.2   0.036886068   0.33418  -0.48373  -0.29041  -0.12587
  31   36642.1    272.9   0.023954015   0.21522  -0.00752   0.02998   0.46288
  32   36765.5    272.0   0.000839568   0.00752   0.01879  -0.06654  -0.05231
  33   36823.2    271.6   0.153531418   1.37262   0.04418   1.02491  -0.56588
  34   36942.2    270.7   0.101194137   0.90179   0.51325   0.79699   0.05647
  35   37228.3    268.6   0.019153997   0.16938  -0.24065   0.08607   0.32258
  36   37647.2    265.6   0.141993051   1.24168  -0.11481  -0.57130   0.94979
  37   37673.6    265.4   0.197491090   1.72578   0.60723   1.04898  -0.50665
  38   37800.5    264.5   0.033454140   0.29136  -0.08246  -0.52113   0.11396
  39   38214.8    261.7   0.021704559   0.18698   0.18268   0.33214  -0.20806
  40   38530.7    259.5   0.063033940   0.53857   0.23544   0.43133   0.54507
  41   39020.9    256.3   0.003452713   0.02913   0.00704  -0.15811  -0.06387
  42   39050.5    256.1   0.007072239   0.05962  -0.13031  -0.04299   0.20198
  43   39695.2    251.9   0.006518325   0.05406  -0.04467  -0.05575  -0.22126
  44   39826.6    251.1   0.053097681   0.43891   0.01695   0.25900   0.60954
  45   39925.9    250.5   0.033723891   0.27807   0.05247  -0.03985  -0.52319
  46   39971.9    250.2   0.110155387   0.90725   0.74941   0.47912  -0.34071

FINAL SINGLE POINT ENERGY    -13554.608961536485

DIPOLE MOMENT
-------------
                                X             Y             Z
Electronic contribution:     52.49694     -13.81408     -91.52990
Nuclear contribution   :    -51.46997      11.19815      92.91762
                        -----------------------------------------
Total Dipole Moment    :      1.02697      -2.61593       1.38772
                        -----------------------------------------
Magnitude (a.u.)       :      3.13425
Magnitude (Debye)      :      7.96663

Rotational constants in cm-1:     0.002428     0.000107     0.000105
Rotational constants in MHz :    72.786738     3.206425     3.144321

                             ****ORCA TERMINATED NORMALLY****
TOTAL RUN TIME: 0 days 0 hours 10 minutes 1 seconds 860 msec
