                         Program Version 4.2.0 -  RELEASE  -
|  1> # ORCA input file
|  2> # SCF done       -172.034791294272          0.000989374564
|  3> ! CAM-B3LYP def2-SVP def2/J RIJCOSX Grid4 TightSCF
|  4> %maxcore 5000
|  5> %tddft
|  6>     Mode sTDDFT
|  7>     Ethresh 5.0
|  8>     maxcore 5000
|  9> end
| 10>
| 11> %pal
| 12>   nprocs 6
| 13>   end
| 14> * xyz 0 1
| 15>    C        1.04915        -2.33871        -1.75999
| 16>    O        0.73322        -3.47281        -1.44314
| 17>    C        1.96565        -1.94203        -2.84085
| 18>    C        2.18391        -0.55206        -2.78070
| 19>    C        3.01422         0.05116        -3.70958
| 20>    C        3.60952        -0.74124        -4.68607
| 21>    C        3.38521        -2.11903        -4.73803
| 22>    C        2.55820        -2.73108        -3.80473
| 23>   Br        4.20131        -3.17094        -6.07774
| 24>   Br        4.73932         0.08268        -5.95604
| 25>    C        1.41405         0.00362        -1.66765
| 26>    C        1.38095         1.31979        -1.28926
| 27>    C        2.12404         2.34216        -1.91670
| 28>    N        2.71407         3.20652        -2.38650
| 29>    C        0.61014         1.81755        -0.21695
| 30>    N        0.00438         2.27860         0.64145
| 31>    C        0.67509        -1.08645        -1.07429
| 32>    C       -0.16556        -1.09592         0.01120
| 33>    C       -0.96417        -2.22258         0.27055
| 34>    C       -1.45589        -2.73339         1.44653
| 35>    C       -2.13020        -3.95727         1.20472
| 36>    C       -2.07559        -4.29315        -0.13535
| 37>    C       -1.50237        -3.09780        -0.83710
| 38>    O       -1.77074        -2.72534        -1.95216
| 39>    C       -2.64649        -5.44830        -0.70465
| 40>    N       -2.36370        -6.00210        -1.92226
| 41>    C       -1.32468        -5.63227        -2.85955
| 42>    C       -1.89654        -4.93466        -4.08910
| 43>    C       -3.14846        -7.14220        -2.17308
| 44>    O       -3.04770        -7.82302        -3.17126
| 45>    C       -3.99196        -7.27112        -0.99760
| 46>    C       -3.63526        -6.25587        -0.10307
| 47>    C       -4.47702        -6.37499         1.07723
| 48>    O       -4.50310        -5.75534         2.11827
| 49>    N       -5.31340        -7.46516         0.79366
| 50>    C       -6.36202        -7.86446         1.70475
| 51>    C       -7.71743        -7.30250         1.28497
| 52>    C       -5.05501        -8.01253        -0.43952
| 53>    C       -5.77766        -9.07615        -0.99085
| 54>    C       -5.51357        -9.59586        -2.23758
| 55>    C       -6.31291       -10.56335        -2.85088
| 56>    C       -6.17213       -11.08916        -4.12030
| 57>    C       -7.26695       -11.93044        -4.42827
| 58>    C       -8.17241       -11.95616        -3.38635
| 59>    C       -7.55754       -11.18390        -2.26497
| 60>    O       -7.90973       -11.17459        -1.10867
| 61>    C       -9.40413       -12.63658        -3.34905
| 62>    C      -10.46177       -12.44532        -2.50375
| 63>    C      -11.48464       -13.51529        -2.37158
| 64>    O      -11.62495       -14.48210        -3.08264
| 65>    C      -12.25319       -13.16268        -1.15622
| 66>    C      -11.80849       -11.92082        -0.66565
| 67>    C      -10.79169       -11.39011        -1.57169
| 68>    C      -10.42035       -10.07384        -1.64613
| 69>    C       -9.62907        -9.53666        -2.68053
| 70>    N       -9.00086        -9.04101        -3.50421
| 71>    C      -10.79710        -9.08960        -0.71052
| 72>    N      -11.03395        -8.25595         0.04213
| 73>    C      -12.36276       -11.39746         0.48966
| 74>    C      -13.36068       -12.11998         1.13380
| 75>    C      -13.80840       -13.34390         0.63163
| 76>    C      -13.24977       -13.87618        -0.52386
| 77>   Br      -15.17816       -14.29585         1.51964
| 78>   Br      -14.11189       -11.41362         2.71769
| 79>    H        3.21076         1.11113        -3.70125
| 80>    H        2.37884        -3.79452        -3.83601
| 81>    H       -0.21749        -0.25151         0.68511
| 82>    H       -1.28915        -2.32053         2.42584
| 83>    H       -2.59371        -4.55418         1.97075
| 84>    H       -0.83757        -6.56307        -3.16883
| 85>    H       -0.59750        -4.99898        -2.35155
| 86>    H       -2.62988        -5.57499        -4.57269
| 87>    H       -1.09521        -4.72872        -4.79306
| 88>    H       -2.36412        -3.99560        -3.80830
| 89>    H       -6.08401        -7.46294         2.68298
| 90>    H       -6.39292        -8.95517         1.76544
| 91>    H       -7.68440        -6.21605         1.27353
| 92>    H       -8.48214        -7.61755         1.98853
| 93>    H       -7.99890        -7.64948         0.29337
| 94>    H       -6.59218        -9.49117        -0.41685
| 95>    H       -4.67932        -9.20926        -2.81053
| 96>    H       -5.36580       -10.86440        -4.79479
| 97>    H       -7.40206       -12.42826        -5.37263
| 98>    H       -9.52411       -13.46044        -4.04722
| 99>    H      -12.03684       -10.45796         0.90619
|100>    H      -13.58681       -14.82229        -0.91810
|101> *
|102>
|103>                          ****END OF INPUT****

CARTESIAN COORDINATES (ANGSTROEM)
---------------------------------
  C      1.049150   -2.338710   -1.759990
  O      0.733220   -3.472810   -1.443140
  C      1.965650   -1.942030   -2.840850
  C      2.183910   -0.552060   -2.780700
  C      3.014220    0.051160   -3.709580
  C      3.609520   -0.741240   -4.686070
  C      3.385210   -2.119030   -4.738030
  C      2.558200   -2.731080   -3.804730
  Br     4.201310   -3.170940   -6.077740
  Br     4.739320    0.082680   -5.956040
  C      1.414050    0.003620   -1.667650
  C      1.380950    1.319790   -1.289260
  C      2.124040    2.342160   -1.916700
  N      2.714070    3.206520   -2.386500
  C      0.610140    1.817550   -0.216950
  N      0.004380    2.278600    0.641450
  C      0.675090   -1.086450   -1.074290
  C     -0.165560   -1.095920    0.011200
  C     -0.964170   -2.222580    0.270550
  C     -1.455890   -2.733390    1.446530
  C     -2.130200   -3.957270    1.204720
  C     -2.075590   -4.293150   -0.135350
  C     -1.502370   -3.097800   -0.837100
  O     -1.770740   -2.725340   -1.952160
  C     -2.646490   -5.448300   -0.704650
  N     -2.363700   -6.002100   -1.922260
  C     -1.324680   -5.632270   -2.859550
  C     -1.896540   -4.934660   -4.089100
  C     -3.148460   -7.142200   -2.173080
  O     -3.047700   -7.823020   -3.171260
  C     -3.991960   -7.271120   -0.997600
  C     -3.635260   -6.255870   -0.103070
  C     -4.477020   -6.374990    1.077230
  O     -4.503100   -5.755340    2.118270
  N     -5.313400   -7.465160    0.793660
  C     -6.362020   -7.864460    1.704750
  C     -7.717430   -7.302500    1.284970
  C     -5.055010   -8.012530   -0.439520
  C     -5.777660   -9.076150   -0.990850
  C     -5.513570   -9.595860   -2.237580
  C     -6.312910  -10.563350   -2.850880
  C     -6.172130  -11.089160   -4.120300
  C     -7.266950  -11.930440   -4.428270
  C     -8.172410  -11.956160   -3.386350
  C     -7.557540  -11.183900   -2.264970
  O     -7.909730  -11.174590   -1.108670
  C     -9.404130  -12.636580   -3.349050
  C    -10.461770  -12.445320   -2.503750
  C    -11.484640  -13.515290   -2.371580
  O    -11.624950  -14.482100   -3.082640
  C    -12.253190  -13.162680   -1.156220
  C    -11.808490  -11.920820   -0.665650
  C    -10.791690  -11.390110   -1.571690
  C    -10.420350  -10.073840   -1.646130
  C     -9.629070   -9.536660   -2.680530
  N     -9.000860   -9.041010   -3.504210
  C    -10.797100   -9.089600   -0.710520
  N    -11.033950   -8.255950    0.042130
  C    -12.362760  -11.397460    0.489660
  C    -13.360680  -12.119980    1.133800
  C    -13.808400  -13.343900    0.631630
  C    -13.249770  -13.876180   -0.523860
  Br   -15.178160  -14.295850    1.519640
  Br   -14.111890  -11.413620    2.717690
  H      3.210760    1.111130   -3.701250
  H      2.378840   -3.794520   -3.836010
  H     -0.217490   -0.251510    0.685110
  H     -1.289150   -2.320530    2.425840
  H     -2.593710   -4.554180    1.970750
  H     -0.837570   -6.563070   -3.168830
  H     -0.597500   -4.998980   -2.351550
  H     -2.629880   -5.574990   -4.572690
  H     -1.095210   -4.728720   -4.793060
  H     -2.364120   -3.995600   -3.808300
  H     -6.084010   -7.462940    2.682980
  H     -6.392920   -8.955170    1.765440
  H     -7.684400   -6.216050    1.273530
  H     -8.482140   -7.617550    1.988530
  H     -7.998900   -7.649480    0.293370
  H     -6.592180   -9.491170   -0.416850
  H     -4.679320   -9.209260   -2.810530
  H     -5.365800  -10.864400   -4.794790
  H     -7.402060  -12.428260   -5.372630
  H     -9.524110  -13.460440   -4.047220
  H    -12.036840  -10.457960    0.906190
  H    -13.586810  -14.822290   -0.918100

 Total Charge           Charge          ....    0
 Multiplicity           Mult            ....    1
 Number of Electrons    NEL             ....  540
 Basis Dimension        Dim             .... 1078

ORBITAL ENERGIES
----------------

  NO   OCC          E(Eh)            E(eV)
   0   2.0000    -482.883679    -13139.9329
   1   2.0000    -482.882019    -13139.8878
   2   2.0000    -482.877533    -13139.7657
   3   2.0000    -482.876589    -13139.7400
   4   2.0000     -62.561297     -1702.3794
   5   2.0000     -62.559636     -1702.3342
   6   2.0000     -62.555148     -1702.2121
   7   2.0000     -62.554216     -1702.1868
   8   2.0000     -56.395257     -1534.5929
   9   2.0000     -56.393605     -1534.5480
  10   2.0000     -56.392588     -1534.5203
  11   2.0000     -56.392494     -1534.5178
  12   2.0000     -56.390929     -1534.4752
  13   2.0000     -56.390819     -1534.4722
  14   2.0000     -56.389095     -1534.4253
  15   2.0000     -56.388174     -1534.4002
  16   2.0000     -56.386444     -1534.3531
  17   2.0000     -56.386353     -1534.3507
  18   2.0000     -56.385507     -1534.3277
  19   2.0000     -56.385417     -1534.3252
  20   2.0000     -19.251401      -523.8572
  21   2.0000     -19.242135      -523.6051
  22   2.0000     -19.236962      -523.4644
  23   2.0000     -19.221930      -523.0553
  24   2.0000     -19.204726      -522.5872
  25   2.0000     -19.204158      -522.5717
  26   2.0000     -14.464072      -393.5874
  27   2.0000     -14.462993      -393.5580
  28   2.0000     -14.428949      -392.6317
  29   2.0000     -14.427275      -392.5861
  30   2.0000     -14.424947      -392.5228
  31   2.0000     -14.421478      -392.4284
  32   2.0000     -10.390596      -282.7425
  33   2.0000     -10.388607      -282.6884
  34   2.0000     -10.388378      -282.6821
  35   2.0000     -10.386587      -282.6334
  36   2.0000     -10.385060      -282.5919
  37   2.0000     -10.372962      -282.2627
  38   2.0000     -10.361870      -281.9608
  39   2.0000     -10.361339      -281.9464
  40   2.0000     -10.359280      -281.8903
  41   2.0000     -10.355605      -281.7903
  42   2.0000     -10.355375      -281.7841
  43   2.0000     -10.354740      -281.7668
  44   2.0000     -10.354111      -281.7497
  45   2.0000     -10.350365      -281.6477
  46   2.0000     -10.347718      -281.5757
  47   2.0000     -10.346845      -281.5520
  48   2.0000     -10.331322      -281.1296
  49   2.0000     -10.330449      -281.1058
  50   2.0000     -10.328945      -281.0649
  51   2.0000     -10.328003      -281.0393
  52   2.0000     -10.327304      -281.0202
  53   2.0000     -10.327053      -281.0134
  54   2.0000     -10.324226      -280.9365
  55   2.0000     -10.323431      -280.9148
  56   2.0000     -10.322409      -280.8870
  57   2.0000     -10.321193      -280.8539
  58   2.0000     -10.319330      -280.8032
  59   2.0000     -10.318685      -280.7857
  60   2.0000     -10.314759      -280.6789
  61   2.0000     -10.313622      -280.6479
  62   2.0000     -10.313576      -280.6467
  63   2.0000     -10.312586      -280.6197
  64   2.0000     -10.312497      -280.6173
  65   2.0000     -10.312127      -280.6072
  66   2.0000     -10.311333      -280.5856
  67   2.0000     -10.310964      -280.5756
  68   2.0000     -10.308410      -280.5061
  69   2.0000     -10.308220      -280.5009
  70   2.0000     -10.304541      -280.4008
  71   2.0000     -10.304172      -280.3908
  72   2.0000     -10.303404      -280.3699
  73   2.0000     -10.302873      -280.3554
  74   2.0000     -10.302199      -280.3371
  75   2.0000     -10.300279      -280.2848
  76   2.0000     -10.279021      -279.7064
  77   2.0000     -10.278385      -279.6891
  78   2.0000     -10.259342      -279.1709
  79   2.0000     -10.245893      -278.8049
  80   2.0000      -8.790622      -239.2050
  81   2.0000      -8.788962      -239.1598
  82   2.0000      -8.784467      -239.0375
  83   2.0000      -8.783540      -239.0123
  84   2.0000      -6.626773      -180.3237
  85   2.0000      -6.625154      -180.2796
  86   2.0000      -6.620584      -180.1553
  87   2.0000      -6.619682      -180.1307
  88   2.0000      -6.612726      -179.9414
  89   2.0000      -6.611956      -179.9205
  90   2.0000      -6.611079      -179.8966
  91   2.0000      -6.610239      -179.8737
  92   2.0000      -6.606577      -179.7741
  93   2.0000      -6.605832      -179.7538
  94   2.0000      -6.605645      -179.7487
  95   2.0000      -6.604886      -179.7281
  96   2.0000      -2.742676       -74.6320
  97   2.0000      -2.741052       -74.5878
  98   2.0000      -2.738909       -74.5295
  99   2.0000      -2.738288       -74.5126
 100   2.0000      -2.737265       -74.4848
 101   2.0000      -2.736637       -74.4677
 102   2.0000      -2.736515       -74.4643
 103   2.0000      -2.735613       -74.4398
 104   2.0000      -2.732751       -74.3619
 105   2.0000      -2.732095       -74.3441
 106   2.0000      -2.731823       -74.3367
 107   2.0000      -2.731187       -74.3194
 108   2.0000      -2.727122       -74.2088
 109   2.0000      -2.727113       -74.2085
 110   2.0000      -2.725428       -74.1627
 111   2.0000      -2.725413       -74.1623
 112   2.0000      -2.721004       -74.0423
 113   2.0000      -2.720988       -74.0419
 114   2.0000      -2.720055       -74.0165
 115   2.0000      -2.720030       -74.0158
 116   2.0000      -1.163996       -31.6739
 117   2.0000      -1.163594       -31.6630
 118   2.0000      -1.147012       -31.2118
 119   2.0000      -1.145057       -31.1586
 120   2.0000      -1.139928       -31.0190
 121   2.0000      -1.137460       -30.9519
 122   2.0000      -1.075878       -29.2761
 123   2.0000      -1.066453       -29.0197
 124   2.0000      -1.034686       -28.1552
 125   2.0000      -1.027625       -27.9631
 126   2.0000      -1.018273       -27.7086
 127   2.0000      -1.012573       -27.5535
 128   2.0000      -1.006369       -27.3847
 129   2.0000      -1.002774       -27.2869
 130   2.0000      -0.993998       -27.0481
 131   2.0000      -0.993440       -27.0329
 132   2.0000      -0.985141       -26.8071
 133   2.0000      -0.978232       -26.6190
 134   2.0000      -0.936687       -25.4885
 135   2.0000      -0.930814       -25.3287
 136   2.0000      -0.926766       -25.2186
 137   2.0000      -0.923498       -25.1297
 138   2.0000      -0.920824       -25.0569
 139   2.0000      -0.917633       -24.9701
 140   2.0000      -0.913363       -24.8539
 141   2.0000      -0.903469       -24.5846
 142   2.0000      -0.887113       -24.1396
 143   2.0000      -0.875302       -23.8182
 144   2.0000      -0.869648       -23.6643
 145   2.0000      -0.861753       -23.4495
 146   2.0000      -0.854394       -23.2492
 147   2.0000      -0.854075       -23.2406
 148   2.0000      -0.840083       -22.8598
 149   2.0000      -0.820643       -22.3308
 150   2.0000      -0.808198       -21.9922
 151   2.0000      -0.803003       -21.8508
 152   2.0000      -0.780255       -21.2318
 153   2.0000      -0.779696       -21.2166
 154   2.0000      -0.775745       -21.1091
 155   2.0000      -0.769684       -20.9442
 156   2.0000      -0.764249       -20.7963
 157   2.0000      -0.758739       -20.6463
 158   2.0000      -0.757679       -20.6175
 159   2.0000      -0.722891       -19.6709
 160   2.0000      -0.722202       -19.6521
 161   2.0000      -0.712455       -19.3869
 162   2.0000      -0.708221       -19.2717
 163   2.0000      -0.705788       -19.2055
 164   2.0000      -0.698408       -19.0047
 165   2.0000      -0.692458       -18.8428
 166   2.0000      -0.689615       -18.7654
 167   2.0000      -0.679052       -18.4779
 168   2.0000      -0.667765       -18.1708
 169   2.0000      -0.663037       -18.0421
 170   2.0000      -0.655813       -17.8456
 171   2.0000      -0.653055       -17.7705
 172   2.0000      -0.637232       -17.3400
 173   2.0000      -0.634848       -17.2751
 174   2.0000      -0.629076       -17.1180
 175   2.0000      -0.621303       -16.9065
 176   2.0000      -0.615587       -16.7510
 177   2.0000      -0.610271       -16.6063
 178   2.0000      -0.602123       -16.3846
 179   2.0000      -0.594455       -16.1759
 180   2.0000      -0.593335       -16.1455
 181   2.0000      -0.591031       -16.0828
 182   2.0000      -0.584919       -15.9165
 183   2.0000      -0.583559       -15.8794
 184   2.0000      -0.575553       -15.6616
 185   2.0000      -0.569051       -15.4847
 186   2.0000      -0.565384       -15.3849
 187   2.0000      -0.559664       -15.2292
 188   2.0000      -0.557886       -15.1809
 189   2.0000      -0.557359       -15.1665
 190   2.0000      -0.555586       -15.1183
 191   2.0000      -0.552003       -15.0208
 192   2.0000      -0.550041       -14.9674
 193   2.0000      -0.548738       -14.9319
 194   2.0000      -0.543434       -14.7876
 195   2.0000      -0.542911       -14.7734
 196   2.0000      -0.538858       -14.6631
 197   2.0000      -0.534591       -14.5470
 198   2.0000      -0.532128       -14.4799
 199   2.0000      -0.529336       -14.4040
 200   2.0000      -0.526586       -14.3291
 201   2.0000      -0.522106       -14.2072
 202   2.0000      -0.520923       -14.1750
 203   2.0000      -0.518378       -14.1058
 204   2.0000      -0.516006       -14.0413
 205   2.0000      -0.514648       -14.0043
 206   2.0000      -0.513505       -13.9732
 207   2.0000      -0.509325       -13.8594
 208   2.0000      -0.508281       -13.8310
 209   2.0000      -0.503605       -13.7038
 210   2.0000      -0.500909       -13.6304
 211   2.0000      -0.500398       -13.6165
 212   2.0000      -0.500124       -13.6091
 213   2.0000      -0.494770       -13.4634
 214   2.0000      -0.493225       -13.4213
 215   2.0000      -0.492102       -13.3908
 216   2.0000      -0.485801       -13.2193
 217   2.0000      -0.482959       -13.1420
 218   2.0000      -0.474684       -12.9168
 219   2.0000      -0.472284       -12.8515
 220   2.0000      -0.471629       -12.8337
 221   2.0000      -0.468354       -12.7446
 222   2.0000      -0.465900       -12.6778
 223   2.0000      -0.464199       -12.6315
 224   2.0000      -0.462185       -12.5767
 225   2.0000      -0.460011       -12.5175
 226   2.0000      -0.459801       -12.5118
 227   2.0000      -0.454687       -12.3727
 228   2.0000      -0.451361       -12.2822
 229   2.0000      -0.449763       -12.2387
 230   2.0000      -0.447083       -12.1657
 231   2.0000      -0.444700       -12.1009
 232   2.0000      -0.442983       -12.0542
 233   2.0000      -0.442236       -12.0338
 234   2.0000      -0.439196       -11.9511
 235   2.0000      -0.437594       -11.9075
 236   2.0000      -0.432232       -11.7616
 237   2.0000      -0.431442       -11.7401
 238   2.0000      -0.430898       -11.7253
 239   2.0000      -0.428728       -11.6663
 240   2.0000      -0.424715       -11.5571
 241   2.0000      -0.422920       -11.5082
 242   2.0000      -0.422030       -11.4840
 243   2.0000      -0.418572       -11.3899
 244   2.0000      -0.414651       -11.2832
 245   2.0000      -0.406428       -11.0595
 246   2.0000      -0.403863       -10.9897
 247   2.0000      -0.400254       -10.8915
 248   2.0000      -0.396530       -10.7901
 249   2.0000      -0.396078       -10.7778
 250   2.0000      -0.390969       -10.6388
 251   2.0000      -0.380153       -10.3445
 252   2.0000      -0.368352       -10.0234
 253   2.0000      -0.363706        -9.8969
 254   2.0000      -0.362533        -9.8650
 255   2.0000      -0.355991        -9.6870
 256   2.0000      -0.353714        -9.6251
 257   2.0000      -0.351482        -9.5643
 258   2.0000      -0.349289        -9.5046
 259   2.0000      -0.347497        -9.4559
 260   2.0000      -0.342708        -9.3256
 261   2.0000      -0.341837        -9.3018
 262   2.0000      -0.341496        -9.2926
 263   2.0000      -0.333046        -9.0626
 264   2.0000      -0.326278        -8.8785
 265   2.0000      -0.320805        -8.7296
 266   2.0000      -0.312075        -8.4920
 267   2.0000      -0.307740        -8.3740
 268   2.0000      -0.289917        -7.8890
 269   2.0000      -0.240073        -6.5327
 270   0.0000      -0.140796        -3.8312
 271   0.0000      -0.113726        -3.0946
 272   0.0000      -0.085671        -2.3312
 273   0.0000      -0.075866        -2.0644
 274   0.0000      -0.066258        -1.8030

MULLIKEN ATOMIC CHARGES
-----------------------
   0 C :    0.170613
   1 O :   -0.167400
   2 C :   -0.001030
   3 C :    0.038295
   4 C :   -0.009997
   5 C :   -0.024999
   6 C :   -0.017845
   7 C :   -0.020312
   8 Br:    0.019750
   9 Br:    0.029143
  10 C :    0.301698
  11 C :   -0.323688
  12 C :   -0.189473
  13 N :    0.167292
  14 C :   -0.193240
  15 N :    0.163982
  16 C :   -0.090737
  17 C :    0.030506
  18 C :    0.018784
  19 C :    0.038284
  20 C :    0.012663
  21 C :   -0.087581
  22 C :    0.130720
  23 O :   -0.139011
  24 C :    0.181678
  25 N :   -0.251435
  26 C :    0.126599
  27 C :   -0.001013
  28 C :    0.169018
  29 O :   -0.197266
  30 C :   -0.056208
  31 C :   -0.073566
  32 C :    0.151482
  33 O :   -0.195408
  34 N :   -0.254040
  35 C :    0.088403
  36 C :    0.011248
  37 C :    0.163599
  38 C :   -0.029915
  39 C :   -0.001958
  40 C :    0.064493
  41 C :    0.003317
  42 C :    0.058543
  43 C :    0.004750
  44 C :    0.098050
  45 O :   -0.131495
  46 C :    0.039404
  47 C :   -0.130719
  48 C :    0.135943
  49 O :   -0.136309
  50 C :   -0.001648
  51 C :    0.017372
  52 C :    0.307202
  53 C :   -0.325946
  54 C :   -0.214246
  55 N :    0.164926
  56 C :   -0.171941
  57 N :    0.149192
  58 C :   -0.006968
  59 C :   -0.023129
  60 C :   -0.016690
  61 C :   -0.018128
  62 Br:    0.013667
  63 Br:    0.019359
  64 H :    0.010254
  65 H :    0.005384
  66 H :    0.030777
  67 H :    0.010800
  68 H :    0.024299
  69 H :    0.019771
  70 H :    0.023146
  71 H :    0.026122
  72 H :    0.007395
  73 H :    0.032526
  74 H :    0.041658
  75 H :    0.031742
  76 H :    0.027674
  77 H :    0.032780
  78 H :    0.020086
  79 H :    0.005243
  80 H :    0.005370
  81 H :    0.012496
  82 H :    0.011643
  83 H :    0.018573
  84 H :    0.008804
  85 H :    0.006824
Sum of atomic charges:   -0.0000000

LOEWDIN ATOMIC CHARGES
----------------------
   0 C :    0.102920
   1 O :   -0.132445
   2 C :   -0.039695
   3 C :   -0.006910
   4 C :   -0.005806
   5 C :   -0.116472
   6 C :   -0.122576
   7 C :    0.007956
   8 Br:    0.142155
   9 Br:    0.147584
  10 C :    0.070871
  11 C :   -0.122943
  12 C :   -0.020417
  13 N :   -0.037897
  14 C :   -0.019089
  15 N :   -0.039341
  16 C :   -0.080513
  17 C :    0.075665
  18 C :   -0.058543
  19 C :    0.048566
  20 C :    0.045736
  21 C :   -0.054405
  22 C :    0.104992
  23 O :   -0.107874
  24 C :    0.079183
  25 N :    0.015783
  26 C :    0.037326
  27 C :   -0.063747
  28 C :    0.083379
  29 O :   -0.184716
  30 C :   -0.101758
  31 C :   -0.103256
  32 C :    0.080950
  33 O :   -0.188504
  34 N :    0.005121
  35 C :    0.036434
  36 C :   -0.057261
  37 C :    0.075178
  38 C :   -0.014811
  39 C :    0.029928
  40 C :   -0.021328
  41 C :    0.005447
  42 C :    0.078488
  43 C :   -0.089714
  44 C :    0.108575
  45 O :   -0.100338
  46 C :    0.068186
  47 C :   -0.092028
  48 C :    0.082687
  49 O :   -0.137538
  50 C :   -0.042517
  51 C :   -0.006155
  52 C :    0.079498
  53 C :   -0.137283
  54 C :   -0.014208
  55 N :   -0.050929
  56 C :   -0.017380
  57 N :   -0.051993
  58 C :   -0.008956
  59 C :   -0.118474
  60 C :   -0.123818
  61 C :    0.006719
  62 Br:    0.137183
  63 Br:    0.140493
  64 H :    0.045710
  65 H :    0.045961
  66 H :    0.049227
  67 H :    0.040387
  68 H :    0.039027
  69 H :    0.029235
  70 H :    0.022356
  71 H :    0.025828
  72 H :    0.025600
  73 H :    0.023146
  74 H :    0.037197
  75 H :    0.026784
  76 H :    0.032270
  77 H :    0.034946
  78 H :    0.023210
  79 H :    0.034071
  80 H :    0.040731
  81 H :    0.039177
  82 H :    0.040219
  83 H :    0.048848
  84 H :    0.044304
  85 H :    0.046403

  Mayer bond orders larger than 0.100000
B(  0-C ,  1-O ) :   2.0544 B(  0-C ,  2-C ) :   0.9582 B(  0-C , 16-C ) :   0.9910
B(  2-C ,  3-C ) :   1.3220 B(  2-C ,  7-C ) :   1.3691 B(  3-C ,  4-C ) :   1.3725
B(  3-C , 10-C ) :   0.9947 B(  4-C ,  5-C ) :   1.3653 B(  4-C , 64-H ) :   0.9787
B(  5-C ,  6-C ) :   1.4219 B(  5-C ,  9-Br) :   1.0619 B(  6-C ,  7-C ) :   1.3525
B(  6-C ,  8-Br) :   1.0362 B(  7-C , 65-H ) :   1.0087 B( 10-C , 11-C ) :   1.6574
B( 10-C , 16-C ) :   1.0648 B( 11-C , 12-C ) :   1.1383 B( 11-C , 14-C ) :   1.1452
B( 12-C , 13-N ) :   2.9725 B( 14-C , 15-N ) :   2.9738 B( 16-C , 17-C ) :   1.5605
B( 17-C , 18-C ) :   1.1614 B( 17-C , 66-H ) :   0.9501 B( 18-C , 19-C ) :   1.5537
B( 18-C , 22-C ) :   0.9007 B( 19-C , 20-C ) :   1.0846 B( 19-C , 67-H ) :   1.0144
B( 20-C , 21-C ) :   1.5884 B( 20-C , 68-H ) :   0.9899 B( 21-C , 22-C ) :   0.9053
B( 21-C , 24-C ) :   1.1275 B( 22-C , 23-O ) :   2.1715 B( 24-C , 25-N ) :   1.2287
B( 24-C , 31-C ) :   1.3012 B( 25-N , 26-C ) :   0.9218 B( 25-N , 28-C ) :   1.0594
B( 26-C , 27-C ) :   1.1190 B( 26-C , 69-H ) :   0.9348 B( 26-C , 70-H ) :   0.9342
B( 27-C , 71-H ) :   0.9638 B( 27-C , 72-H ) :   0.9651 B( 27-C , 73-H ) :   0.9585
B( 28-C , 29-O ) :   2.0263 B( 28-C , 30-C ) :   0.9775 B( 29-O , 80-H ) :   0.1088
B( 30-C , 31-C ) :   1.3062 B( 30-C , 37-C ) :   1.2712 B( 31-C , 32-C ) :   0.9660
B( 32-C , 33-O ) :   2.0786 B( 32-C , 34-N ) :   1.0630 B( 34-N , 35-C ) :   0.9338
B( 34-N , 37-C ) :   1.1664 B( 35-C , 36-C ) :   1.1196 B( 35-C , 74-H ) :   0.9282
B( 35-C , 75-H ) :   0.9490 B( 36-C , 76-H ) :   0.9607 B( 36-C , 77-H ) :   0.9675
B( 36-C , 78-H ) :   0.9686 B( 37-C , 38-C ) :   1.1887 B( 38-C , 39-C ) :   1.4807
B( 38-C , 79-H ) :   0.9543 B( 39-C , 40-C ) :   1.2149 B( 39-C , 80-H ) :   0.9591
B( 40-C , 41-C ) :   1.5227 B( 40-C , 44-C ) :   0.9002 B( 41-C , 42-C ) :   1.0954
B( 41-C , 81-H ) :   1.0105 B( 42-C , 43-C ) :   1.5241 B( 42-C , 82-H ) :   1.0083
B( 43-C , 44-C ) :   0.9399 B( 43-C , 46-C ) :   1.1311 B( 44-C , 45-O ) :   2.1436
B( 46-C , 47-C ) :   1.6175 B( 46-C , 83-H ) :   0.9493 B( 47-C , 48-C ) :   0.9503
B( 47-C , 52-C ) :   1.0420 B( 48-C , 49-O ) :   2.2718 B( 48-C , 50-C ) :   0.9199
B( 50-C , 51-C ) :   1.3268 B( 50-C , 61-C ) :   1.3777 B( 51-C , 52-C ) :   1.0099
B( 51-C , 58-C ) :   1.3702 B( 52-C , 53-C ) :   1.6408 B( 53-C , 54-C ) :   1.1668
B( 53-C , 56-C ) :   1.1474 B( 54-C , 55-N ) :   2.9793 B( 56-C , 57-N ) :   2.9443
B( 58-C , 59-C ) :   1.3703 B( 58-C , 84-H ) :   0.9809 B( 59-C , 60-C ) :   1.4224
B( 59-C , 63-Br) :   1.0513 B( 60-C , 61-C ) :   1.3552 B( 60-C , 62-Br) :   1.0324
B( 61-C , 85-H ) :   1.0069

-----------------------------------------------------------------------------
         ABSORPTION SPECTRUM VIA TRANSITION ELECTRIC DIPOLE MOMENTS
-----------------------------------------------------------------------------
State   Energy  Wavelength   fosc         T2         TX        TY        TZ
        (cm-1)    (nm)                  (au**2)     (au)      (au)      (au)
-----------------------------------------------------------------------------
   0    6853.0   1459.2   0.601806549  28.91019  -3.85400  -3.74295  -0.21720
   1   12416.4    805.4   0.050708830   1.34450  -0.21402  -1.05369   0.43410
   2   15960.8    626.5   0.012694952   0.26185   0.44939  -0.23564   0.06614
   3   20152.5    496.2   0.016567337   0.27064   0.25755   0.45101  -0.03004
   4   20280.1    493.1   0.012998625   0.21101   0.45596   0.00548  -0.05554
   5   20890.7    478.7   0.236383298   3.72511  -1.19159  -1.49002   0.29165
   6   21493.8    465.3   0.045826702   0.70191   0.50876  -0.46336  -0.47788
   7   22021.3    454.1   0.021413208   0.32012  -0.43458  -0.34086   0.12279
   8   22296.2    448.5   0.065917370   0.97329  -0.58584  -0.69634   0.38105
   9   22625.5    442.0   0.024161557   0.35156  -0.33090  -0.48880   0.05605
  10   23442.6    426.6   0.184577597   2.59208  -1.23971  -1.02424  -0.07827
  11   23669.7    422.5   0.002032493   0.02827  -0.15350   0.01853  -0.06605
  12   24863.6    402.2   0.004447284   0.05889  -0.01977   0.15493   0.18572
  13   25839.5    387.0   0.116122391   1.47947   0.43688  -0.59048  -0.96950
  14   25996.1    384.7   0.056547299   0.71611   0.39489   0.49260   0.56349
  15   26439.5    378.2   0.014992440   0.18668  -0.37190  -0.08249  -0.20387
  16   26602.8    375.9   0.104125707   1.28857  -1.03406  -0.14887   0.44398
  17   27739.4    360.5   0.006822647   0.08097   0.20709   0.07339  -0.18083
  18   28133.4    355.4   0.007667550   0.08972   0.21022   0.11816  -0.17768
  19   28296.5    353.4   0.015138630   0.17613   0.08289  -0.02567  -0.41061
  20   28404.2    352.1   0.051788243   0.60024  -0.30560   0.10160   0.70465
  21   29244.4    341.9   0.027810390   0.31307  -0.12874   0.41598   0.35137
  22   29462.6    339.4   0.033382067   0.37301   0.04870   0.60822   0.02655
  23   30079.4    332.5   0.095072818   1.04055   0.43995  -0.42162  -0.81807
  24   30365.9    329.3   0.028968556   0.31406  -0.18200   0.27177   0.45506
  25   30600.0    326.8   0.005828485   0.06271  -0.17199   0.14810   0.10580
  26   31785.4    314.6   0.017175333   0.17789   0.08862   0.40998   0.04417
  27   32191.5    310.6   0.069121849   0.70689   0.49098   0.54631  -0.40911
  28   32237.3    310.2   0.010264894   0.10483   0.27476   0.15432  -0.07427
  29   32526.3    307.4   0.011036140   0.11170  -0.18380  -0.25055   0.12305
  30   32607.0    306.7   0.045235232   0.45671   0.21223   0.63143   0.11388
  31   33434.8    299.1   0.549213157   5.40776  -0.33082   1.89179   1.31128
  32   33478.6    298.7   0.098112955   0.96479   0.97136  -0.08559  -0.11799
  33   33719.0    296.6   0.027782597   0.27125  -0.32456   0.37904   0.14913
  34   33996.8    294.1   0.000879789   0.00852   0.07784   0.04933  -0.00523
  35   34347.2    291.1   0.051646343   0.49502  -0.11650  -0.12352   0.68278
  36   34613.1    288.9   0.507415716   4.82613   1.22935   1.63355  -0.80395
  37   34682.9    288.3   0.222592848   2.11286   0.29569   1.26958   0.64312
  38   34936.7    286.2   0.001197394   0.01128   0.03863   0.09757  -0.01647
  39   35115.3    284.8   0.008479071   0.07949   0.13593  -0.03464  -0.24457
  40   35245.4    283.7   0.021242068   0.19841  -0.12436   0.24699   0.34921
  41   35488.9    281.8   0.087812986   0.81460  -0.63155  -0.08145   0.63961
  42   35730.0    279.9   0.015463912   0.14248   0.28978   0.24017  -0.02879
  43   35876.6    278.7   0.028303433   0.25972  -0.07097   0.41581   0.28597
  44   36321.7    275.3   0.033372931   0.30248   0.24088   0.31801   0.37859
  45   36410.1    274.6   0.156982935   1.41941   0.49174   0.50274  -0.96169
  46   36607.2    273.2   0.003368250   0.03029  -0.01796  -0.16555  -0.05060
  47   36980.8    270.4   0.093587862   0.83314  -0.09432  -0.80038  -0.42852
  48   37213.6    268.7   0.011959960   0.10580   0.11654  -0.11105  -0.28265
  49   37586.5    266.1   0.000785335   0.00688   0.05093   0.04969   0.04260
  50   37631.4    265.7   0.009083540   0.07947  -0.21676  -0.16177   0.07943
  51   38032.2    262.9   0.055264057   0.47837   0.50000   0.26637  -0.39676
  52   38307.5    261.0   0.052080763   0.44758  -0.34530  -0.54397   0.18013
  53   38678.9    258.5   0.079228056   0.67434   0.42881  -0.25840  -0.65092
  54   38777.9    257.9   0.029990229   0.25461  -0.41544  -0.15212   0.24264
  55   38836.7    257.5   0.061042640   0.51745   0.54419   0.30994  -0.35389
  56   38932.4    256.9   0.072541884   0.61341  -0.19865  -0.69643  -0.29823
  57   39206.2    255.1   0.133470713   1.12075  -0.56468   0.13538   0.88519
  58   39381.1    253.9   0.161935818   1.35373  -0.88145  -0.43232   0.62439
  59   39643.0    252.3   0.012967147   0.10768   0.24972   0.18540  -0.10465
  60   39873.3    250.8   0.306799891   2.53308  -0.57675   0.58000   1.36530
  61   40109.1    249.3   0.089895795   0.73786  -0.54044  -0.54281   0.38877
  62   40187.9    248.8   0.263673118   2.15996   0.73511  -0.11184  -1.26770

FINAL SINGLE POINT ENERGY    -12914.639523128513

DIPOLE MOMENT
-------------
                                X             Y             Z
Electronic contribution:    -14.51615     -14.40101     -17.78256
Nuclear contribution   :     15.50183      11.83148      17.66403
                        -----------------------------------------
Total Dipole Moment    :      0.98569      -2.56953      -0.11853
                        -----------------------------------------
Magnitude (a.u.)       :      2.75465
Magnitude (Debye)      :      7.00178

Rotational constants in cm-1:     0.002270     0.000212     0.000198
Rotational constants in MHz :    68.037924     6.362837     5.942063

                             ****ORCA TERMINATED NORMALLY****
TOTAL RUN TIME: 0 days 0 hours 10 minutes 34 seconds 938 msec
