                         Program Version 4.2.0 -  RELEASE  -
|  1> # ORCA input file
|  2> # SCF done       -154.568403453123          0.000895259040
|  3> ! CAM-B3LYP def2-SVP def2/J RIJCOSX Grid4 TightSCF
|  4> %maxcore 5000
|  5> %tddft
|  6>     Mode sTDDFT
|  7>     Ethresh 5.0
|  8>     maxcore 5000
|  9> end
| 10>
| 11> %pal
| 12>   nprocs 6
| 13>   end
| 14> * xyz 0 1
| 15>    C        3.11000         2.96252        -1.42157
| 16>    C        2.56560         4.16442        -1.75314
| 17>    S        2.98974         4.61824        -3.36305
| 18>    C        3.92075         3.15650        -3.59865
| 19>   Cl        4.71161         2.84206        -5.06330
| 20>    C        3.88692         2.38309        -2.47758
| 21>    C        4.43800         1.09074        -2.04792
| 22>    O        5.13587         0.33415        -2.68128
| 23>    C        3.98830         0.94964        -0.62828
| 24>    C        3.11781         2.06528        -0.28602
| 25>    C        2.37032         2.22127         0.85086
| 26>    C        1.56644         3.36447         1.04578
| 27>    N        0.91264         4.29139         1.21752
| 28>    C        2.26195         1.28505         1.89609
| 29>    N        2.08219         0.55473         2.76428
| 30>    C        4.46958         0.04268         0.25652
| 31>    C        5.28242        -1.10392        -0.03019
| 32>    C        6.33653        -1.47516         0.82299
| 33>    N        6.98328        -2.60430         0.69393
| 34>    C        6.68452        -3.39388        -0.33886
| 35>    N        5.76550        -3.08994        -1.25439
| 36>    C        5.05824        -1.99789        -1.08894
| 37>    C        7.36817        -4.68752        -0.37783
| 38>    C        7.55765        -5.30508         0.84132
| 39>    C        8.14050        -6.57232         0.91064
| 40>    C        8.59468        -7.18113        -0.24523
| 41>    C        8.45979        -6.56797        -1.49636
| 42>    C        7.80646        -5.30940        -1.57445
| 43>    C        7.64600        -4.68133        -2.83924
| 44>    C        8.10037        -5.26666        -3.97225
| 45>    C        8.76982        -6.52077        -3.94208
| 46>    C        8.95965        -7.18134        -2.70563
| 47>    C        9.64435        -8.40739        -2.71588
| 48>    C       10.11086        -8.95453        -3.88609
| 49>    C        9.91431        -8.30095        -5.10343
| 50>    C        9.25288        -7.10082        -5.12671
| 51>    C        8.24478        -7.24935         2.20362
| 52>    N        9.04101        -8.31853         2.28864
| 53>    C        9.12414        -8.91559         3.46180
| 54>    C        8.41911        -8.47891         4.57281
| 55>    C        7.59291        -7.36351         4.38661
| 56>    N        7.51949        -6.76243         3.20056
| 57>    C        6.77956        -6.83945         5.46446
| 58>    C        5.95750        -5.78080         5.31436
| 59>    C        5.13732        -5.29917         6.37134
| 60>    C        4.38423        -4.17066         6.41150
| 61>    C        3.32192        -4.05082         7.46534
| 62>    O        3.20743        -4.74884         8.44359
| 63>    C        2.46856        -2.95486         7.00028
| 64>    C        1.30164        -2.36123         7.38002
| 65>    S        0.87604        -1.08139         6.26777
| 66>    C        2.28696        -1.34776         5.31328
| 67>    C        3.03239        -2.36854         5.81749
| 68>    C        4.29122        -3.02589         5.52111
| 69>    C        5.26105        -2.50428         4.70789
| 70>    C        5.04933        -1.31424         3.98572
| 71>    N        4.92525        -0.34680         3.37995
| 72>    C        6.58700        -2.97492         4.59694
| 73>    N        7.69304        -3.26590         4.50788
| 74>   Cl        0.32454        -2.73623         8.71237
| 75>    H        1.95131         4.81772        -1.16582
| 76>    H        4.26360         0.18438         1.31243
| 77>    H        6.66412        -0.82184         1.62061
| 78>    H        4.25207        -1.84465        -1.79246
| 79>    H        7.24490        -4.81786         1.75079
| 80>    H        9.05137        -8.15172        -0.14466
| 81>    H        7.14301        -3.72903        -2.87937
| 82>    H        7.96952        -4.78233        -4.92936
| 83>    H        9.81867        -8.93767        -1.79357
| 84>    H       10.63620        -9.89813        -3.86599
| 85>    H       10.28560        -8.74079        -6.01720
| 86>    H        9.09576        -6.57887        -6.05987
| 87>    H        9.78082        -9.77584         3.50805
| 88>    H        8.49531        -8.97441         5.52688
| 89>    H        6.86956        -7.33512         6.42220
| 90>    H        5.90856        -5.31127         4.34317
| 91>    H        5.03407        -5.94450         7.23890
| 92>    H        2.43927        -0.74021         4.44031
| 93> *
| 94>
| 95>                          ****END OF INPUT****

CARTESIAN COORDINATES (ANGSTROEM)
---------------------------------
  C      3.110000    2.962520   -1.421570
  C      2.565600    4.164420   -1.753140
  S      2.989740    4.618240   -3.363050
  C      3.920750    3.156500   -3.598650
  Cl     4.711610    2.842060   -5.063300
  C      3.886920    2.383090   -2.477580
  C      4.438000    1.090740   -2.047920
  O      5.135870    0.334150   -2.681280
  C      3.988300    0.949640   -0.628280
  C      3.117810    2.065280   -0.286020
  C      2.370320    2.221270    0.850860
  C      1.566440    3.364470    1.045780
  N      0.912640    4.291390    1.217520
  C      2.261950    1.285050    1.896090
  N      2.082190    0.554730    2.764280
  C      4.469580    0.042680    0.256520
  C      5.282420   -1.103920   -0.030190
  C      6.336530   -1.475160    0.822990
  N      6.983280   -2.604300    0.693930
  C      6.684520   -3.393880   -0.338860
  N      5.765500   -3.089940   -1.254390
  C      5.058240   -1.997890   -1.088940
  C      7.368170   -4.687520   -0.377830
  C      7.557650   -5.305080    0.841320
  C      8.140500   -6.572320    0.910640
  C      8.594680   -7.181130   -0.245230
  C      8.459790   -6.567970   -1.496360
  C      7.806460   -5.309400   -1.574450
  C      7.646000   -4.681330   -2.839240
  C      8.100370   -5.266660   -3.972250
  C      8.769820   -6.520770   -3.942080
  C      8.959650   -7.181340   -2.705630
  C      9.644350   -8.407390   -2.715880
  C     10.110860   -8.954530   -3.886090
  C      9.914310   -8.300950   -5.103430
  C      9.252880   -7.100820   -5.126710
  C      8.244780   -7.249350    2.203620
  N      9.041010   -8.318530    2.288640
  C      9.124140   -8.915590    3.461800
  C      8.419110   -8.478910    4.572810
  C      7.592910   -7.363510    4.386610
  N      7.519490   -6.762430    3.200560
  C      6.779560   -6.839450    5.464460
  C      5.957500   -5.780800    5.314360
  C      5.137320   -5.299170    6.371340
  C      4.384230   -4.170660    6.411500
  C      3.321920   -4.050820    7.465340
  O      3.207430   -4.748840    8.443590
  C      2.468560   -2.954860    7.000280
  C      1.301640   -2.361230    7.380020
  S      0.876040   -1.081390    6.267770
  C      2.286960   -1.347760    5.313280
  C      3.032390   -2.368540    5.817490
  C      4.291220   -3.025890    5.521110
  C      5.261050   -2.504280    4.707890
  C      5.049330   -1.314240    3.985720
  N      4.925250   -0.346800    3.379950
  C      6.587000   -2.974920    4.596940
  N      7.693040   -3.265900    4.507880
  Cl     0.324540   -2.736230    8.712370
  H      1.951310    4.817720   -1.165820
  H      4.263600    0.184380    1.312430
  H      6.664120   -0.821840    1.620610
  H      4.252070   -1.844650   -1.792460
  H      7.244900   -4.817860    1.750790
  H      9.051370   -8.151720   -0.144660
  H      7.143010   -3.729030   -2.879370
  H      7.969520   -4.782330   -4.929360
  H      9.818670   -8.937670   -1.793570
  H     10.636200   -9.898130   -3.865990
  H     10.285600   -8.740790   -6.017200
  H      9.095760   -6.578870   -6.059870
  H      9.780820   -9.775840    3.508050
  H      8.495310   -8.974410    5.526880
  H      6.869560   -7.335120    6.422200
  H      5.908560   -5.311270    4.343170
  H      5.034070   -5.944500    7.238900
  H      2.439270   -0.740210    4.440310

 Total Charge           Charge          ....    0
 Multiplicity           Mult            ....    1
 Number of Electrons    NEL             ....  432
 Basis Dimension        Dim             ....  946

ORBITAL ENERGIES
----------------

  NO   OCC          E(Eh)            E(eV)
   0   2.0000    -101.620156     -2765.2250
   1   2.0000    -101.612642     -2765.0206
   2   2.0000     -88.997663     -2421.7495
   3   2.0000     -88.986840     -2421.4550
   4   2.0000     -19.224759      -523.1323
   5   2.0000     -19.217560      -522.9364
   6   2.0000     -14.430629      -392.6774
   7   2.0000     -14.429167      -392.6376
   8   2.0000     -14.424253      -392.5039
   9   2.0000     -14.416755      -392.2998
  10   2.0000     -14.411584      -392.1591
  11   2.0000     -14.411505      -392.1570
  12   2.0000     -14.409982      -392.1155
  13   2.0000     -14.407881      -392.0584
  14   2.0000     -10.381925      -282.5065
  15   2.0000     -10.379660      -282.4449
  16   2.0000     -10.373507      -282.2775
  17   2.0000     -10.370284      -282.1898
  18   2.0000     -10.353758      -281.7401
  19   2.0000     -10.352295      -281.7003
  20   2.0000     -10.350681      -281.6563
  21   2.0000     -10.349830      -281.6332
  22   2.0000     -10.347287      -281.5640
  23   2.0000     -10.344470      -281.4874
  24   2.0000     -10.334891      -281.2267
  25   2.0000     -10.334543      -281.2172
  26   2.0000     -10.334312      -281.2109
  27   2.0000     -10.333300      -281.1834
  28   2.0000     -10.327555      -281.0271
  29   2.0000     -10.326476      -280.9977
  30   2.0000     -10.325388      -280.9681
  31   2.0000     -10.324702      -280.9494
  32   2.0000     -10.322279      -280.8835
  33   2.0000     -10.318416      -280.7784
  34   2.0000     -10.318356      -280.7767
  35   2.0000     -10.318310      -280.7755
  36   2.0000     -10.316760      -280.7333
  37   2.0000     -10.308947      -280.5207
  38   2.0000     -10.306902      -280.4651
  39   2.0000     -10.305457      -280.4257
  40   2.0000     -10.303701      -280.3780
  41   2.0000     -10.302978      -280.3583
  42   2.0000     -10.296756      -280.1890
  43   2.0000     -10.296709      -280.1877
  44   2.0000     -10.295673      -280.1595
  45   2.0000     -10.290857      -280.0285
  46   2.0000     -10.275671      -279.6152
  47   2.0000     -10.272371      -279.5254
  48   2.0000     -10.270358      -279.4707
  49   2.0000     -10.269969      -279.4601
  50   2.0000     -10.267278      -279.3868
  51   2.0000     -10.266773      -279.3731
  52   2.0000     -10.265900      -279.3493
  53   2.0000     -10.262844      -279.2662
  54   2.0000     -10.260855      -279.2121
  55   2.0000     -10.260738      -279.2089
  56   2.0000     -10.260722      -279.2084
  57   2.0000     -10.260333      -279.1979
  58   2.0000     -10.260130      -279.1923
  59   2.0000     -10.254504      -279.0392
  60   2.0000      -9.574911      -260.5466
  61   2.0000      -9.567411      -260.3425
  62   2.0000      -8.093345      -220.2311
  63   2.0000      -8.082506      -219.9362
  64   2.0000      -7.345564      -199.8830
  65   2.0000      -7.338043      -199.6783
  66   2.0000      -7.334936      -199.5938
  67   2.0000      -7.334404      -199.5793
  68   2.0000      -7.327452      -199.3901
  69   2.0000      -7.326919      -199.3756
  70   2.0000      -6.062722      -164.9751
  71   2.0000      -6.058108      -164.8495
  72   2.0000      -6.055622      -164.7819
  73   2.0000      -6.051873      -164.6798
  74   2.0000      -6.047183      -164.5522
  75   2.0000      -6.044871      -164.4893
  76   2.0000      -1.141681       -31.0667
  77   2.0000      -1.134388       -30.8683
  78   2.0000      -1.087396       -29.5895
  79   2.0000      -1.086408       -29.5627
  80   2.0000      -1.042107       -28.3572
  81   2.0000      -1.034156       -28.1408
  82   2.0000      -1.024100       -27.8672
  83   2.0000      -1.020459       -27.7681
  84   2.0000      -1.005604       -27.3639
  85   2.0000      -1.000582       -27.2272
  86   2.0000      -0.992431       -27.0054
  87   2.0000      -0.986829       -26.8530
  88   2.0000      -0.985128       -26.8067
  89   2.0000      -0.980224       -26.6733
  90   2.0000      -0.970189       -26.4002
  91   2.0000      -0.959416       -26.1070
  92   2.0000      -0.951102       -25.8808
  93   2.0000      -0.941600       -25.6222
  94   2.0000      -0.927551       -25.2399
  95   2.0000      -0.922901       -25.1134
  96   2.0000      -0.909799       -24.7569
  97   2.0000      -0.906930       -24.6788
  98   2.0000      -0.899217       -24.4689
  99   2.0000      -0.883080       -24.0298
 100   2.0000      -0.873237       -23.7620
 101   2.0000      -0.851950       -23.1827
 102   2.0000      -0.848013       -23.0756
 103   2.0000      -0.837251       -22.7828
 104   2.0000      -0.835311       -22.7300
 105   2.0000      -0.827613       -22.5205
 106   2.0000      -0.810169       -22.0458
 107   2.0000      -0.800486       -21.7823
 108   2.0000      -0.792275       -21.5589
 109   2.0000      -0.784662       -21.3517
 110   2.0000      -0.760284       -20.6884
 111   2.0000      -0.758392       -20.6369
 112   2.0000      -0.752650       -20.4806
 113   2.0000      -0.745455       -20.2849
 114   2.0000      -0.743028       -20.2188
 115   2.0000      -0.734976       -19.9997
 116   2.0000      -0.707694       -19.2573
 117   2.0000      -0.698039       -18.9946
 118   2.0000      -0.695004       -18.9120
 119   2.0000      -0.693000       -18.8575
 120   2.0000      -0.685921       -18.6649
 121   2.0000      -0.681334       -18.5400
 122   2.0000      -0.675755       -18.3882
 123   2.0000      -0.671484       -18.2720
 124   2.0000      -0.663377       -18.0514
 125   2.0000      -0.659544       -17.9471
 126   2.0000      -0.642598       -17.4860
 127   2.0000      -0.626431       -17.0461
 128   2.0000      -0.624497       -16.9934
 129   2.0000      -0.619358       -16.8536
 130   2.0000      -0.615645       -16.7526
 131   2.0000      -0.612700       -16.6724
 132   2.0000      -0.610433       -16.6107
 133   2.0000      -0.604974       -16.4622
 134   2.0000      -0.599347       -16.3091
 135   2.0000      -0.590638       -16.0721
 136   2.0000      -0.587813       -15.9952
 137   2.0000      -0.571970       -15.5641
 138   2.0000      -0.567620       -15.4457
 139   2.0000      -0.560876       -15.2622
 140   2.0000      -0.555295       -15.1103
 141   2.0000      -0.553226       -15.0540
 142   2.0000      -0.550063       -14.9680
 143   2.0000      -0.546086       -14.8598
 144   2.0000      -0.543425       -14.7874
 145   2.0000      -0.542669       -14.7668
 146   2.0000      -0.536244       -14.5919
 147   2.0000      -0.530240       -14.4286
 148   2.0000      -0.529431       -14.4066
 149   2.0000      -0.528807       -14.3896
 150   2.0000      -0.523984       -14.2583
 151   2.0000      -0.519408       -14.1338
 152   2.0000      -0.517904       -14.0929
 153   2.0000      -0.515633       -14.0311
 154   2.0000      -0.511191       -13.9102
 155   2.0000      -0.509853       -13.8738
 156   2.0000      -0.507034       -13.7971
 157   2.0000      -0.505677       -13.7602
 158   2.0000      -0.501642       -13.6504
 159   2.0000      -0.498969       -13.5776
 160   2.0000      -0.497111       -13.5271
 161   2.0000      -0.495268       -13.4769
 162   2.0000      -0.494188       -13.4475
 163   2.0000      -0.492016       -13.3884
 164   2.0000      -0.489718       -13.3259
 165   2.0000      -0.488720       -13.2987
 166   2.0000      -0.484038       -13.1713
 167   2.0000      -0.480244       -13.0681
 168   2.0000      -0.479400       -13.0452
 169   2.0000      -0.466205       -12.6861
 170   2.0000      -0.463221       -12.6049
 171   2.0000      -0.460469       -12.5300
 172   2.0000      -0.458729       -12.4826
 173   2.0000      -0.458110       -12.4658
 174   2.0000      -0.453345       -12.3361
 175   2.0000      -0.451394       -12.2831
 176   2.0000      -0.449036       -12.2189
 177   2.0000      -0.447651       -12.1812
 178   2.0000      -0.445650       -12.1267
 179   2.0000      -0.440970       -11.9994
 180   2.0000      -0.440261       -11.9801
 181   2.0000      -0.437336       -11.9005
 182   2.0000      -0.436263       -11.8713
 183   2.0000      -0.434673       -11.8280
 184   2.0000      -0.433589       -11.7986
 185   2.0000      -0.431549       -11.7430
 186   2.0000      -0.430832       -11.7235
 187   2.0000      -0.424382       -11.5480
 188   2.0000      -0.418284       -11.3821
 189   2.0000      -0.414423       -11.2770
 190   2.0000      -0.406915       -11.0727
 191   2.0000      -0.406247       -11.0546
 192   2.0000      -0.405364       -11.0305
 193   2.0000      -0.398459       -10.8426
 194   2.0000      -0.397739       -10.8230
 195   2.0000      -0.394659       -10.7392
 196   2.0000      -0.390662       -10.6304
 197   2.0000      -0.384801       -10.4710
 198   2.0000      -0.380913       -10.3652
 199   2.0000      -0.379183       -10.3181
 200   2.0000      -0.371672       -10.1137
 201   2.0000      -0.362794        -9.8721
 202   2.0000      -0.355166        -9.6646
 203   2.0000      -0.345921        -9.4130
 204   2.0000      -0.341574        -9.2947
 205   2.0000      -0.340417        -9.2632
 206   2.0000      -0.332271        -9.0415
 207   2.0000      -0.327270        -8.9055
 208   2.0000      -0.324992        -8.8435
 209   2.0000      -0.319583        -8.6963
 210   2.0000      -0.313807        -8.5391
 211   2.0000      -0.310349        -8.4450
 212   2.0000      -0.304977        -8.2988
 213   2.0000      -0.299211        -8.1419
 214   2.0000      -0.277621        -7.5545
 215   2.0000      -0.262004        -7.1295
 216   0.0000      -0.099955        -2.7199
 217   0.0000      -0.096425        -2.6239
 218   0.0000      -0.055533        -1.5111
 219   0.0000      -0.051540        -1.4025
 220   0.0000      -0.030904        -0.8409

MULLIKEN ATOMIC CHARGES
-----------------------
   0 C :    0.030341
   1 C :   -0.128340
   2 S :    0.190373
   3 C :   -0.168953
   4 Cl:    0.002478
   5 C :    0.070595
   6 C :    0.142803
   7 O :   -0.124060
   8 C :   -0.092165
   9 C :    0.286087
  10 C :   -0.323255
  11 C :   -0.199503
  12 N :    0.157209
  13 C :   -0.167791
  14 N :    0.182591
  15 C :   -0.018246
  16 C :   -0.029944
  17 C :    0.050385
  18 N :   -0.051980
  19 C :   -0.106238
  20 N :   -0.078214
  21 C :    0.108209
  22 C :    0.135960
  23 C :   -0.057142
  24 C :    0.117238
  25 C :   -0.092350
  26 C :    0.121066
  27 C :    0.052737
  28 C :   -0.004548
  29 C :   -0.009913
  30 C :    0.061449
  31 C :    0.095767
  32 C :   -0.048492
  33 C :    0.030433
  34 C :    0.033820
  35 C :   -0.027198
  36 C :   -0.069305
  37 N :   -0.061468
  38 C :    0.086317
  39 C :   -0.045594
  40 C :    0.060575
  41 N :   -0.045671
  42 C :    0.007113
  43 C :    0.055888
  44 C :    0.021981
  45 C :   -0.115764
  46 C :    0.135230
  47 O :   -0.127328
  48 C :    0.085468
  49 C :   -0.175563
  50 S :    0.193337
  51 C :   -0.110568
  52 C :    0.020543
  53 C :    0.286466
  54 C :   -0.326737
  55 C :   -0.138225
  56 N :    0.131587
  57 C :   -0.214715
  58 N :    0.187433
  59 Cl:   -0.004487
  60 H :    0.055459
  61 H :    0.040008
  62 H :    0.023668
  63 H :    0.009210
  64 H :   -0.007632
  65 H :   -0.024309
  66 H :   -0.014953
  67 H :   -0.031934
  68 H :   -0.030460
  69 H :   -0.020492
  70 H :   -0.019323
  71 H :   -0.031363
  72 H :    0.009069
  73 H :   -0.003569
  74 H :   -0.004851
  75 H :    0.036126
  76 H :    0.021340
  77 H :    0.016284
Sum of atomic charges:   -0.0000000

LOEWDIN ATOMIC CHARGES
----------------------
   0 C :   -0.060505
   1 C :   -0.146752
   2 S :    0.478754
   3 C :   -0.271192
   4 Cl:    0.193860
   5 C :   -0.116574
   6 C :    0.080496
   7 O :   -0.124551
   8 C :   -0.088978
   9 C :    0.081181
  10 C :   -0.137999
  11 C :   -0.016254
  12 N :   -0.050517
  13 C :    0.004391
  14 N :   -0.048288
  15 C :    0.086277
  16 C :   -0.091237
  17 C :    0.069350
  18 N :   -0.072688
  19 C :    0.059619
  20 N :   -0.078840
  21 C :    0.084805
  22 C :   -0.035651
  23 C :    0.029633
  24 C :   -0.052523
  25 C :    0.024630
  26 C :   -0.011969
  27 C :    0.007301
  28 C :   -0.015760
  29 C :   -0.009195
  30 C :   -0.019030
  31 C :   -0.007618
  32 C :   -0.015703
  33 C :   -0.024770
  34 C :   -0.026165
  35 C :   -0.016264
  36 C :    0.049626
  37 N :   -0.082781
  38 C :    0.054871
  39 C :   -0.061309
  40 C :    0.030703
  41 N :   -0.073438
  42 C :    0.014170
  43 C :    0.003877
  44 C :    0.067222
  45 C :   -0.078540
  46 C :    0.080359
  47 O :   -0.132930
  48 C :   -0.119822
  49 C :   -0.274925
  50 S :    0.483863
  51 C :   -0.140040
  52 C :   -0.066722
  53 C :    0.076227
  54 C :   -0.137668
  55 C :    0.011804
  56 N :   -0.058961
  57 C :   -0.030004
  58 N :   -0.032085
  59 Cl:    0.188323
  60 H :    0.038370
  61 H :    0.044378
  62 H :    0.028370
  63 H :    0.027413
  64 H :    0.031934
  65 H :    0.027249
  66 H :    0.029139
  67 H :    0.027896
  68 H :    0.027005
  69 H :    0.027050
  70 H :    0.026997
  71 H :    0.026142
  72 H :    0.027862
  73 H :    0.034119
  74 H :    0.034019
  75 H :    0.039066
  76 H :    0.045947
  77 H :    0.023941

  Mayer bond orders larger than 0.100000
B(  0-C ,  1-C ) :   1.5416 B(  0-C ,  5-C ) :   1.2191 B(  0-C ,  9-C ) :   1.0072
B(  1-C ,  2-S ) :   1.1668 B(  1-C , 60-H ) :   0.9547 B(  2-S ,  3-C ) :   1.1503
B(  3-C ,  4-Cl) :   1.1299 B(  3-C ,  5-C ) :   1.4827 B(  5-C ,  6-C ) :   0.9454
B(  6-C ,  7-O ) :   2.2558 B(  6-C ,  8-C ) :   0.9235 B(  8-C ,  9-C ) :   1.0478
B(  8-C , 15-C ) :   1.6891 B(  9-C , 10-C ) :   1.6636 B( 10-C , 11-C ) :   1.1419
B( 10-C , 13-C ) :   1.1356 B( 11-C , 12-N ) :   2.9964 B( 13-C , 14-N ) :   2.9641
B( 14-N , 77-H ) :   0.1439 B( 15-C , 16-C ) :   1.0582 B( 15-C , 61-H ) :   0.9323
B( 16-C , 17-C ) :   1.2968 B( 16-C , 21-C ) :   1.3143 B( 17-C , 18-N ) :   1.5758
B( 17-C , 62-H ) :   0.9831 B( 18-N , 19-C ) :   1.5344 B( 19-C , 20-N ) :   1.4737
B( 19-C , 22-C ) :   0.9198 B( 20-N , 21-C ) :   1.5695 B( 21-C , 63-H ) :   0.9839
B( 22-C , 23-C ) :   1.4225 B( 22-C , 27-C ) :   1.2811 B( 23-C , 24-C ) :   1.2810
B( 23-C , 64-H ) :   0.9988 B( 24-C , 25-C ) :   1.4254 B( 24-C , 36-C ) :   0.9246
B( 25-C , 26-C ) :   1.2678 B( 25-C , 65-H ) :   0.9872 B( 26-C , 27-C ) :   1.2725
B( 26-C , 31-C ) :   1.0919 B( 27-C , 28-C ) :   1.1846 B( 28-C , 29-C ) :   1.5618
B( 28-C , 66-H ) :   0.9724 B( 29-C , 30-C ) :   1.1429 B( 29-C , 67-H ) :   0.9950
B( 30-C , 31-C ) :   1.3072 B( 30-C , 35-C ) :   1.2771 B( 31-C , 32-C ) :   1.3060
B( 32-C , 33-C ) :   1.4618 B( 32-C , 68-H ) :   0.9879 B( 33-C , 34-C ) :   1.2989
B( 33-C , 69-H ) :   0.9838 B( 34-C , 35-C ) :   1.4547 B( 34-C , 70-H ) :   0.9897
B( 35-C , 71-H ) :   0.9966 B( 36-C , 37-N ) :   1.5424 B( 36-C , 41-N ) :   1.5880
B( 37-N , 38-C ) :   1.5562 B( 38-C , 39-C ) :   1.3573 B( 38-C , 72-H ) :   0.9799
B( 39-C , 40-C ) :   1.3399 B( 39-C , 73-H ) :   0.9763 B( 40-C , 41-N ) :   1.5148
B( 40-C , 42-C ) :   1.0439 B( 42-C , 43-C ) :   1.7156 B( 42-C , 74-H ) :   0.9841
B( 43-C , 44-C ) :   1.0816 B( 43-C , 75-H ) :   0.9524 B( 44-C , 45-C ) :   1.6660
B( 44-C , 76-H ) :   0.9513 B( 45-C , 46-C ) :   0.9294 B( 45-C , 53-C ) :   1.0261
B( 46-C , 47-O ) :   2.2756 B( 46-C , 48-C ) :   0.9334 B( 48-C , 49-C ) :   1.4825
B( 48-C , 52-C ) :   1.2125 B( 49-C , 50-S ) :   1.1495 B( 49-C , 59-Cl) :   1.1260
B( 50-S , 51-C ) :   1.1770 B( 51-C , 52-C ) :   1.5293 B( 51-C , 77-H ) :   0.9314
B( 52-C , 53-C ) :   1.0155 B( 53-C , 54-C ) :   1.6473 B( 54-C , 55-C ) :   1.1660
B( 54-C , 57-C ) :   1.1533 B( 55-C , 56-N ) :   2.8665 B( 57-C , 58-N ) :   2.9775

-----------------------------------------------------------------------------
         ABSORPTION SPECTRUM VIA TRANSITION ELECTRIC DIPOLE MOMENTS
-----------------------------------------------------------------------------
State   Energy  Wavelength   fosc         T2         TX        TY        TZ
        (cm-1)    (nm)                  (au**2)     (au)      (au)      (au)
-----------------------------------------------------------------------------
   0   22023.5    454.1   0.000528195   0.00790  -0.00715  -0.08742  -0.01422
   1   22585.9    442.8   0.390138213   5.68664   1.28395  -1.98583  -0.30756
   2   25345.0    394.6   0.035611826   0.46257   0.31906  -0.58256   0.14629
   3   26086.6    383.3   0.201016348   2.53682   0.57145  -1.42845  -0.41206
   4   26234.6    381.2   0.011203685   0.14059  -0.12976  -0.28142  -0.21109
   5   26342.2    379.6   0.237338031   2.96614  -0.77156   1.53971  -0.01183
   6   27880.8    358.7   0.006373529   0.07526   0.06347   0.26637  -0.01663
   7   28230.2    354.2   0.267514946   3.11968   1.16904  -1.21559  -0.52476
   8   28336.8    352.9   0.150164162   1.74458   0.72972  -1.09382  -0.12505
   9   28549.3    350.3   0.015234022   0.17567   0.19470  -0.24112  -0.28218
  10   30359.8    329.4   0.031196975   0.33829  -0.29104  -0.07149   0.49847
  11   30389.6    329.1   0.006891749   0.07466   0.15678  -0.01857  -0.22301
  12   30681.4    325.9   0.009733481   0.10444   0.11026  -0.24475   0.17994
  13   30891.0    323.7   0.023432186   0.24972  -0.36653   0.31510   0.12685
  14   32037.0    312.1   0.067287105   0.69144   0.70629  -0.17523  -0.40236
  15   32188.4    310.7   0.004343295   0.04442  -0.06113   0.01106  -0.20140
  16   32397.8    308.7   0.071941405   0.73104  -0.38140   0.76412   0.04113
  17   32878.7    304.1   0.215971470   2.16250  -0.72935   0.93331   0.87148
  18   33211.4    301.1   0.052668127   0.52208   0.32387  -0.34644   0.54513
  19   33554.8    298.0   0.288346421   2.82901  -0.80591   0.39290   1.42308
  20   34075.5    293.5   0.460823330   4.45213  -0.44550  -0.70154   1.93946
  21   34451.1    290.3   0.041541456   0.39697   0.34094  -0.30189  -0.43542
  22   34700.1    288.2   0.111300437   1.05595  -0.05562  -0.25119   0.99487
  23   34804.0    287.3   0.134033375   1.26783  -0.50395   0.92681   0.39354
  24   34950.6    286.1   0.062788952   0.59143   0.53125  -0.14902  -0.53573
  25   36081.8    277.1   0.307029173   2.80135  -1.40793   0.84268   0.33013
  26   36395.4    274.8   0.643709844   5.82263  -1.79580   0.09256   1.60909
  27   36811.4    271.7   0.079592482   0.71181  -0.19869   0.58091  -0.57868
  28   37020.1    270.1   0.028119411   0.25006  -0.13265   0.37230  -0.30636
  29   37182.3    268.9   0.077834012   0.68914  -0.58930   0.07486   0.57988
  30   37388.6    267.5   0.148486112   1.30744  -0.13112  -0.56569   0.98501
  31   37678.5    265.4   0.167224995   1.46111   1.15843  -0.31827  -0.13364
  32   37933.5    263.6   0.011681261   0.10138  -0.26508  -0.10160   0.14418
  33   38172.2    262.0   0.750806622   6.47525  -0.25532   1.62283  -1.94331
  34   38459.5    260.0   0.227589673   1.94816   0.83982  -0.16569  -1.10245
  35   38563.8    259.3   0.011432002   0.09759   0.19971  -0.11296  -0.21202
  36   38819.1    257.6   0.021075314   0.17873   0.06307  -0.24227   0.34068
  37   39405.1    253.8   0.015278211   0.12764  -0.19434   0.08326  -0.28800
  38   39760.2    251.5   0.022928847   0.18985   0.17088  -0.35161   0.19240
  39   40017.5    249.9   0.143221025   1.17824   0.60510  -0.89398  -0.11356
  40   40136.0    249.2   0.000072056   0.00059   0.00478   0.00083   0.02382

FINAL SINGLE POINT ENERGY     -4065.397992485953

DIPOLE MOMENT
-------------
                                X             Y             Z
Electronic contribution:    -38.97782      49.63523      16.36758
Nuclear contribution   :     38.60541     -49.99204     -16.91975
                        -----------------------------------------
Total Dipole Moment    :     -0.37241      -0.35681      -0.55216
                        -----------------------------------------
Magnitude (a.u.)       :      0.75557
Magnitude (Debye)      :      1.92051

Rotational constants in cm-1:     0.001028     0.000945     0.000509
Rotational constants in MHz :    30.811809    28.343972    15.258650

                             ****ORCA TERMINATED NORMALLY****
TOTAL RUN TIME: 0 days 0 hours 7 minutes 0 seconds 828 msec
