                         Program Version 4.2.0 -  RELEASE  -
|  1> # ORCA input file
|  2> # SCF done       -194.916708916138          0.000868774181
|  3> ! CAM-B3LYP def2-SVP def2/J RIJCOSX Grid4 TightSCF
|  4> %maxcore 5000
|  5> %tddft
|  6>     Mode sTDDFT
|  7>     Ethresh 5.0
|  8>     maxcore 5000
|  9> end
| 10>
| 11> %pal
| 12>   nprocs 6
| 13>   end
| 14> * xyz 0 1
| 15>    C        2.00360         1.10111         0.44894
| 16>    C        1.38542         2.27571         0.15489
| 17>    S        2.21121         3.12051        -1.10567
| 18>    C        3.43525         1.87821        -1.22094
| 19>   Cl        4.69089         1.97458        -2.35694
| 20>    C        3.19454         0.88573        -0.31876
| 21>    C        3.82094        -0.37936         0.07197
| 22>    O        4.88984        -0.82450        -0.28241
| 23>    C        2.83359        -1.00588         1.00824
| 24>    C        1.77572        -0.04756         1.30097
| 25>    C        0.75006        -0.19054         2.19034
| 26>    C       -0.24197         0.80330         2.32018
| 27>    N       -1.05310         1.60941         2.40945
| 28>    C        0.58810        -1.29631         3.05037
| 29>    N        0.44344        -2.15712         3.79463
| 30>    C        2.81377        -2.33625         1.25552
| 31>    C        3.85745        -3.22155         0.82977
| 32>    C        3.69052        -4.38094         0.12320
| 33>    C        4.98070        -4.87201        -0.27514
| 34>    C        5.96607        -3.94474         0.31216
| 35>    C        5.28771        -2.96528         0.96833
| 36>    C        7.35082        -3.99189         0.13477
| 37>    N        8.48324        -4.01689        -0.06609
| 38>    C        5.26562        -5.93121        -1.09738
| 39>    C        6.57033        -6.38847        -1.46633
| 40>    C        6.45639        -7.39920        -2.38148
| 41>    C        5.03906        -7.64137        -2.60766
| 42>    C        4.31877        -6.77658        -1.84613
| 43>    C        2.92153        -6.69751        -1.80314
| 44>    N        1.77440        -6.66232        -1.77717
| 45>    C        7.52113        -8.15469        -2.96739
| 46>    S        7.25109        -9.83077        -3.36012
| 47>    C        8.89605       -10.04449        -3.76040
| 48>    C        9.61827        -8.89205        -3.62858
| 49>    C        8.83546        -7.79306        -3.19843
| 50>    C        9.36487        -6.37530        -3.18093
| 51>    C       10.84544        -6.32580        -3.59609
| 52>    C       11.61989        -7.53974        -3.10145
| 53>    C       11.10631        -8.78416        -3.81509
| 54>    N       11.70416       -10.02292        -3.23771
| 55>    O       11.77095       -10.97532        -3.97476
| 56>    O       12.03906       -10.00080        -2.08273
| 57>    N        8.60149        -5.57934        -4.11838
| 58>    C        7.67494        -4.65536        -3.83812
| 59>    C        6.96675        -4.00144        -4.80478
| 60>    C        5.91542        -3.09554        -4.56254
| 61>    C        5.28283        -2.29157        -5.49905
| 62>    C        4.24664        -1.57159        -4.87650
| 63>    C        4.20934        -2.03769        -3.46811
| 64>    C        5.22782        -2.91318        -3.28862
| 65>    C        3.22311        -1.73121        -2.53559
| 66>    N        2.40900        -1.50267        -1.75436
| 67>    C        3.41269        -0.60225        -5.39821
| 68>    C        2.47174         0.18075        -4.67729
| 69>    C        1.75778         0.96986        -5.56139
| 70>    C        2.28567         0.71839        -6.89027
| 71>    C        3.27326        -0.21566        -6.80461
| 72>    C        4.00528        -0.73750        -7.87601
| 73>    N        4.61020        -1.14657        -8.76307
| 74>    C        0.74596         1.91980        -5.30064
| 75>    C       -0.05744         2.12623        -4.21402
| 76>    C       -0.74615         3.45464        -4.13678
| 77>    O       -0.78252         4.29196        -5.00747
| 78>    C       -1.31588         3.50462        -2.78760
| 79>    C       -2.03803         4.38231        -2.03628
| 80>    S       -2.44488         3.67589        -0.48935
| 81>    C       -1.64488         2.19952        -0.88644
| 82>    C       -1.07980         2.25767        -2.12297
| 83>    C       -0.36262         1.36527        -3.02022
| 84>    C       -0.20167         0.02234        -2.77310
| 85>    C       -0.44595        -0.51528        -1.49467
| 86>    N       -0.59317        -0.93875        -0.43767
| 87>    C        0.15284        -0.93187        -3.74054
| 88>    N        0.38831        -1.73725        -4.52466
| 89>   Cl       -2.53304         5.94826        -2.44918
| 90>    H        0.50330         2.70585         0.58455
| 91>    H        1.92925        -2.78951         1.68523
| 92>    H        2.75461        -4.82118        -0.16079
| 93>    H        5.71755        -2.17016         1.54600
| 94>    H        7.47424        -6.03729        -1.01545
| 95>    H        4.64817        -8.38085        -3.28191
| 96>    H        9.25136       -11.01028        -4.06348
| 97>    H        9.25242        -5.93434        -2.18741
| 98>    H       11.29223        -5.41253        -3.20522
| 99>    H       10.90964        -6.28752        -4.68695
|100>    H       11.48483        -7.66124        -2.02536
|101>    H       12.68463        -7.40943        -3.29841
|102>    H       11.36779        -8.78860        -4.87964
|103>    H        8.70957        -5.83383        -5.09200
|104>    H        7.54157        -4.42190        -2.79309
|105>    H        7.20638        -4.19089        -5.84347
|106>    H        5.56144        -2.19700        -6.53032
|107>    H        5.46480        -3.42379        -2.37560
|108>    H        2.40382         0.21348        -3.60835
|109>    H        1.92258         1.18365        -7.78803
|110>    H        0.60750         2.66636        -6.08015
|111>    H       -1.65232         1.40223        -0.17019
|112> *
|113>
|114>                          ****END OF INPUT****

CARTESIAN COORDINATES (ANGSTROEM)
---------------------------------
  C      2.003600    1.101110    0.448940
  C      1.385420    2.275710    0.154890
  S      2.211210    3.120510   -1.105670
  C      3.435250    1.878210   -1.220940
  Cl     4.690890    1.974580   -2.356940
  C      3.194540    0.885730   -0.318760
  C      3.820940   -0.379360    0.071970
  O      4.889840   -0.824500   -0.282410
  C      2.833590   -1.005880    1.008240
  C      1.775720   -0.047560    1.300970
  C      0.750060   -0.190540    2.190340
  C     -0.241970    0.803300    2.320180
  N     -1.053100    1.609410    2.409450
  C      0.588100   -1.296310    3.050370
  N      0.443440   -2.157120    3.794630
  C      2.813770   -2.336250    1.255520
  C      3.857450   -3.221550    0.829770
  C      3.690520   -4.380940    0.123200
  C      4.980700   -4.872010   -0.275140
  C      5.966070   -3.944740    0.312160
  C      5.287710   -2.965280    0.968330
  C      7.350820   -3.991890    0.134770
  N      8.483240   -4.016890   -0.066090
  C      5.265620   -5.931210   -1.097380
  C      6.570330   -6.388470   -1.466330
  C      6.456390   -7.399200   -2.381480
  C      5.039060   -7.641370   -2.607660
  C      4.318770   -6.776580   -1.846130
  C      2.921530   -6.697510   -1.803140
  N      1.774400   -6.662320   -1.777170
  C      7.521130   -8.154690   -2.967390
  S      7.251090   -9.830770   -3.360120
  C      8.896050  -10.044490   -3.760400
  C      9.618270   -8.892050   -3.628580
  C      8.835460   -7.793060   -3.198430
  C      9.364870   -6.375300   -3.180930
  C     10.845440   -6.325800   -3.596090
  C     11.619890   -7.539740   -3.101450
  C     11.106310   -8.784160   -3.815090
  N     11.704160  -10.022920   -3.237710
  O     11.770950  -10.975320   -3.974760
  O     12.039060  -10.000800   -2.082730
  N      8.601490   -5.579340   -4.118380
  C      7.674940   -4.655360   -3.838120
  C      6.966750   -4.001440   -4.804780
  C      5.915420   -3.095540   -4.562540
  C      5.282830   -2.291570   -5.499050
  C      4.246640   -1.571590   -4.876500
  C      4.209340   -2.037690   -3.468110
  C      5.227820   -2.913180   -3.288620
  C      3.223110   -1.731210   -2.535590
  N      2.409000   -1.502670   -1.754360
  C      3.412690   -0.602250   -5.398210
  C      2.471740    0.180750   -4.677290
  C      1.757780    0.969860   -5.561390
  C      2.285670    0.718390   -6.890270
  C      3.273260   -0.215660   -6.804610
  C      4.005280   -0.737500   -7.876010
  N      4.610200   -1.146570   -8.763070
  C      0.745960    1.919800   -5.300640
  C     -0.057440    2.126230   -4.214020
  C     -0.746150    3.454640   -4.136780
  O     -0.782520    4.291960   -5.007470
  C     -1.315880    3.504620   -2.787600
  C     -2.038030    4.382310   -2.036280
  S     -2.444880    3.675890   -0.489350
  C     -1.644880    2.199520   -0.886440
  C     -1.079800    2.257670   -2.122970
  C     -0.362620    1.365270   -3.020220
  C     -0.201670    0.022340   -2.773100
  C     -0.445950   -0.515280   -1.494670
  N     -0.593170   -0.938750   -0.437670
  C      0.152840   -0.931870   -3.740540
  N      0.388310   -1.737250   -4.524660
  Cl    -2.533040    5.948260   -2.449180
  H      0.503300    2.705850    0.584550
  H      1.929250   -2.789510    1.685230
  H      2.754610   -4.821180   -0.160790
  H      5.717550   -2.170160    1.546000
  H      7.474240   -6.037290   -1.015450
  H      4.648170   -8.380850   -3.281910
  H      9.251360  -11.010280   -4.063480
  H      9.252420   -5.934340   -2.187410
  H     11.292230   -5.412530   -3.205220
  H     10.909640   -6.287520   -4.686950
  H     11.484830   -7.661240   -2.025360
  H     12.684630   -7.409430   -3.298410
  H     11.367790   -8.788600   -4.879640
  H      8.709570   -5.833830   -5.092000
  H      7.541570   -4.421900   -2.793090
  H      7.206380   -4.190890   -5.843470
  H      5.561440   -2.197000   -6.530320
  H      5.464800   -3.423790   -2.375600
  H      2.403820    0.213480   -3.608350
  H      1.922580    1.183650   -7.788030
  H      0.607500    2.666360   -6.080150
  H     -1.652320    1.402230   -0.170190

 Total Charge           Charge          ....    0
 Multiplicity           Mult            ....    1
 Number of Electrons    NEL             ....  542
 Basis Dimension        Dim             .... 1180

ORBITAL ENERGIES
----------------

  NO   OCC          E(Eh)            E(eV)
   0   2.0000    -101.626426     -2765.3956
   1   2.0000    -101.612561     -2765.0184
   2   2.0000     -89.000228     -2421.8193
   3   2.0000     -88.992831     -2421.6181
   4   2.0000     -88.987544     -2421.4742
   5   2.0000     -19.265233      -524.2337
   6   2.0000     -19.263108      -524.1758
   7   2.0000     -19.236478      -523.4512
   8   2.0000     -19.212665      -522.8032
   9   2.0000     -14.662055      -398.9748
  10   2.0000     -14.480464      -394.0334
  11   2.0000     -14.428929      -392.6311
  12   2.0000     -14.427422      -392.5901
  13   2.0000     -14.424044      -392.4982
  14   2.0000     -14.421891      -392.4396
  15   2.0000     -14.421377      -392.4256
  16   2.0000     -14.415371      -392.2622
  17   2.0000     -14.412858      -392.1938
  18   2.0000     -14.397849      -391.7854
  19   2.0000     -10.392522      -282.7949
  20   2.0000     -10.382202      -282.5141
  21   2.0000     -10.370346      -282.1915
  22   2.0000     -10.368055      -282.1291
  23   2.0000     -10.358447      -281.8677
  24   2.0000     -10.358052      -281.8569
  25   2.0000     -10.357698      -281.8473
  26   2.0000     -10.352065      -281.6940
  27   2.0000     -10.350346      -281.6472
  28   2.0000     -10.345419      -281.5132
  29   2.0000     -10.343952      -281.4732
  30   2.0000     -10.341209      -281.3986
  31   2.0000     -10.340224      -281.3718
  32   2.0000     -10.337837      -281.3068
  33   2.0000     -10.335163      -281.2341
  34   2.0000     -10.333884      -281.1993
  35   2.0000     -10.333288      -281.1831
  36   2.0000     -10.331953      -281.1467
  37   2.0000     -10.330006      -281.0937
  38   2.0000     -10.329792      -281.0879
  39   2.0000     -10.329196      -281.0717
  40   2.0000     -10.329056      -281.0679
  41   2.0000     -10.328190      -281.0443
  42   2.0000     -10.327041      -281.0131
  43   2.0000     -10.325327      -280.9664
  44   2.0000     -10.324481      -280.9434
  45   2.0000     -10.323900      -280.9276
  46   2.0000     -10.323353      -280.9127
  47   2.0000     -10.322849      -280.8990
  48   2.0000     -10.321988      -280.8756
  49   2.0000     -10.321523      -280.8629
  50   2.0000     -10.320068      -280.8233
  51   2.0000     -10.319844      -280.8172
  52   2.0000     -10.318521      -280.7812
  53   2.0000     -10.318186      -280.7721
  54   2.0000     -10.318014      -280.7674
  55   2.0000     -10.317191      -280.7450
  56   2.0000     -10.314779      -280.6794
  57   2.0000     -10.314282      -280.6659
  58   2.0000     -10.314114      -280.6613
  59   2.0000     -10.311034      -280.5775
  60   2.0000     -10.310007      -280.5495
  61   2.0000     -10.307313      -280.4762
  62   2.0000     -10.306789      -280.4620
  63   2.0000     -10.306540      -280.4552
  64   2.0000     -10.304280      -280.3937
  65   2.0000     -10.304125      -280.3895
  66   2.0000     -10.301008      -280.3047
  67   2.0000     -10.300484      -280.2904
  68   2.0000     -10.297395      -280.2064
  69   2.0000     -10.294471      -280.1268
  70   2.0000     -10.294186      -280.1190
  71   2.0000     -10.293502      -280.1004
  72   2.0000     -10.289875      -280.0017
  73   2.0000     -10.288103      -279.9535
  74   2.0000     -10.268298      -279.4146
  75   2.0000      -9.580834      -260.7077
  76   2.0000      -9.567360      -260.3411
  77   2.0000      -8.095237      -220.2826
  78   2.0000      -8.088549      -220.1006
  79   2.0000      -8.082967      -219.9487
  80   2.0000      -7.351408      -200.0420
  81   2.0000      -7.340916      -199.7565
  82   2.0000      -7.340408      -199.7426
  83   2.0000      -7.337948      -199.6757
  84   2.0000      -7.327432      -199.3896
  85   2.0000      -7.326891      -199.3748
  86   2.0000      -6.064667      -165.0280
  87   2.0000      -6.060043      -164.9021
  88   2.0000      -6.057638      -164.8367
  89   2.0000      -6.057532      -164.8338
  90   2.0000      -6.053391      -164.7211
  91   2.0000      -6.052311      -164.6918
  92   2.0000      -6.051123      -164.6594
  93   2.0000      -6.047747      -164.5676
  94   2.0000      -6.045268      -164.5001
  95   2.0000      -1.346104       -36.6293
  96   2.0000      -1.167108       -31.7586
  97   2.0000      -1.154286       -31.4097
  98   2.0000      -1.129580       -30.7374
  99   2.0000      -1.084181       -29.5021
 100   2.0000      -1.044366       -28.4186
 101   2.0000      -1.037241       -28.2248
 102   2.0000      -1.032347       -28.0916
 103   2.0000      -1.027226       -27.9523
 104   2.0000      -1.022031       -27.8109
 105   2.0000      -1.021705       -27.8020
 106   2.0000      -1.016383       -27.6572
 107   2.0000      -1.011175       -27.5155
 108   2.0000      -1.005111       -27.3505
 109   2.0000      -1.002902       -27.2904
 110   2.0000      -1.002326       -27.2747
 111   2.0000      -0.997550       -27.1447
 112   2.0000      -0.994095       -27.0507
 113   2.0000      -0.992954       -27.0197
 114   2.0000      -0.988486       -26.8981
 115   2.0000      -0.981910       -26.7191
 116   2.0000      -0.973654       -26.4945
 117   2.0000      -0.969744       -26.3881
 118   2.0000      -0.960656       -26.1408
 119   2.0000      -0.947276       -25.7767
 120   2.0000      -0.929946       -25.3051
 121   2.0000      -0.920296       -25.0425
 122   2.0000      -0.907003       -24.6808
 123   2.0000      -0.903895       -24.5962
 124   2.0000      -0.895677       -24.3726
 125   2.0000      -0.890238       -24.2246
 126   2.0000      -0.883253       -24.0345
 127   2.0000      -0.873544       -23.7703
 128   2.0000      -0.865366       -23.5478
 129   2.0000      -0.859551       -23.3896
 130   2.0000      -0.854533       -23.2530
 131   2.0000      -0.842105       -22.9148
 132   2.0000      -0.838570       -22.8186
 133   2.0000      -0.835294       -22.7295
 134   2.0000      -0.831186       -22.6177
 135   2.0000      -0.825782       -22.4707
 136   2.0000      -0.804921       -21.9030
 137   2.0000      -0.802313       -21.8320
 138   2.0000      -0.784910       -21.3585
 139   2.0000      -0.780118       -21.2281
 140   2.0000      -0.762364       -20.7450
 141   2.0000      -0.760012       -20.6810
 142   2.0000      -0.750271       -20.4159
 143   2.0000      -0.744359       -20.2551
 144   2.0000      -0.739291       -20.1171
 145   2.0000      -0.737466       -20.0675
 146   2.0000      -0.726734       -19.7754
 147   2.0000      -0.715451       -19.4684
 148   2.0000      -0.714176       -19.4337
 149   2.0000      -0.707354       -19.2481
 150   2.0000      -0.693324       -18.8663
 151   2.0000      -0.692235       -18.8367
 152   2.0000      -0.688468       -18.7342
 153   2.0000      -0.684860       -18.6360
 154   2.0000      -0.682712       -18.5775
 155   2.0000      -0.675933       -18.3931
 156   2.0000      -0.670208       -18.2373
 157   2.0000      -0.669074       -18.2064
 158   2.0000      -0.666382       -18.1332
 159   2.0000      -0.661187       -17.9918
 160   2.0000      -0.655897       -17.8479
 161   2.0000      -0.647211       -17.6115
 162   2.0000      -0.641895       -17.4669
 163   2.0000      -0.638245       -17.3675
 164   2.0000      -0.633510       -17.2387
 165   2.0000      -0.627384       -17.0720
 166   2.0000      -0.622348       -16.9349
 167   2.0000      -0.616545       -16.7770
 168   2.0000      -0.614227       -16.7140
 169   2.0000      -0.610066       -16.6007
 170   2.0000      -0.607616       -16.5341
 171   2.0000      -0.603648       -16.4261
 172   2.0000      -0.592334       -16.1182
 173   2.0000      -0.590141       -16.0586
 174   2.0000      -0.573404       -15.6031
 175   2.0000      -0.570859       -15.5339
 176   2.0000      -0.568946       -15.4818
 177   2.0000      -0.565427       -15.3860
 178   2.0000      -0.562144       -15.2967
 179   2.0000      -0.560069       -15.2402
 180   2.0000      -0.556240       -15.1361
 181   2.0000      -0.553532       -15.0624
 182   2.0000      -0.551187       -14.9986
 183   2.0000      -0.546593       -14.8736
 184   2.0000      -0.543793       -14.7974
 185   2.0000      -0.542534       -14.7631
 186   2.0000      -0.540298       -14.7023
 187   2.0000      -0.534659       -14.5488
 188   2.0000      -0.531565       -14.4646
 189   2.0000      -0.529459       -14.4073
 190   2.0000      -0.528227       -14.3738
 191   2.0000      -0.526515       -14.3272
 192   2.0000      -0.525320       -14.2947
 193   2.0000      -0.523246       -14.2382
 194   2.0000      -0.523034       -14.2325
 195   2.0000      -0.519930       -14.1480
 196   2.0000      -0.519067       -14.1245
 197   2.0000      -0.515120       -14.0171
 198   2.0000      -0.510684       -13.8964
 199   2.0000      -0.508775       -13.8445
 200   2.0000      -0.508435       -13.8352
 201   2.0000      -0.506909       -13.7937
 202   2.0000      -0.505340       -13.7510
 203   2.0000      -0.502381       -13.6705
 204   2.0000      -0.501086       -13.6352
 205   2.0000      -0.497768       -13.5450
 206   2.0000      -0.494702       -13.4615
 207   2.0000      -0.493357       -13.4249
 208   2.0000      -0.491011       -13.3611
 209   2.0000      -0.489993       -13.3334
 210   2.0000      -0.486486       -13.2379
 211   2.0000      -0.486101       -13.2275
 212   2.0000      -0.480224       -13.0676
 213   2.0000      -0.478766       -13.0279
 214   2.0000      -0.476858       -12.9760
 215   2.0000      -0.473961       -12.8971
 216   2.0000      -0.467245       -12.7144
 217   2.0000      -0.462526       -12.5860
 218   2.0000      -0.462330       -12.5807
 219   2.0000      -0.461507       -12.5583
 220   2.0000      -0.458392       -12.4735
 221   2.0000      -0.455778       -12.4023
 222   2.0000      -0.454092       -12.3565
 223   2.0000      -0.452520       -12.3137
 224   2.0000      -0.451663       -12.2904
 225   2.0000      -0.450357       -12.2548
 226   2.0000      -0.450212       -12.2509
 227   2.0000      -0.449191       -12.2231
 228   2.0000      -0.448709       -12.2100
 229   2.0000      -0.447868       -12.1871
 230   2.0000      -0.446727       -12.1560
 231   2.0000      -0.443015       -12.0550
 232   2.0000      -0.440786       -11.9944
 233   2.0000      -0.438659       -11.9365
 234   2.0000      -0.437864       -11.9149
 235   2.0000      -0.435721       -11.8566
 236   2.0000      -0.433721       -11.8022
 237   2.0000      -0.433119       -11.7858
 238   2.0000      -0.430691       -11.7197
 239   2.0000      -0.429891       -11.6979
 240   2.0000      -0.428451       -11.6587
 241   2.0000      -0.422879       -11.5071
 242   2.0000      -0.419537       -11.4162
 243   2.0000      -0.419176       -11.4064
 244   2.0000      -0.414412       -11.2767
 245   2.0000      -0.411974       -11.2104
 246   2.0000      -0.411054       -11.1853
 247   2.0000      -0.407316       -11.0836
 248   2.0000      -0.403168       -10.9708
 249   2.0000      -0.398605       -10.8466
 250   2.0000      -0.398021       -10.8307
 251   2.0000      -0.397084       -10.8052
 252   2.0000      -0.393897       -10.7185
 253   2.0000      -0.387637       -10.5481
 254   2.0000      -0.381961       -10.3937
 255   2.0000      -0.372232       -10.1290
 256   2.0000      -0.364619        -9.9218
 257   2.0000      -0.355733        -9.6800
 258   2.0000      -0.352086        -9.5807
 259   2.0000      -0.344238        -9.3672
 260   2.0000      -0.341057        -9.2806
 261   2.0000      -0.338079        -9.1996
 262   2.0000      -0.334278        -9.0962
 263   2.0000      -0.330093        -8.9823
 264   2.0000      -0.324731        -8.8364
 265   2.0000      -0.320725        -8.7274
 266   2.0000      -0.311278        -8.4703
 267   2.0000      -0.303716        -8.2645
 268   2.0000      -0.298398        -8.1198
 269   2.0000      -0.287251        -7.8165
 270   2.0000      -0.257131        -6.9969
 271   0.0000      -0.139330        -3.7914
 272   0.0000      -0.122590        -3.3358
 273   0.0000      -0.088635        -2.4119
 274   0.0000      -0.076300        -2.0762
 275   0.0000      -0.058061        -1.5799

MULLIKEN ATOMIC CHARGES
-----------------------
   0 C :    0.062688
   1 C :   -0.147386
   2 S :    0.186830
   3 C :   -0.196232
   4 Cl:    0.002370
   5 C :    0.108533
   6 C :    0.141135
   7 O :   -0.150780
   8 C :   -0.070075
   9 C :    0.293177
  10 C :   -0.287304
  11 C :   -0.164879
  12 N :    0.132422
  13 C :   -0.204103
  14 N :    0.176090
  15 C :   -0.001405
  16 C :    0.046352
  17 C :   -0.046627
  18 C :    0.083941
  19 C :   -0.146690
  20 C :    0.114081
  21 C :   -0.185066
  22 N :    0.130091
  23 C :    0.090984
  24 C :   -0.178181
  25 C :    0.117796
  26 C :   -0.011936
  27 C :   -0.070654
  28 C :   -0.194473
  29 N :    0.165662
  30 C :   -0.169069
  31 S :    0.171389
  32 C :   -0.099862
  33 C :   -0.070818
  34 C :    0.024414
  35 C :    0.094226
  36 C :    0.065087
  37 C :    0.060441
  38 C :    0.140037
  39 N :    0.202705
  40 O :   -0.231960
  41 O :   -0.212784
  42 N :   -0.096072
  43 C :    0.093851
  44 C :   -0.059176
  45 C :    0.146541
  46 C :   -0.142496
  47 C :    0.148666
  48 C :   -0.105794
  49 C :    0.025642
  50 C :   -0.060372
  51 N :    0.059833
  52 C :    0.096583
  53 C :   -0.100629
  54 C :    0.096711
  55 C :   -0.005320
  56 C :   -0.082632
  57 C :   -0.188249
  58 N :    0.125593
  59 C :    0.019279
  60 C :   -0.133691
  61 C :    0.124309
  62 O :   -0.136432
  63 C :    0.093734
  64 C :   -0.179899
  65 S :    0.196425
  66 C :   -0.175432
  67 C :    0.025289
  68 C :    0.283928
  69 C :   -0.338727
  70 C :   -0.145326
  71 N :    0.133345
  72 C :   -0.206315
  73 N :    0.179360
  74 Cl:   -0.003638
  75 H :    0.054819
  76 H :    0.050841
  77 H :    0.021797
  78 H :    0.009933
  79 H :    0.004013
  80 H :    0.006344
  81 H :    0.045547
  82 H :    0.043497
  83 H :    0.033253
  84 H :   -0.002775
  85 H :    0.043859
  86 H :    0.028493
  87 H :    0.039781
  88 H :    0.126709
  89 H :    0.026605
  90 H :   -0.013520
  91 H :   -0.005888
  92 H :   -0.042374
  93 H :    0.000598
  94 H :   -0.007421
  95 H :    0.021367
  96 H :    0.055464
Sum of atomic charges:   -0.0000000

LOEWDIN ATOMIC CHARGES
----------------------
   0 C :   -0.051699
   1 C :   -0.143937
   2 S :    0.482456
   3 C :   -0.277625
   4 Cl:    0.196117
   5 C :   -0.110115
   6 C :    0.091813
   7 O :   -0.129017
   8 C :   -0.054297
   9 C :    0.080272
  10 C :   -0.113730
  11 C :    0.000264
  12 N :   -0.060325
  13 C :   -0.019882
  14 N :   -0.038762
  15 C :    0.074532
  16 C :   -0.015621
  17 C :    0.013580
  18 C :    0.038797
  19 C :   -0.121660
  20 C :    0.102600
  21 C :   -0.019633
  22 N :   -0.087104
  23 C :    0.026385
  24 C :   -0.036840
  25 C :   -0.029233
  26 C :    0.044326
  27 C :   -0.071396
  28 C :   -0.035252
  29 N :   -0.042090
  30 C :   -0.171238
  31 S :    0.482006
  32 C :   -0.170680
  33 C :   -0.078283
  34 C :   -0.061099
  35 C :    0.042986
  36 C :   -0.021824
  37 C :   -0.029144
  38 C :    0.017930
  39 N :    0.274525
  40 O :   -0.200948
  41 O :   -0.181401
  42 N :    0.046882
  43 C :    0.086637
  44 C :   -0.110274
  45 C :    0.026311
  46 C :   -0.079222
  47 C :    0.067527
  48 C :   -0.064689
  49 C :    0.060353
  50 C :    0.013601
  51 N :   -0.073869
  52 C :   -0.004306
  53 C :    0.029128
  54 C :   -0.061594
  55 C :    0.044352
  56 C :   -0.088248
  57 C :   -0.026847
  58 N :   -0.075602
  59 C :    0.076026
  60 C :   -0.096906
  61 C :    0.078406
  62 O :   -0.139103
  63 C :   -0.121630
  64 C :   -0.276876
  65 S :    0.478645
  66 C :   -0.155236
  67 C :   -0.065165
  68 C :    0.063056
  69 C :   -0.140980
  70 C :   -0.001138
  71 N :   -0.069988
  72 C :   -0.014482
  73 N :   -0.039689
  74 Cl:    0.189026
  75 H :    0.031899
  76 H :    0.057227
  77 H :    0.043789
  78 H :    0.041226
  79 H :    0.028899
  80 H :    0.036871
  81 H :    0.032021
  82 H :    0.042048
  83 H :    0.041325
  84 H :    0.022651
  85 H :    0.037981
  86 H :    0.037181
  87 H :    0.043249
  88 H :    0.084506
  89 H :    0.034235
  90 H :    0.032528
  91 H :    0.032992
  92 H :    0.030018
  93 H :    0.024943
  94 H :    0.035192
  95 H :    0.047696
  96 H :    0.031663

  Mayer bond orders larger than 0.100000
B(  0-C ,  1-C ) :   1.5393 B(  0-C ,  5-C ) :   1.2264 B(  0-C ,  9-C ) :   1.0059
B(  1-C ,  2-S ) :   1.1594 B(  1-C , 75-H ) :   0.9448 B(  2-S ,  3-C ) :   1.1471
B(  3-C ,  4-Cl) :   1.1223 B(  3-C ,  5-C ) :   1.4752 B(  5-C ,  6-C ) :   0.9612
B(  6-C ,  7-O ) :   2.1512 B(  6-C ,  8-C ) :   0.9339 B(  8-C ,  9-C ) :   1.0334
B(  8-C , 15-C ) :   1.7249 B(  9-C , 10-C ) :   1.6991 B( 10-C , 11-C ) :   1.1500
B( 10-C , 13-C ) :   1.1331 B( 11-C , 12-N ) :   2.9387 B( 13-C , 14-N ) :   3.0056
B( 15-C , 16-C ) :   1.0359 B( 15-C , 76-H ) :   0.9467 B( 16-C , 17-C ) :   1.5861
B( 16-C , 20-C ) :   1.0553 B( 17-C , 18-C ) :   1.0833 B( 17-C , 77-H ) :   1.0091
B( 18-C , 19-C ) :   1.1127 B( 18-C , 23-C ) :   1.4424 B( 19-C , 20-C ) :   1.6319
B( 19-C , 21-C ) :   1.1268 B( 20-C , 78-H ) :   1.0055 B( 21-C , 22-N ) :   2.9418
B( 23-C , 24-C ) :   1.1055 B( 23-C , 27-C ) :   1.1229 B( 24-C , 25-C ) :   1.5689
B( 24-C , 79-H ) :   1.0037 B( 25-C , 26-C ) :   1.0545 B( 25-C , 30-C ) :   1.0524
B( 26-C , 27-C ) :   1.6704 B( 26-C , 80-H ) :   1.0176 B( 27-C , 28-C ) :   1.0839
B( 28-C , 29-N ) :   2.9774 B( 30-C , 31-S ) :   1.1676 B( 30-C , 32-C ) :   0.1007
B( 30-C , 34-C ) :   1.5203 B( 31-S , 32-C ) :   1.1840 B( 32-C , 33-C ) :   1.5614
B( 32-C , 81-H ) :   0.9621 B( 33-C , 34-C ) :   1.3364 B( 33-C , 38-C ) :   0.9663
B( 34-C , 35-C ) :   0.9897 B( 35-C , 36-C ) :   1.0628 B( 35-C , 42-N ) :   0.9886
B( 35-C , 82-H ) :   0.8844 B( 36-C , 37-C ) :   1.0847 B( 36-C , 83-H ) :   0.9263
B( 36-C , 84-H ) :   0.9172 B( 37-C , 38-C ) :   1.0572 B( 37-C , 85-H ) :   0.9191
B( 37-C , 86-H ) :   0.9322 B( 38-C , 39-N ) :   0.8312 B( 38-C , 87-H ) :   0.8918
B( 39-N , 40-O ) :   1.5364 B( 39-N , 41-O ) :   1.5960 B( 40-O , 41-O ) :   0.2730
B( 42-N , 43-C ) :   1.3136 B( 42-N , 88-H ) :   0.9243 B( 43-C , 44-C ) :   1.4641
B( 43-C , 89-H ) :   0.9522 B( 44-C , 45-C ) :   1.2414 B( 44-C , 90-H ) :   0.9633
B( 45-C , 46-C ) :   1.4134 B( 45-C , 49-C ) :   1.0206 B( 46-C , 47-C ) :   1.2246
B( 46-C , 91-H ) :   1.0133 B( 47-C , 48-C ) :   1.0553 B( 47-C , 52-C ) :   1.3363
B( 48-C , 49-C ) :   1.7065 B( 48-C , 50-C ) :   1.1166 B( 49-C , 92-H ) :   1.0164
B( 50-C , 51-N ) :   2.7700 B( 52-C , 53-C ) :   1.1698 B( 52-C , 56-C ) :   1.1541
B( 53-C , 54-C ) :   1.4390 B( 53-C , 93-H ) :   0.9928 B( 54-C , 55-C ) :   1.0840
B( 54-C , 59-C ) :   1.1061 B( 55-C , 56-C ) :   1.6170 B( 55-C , 94-H ) :   1.0241
B( 56-C , 57-C ) :   1.0844 B( 57-C , 58-N ) :   2.9739 B( 59-C , 60-C ) :   1.6184
B( 59-C , 95-H ) :   0.9368 B( 60-C , 61-C ) :   0.9435 B( 60-C , 68-C ) :   1.0552
B( 61-C , 62-O ) :   2.2580 B( 61-C , 63-C ) :   0.9315 B( 63-C , 64-C ) :   1.4766
B( 63-C , 67-C ) :   1.2211 B( 64-C , 65-S ) :   1.1445 B( 64-C , 74-Cl) :   1.1262
B( 65-S , 66-C ) :   1.1560 B( 66-C , 67-C ) :   1.5241 B( 66-C , 96-H ) :   0.9570
B( 67-C , 68-C ) :   1.0074 B( 68-C , 69-C ) :   1.6272 B( 69-C , 70-C ) :   1.1387
B( 69-C , 72-C ) :   1.1885 B( 70-C , 71-N ) :   2.9401 B( 72-C , 73-N ) :   2.9579

-----------------------------------------------------------------------------
         ABSORPTION SPECTRUM VIA TRANSITION ELECTRIC DIPOLE MOMENTS
-----------------------------------------------------------------------------
State   Energy  Wavelength   fosc         T2         TX        TY        TZ
        (cm-1)    (nm)                  (au**2)     (au)      (au)      (au)
-----------------------------------------------------------------------------
   0    9530.9   1049.2   0.011440249   0.39516   0.34754  -0.26822   0.44993
   1   12319.1    811.7   0.390041251  10.42333   2.47790  -2.01219   0.48421
   2   16827.4    594.3   0.303020390   5.92832  -0.83189   1.97571   1.15448
   3   17308.6    577.7   0.014411918   0.27412  -0.07173   0.51626  -0.04946
   4   18796.7    532.0   0.008435061   0.14773  -0.12433   0.25226   0.26200
   5   19233.2    519.9   0.000599922   0.01027   0.01164   0.06446  -0.07732
   6   21809.5    458.5   0.042619263   0.64333   0.08424  -0.65850  -0.45012
   7   22304.6    448.3   0.065462507   0.96622   0.50682  -0.08990  -0.83742
   8   22572.2    443.0   0.022412338   0.32688  -0.08582   0.51422  -0.23471
   9   22738.2    439.8   0.048068124   0.69595   0.41765  -0.20793  -0.69158
  10   22985.6    435.1   0.230159360   3.29646   1.07368  -1.36186  -0.53759
  11   23590.9    423.9   0.097951522   1.36692   0.99798   0.08305  -0.60336
  12   23803.5    420.1   0.143825068   1.98916   0.65499  -0.90609  -0.85973
  13   24851.6    402.4   0.014733373   0.19517   0.19409   0.04835   0.39391
  14   25318.5    395.0   0.308203135   4.00751   0.82004  -1.82317  -0.10524
  15   26291.3    380.4   0.026870116   0.33646  -0.53385   0.20316  -0.10097
  16   26701.0    374.5   0.058278342   0.71855   0.63595  -0.21657  -0.51692
  17   27184.6    367.9   0.095479909   1.15629   0.72405  -0.78771   0.10753
  18   27402.8    364.9   0.046273181   0.55592  -0.28390   0.07305   0.68555
  19   27938.6    357.9   0.138978823   1.63764  -0.74119   1.04312  -0.01355
  20   28070.2    356.2   0.065320132   0.76608   0.57593  -0.63416  -0.17954
  21   28176.1    354.9   0.080837014   0.94451  -0.52592   0.61513   0.53808
  22   28630.0    349.3   0.026274125   0.30212   0.11719  -0.50200  -0.19075
  23   28816.6    347.0   0.019507303   0.22286   0.46325  -0.07237  -0.05498
  24   29165.8    342.9   0.081466275   0.91956   0.71056  -0.63186   0.12418
  25   29304.2    341.2   0.043128648   0.48452   0.52852  -0.23661  -0.38627
  26   29654.4    337.2   0.005820603   0.06462   0.14218   0.03926   0.20703
  27   30300.5    330.0   0.003656781   0.03973  -0.11495  -0.15633  -0.04556
  28   30698.8    325.7   0.024965471   0.26773   0.13195  -0.33915  -0.36782
  29   30855.6    324.1   0.045547704   0.48597   0.18462  -0.63576  -0.21840
  30   31113.1    321.4   0.013755731   0.14555   0.24734   0.03759  -0.28803
  31   31368.9    318.8   0.110025986   1.15471   0.30442  -1.00875  -0.21084
  32   31574.3    316.7   0.036667795   0.38232   0.46926  -0.38493  -0.11811
  33   31799.8    314.5   0.053526693   0.55414  -0.43570   0.46355   0.38657
  34   31976.5    312.7   0.010310296   0.10615   0.15889  -0.21372  -0.18769
  35   32654.6    306.2   0.128454303   1.29503  -0.58277   0.84939   0.48368
  36   32833.4    304.6   0.026373580   0.26444  -0.11191  -0.10204   0.49143
  37   33210.7    301.1   0.029785516   0.29526   0.38723  -0.38114   0.00636
  38   33302.8    300.3   0.037346738   0.36919   0.44713  -0.39906  -0.10005
  39   33642.0    297.2   0.160425028   1.56988   0.53371  -1.13230  -0.05406
  40   33931.0    294.7   0.355547728   3.44966   0.52789  -1.78033   0.03786
  41   34123.2    293.1   0.074412439   0.71791   0.51019  -0.62017  -0.27021
  42   34310.7    291.5   0.022081920   0.21188  -0.15489  -0.42442   0.08808
  43   34424.4    290.5   0.115280043   1.10246   0.78328  -0.43353  -0.54863
  44   34708.0    288.1   0.041408230   0.39277  -0.47281   0.07182   0.40504
  45   35151.3    284.5   0.016002316   0.14987   0.32412   0.19355  -0.08579
  46   35541.6    281.4   0.081877484   0.75841  -0.62013  -0.44126   0.42325
  47   35796.3    279.4   0.048041314   0.44183   0.32430  -0.48043   0.32533
  48   35932.2    278.3   0.020894935   0.19144   0.38487  -0.19550   0.07137
  49   36035.0    277.5   0.022858690   0.20883  -0.37913   0.02142   0.25423
  50   36070.8    277.2   0.003640503   0.03323  -0.07709   0.16499   0.00781
  51   36307.4    275.4   0.062917452   0.57050   0.03593   0.72787  -0.19851
  52   36374.3    274.9   0.001864044   0.01687   0.06582   0.05675   0.09653
  53   36528.1    273.8   0.062055166   0.55928   0.02959  -0.30969  -0.68007
  54   36642.4    272.9   0.048041755   0.43163  -0.14765  -0.15378  -0.62143
  55   36720.9    272.3   0.054181506   0.48575  -0.62931  -0.29952   0.00299
  56   37034.2    270.0   0.076510652   0.68013  -0.50703   0.64258  -0.10071
  57   37150.9    269.2   0.072537800   0.64279  -0.29340   0.74596   0.01576
  58   37266.6    268.3   0.177971734   1.57220   0.50203  -1.07593   0.40314
  59   37335.1    267.8   0.011293042   0.09958  -0.18685   0.06870  -0.24484
  60   37374.7    267.6   0.019006487   0.16742   0.15069  -0.33869  -0.17321
  61   37661.7    265.5   0.124608571   1.08924   0.78611  -0.68291  -0.07004
  62   37740.7    265.0   0.062342511   0.54381  -0.51569   0.50503   0.15104
  63   37867.1    264.1   0.004626048   0.04022  -0.01764  -0.08052   0.18282
  64   38469.5    259.9   0.277243154   2.37258  -0.17115   1.50102  -0.30039
  65   38554.8    259.4   0.395585961   3.37783  -1.25629  -0.01911   1.34134
  66   39241.9    254.8   0.045375025   0.38066  -0.55521   0.25840  -0.07508
  67   39291.8    254.5   0.003676454   0.03080   0.09281  -0.03889   0.14379
  68   39478.3    253.3   0.177646430   1.48140  -0.35344  -0.18578   1.14977
  69   39858.1    250.9   0.005597565   0.04623  -0.15163  -0.01401   0.15181
  70   40000.7    250.0   0.120059805   0.98811  -0.40699   0.87986  -0.21979

FINAL SINGLE POINT ENERGY     -5105.763041269402

DIPOLE MOMENT
-------------
                                X             Y             Z
Electronic contribution:    -55.40698      56.74470      14.47453
Nuclear contribution   :     58.90818     -57.30608     -14.74068
                        -----------------------------------------
Total Dipole Moment    :      3.50120      -0.56138      -0.26615
                        -----------------------------------------
Magnitude (a.u.)       :      3.55590
Magnitude (Debye)      :      9.03837

Rotational constants in cm-1:     0.001890     0.000453     0.000411
Rotational constants in MHz :    56.661485    13.566144    12.308440

                             ****ORCA TERMINATED NORMALLY****
TOTAL RUN TIME: 0 days 0 hours 13 minutes 6 seconds 667 msec
