                         Program Version 4.2.0 -  RELEASE  -
|  1> # ORCA input file
|  2> # SCF done       -202.295234248803          0.000534254016
|  3> ! CAM-B3LYP def2-SVP def2/J RIJCOSX Grid4 TightSCF
|  4> %maxcore 5000
|  5> %tddft
|  6>     Mode sTDDFT
|  7>     Ethresh 5.0
|  8>     maxcore 5000
|  9> end
| 10>
| 11> %pal
| 12>   nprocs 6
| 13>   end
| 14> * xyz 0 1
| 15>    C        3.45111         2.13662        -1.95625
| 16>    C        3.43357         2.35261        -3.31009
| 17>    C        4.38085         1.81273        -4.20656
| 18>    N        5.11482         1.41496        -4.99464
| 19>    C        2.47903         3.10116        -4.03118
| 20>    N        1.74711         3.67368        -4.70679
| 21>    C        4.41308         1.28775        -1.26324
| 22>    C        4.03370         1.20172         0.10486
| 23>    C        4.73963         0.46113         1.00859
| 24>    C        5.88925        -0.23675         0.57703
| 25>    C        6.28380        -0.14815        -0.78915
| 26>    C        5.52784         0.62263        -1.70199
| 27>    C        7.43679        -0.84255        -1.20868
| 28>    C        8.16477        -1.58998        -0.32341
| 29>    C        7.77395        -1.67801         1.02108
| 30>    C        6.66026        -1.01589         1.46176
| 31>    C        2.82771         2.01242         0.33627
| 32>    O        2.23981         2.11587         1.39350
| 33>    C        2.51295         2.65139        -0.96670
| 34>    C        1.58583         3.61756        -1.24312
| 35>    C        0.62142         4.25722        -0.43387
| 36>    S       -0.30105         5.54737        -1.18501
| 37>    C       -1.18518         5.85747         0.26724
| 38>    C       -0.77544         4.97339         1.28250
| 39>    C        0.22722         4.08614         0.88158
| 40>    C       -1.28676         4.95387         2.59113
| 41>    N       -1.67877         4.91405         3.66960
| 42>    C       -2.13277         6.90615         0.28561
| 43>    C       -2.87597         7.26841         1.36752
| 44>    C       -3.76564         8.36602         1.34948
| 45>    N       -4.48647         8.77690         2.45245
| 46>    C       -4.45060         8.18896         3.77075
| 47>    C       -3.21364         8.61654         4.55609
| 48>    C       -5.25338         9.91400         2.18325
| 49>    O       -5.96197        10.46747         3.01031
| 50>    C       -4.99450        10.20627         0.79485
| 51>    C       -4.08088         9.23735         0.30875
| 52>    C       -3.82780         9.52844        -1.08514
| 53>    O       -3.12668         8.98749        -1.91687
| 54>    N       -4.61817        10.66135        -1.35416
| 55>    C       -4.60366        11.29383        -2.65159
| 56>    C       -3.69410        12.51948        -2.67695
| 57>    C       -5.30474        11.08459        -0.24452
| 58>    C       -6.14291        12.23052        -0.22564
| 59>    C       -6.73544        12.61724         0.92682
| 60>    N       -7.52009        13.72543         1.09762
| 61>    C       -8.03409        14.10026         2.33464
| 62>    C       -7.82893        13.31786         3.56764
| 63>    C       -8.71121        15.27255         2.17100
| 64>    C       -8.63869        15.66858         0.78567
| 65>    C       -7.87037        14.67375         0.07855
| 66>    O       -7.55140        14.58058        -1.08306
| 67>    C       -9.29113        16.85568         0.62735
| 68>    C       -9.49321        17.67075        -0.58776
| 69>    N       -9.74461        17.26090         1.86700
| 70>    C       -9.46243        16.26974         2.88805
| 71>    O       -9.89870        16.32746         4.00650
| 72>    C      -10.45322        18.40336         2.12045
| 73>    C      -10.26276        19.12519         3.25184
| 74>    C      -11.07904        20.20644         3.77279
| 75>    C      -12.29142        20.61721         3.28508
| 76>    C      -13.06591        21.65167         3.85109
| 77>    N      -13.74065        22.48506         4.26029
| 78>    C      -12.92215        20.06795         2.15015
| 79>    N      -13.47199        19.66352         1.22663
| 80>    C      -10.40146        20.74015         4.94707
| 81>    C       -9.18624        20.02278         5.14539
| 82>    C       -9.03213        19.01155         4.08937
| 83>    O       -8.05856        18.32833         3.86111
| 84>    C       -8.33778        20.31151         6.17495
| 85>    C       -8.67515        21.34519         7.07689
| 86>    C       -9.88712        22.06985         6.88454
| 87>    C      -10.74323        21.75245         5.80577
| 88>    C      -10.20991        23.10452         7.78645
| 89>    C       -9.37760        23.40938         8.82882
| 90>    C       -8.18537        22.69438         9.01789
| 91>    C       -7.84212        21.68370         8.16123
| 92>    H        4.42483         0.41123         2.04043
| 93>    H        5.85680         0.66928        -2.72759
| 94>    H        7.73296        -0.77290        -2.24509
| 95>    H        9.04635        -2.11811        -0.65459
| 96>    H        8.35988        -2.27274         1.70583
| 97>    H        6.35433        -1.07949         2.49580
| 98>    H        1.58857         3.99738        -2.25814
| 99>    H        0.65908         3.34518         1.53047
|100>    H       -2.24469         7.45858        -0.63867
|101>    H       -2.78313         6.71820         2.29066
|102>    H       -4.49638         7.10002         3.68788
|103>    H       -5.34993         8.54305         4.28256
|104>    H       -2.30295         8.29438         4.05677
|105>    H       -3.23961         8.17186         5.54657
|106>    H       -3.19224         9.69898         4.65809
|107>    H       -5.62384        11.56317        -2.93674
|108>    H       -4.22593        10.54199        -3.35015
|109>    H       -4.03961        13.27606        -1.97636
|110>    H       -3.68512        12.94752        -3.67532
|111>    H       -2.67879        12.23497        -2.41113
|112>    H       -6.28018        12.79157        -1.13491
|113>    H       -6.58739        12.03201         1.82525
|114>    H       -6.76863        13.23803         3.80805
|115>    H       -8.20707        12.30146         3.45734
|116>    H       -8.34542        13.81030         4.38682
|117>    H       -8.99850        17.19205        -1.42811
|118>    H       -9.08674        18.67263        -0.44855
|119>    H      -10.55676        17.76994        -0.80960
|120>    H      -11.18363        18.68556         1.37214
|121>    H       -7.42222        19.75334         6.30219
|122>    H      -11.65018        22.32315         5.68349
|123>    H      -11.12934        23.65140         7.63746
|124>    H       -9.63340        24.20353         9.51403
|125>    H       -7.54019        22.94869         9.84546
|126>    H       -6.92554        21.12974         8.30178
|127> *
|128>
|129>                          ****END OF INPUT****

CARTESIAN COORDINATES (ANGSTROEM)
---------------------------------
  C      3.451110    2.136620   -1.956250
  C      3.433570    2.352610   -3.310090
  C      4.380850    1.812730   -4.206560
  N      5.114820    1.414960   -4.994640
  C      2.479030    3.101160   -4.031180
  N      1.747110    3.673680   -4.706790
  C      4.413080    1.287750   -1.263240
  C      4.033700    1.201720    0.104860
  C      4.739630    0.461130    1.008590
  C      5.889250   -0.236750    0.577030
  C      6.283800   -0.148150   -0.789150
  C      5.527840    0.622630   -1.701990
  C      7.436790   -0.842550   -1.208680
  C      8.164770   -1.589980   -0.323410
  C      7.773950   -1.678010    1.021080
  C      6.660260   -1.015890    1.461760
  C      2.827710    2.012420    0.336270
  O      2.239810    2.115870    1.393500
  C      2.512950    2.651390   -0.966700
  C      1.585830    3.617560   -1.243120
  C      0.621420    4.257220   -0.433870
  S     -0.301050    5.547370   -1.185010
  C     -1.185180    5.857470    0.267240
  C     -0.775440    4.973390    1.282500
  C      0.227220    4.086140    0.881580
  C     -1.286760    4.953870    2.591130
  N     -1.678770    4.914050    3.669600
  C     -2.132770    6.906150    0.285610
  C     -2.875970    7.268410    1.367520
  C     -3.765640    8.366020    1.349480
  N     -4.486470    8.776900    2.452450
  C     -4.450600    8.188960    3.770750
  C     -3.213640    8.616540    4.556090
  C     -5.253380    9.914000    2.183250
  O     -5.961970   10.467470    3.010310
  C     -4.994500   10.206270    0.794850
  C     -4.080880    9.237350    0.308750
  C     -3.827800    9.528440   -1.085140
  O     -3.126680    8.987490   -1.916870
  N     -4.618170   10.661350   -1.354160
  C     -4.603660   11.293830   -2.651590
  C     -3.694100   12.519480   -2.676950
  C     -5.304740   11.084590   -0.244520
  C     -6.142910   12.230520   -0.225640
  C     -6.735440   12.617240    0.926820
  N     -7.520090   13.725430    1.097620
  C     -8.034090   14.100260    2.334640
  C     -7.828930   13.317860    3.567640
  C     -8.711210   15.272550    2.171000
  C     -8.638690   15.668580    0.785670
  C     -7.870370   14.673750    0.078550
  O     -7.551400   14.580580   -1.083060
  C     -9.291130   16.855680    0.627350
  C     -9.493210   17.670750   -0.587760
  N     -9.744610   17.260900    1.867000
  C     -9.462430   16.269740    2.888050
  O     -9.898700   16.327460    4.006500
  C    -10.453220   18.403360    2.120450
  C    -10.262760   19.125190    3.251840
  C    -11.079040   20.206440    3.772790
  C    -12.291420   20.617210    3.285080
  C    -13.065910   21.651670    3.851090
  N    -13.740650   22.485060    4.260290
  C    -12.922150   20.067950    2.150150
  N    -13.471990   19.663520    1.226630
  C    -10.401460   20.740150    4.947070
  C     -9.186240   20.022780    5.145390
  C     -9.032130   19.011550    4.089370
  O     -8.058560   18.328330    3.861110
  C     -8.337780   20.311510    6.174950
  C     -8.675150   21.345190    7.076890
  C     -9.887120   22.069850    6.884540
  C    -10.743230   21.752450    5.805770
  C    -10.209910   23.104520    7.786450
  C     -9.377600   23.409380    8.828820
  C     -8.185370   22.694380    9.017890
  C     -7.842120   21.683700    8.161230
  H      4.424830    0.411230    2.040430
  H      5.856800    0.669280   -2.727590
  H      7.732960   -0.772900   -2.245090
  H      9.046350   -2.118110   -0.654590
  H      8.359880   -2.272740    1.705830
  H      6.354330   -1.079490    2.495800
  H      1.588570    3.997380   -2.258140
  H      0.659080    3.345180    1.530470
  H     -2.244690    7.458580   -0.638670
  H     -2.783130    6.718200    2.290660
  H     -4.496380    7.100020    3.687880
  H     -5.349930    8.543050    4.282560
  H     -2.302950    8.294380    4.056770
  H     -3.239610    8.171860    5.546570
  H     -3.192240    9.698980    4.658090
  H     -5.623840   11.563170   -2.936740
  H     -4.225930   10.541990   -3.350150
  H     -4.039610   13.276060   -1.976360
  H     -3.685120   12.947520   -3.675320
  H     -2.678790   12.234970   -2.411130
  H     -6.280180   12.791570   -1.134910
  H     -6.587390   12.032010    1.825250
  H     -6.768630   13.238030    3.808050
  H     -8.207070   12.301460    3.457340
  H     -8.345420   13.810300    4.386820
  H     -8.998500   17.192050   -1.428110
  H     -9.086740   18.672630   -0.448550
  H    -10.556760   17.769940   -0.809600
  H    -11.183630   18.685560    1.372140
  H     -7.422220   19.753340    6.302190
  H    -11.650180   22.323150    5.683490
  H    -11.129340   23.651400    7.637460
  H     -9.633400   24.203530    9.514030
  H     -7.540190   22.948690    9.845460
  H     -6.925540   21.129740    8.301780

 Total Charge           Charge          ....    0
 Multiplicity           Mult            ....    1
 Number of Electrons    NEL             ....  528
 Basis Dimension        Dim             .... 1257

ORBITAL ENERGIES
----------------

  NO   OCC          E(Eh)            E(eV)
   0   2.0000     -88.980135     -2421.2726
   1   2.0000     -19.221435      -523.0418
   2   2.0000     -19.220088      -523.0052
   3   2.0000     -19.218846      -522.9714
   4   2.0000     -19.215586      -522.8827
   5   2.0000     -19.201647      -522.5034
   6   2.0000     -19.189719      -522.1788
   7   2.0000     -14.492506      -394.3611
   8   2.0000     -14.490164      -394.2974
   9   2.0000     -14.459026      -393.4501
  10   2.0000     -14.453752      -393.3066
  11   2.0000     -14.423414      -392.4810
  12   2.0000     -14.419035      -392.3619
  13   2.0000     -14.416409      -392.2904
  14   2.0000     -14.414656      -392.2427
  15   2.0000     -14.413229      -392.2039
  16   2.0000     -10.405110      -283.1374
  17   2.0000     -10.401180      -283.0305
  18   2.0000     -10.381953      -282.5073
  19   2.0000     -10.373174      -282.2684
  20   2.0000     -10.370895      -282.2064
  21   2.0000     -10.370723      -282.2017
  22   2.0000     -10.362955      -281.9904
  23   2.0000     -10.358574      -281.8711
  24   2.0000     -10.357177      -281.8331
  25   2.0000     -10.348006      -281.5836
  26   2.0000     -10.347637      -281.5735
  27   2.0000     -10.347052      -281.5576
  28   2.0000     -10.341491      -281.4063
  29   2.0000     -10.341196      -281.3982
  30   2.0000     -10.340891      -281.3900
  31   2.0000     -10.337842      -281.3070
  32   2.0000     -10.335444      -281.2417
  33   2.0000     -10.327010      -281.0122
  34   2.0000     -10.326027      -280.9855
  35   2.0000     -10.324340      -280.9396
  36   2.0000     -10.321674      -280.8670
  37   2.0000     -10.321085      -280.8510
  38   2.0000     -10.319123      -280.7976
  39   2.0000     -10.316437      -280.7245
  40   2.0000     -10.316145      -280.7166
  41   2.0000     -10.309764      -280.5429
  42   2.0000     -10.306601      -280.4569
  43   2.0000     -10.305825      -280.4358
  44   2.0000     -10.305377      -280.4236
  45   2.0000     -10.303445      -280.3710
  46   2.0000     -10.302298      -280.3398
  47   2.0000     -10.301822      -280.3268
  48   2.0000     -10.300770      -280.2982
  49   2.0000     -10.300635      -280.2945
  50   2.0000     -10.300601      -280.2936
  51   2.0000     -10.300402      -280.2882
  52   2.0000     -10.300363      -280.2871
  53   2.0000     -10.299334      -280.2591
  54   2.0000     -10.298131      -280.2264
  55   2.0000     -10.297373      -280.2058
  56   2.0000     -10.297103      -280.1984
  57   2.0000     -10.296254      -280.1753
  58   2.0000     -10.296098      -280.1711
  59   2.0000     -10.291749      -280.0527
  60   2.0000     -10.289437      -279.9898
  61   2.0000     -10.288832      -279.9733
  62   2.0000     -10.288604      -279.9671
  63   2.0000     -10.288128      -279.9542
  64   2.0000     -10.287979      -279.9501
  65   2.0000     -10.286568      -279.9118
  66   2.0000     -10.286424      -279.9078
  67   2.0000     -10.285807      -279.8911
  68   2.0000     -10.285697      -279.8881
  69   2.0000     -10.285552      -279.8841
  70   2.0000     -10.285038      -279.8701
  71   2.0000     -10.284719      -279.8614
  72   2.0000     -10.281594      -279.7764
  73   2.0000     -10.267951      -279.4052
  74   2.0000     -10.263542      -279.2852
  75   2.0000     -10.259970      -279.1880
  76   2.0000     -10.259021      -279.1621
  77   2.0000      -8.075818      -219.7542
  78   2.0000      -6.044855      -164.4889
  79   2.0000      -6.040801      -164.3786
  80   2.0000      -6.038192      -164.3075
  81   2.0000      -1.162588       -31.6356
  82   2.0000      -1.156958       -31.4824
  83   2.0000      -1.139630       -31.0109
  84   2.0000      -1.134738       -30.8778
  85   2.0000      -1.131727       -30.7959
  86   2.0000      -1.128056       -30.6960
  87   2.0000      -1.095515       -29.8105
  88   2.0000      -1.089069       -29.6351
  89   2.0000      -1.068491       -29.0751
  90   2.0000      -1.057170       -28.7671
  91   2.0000      -1.023410       -27.8484
  92   2.0000      -1.019804       -27.7503
  93   2.0000      -1.016822       -27.6691
  94   2.0000      -1.003217       -27.2989
  95   2.0000      -0.999036       -27.1852
  96   2.0000      -0.998783       -27.1783
  97   2.0000      -0.993818       -27.0432
  98   2.0000      -0.992576       -27.0094
  99   2.0000      -0.976612       -26.5750
 100   2.0000      -0.971347       -26.4317
 101   2.0000      -0.959831       -26.1183
 102   2.0000      -0.932362       -25.3709
 103   2.0000      -0.929015       -25.2798
 104   2.0000      -0.927030       -25.2258
 105   2.0000      -0.919697       -25.0262
 106   2.0000      -0.914733       -24.8911
 107   2.0000      -0.901785       -24.5388
 108   2.0000      -0.892594       -24.2887
 109   2.0000      -0.885611       -24.0987
 110   2.0000      -0.883988       -24.0545
 111   2.0000      -0.882932       -24.0258
 112   2.0000      -0.880097       -23.9487
 113   2.0000      -0.872986       -23.7552
 114   2.0000      -0.870472       -23.6868
 115   2.0000      -0.867057       -23.5938
 116   2.0000      -0.860286       -23.4096
 117   2.0000      -0.842111       -22.9150
 118   2.0000      -0.831483       -22.6258
 119   2.0000      -0.828007       -22.5312
 120   2.0000      -0.826084       -22.4789
 121   2.0000      -0.820329       -22.3223
 122   2.0000      -0.803041       -21.8519
 123   2.0000      -0.786220       -21.3941
 124   2.0000      -0.780217       -21.2308
 125   2.0000      -0.774533       -21.0761
 126   2.0000      -0.765682       -20.8353
 127   2.0000      -0.762670       -20.7533
 128   2.0000      -0.760624       -20.6976
 129   2.0000      -0.753709       -20.5095
 130   2.0000      -0.743111       -20.2211
 131   2.0000      -0.734381       -19.9835
 132   2.0000      -0.722929       -19.6719
 133   2.0000      -0.714289       -19.4368
 134   2.0000      -0.710243       -19.3267
 135   2.0000      -0.706896       -19.2356
 136   2.0000      -0.704317       -19.1654
 137   2.0000      -0.701852       -19.0984
 138   2.0000      -0.700527       -19.0623
 139   2.0000      -0.697236       -18.9728
 140   2.0000      -0.693088       -18.8599
 141   2.0000      -0.680912       -18.5286
 142   2.0000      -0.679250       -18.4833
 143   2.0000      -0.674852       -18.3636
 144   2.0000      -0.661572       -18.0023
 145   2.0000      -0.658575       -17.9207
 146   2.0000      -0.651192       -17.7198
 147   2.0000      -0.640429       -17.4270
 148   2.0000      -0.636577       -17.3221
 149   2.0000      -0.632226       -17.2037
 150   2.0000      -0.625274       -17.0146
 151   2.0000      -0.616745       -16.7825
 152   2.0000      -0.610171       -16.6036
 153   2.0000      -0.609410       -16.5829
 154   2.0000      -0.606317       -16.4987
 155   2.0000      -0.604468       -16.4484
 156   2.0000      -0.599656       -16.3175
 157   2.0000      -0.598398       -16.2832
 158   2.0000      -0.589796       -16.0492
 159   2.0000      -0.586369       -15.9559
 160   2.0000      -0.583685       -15.8829
 161   2.0000      -0.579527       -15.7697
 162   2.0000      -0.575884       -15.6706
 163   2.0000      -0.572726       -15.5847
 164   2.0000      -0.567321       -15.4376
 165   2.0000      -0.563666       -15.3381
 166   2.0000      -0.559554       -15.2262
 167   2.0000      -0.553033       -15.0488
 168   2.0000      -0.550809       -14.9883
 169   2.0000      -0.549682       -14.9576
 170   2.0000      -0.548570       -14.9273
 171   2.0000      -0.546172       -14.8621
 172   2.0000      -0.545542       -14.8449
 173   2.0000      -0.544940       -14.8286
 174   2.0000      -0.541563       -14.7367
 175   2.0000      -0.539062       -14.6686
 176   2.0000      -0.538304       -14.6480
 177   2.0000      -0.534191       -14.5361
 178   2.0000      -0.532532       -14.4909
 179   2.0000      -0.529872       -14.4186
 180   2.0000      -0.526360       -14.3230
 181   2.0000      -0.524757       -14.2794
 182   2.0000      -0.523043       -14.2327
 183   2.0000      -0.520378       -14.1602
 184   2.0000      -0.519905       -14.1473
 185   2.0000      -0.517616       -14.0850
 186   2.0000      -0.516130       -14.0446
 187   2.0000      -0.515395       -14.0246
 188   2.0000      -0.514421       -13.9981
 189   2.0000      -0.513276       -13.9669
 190   2.0000      -0.511622       -13.9220
 191   2.0000      -0.510482       -13.8909
 192   2.0000      -0.509465       -13.8632
 193   2.0000      -0.508404       -13.8344
 194   2.0000      -0.507668       -13.8144
 195   2.0000      -0.505608       -13.7583
 196   2.0000      -0.503531       -13.7018
 197   2.0000      -0.499352       -13.5881
 198   2.0000      -0.498080       -13.5534
 199   2.0000      -0.496213       -13.5026
 200   2.0000      -0.493324       -13.4240
 201   2.0000      -0.487356       -13.2616
 202   2.0000      -0.486804       -13.2466
 203   2.0000      -0.481949       -13.1145
 204   2.0000      -0.480815       -13.0836
 205   2.0000      -0.475786       -12.9468
 206   2.0000      -0.471825       -12.8390
 207   2.0000      -0.469572       -12.7777
 208   2.0000      -0.465820       -12.6756
 209   2.0000      -0.465021       -12.6539
 210   2.0000      -0.460088       -12.5196
 211   2.0000      -0.456740       -12.4285
 212   2.0000      -0.455562       -12.3965
 213   2.0000      -0.454316       -12.3626
 214   2.0000      -0.452895       -12.3239
 215   2.0000      -0.449876       -12.2418
 216   2.0000      -0.449100       -12.2206
 217   2.0000      -0.448136       -12.1944
 218   2.0000      -0.447858       -12.1868
 219   2.0000      -0.445670       -12.1273
 220   2.0000      -0.444224       -12.0879
 221   2.0000      -0.443105       -12.0575
 222   2.0000      -0.441295       -12.0082
 223   2.0000      -0.440422       -11.9845
 224   2.0000      -0.439767       -11.9667
 225   2.0000      -0.438892       -11.9429
 226   2.0000      -0.437970       -11.9178
 227   2.0000      -0.433783       -11.8038
 228   2.0000      -0.433306       -11.7908
 229   2.0000      -0.432829       -11.7779
 230   2.0000      -0.432133       -11.7589
 231   2.0000      -0.429397       -11.6845
 232   2.0000      -0.426487       -11.6053
 233   2.0000      -0.425899       -11.5893
 234   2.0000      -0.424988       -11.5645
 235   2.0000      -0.420978       -11.4554
 236   2.0000      -0.418527       -11.3887
 237   2.0000      -0.413210       -11.2440
 238   2.0000      -0.411354       -11.1935
 239   2.0000      -0.409468       -11.1422
 240   2.0000      -0.407702       -11.0941
 241   2.0000      -0.404423       -11.0049
 242   2.0000      -0.390561       -10.6277
 243   2.0000      -0.386956       -10.5296
 244   2.0000      -0.377132       -10.2623
 245   2.0000      -0.374836       -10.1998
 246   2.0000      -0.372010       -10.1229
 247   2.0000      -0.355712        -9.6794
 248   2.0000      -0.351745        -9.5715
 249   2.0000      -0.347808        -9.4644
 250   2.0000      -0.344711        -9.3801
 251   2.0000      -0.341322        -9.2878
 252   2.0000      -0.340006        -9.2520
 253   2.0000      -0.339684        -9.2433
 254   2.0000      -0.335836        -9.1386
 255   2.0000      -0.321531        -8.7493
 256   2.0000      -0.317682        -8.6446
 257   2.0000      -0.317405        -8.6370
 258   2.0000      -0.311922        -8.4878
 259   2.0000      -0.299132        -8.1398
 260   2.0000      -0.296776        -8.0757
 261   2.0000      -0.288126        -7.8403
 262   2.0000      -0.279120        -7.5952
 263   2.0000      -0.237228        -6.4553
 264   0.0000      -0.106835        -2.9071
 265   0.0000      -0.093210        -2.5364
 266   0.0000      -0.075503        -2.0545
 267   0.0000      -0.058919        -1.6033
 268   0.0000      -0.057779        -1.5722

MULLIKEN ATOMIC CHARGES
-----------------------
   0 C :    0.320689
   1 C :   -0.358235
   2 C :   -0.181859
   3 N :    0.144879
   4 C :   -0.188540
   5 N :    0.154337
   6 C :    0.046874
   7 C :   -0.001213
   8 C :   -0.081452
   9 C :    0.098245
  10 C :    0.095031
  11 C :   -0.081673
  12 C :   -0.018733
  13 C :    0.036205
  14 C :    0.036271
  15 C :   -0.016465
  16 C :    0.161244
  17 O :   -0.156557
  18 C :   -0.087302
  19 C :    0.060882
  20 C :   -0.110182
  21 S :    0.193513
  22 C :   -0.046052
  23 C :   -0.096664
  24 C :    0.031647
  25 C :   -0.154790
  26 N :    0.115025
  27 C :    0.045334
  28 C :   -0.021551
  29 C :    0.123669
  30 N :   -0.252562
  31 C :    0.094271
  32 C :    0.012021
  33 C :    0.165321
  34 O :   -0.247977
  35 C :   -0.072828
  36 C :   -0.056119
  37 C :    0.167929
  38 O :   -0.197082
  39 N :   -0.258004
  40 C :    0.099580
  41 C :    0.003487
  42 C :    0.140656
  43 C :   -0.041523
  44 C :    0.080204
  45 N :   -0.191814
  46 C :   -0.107739
  47 C :    0.155338
  48 C :   -0.023237
  49 C :   -0.015844
  50 C :    0.184830
  51 O :   -0.168566
  52 C :   -0.077030
  53 C :    0.114177
  54 N :   -0.214112
  55 C :    0.202207
  56 O :   -0.143530
  57 C :    0.047644
  58 C :   -0.078796
  59 C :    0.316244
  60 C :   -0.342883
  61 C :   -0.180791
  62 N :    0.151350
  63 C :   -0.197256
  64 N :    0.150358
  65 C :    0.046452
  66 C :   -0.001854
  67 C :    0.164834
  68 O :   -0.144928
  69 C :   -0.076400
  70 C :    0.096510
  71 C :    0.095785
  72 C :   -0.081549
  73 C :   -0.016979
  74 C :    0.035129
  75 C :    0.037166
  76 C :   -0.014627
  77 H :   -0.012638
  78 H :   -0.008080
  79 H :   -0.008564
  80 H :   -0.005015
  81 H :   -0.004245
  82 H :   -0.017084
  83 H :    0.005544
  84 H :    0.025680
  85 H :    0.004094
  86 H :   -0.013393
  87 H :    0.037793
  88 H :    0.037923
  89 H :    0.016994
  90 H :    0.028221
  91 H :    0.021993
  92 H :    0.031185
  93 H :    0.043362
  94 H :    0.021236
  95 H :    0.025752
  96 H :    0.026097
  97 H :    0.006174
  98 H :    0.023601
  99 H :    0.054590
 100 H :    0.058036
 101 H :    0.041831
 102 H :    0.047902
 103 H :    0.048841
 104 H :    0.061037
 105 H :    0.035279
 106 H :   -0.012426
 107 H :   -0.008308
 108 H :   -0.008469
 109 H :   -0.003570
 110 H :   -0.003930
 111 H :   -0.017482
Sum of atomic charges:   -0.0000000

LOEWDIN ATOMIC CHARGES
----------------------
   0 C :    0.077054
   1 C :   -0.141065
   2 C :   -0.016335
   3 N :   -0.054641
   4 C :   -0.025429
   5 N :   -0.049866
   6 C :   -0.026405
   7 C :   -0.055513
   8 C :    0.032396
   9 C :   -0.008251
  10 C :   -0.006149
  11 C :    0.019718
  12 C :   -0.005187
  13 C :   -0.013257
  14 C :   -0.012096
  15 C :   -0.009604
  16 C :    0.088957
  17 O :   -0.142638
  18 C :   -0.091316
  19 C :    0.046808
  20 C :   -0.182779
  21 S :    0.497002
  22 C :   -0.120959
  23 C :   -0.115059
  24 C :    0.022466
  25 C :   -0.022951
  26 N :   -0.061766
  27 C :   -0.022519
  28 C :   -0.011660
  29 C :    0.055221
  30 N :    0.005933
  31 C :    0.036779
  32 C :   -0.058767
  33 C :    0.074455
  34 O :   -0.232182
  35 C :   -0.140238
  36 C :   -0.103753
  37 C :    0.086031
  38 O :   -0.187321
  39 N :    0.002843
  40 C :    0.037841
  41 C :   -0.060060
  42 C :    0.097648
  43 C :   -0.086743
  44 C :    0.084457
  45 N :    0.022380
  46 C :    0.093633
  47 C :   -0.045070
  48 C :   -0.118942
  49 C :   -0.118591
  50 C :    0.104358
  51 O :   -0.161841
  52 C :    0.092177
  53 C :   -0.046923
  54 N :    0.020016
  55 C :    0.107733
  56 O :   -0.146531
  57 C :    0.101638
  58 C :   -0.094144
  59 C :    0.079939
  60 C :   -0.138595
  61 C :   -0.017879
  62 N :   -0.050087
  63 C :   -0.018732
  64 N :   -0.054683
  65 C :   -0.025939
  66 C :   -0.052232
  67 C :    0.088482
  68 O :   -0.140086
  69 C :    0.034171
  70 C :   -0.007082
  71 C :   -0.006250
  72 C :    0.021694
  73 C :   -0.004589
  74 C :   -0.012739
  75 C :   -0.010723
  76 C :   -0.009019
  77 H :    0.039005
  78 H :    0.039110
  79 H :    0.034951
  80 H :    0.033211
  81 H :    0.032959
  82 H :    0.032008
  83 H :    0.043451
  84 H :    0.042029
  85 H :    0.036474
  86 H :    0.036836
  87 H :    0.028302
  88 H :    0.036272
  89 H :    0.023251
  90 H :    0.033755
  91 H :    0.028723
  92 H :    0.027582
  93 H :    0.037696
  94 H :    0.024413
  95 H :    0.032244
  96 H :    0.030606
  97 H :    0.033746
  98 H :    0.036977
  99 H :    0.054258
 100 H :    0.054794
 101 H :    0.052598
 102 H :    0.053991
 103 H :    0.049924
 104 H :    0.053355
 105 H :    0.038028
 106 H :    0.039593
 107 H :    0.039184
 108 H :    0.034999
 109 H :    0.033672
 110 H :    0.033291
 111 H :    0.032071

  Mayer bond orders larger than 0.100000
B(  0-C ,  1-C ) :   1.6213 B(  0-C ,  6-C ) :   0.9845 B(  0-C , 18-C ) :   1.0761
B(  1-C ,  2-C ) :   1.1506 B(  1-C ,  4-C ) :   1.1376 B(  2-C ,  3-N ) :   2.9611
B(  4-C ,  5-N ) :   2.9692 B(  6-C ,  7-C ) :   1.2156 B(  6-C , 11-C ) :   1.4469
B(  7-C ,  8-C ) :   1.4688 B(  7-C , 16-C ) :   0.9564 B(  8-C ,  9-C ) :   1.1778
B(  8-C , 77-H ) :   1.0166 B(  9-C , 10-C ) :   1.2554 B(  9-C , 15-C ) :   1.2440
B( 10-C , 11-C ) :   1.2079 B( 10-C , 12-C ) :   1.2400 B( 11-C , 78-H ) :   0.9895
B( 12-C , 13-C ) :   1.4883 B( 12-C , 79-H ) :   0.9974 B( 13-C , 14-C ) :   1.2597
B( 13-C , 80-H ) :   0.9889 B( 14-C , 15-C ) :   1.4880 B( 14-C , 81-H ) :   0.9891
B( 15-C , 82-H ) :   0.9978 B( 16-C , 17-O ) :   2.1621 B( 16-C , 18-C ) :   0.9343
B( 18-C , 19-C ) :   1.6060 B( 19-C , 20-C ) :   1.2030 B( 19-C , 83-H ) :   0.9077
B( 20-C , 21-S ) :   1.1003 B( 20-C , 24-C ) :   1.4224 B( 21-S , 22-C ) :   1.1852
B( 22-C , 23-C ) :   1.3690 B( 22-C , 27-C ) :   1.1719 B( 23-C , 24-C ) :   1.3162
B( 23-C , 25-C ) :   1.1214 B( 24-C , 84-H ) :   0.9803 B( 25-C , 26-N ) :   2.9639
B( 27-C , 28-C ) :   1.5965 B( 27-C , 85-H ) :   0.9251 B( 28-C , 29-C ) :   1.1801
B( 28-C , 86-H ) :   0.9440 B( 29-C , 30-N ) :   1.1443 B( 29-C , 36-C ) :   1.3460
B( 30-N , 31-C ) :   0.9406 B( 30-N , 33-C ) :   1.0920 B( 31-C , 32-C ) :   1.1246
B( 31-C , 87-H ) :   0.9478 B( 31-C , 88-H ) :   0.9274 B( 32-C , 89-H ) :   0.9675
B( 32-C , 90-H ) :   0.9672 B( 32-C , 91-H ) :   0.9630 B( 33-C , 34-O ) :   1.9608
B( 33-C , 35-C ) :   1.0097 B( 34-O , 98-H ) :   0.1311 B( 35-C , 36-C ) :   1.2612
B( 35-C , 42-C ) :   1.2958 B( 36-C , 37-C ) :   0.9736 B( 37-C , 38-O ) :   2.0423
B( 37-C , 39-N ) :   1.0533 B( 38-O , 85-H ) :   0.1087 B( 39-N , 40-C ) :   0.9404
B( 39-N , 42-C ) :   1.1820 B( 40-C , 41-C ) :   1.1229 B( 40-C , 92-H ) :   0.9497
B( 40-C , 93-H ) :   0.9289 B( 41-C , 94-H ) :   0.9678 B( 41-C , 95-H ) :   0.9678
B( 41-C , 96-H ) :   0.9636 B( 42-C , 43-C ) :   1.1427 B( 43-C , 44-C ) :   1.6027
B( 43-C , 97-H ) :   0.9599 B( 44-C , 45-N ) :   1.0976 B( 44-C , 98-H ) :   0.9310
B( 45-N , 46-C ) :   1.1074 B( 45-N , 50-C ) :   0.9642 B( 46-C , 47-C ) :   1.1441
B( 46-C , 48-C ) :   1.5114 B( 47-C , 99-H ) :   0.9172 B( 47-C ,100-H ) :   0.9172
B( 47-C ,101-H ) :   0.9275 B( 48-C , 49-C ) :   1.1688 B( 48-C , 55-C ) :   0.9795
B( 49-C , 50-C ) :   0.9727 B( 49-C , 52-C ) :   1.5146 B( 50-C , 51-O ) :   2.1414
B( 52-C , 53-C ) :   1.1269 B( 52-C , 54-N ) :   1.1181 B( 53-C ,102-H ) :   0.9318
B( 53-C ,103-H ) :   0.9313 B( 53-C ,104-H ) :   0.9269 B( 54-N , 55-C ) :   0.9109
B( 54-N , 57-C ) :   1.1239 B( 55-C , 56-O ) :   2.2101 B( 57-C , 58-C ) :   1.6250
B( 57-C ,105-H ) :   0.9396 B( 58-C , 59-C ) :   1.0901 B( 58-C , 67-C ) :   0.9149
B( 59-C , 60-C ) :   1.6427 B( 59-C , 65-C ) :   1.0017 B( 60-C , 61-C ) :   1.1434
B( 60-C , 63-C ) :   1.1444 B( 61-C , 62-N ) :   2.9652 B( 63-C , 64-N ) :   2.9713
B( 65-C , 66-C ) :   1.2150 B( 65-C , 72-C ) :   1.4451 B( 66-C , 67-C ) :   0.9479
B( 66-C , 69-C ) :   1.4755 B( 67-C , 68-O ) :   2.2399 B( 69-C , 70-C ) :   1.1794
B( 69-C ,106-H ) :   1.0164 B( 70-C , 71-C ) :   1.2541 B( 70-C , 76-C ) :   1.2458
B( 71-C , 72-C ) :   1.2122 B( 71-C , 73-C ) :   1.2372 B( 72-C ,107-H ) :   0.9890
B( 73-C , 74-C ) :   1.4904 B( 73-C ,108-H ) :   0.9976 B( 74-C , 75-C ) :   1.2583
B( 74-C ,109-H ) :   0.9892 B( 75-C , 76-C ) :   1.4892 B( 75-C ,110-H ) :   0.9891
B( 76-C ,111-H ) :   0.9973

-----------------------------------------------------------------------------
         ABSORPTION SPECTRUM VIA TRANSITION ELECTRIC DIPOLE MOMENTS
-----------------------------------------------------------------------------
State   Energy  Wavelength   fosc         T2         TX        TY        TZ
        (cm-1)    (nm)                  (au**2)     (au)      (au)      (au)
-----------------------------------------------------------------------------
   0   13789.5    725.2   1.277963281  30.51020   3.58002  -4.19367  -0.32687
   1   20573.5    486.1   0.052186628   0.83508   0.42530  -0.53539  -0.60626
   2   21670.3    461.5   0.115759071   1.75860   0.28544   0.81045  -1.01009
   3   23329.1    428.6   0.249298307   3.51801  -0.77795   1.50332   0.80798
   4   24467.7    408.7   0.401462156   5.40166  -1.48894   1.28311   1.24030
   5   25141.5    397.7   0.068219814   0.89330  -0.40842   0.58342   0.62137
   6   26225.6    381.3   0.354501224   4.45009  -1.47851   1.43452   0.45415
   7   26391.1    378.9   0.032351085   0.40356  -0.04801  -0.34739  -0.52970
   8   26888.6    371.9   0.055852899   0.68384   0.55306  -0.45922  -0.40876
   9   27191.4    367.8   0.109755800   1.32884  -0.92051   0.03019  -0.69324
  10   27256.6    366.9   0.212256034   2.56368   0.93508  -1.18749  -0.52837
  11   28277.6    353.6   0.006682901   0.07780  -0.16095  -0.00952  -0.22762
  12   28441.7    351.6   0.028132136   0.32563   0.44171  -0.36042   0.02498
  13   28874.2    346.3   0.012749982   0.14537   0.32239  -0.19943   0.04076
  14   29061.4    344.1   0.073025063   0.82724  -0.59921   0.59758  -0.33329
  15   29236.4    342.0   0.060649181   0.68293   0.63714  -0.22634  -0.47513
  16   29597.9    337.9   0.001154174   0.01284  -0.05912  -0.09192   0.02990
  17   29959.1    333.8   0.045689717   0.50207  -0.64893   0.28341  -0.02530
  18   30576.9    327.0   0.096859003   1.04285  -0.82328   0.58788  -0.13949
  19   30972.4    322.9   0.072635917   0.77206   0.19323   0.37091   0.77276
  20   31394.2    318.5   0.121869097   1.27797   0.68071  -0.84277   0.32303
  21   32260.4    310.0   0.789247431   8.05413   0.82088  -2.11790  -1.70141
  22   33150.1    301.7   0.647875305   6.43402   1.56013  -1.30596   1.51476
  23   33233.4    300.9   0.012410225   0.12294   0.22909  -0.15532   0.21524
  24   33433.7    299.1   0.011416645   0.11242   0.07638  -0.25811  -0.19990
  25   34017.9    294.0   0.031411024   0.30398   0.46254   0.04091  -0.29727
  26   34285.3    291.7   0.538587491   5.17158  -1.37459  -0.48551  -1.74538
  27   34364.5    291.0   0.255721451   2.44981   1.04047   0.19633   1.15268
  28   34543.8    289.5   0.018048864   0.17201  -0.33058   0.06500  -0.24188
  29   34784.0    287.5   0.002109292   0.01996  -0.10496   0.09184  -0.02262
  30   35416.1    282.4   0.009112576   0.08471   0.23708  -0.06438  -0.15605
  31   35503.2    281.7   0.122039517   1.13164  -0.12718  -0.60620  -0.86486
  32   35606.2    280.9   0.103388332   0.95592  -0.06892   0.82468   0.52065
  33   36342.5    275.2   0.103877437   0.94098   0.49317  -0.37768   0.74506
  34   36573.6    273.4   0.020922931   0.18833   0.31698  -0.12020  -0.27094
  35   36609.9    273.2   0.037759704   0.33955   0.17518   0.34027   0.43941
  36   36911.3    270.9   0.120826103   1.07765  -0.61273   0.40106   0.73577
  37   37174.6    269.0   0.018973353   0.16802   0.22725  -0.25700   0.22435
  38   37890.7    263.9   0.105874513   0.91989  -0.62017   0.72976   0.05216
  39   38043.9    262.9   0.227325496   1.96715   0.37495  -0.13366  -1.34488
  40   38514.9    259.6   0.068338660   0.58413  -0.24041  -0.14736  -0.71037
  41   38759.0    258.0   0.061842969   0.52528   0.26054  -0.66829   0.10390
  42   39027.9    256.2   0.149124697   1.25791  -0.06231  -0.05774   1.11834
  43   39307.6    254.4   0.051666270   0.43272  -0.59450   0.13279   0.24830
  44   39401.3    253.8   0.103958205   0.86861   0.58086  -0.44469  -0.57746
  45   39456.3    253.4   0.014979670   0.12499  -0.16710   0.17796   0.25572
  46   39996.7    250.0   0.101997502   0.83954  -0.61620   0.60714   0.30202
  47   40050.3    249.7   0.186504417   1.53306  -0.78304   0.94678   0.15334
  48   40248.7    248.5   0.001508175   0.01234   0.08026   0.02991  -0.07070

FINAL SINGLE POINT ENERGY     -3683.601117047829

DIPOLE MOMENT
-------------
                                X             Y             Z
Electronic contribution:     -4.90331      -9.55101     -14.98017
Nuclear contribution   :      6.63623      10.69510      17.29853
                        -----------------------------------------
Total Dipole Moment    :      1.73293       1.14409       2.31835
                        -----------------------------------------
Magnitude (a.u.)       :      3.11235
Magnitude (Debye)      :      7.91097

Rotational constants in cm-1:     0.002345     0.000170     0.000163
Rotational constants in MHz :    70.311479     5.089822     4.891616

                             ****ORCA TERMINATED NORMALLY****
TOTAL RUN TIME: 0 days 0 hours 10 minutes 22 seconds 309 msec
