                         Program Version 4.2.0 -  RELEASE  -
|  1> # ORCA input file
|  2> # SCF done       -178.435081331711          0.000307572508
|  3> ! CAM-B3LYP def2-SVP def2/J RIJCOSX Grid4 TightSCF
|  4> %maxcore 5000
|  5> %tddft
|  6>     Mode sTDDFT
|  7>     Ethresh 5.0
|  8>     maxcore 5000
|  9> end
| 10>
| 11> %pal
| 12>   nprocs 6
| 13>   end
| 14> * xyz 0 1
| 15>    C        0.92516        -4.43425         3.47477
| 16>    C       -0.17735        -4.59875         4.25066
| 17>    C       -0.35971        -5.62324         5.30906
| 18>    O        0.41147        -6.50836         5.58313
| 19>    O       -1.54372        -5.45924         5.91264
| 20>    C       -1.86894        -6.40263         6.92061
| 21>    C       -1.30943        -3.79741         3.97849
| 22>    N       -2.20886        -3.12811         3.73723
| 23>    C        2.20540        -5.05692         3.60149
| 24>    C        2.87317        -5.38206         4.74833
| 25>    C        4.21115        -5.80274         4.40124
| 26>    C        5.17622        -6.23714         5.31891
| 27>    N        5.97970        -6.57664         6.06536
| 28>    C        4.37619        -5.69619         3.04414
| 29>    C        3.13815        -5.24506         2.47573
| 30>    C        2.84430        -5.14966         1.13569
| 31>    C        3.82066        -5.11574         0.01737
| 32>    C        3.11128        -5.26097        -1.14340
| 33>    C        1.71147        -5.35629        -0.81753
| 34>    C        1.54895        -5.24498         0.54451
| 35>    C        0.69424        -5.53489        -1.76477
| 36>    N       -0.12729        -5.68012        -2.55324
| 37>    C        5.20675        -4.83066         0.16557
| 38>    C        6.14722        -5.09323        -0.77451
| 39>    C        7.55162        -4.82626        -0.66366
| 40>    C        8.40697        -5.35330        -1.62047
| 41>    C        9.78841        -5.14035        -1.53321
| 42>    C       10.83913        -5.58232        -2.34208
| 43>    C       10.73578        -6.50073        -3.50658
| 44>    C       11.29287        -5.87210        -4.80454
| 45>    N       10.66430        -6.50258        -5.93817
| 46>    C       11.42012        -7.84517        -3.18669
| 47>    N       11.16436        -8.81097        -4.23830
| 48>    C       12.05008        -5.04468        -1.77301
| 49>    C       13.33550        -5.10288        -2.17524
| 50>    C       14.44038        -4.53196        -1.35635
| 51>    C       13.99499        -3.74855        -0.17069
| 52>    C       12.70125        -3.64544         0.19181
| 53>    C       11.69325        -4.28256        -0.56980
| 54>    C       10.31622        -4.34159        -0.43987
| 55>    C        9.42858        -3.80007         0.51439
| 56>    C        8.09601        -4.04128         0.40351
| 57>    C       15.24786        -5.74921        -0.93219
| 58>    C       16.15492        -6.32231        -1.72116
| 59>    C       16.90249        -7.51327        -1.38832
| 60>    C       17.43343        -7.85048        -0.18550
| 61>    C       18.22379        -9.05842        -0.35385
| 62>    C       18.88964        -9.71374         0.68817
| 63>    N       19.43437       -10.24097         1.55077
| 64>    C       18.19998        -9.42944        -1.67228
| 65>    C       17.34263        -8.51826        -2.37374
| 66>    C       16.86333        -8.63687        -3.65918
| 67>    C       17.40260        -9.43781        -4.77483
| 68>    C       16.49985        -9.36250        -5.80669
| 69>    C       15.39350        -8.53984        -5.39491
| 70>    C       15.63110        -8.07822        -4.12144
| 71>    C       14.26547        -8.23399        -6.16629
| 72>    N       13.33905        -7.94902        -6.78239
| 73>    C       18.69355       -10.03380        -4.80930
| 74>    C       19.11703       -10.89752        -5.76862
| 75>    C       20.42631       -11.43364        -5.76618
| 76>    C       20.93863       -12.30103        -6.68822
| 77>    C       20.20104       -12.82770        -7.85896
| 78>    O       19.06660       -12.55056        -8.16917
| 79>    O       20.96938       -13.67429        -8.55584
| 80>    C       20.38033       -14.25237        -9.70887
| 81>    C       22.26980       -12.74369        -6.54381
| 82>    N       23.35588       -13.08554        -6.40201
| 83>    H        0.83859        -3.71995         2.66150
| 84>    H       -2.85196        -6.12267         7.28916
| 85>    H       -1.13145        -6.36832         7.72558
| 86>    H       -1.88666        -7.41198         6.50395
| 87>    H        2.50817        -5.31250         5.75407
| 88>    H        5.23689        -6.02222         2.49215
| 89>    H        3.49280        -5.25079        -2.14667
| 90>    H        0.62056        -5.34454         1.07312
| 91>    H        5.49665        -4.37348         1.10019
| 92>    H        5.83940        -5.59787        -1.68107
| 93>    H        8.00173        -5.93638        -2.43493
| 94>    H        9.67863        -6.70617        -3.70027
| 95>    H       12.38953        -5.96740        -4.81328
| 96>    H       11.04460        -4.80498        -4.81706
| 97>    H       10.93469        -7.48195        -5.96690
| 98>    H       10.94381        -6.06323        -6.80648
| 99>    H       11.07307        -8.17934        -2.19215
|100>    H       12.50189        -7.70161        -3.12389
|101>    H       10.17679        -9.04102        -4.27431
|102>    H       11.68011        -9.66767        -4.07288
|103>    H       13.62644        -5.60476        -3.08578
|104>    H       15.08111        -3.90881        -1.99393
|105>    H       14.77642        -3.28092         0.40870
|106>    H       12.41643        -3.07428         1.06307
|107>    H        9.81557        -3.19891         1.32358
|108>    H        7.42185        -3.61602         1.12990
|109>    H       14.97636        -6.18367         0.01791
|110>    H       16.37440        -5.88851        -2.69014
|111>    H       17.34300        -7.31410         0.74013
|112>    H       18.63589       -10.32165        -2.07788
|113>    H       16.59367        -9.80008        -6.78218
|114>    H       14.95112        -7.50455        -3.52221
|115>    H       19.38443        -9.75184        -4.02512
|116>    H       18.45253       -11.20848        -6.55917
|117>    H       21.08485       -11.12750        -4.95916
|118>    H       21.14206       -14.89043       -10.14844
|119>    H       20.07758       -13.47323       -10.41194
|120>    H       19.50045       -14.83773        -9.43279
|121> *
|122>
|123>                          ****END OF INPUT****

CARTESIAN COORDINATES (ANGSTROEM)
---------------------------------
  C      0.925160   -4.434250    3.474770
  C     -0.177350   -4.598750    4.250660
  C     -0.359710   -5.623240    5.309060
  O      0.411470   -6.508360    5.583130
  O     -1.543720   -5.459240    5.912640
  C     -1.868940   -6.402630    6.920610
  C     -1.309430   -3.797410    3.978490
  N     -2.208860   -3.128110    3.737230
  C      2.205400   -5.056920    3.601490
  C      2.873170   -5.382060    4.748330
  C      4.211150   -5.802740    4.401240
  C      5.176220   -6.237140    5.318910
  N      5.979700   -6.576640    6.065360
  C      4.376190   -5.696190    3.044140
  C      3.138150   -5.245060    2.475730
  C      2.844300   -5.149660    1.135690
  C      3.820660   -5.115740    0.017370
  C      3.111280   -5.260970   -1.143400
  C      1.711470   -5.356290   -0.817530
  C      1.548950   -5.244980    0.544510
  C      0.694240   -5.534890   -1.764770
  N     -0.127290   -5.680120   -2.553240
  C      5.206750   -4.830660    0.165570
  C      6.147220   -5.093230   -0.774510
  C      7.551620   -4.826260   -0.663660
  C      8.406970   -5.353300   -1.620470
  C      9.788410   -5.140350   -1.533210
  C     10.839130   -5.582320   -2.342080
  C     10.735780   -6.500730   -3.506580
  C     11.292870   -5.872100   -4.804540
  N     10.664300   -6.502580   -5.938170
  C     11.420120   -7.845170   -3.186690
  N     11.164360   -8.810970   -4.238300
  C     12.050080   -5.044680   -1.773010
  C     13.335500   -5.102880   -2.175240
  C     14.440380   -4.531960   -1.356350
  C     13.994990   -3.748550   -0.170690
  C     12.701250   -3.645440    0.191810
  C     11.693250   -4.282560   -0.569800
  C     10.316220   -4.341590   -0.439870
  C      9.428580   -3.800070    0.514390
  C      8.096010   -4.041280    0.403510
  C     15.247860   -5.749210   -0.932190
  C     16.154920   -6.322310   -1.721160
  C     16.902490   -7.513270   -1.388320
  C     17.433430   -7.850480   -0.185500
  C     18.223790   -9.058420   -0.353850
  C     18.889640   -9.713740    0.688170
  N     19.434370  -10.240970    1.550770
  C     18.199980   -9.429440   -1.672280
  C     17.342630   -8.518260   -2.373740
  C     16.863330   -8.636870   -3.659180
  C     17.402600   -9.437810   -4.774830
  C     16.499850   -9.362500   -5.806690
  C     15.393500   -8.539840   -5.394910
  C     15.631100   -8.078220   -4.121440
  C     14.265470   -8.233990   -6.166290
  N     13.339050   -7.949020   -6.782390
  C     18.693550  -10.033800   -4.809300
  C     19.117030  -10.897520   -5.768620
  C     20.426310  -11.433640   -5.766180
  C     20.938630  -12.301030   -6.688220
  C     20.201040  -12.827700   -7.858960
  O     19.066600  -12.550560   -8.169170
  O     20.969380  -13.674290   -8.555840
  C     20.380330  -14.252370   -9.708870
  C     22.269800  -12.743690   -6.543810
  N     23.355880  -13.085540   -6.402010
  H      0.838590   -3.719950    2.661500
  H     -2.851960   -6.122670    7.289160
  H     -1.131450   -6.368320    7.725580
  H     -1.886660   -7.411980    6.503950
  H      2.508170   -5.312500    5.754070
  H      5.236890   -6.022220    2.492150
  H      3.492800   -5.250790   -2.146670
  H      0.620560   -5.344540    1.073120
  H      5.496650   -4.373480    1.100190
  H      5.839400   -5.597870   -1.681070
  H      8.001730   -5.936380   -2.434930
  H      9.678630   -6.706170   -3.700270
  H     12.389530   -5.967400   -4.813280
  H     11.044600   -4.804980   -4.817060
  H     10.934690   -7.481950   -5.966900
  H     10.943810   -6.063230   -6.806480
  H     11.073070   -8.179340   -2.192150
  H     12.501890   -7.701610   -3.123890
  H     10.176790   -9.041020   -4.274310
  H     11.680110   -9.667670   -4.072880
  H     13.626440   -5.604760   -3.085780
  H     15.081110   -3.908810   -1.993930
  H     14.776420   -3.280920    0.408700
  H     12.416430   -3.074280    1.063070
  H      9.815570   -3.198910    1.323580
  H      7.421850   -3.616020    1.129900
  H     14.976360   -6.183670    0.017910
  H     16.374400   -5.888510   -2.690140
  H     17.343000   -7.314100    0.740130
  H     18.635890  -10.321650   -2.077880
  H     16.593670   -9.800080   -6.782180
  H     14.951120   -7.504550   -3.522210
  H     19.384430   -9.751840   -4.025120
  H     18.452530  -11.208480   -6.559170
  H     21.084850  -11.127500   -4.959160
  H     21.142060  -14.890430  -10.148440
  H     20.077580  -13.473230  -10.411940
  H     19.500450  -14.837730   -9.432790

 Total Charge           Charge          ....    0
 Multiplicity           Mult            ....    1
 Number of Electrons    NEL             ....  462
 Basis Dimension        Dim             .... 1142

ORBITAL ENERGIES
----------------

  NO   OCC          E(Eh)            E(eV)
   0   2.0000     -19.273158      -524.4493
   1   2.0000     -19.270552      -524.3784
   2   2.0000     -19.221295      -523.0380
   3   2.0000     -19.216718      -522.9135
   4   2.0000     -14.430239      -392.6668
   5   2.0000     -14.429274      -392.6405
   6   2.0000     -14.416624      -392.2963
   7   2.0000     -14.415981      -392.2788
   8   2.0000     -14.403621      -391.9424
   9   2.0000     -14.400382      -391.8543
  10   2.0000     -14.392105      -391.6291
  11   2.0000     -14.351710      -390.5299
  12   2.0000     -10.420480      -283.5557
  13   2.0000     -10.417166      -283.4655
  14   2.0000     -10.347010      -281.5564
  15   2.0000     -10.344339      -281.4838
  16   2.0000     -10.343785      -281.4687
  17   2.0000     -10.343569      -281.4628
  18   2.0000     -10.331704      -281.1400
  19   2.0000     -10.330638      -281.1110
  20   2.0000     -10.330628      -281.1107
  21   2.0000     -10.330423      -281.1051
  22   2.0000     -10.329928      -281.0916
  23   2.0000     -10.329351      -281.0759
  24   2.0000     -10.328548      -281.0541
  25   2.0000     -10.327801      -281.0338
  26   2.0000     -10.327708      -281.0312
  27   2.0000     -10.327547      -281.0268
  28   2.0000     -10.326370      -280.9948
  29   2.0000     -10.325694      -280.9764
  30   2.0000     -10.320809      -280.8435
  31   2.0000     -10.320508      -280.8353
  32   2.0000     -10.320090      -280.8239
  33   2.0000     -10.318715      -280.7865
  34   2.0000     -10.317702      -280.7590
  35   2.0000     -10.317119      -280.7431
  36   2.0000     -10.316353      -280.7222
  37   2.0000     -10.314670      -280.6764
  38   2.0000     -10.313796      -280.6527
  39   2.0000     -10.313025      -280.6317
  40   2.0000     -10.312182      -280.6087
  41   2.0000     -10.311159      -280.5809
  42   2.0000     -10.310570      -280.5649
  43   2.0000     -10.310350      -280.5589
  44   2.0000     -10.305128      -280.4168
  45   2.0000     -10.304830      -280.4087
  46   2.0000     -10.304736      -280.4061
  47   2.0000     -10.303059      -280.3605
  48   2.0000     -10.301856      -280.3278
  49   2.0000     -10.301531      -280.3189
  50   2.0000     -10.298463      -280.2354
  51   2.0000     -10.293811      -280.1088
  52   2.0000     -10.292590      -280.0756
  53   2.0000     -10.292499      -280.0731
  54   2.0000     -10.288613      -279.9674
  55   2.0000     -10.288556      -279.9658
  56   2.0000     -10.286008      -279.8965
  57   2.0000     -10.283901      -279.8392
  58   2.0000     -10.282729      -279.8073
  59   2.0000     -10.280736      -279.7530
  60   2.0000     -10.279363      -279.7157
  61   2.0000     -10.276946      -279.6499
  62   2.0000     -10.275757      -279.6176
  63   2.0000     -10.274015      -279.5702
  64   2.0000     -10.273482      -279.5556
  65   2.0000     -10.272614      -279.5320
  66   2.0000     -10.272164      -279.5198
  67   2.0000     -10.268066      -279.4083
  68   2.0000      -1.207167       -32.8487
  69   2.0000      -1.204349       -32.7720
  70   2.0000      -1.112939       -30.2846
  71   2.0000      -1.110047       -30.2059
  72   2.0000      -1.035479       -28.1768
  73   2.0000      -1.021754       -27.8033
  74   2.0000      -1.020876       -27.7794
  75   2.0000      -1.007244       -27.4085
  76   2.0000      -1.007137       -27.4056
  77   2.0000      -0.998103       -27.1598
  78   2.0000      -0.994629       -27.0652
  79   2.0000      -0.994331       -27.0571
  80   2.0000      -0.991645       -26.9840
  81   2.0000      -0.988812       -26.9069
  82   2.0000      -0.983471       -26.7616
  83   2.0000      -0.976352       -26.5679
  84   2.0000      -0.960537       -26.1375
  85   2.0000      -0.948095       -25.7990
  86   2.0000      -0.938039       -25.5253
  87   2.0000      -0.932765       -25.3818
  88   2.0000      -0.930009       -25.3068
  89   2.0000      -0.910662       -24.7804
  90   2.0000      -0.907954       -24.7067
  91   2.0000      -0.897939       -24.4342
  92   2.0000      -0.893282       -24.3074
  93   2.0000      -0.886322       -24.1180
  94   2.0000      -0.876715       -23.8566
  95   2.0000      -0.861068       -23.4309
  96   2.0000      -0.856253       -23.2998
  97   2.0000      -0.850396       -23.1404
  98   2.0000      -0.843732       -22.9591
  99   2.0000      -0.836918       -22.7737
 100   2.0000      -0.824262       -22.4293
 101   2.0000      -0.822431       -22.3795
 102   2.0000      -0.820784       -22.3347
 103   2.0000      -0.817935       -22.2571
 104   2.0000      -0.806276       -21.9399
 105   2.0000      -0.795272       -21.6405
 106   2.0000      -0.770328       -20.9617
 107   2.0000      -0.763900       -20.7868
 108   2.0000      -0.759913       -20.6783
 109   2.0000      -0.753408       -20.5013
 110   2.0000      -0.744041       -20.2464
 111   2.0000      -0.730926       -19.8895
 112   2.0000      -0.727237       -19.7891
 113   2.0000      -0.724702       -19.7201
 114   2.0000      -0.714830       -19.4515
 115   2.0000      -0.706324       -19.2201
 116   2.0000      -0.691548       -18.8180
 117   2.0000      -0.688512       -18.7354
 118   2.0000      -0.684554       -18.6276
 119   2.0000      -0.682444       -18.5702
 120   2.0000      -0.675775       -18.3888
 121   2.0000      -0.667377       -18.1603
 122   2.0000      -0.658826       -17.9276
 123   2.0000      -0.657845       -17.9009
 124   2.0000      -0.653862       -17.7925
 125   2.0000      -0.650629       -17.7045
 126   2.0000      -0.643022       -17.4975
 127   2.0000      -0.640090       -17.4177
 128   2.0000      -0.637348       -17.3431
 129   2.0000      -0.633463       -17.2374
 130   2.0000      -0.630478       -17.1562
 131   2.0000      -0.621255       -16.9052
 132   2.0000      -0.616170       -16.7668
 133   2.0000      -0.606859       -16.5135
 134   2.0000      -0.601899       -16.3785
 135   2.0000      -0.590983       -16.0815
 136   2.0000      -0.588688       -16.0190
 137   2.0000      -0.584717       -15.9110
 138   2.0000      -0.584148       -15.8955
 139   2.0000      -0.582328       -15.8460
 140   2.0000      -0.581096       -15.8124
 141   2.0000      -0.571437       -15.5496
 142   2.0000      -0.570935       -15.5359
 143   2.0000      -0.566821       -15.4240
 144   2.0000      -0.563734       -15.3400
 145   2.0000      -0.556045       -15.1308
 146   2.0000      -0.554614       -15.0918
 147   2.0000      -0.552701       -15.0398
 148   2.0000      -0.546055       -14.8589
 149   2.0000      -0.542798       -14.7703
 150   2.0000      -0.540324       -14.7030
 151   2.0000      -0.533881       -14.5276
 152   2.0000      -0.532481       -14.4895
 153   2.0000      -0.530039       -14.4231
 154   2.0000      -0.528229       -14.3738
 155   2.0000      -0.524392       -14.2694
 156   2.0000      -0.523963       -14.2578
 157   2.0000      -0.521576       -14.1928
 158   2.0000      -0.521288       -14.1850
 159   2.0000      -0.519793       -14.1443
 160   2.0000      -0.517263       -14.0754
 161   2.0000      -0.516096       -14.0437
 162   2.0000      -0.512793       -13.9538
 163   2.0000      -0.511730       -13.9249
 164   2.0000      -0.507691       -13.8150
 165   2.0000      -0.506928       -13.7942
 166   2.0000      -0.505928       -13.7670
 167   2.0000      -0.504256       -13.7215
 168   2.0000      -0.503412       -13.6985
 169   2.0000      -0.500486       -13.6189
 170   2.0000      -0.496767       -13.5177
 171   2.0000      -0.495189       -13.4748
 172   2.0000      -0.493860       -13.4386
 173   2.0000      -0.491937       -13.3863
 174   2.0000      -0.489980       -13.3330
 175   2.0000      -0.483806       -13.1650
 176   2.0000      -0.480318       -13.0701
 177   2.0000      -0.476247       -12.9593
 178   2.0000      -0.471060       -12.8182
 179   2.0000      -0.470028       -12.7901
 180   2.0000      -0.467264       -12.7149
 181   2.0000      -0.463576       -12.6146
 182   2.0000      -0.462404       -12.5827
 183   2.0000      -0.456514       -12.4224
 184   2.0000      -0.454990       -12.3809
 185   2.0000      -0.454739       -12.3741
 186   2.0000      -0.451699       -12.2913
 187   2.0000      -0.450856       -12.2684
 188   2.0000      -0.447008       -12.1637
 189   2.0000      -0.446921       -12.1613
 190   2.0000      -0.446029       -12.1371
 191   2.0000      -0.444794       -12.1035
 192   2.0000      -0.443408       -12.0658
 193   2.0000      -0.443246       -12.0613
 194   2.0000      -0.441498       -12.0138
 195   2.0000      -0.441020       -12.0008
 196   2.0000      -0.434755       -11.8303
 197   2.0000      -0.433669       -11.8007
 198   2.0000      -0.430600       -11.7172
 199   2.0000      -0.429827       -11.6962
 200   2.0000      -0.426218       -11.5980
 201   2.0000      -0.422178       -11.4881
 202   2.0000      -0.418153       -11.3785
 203   2.0000      -0.417806       -11.3691
 204   2.0000      -0.415768       -11.3136
 205   2.0000      -0.415249       -11.2995
 206   2.0000      -0.414160       -11.2699
 207   2.0000      -0.412584       -11.2270
 208   2.0000      -0.411165       -11.1884
 209   2.0000      -0.405254       -11.0275
 210   2.0000      -0.397559       -10.8181
 211   2.0000      -0.391058       -10.6412
 212   2.0000      -0.388482       -10.5711
 213   2.0000      -0.386200       -10.5090
 214   2.0000      -0.382126       -10.3982
 215   2.0000      -0.374343       -10.1864
 216   2.0000      -0.373339       -10.1591
 217   2.0000      -0.366398        -9.9702
 218   2.0000      -0.361983        -9.8501
 219   2.0000      -0.361081        -9.8255
 220   2.0000      -0.346496        -9.4286
 221   2.0000      -0.342419        -9.3177
 222   2.0000      -0.334367        -9.0986
 223   2.0000      -0.324189        -8.8216
 224   2.0000      -0.311542        -8.4775
 225   2.0000      -0.309237        -8.4148
 226   2.0000      -0.301229        -8.1969
 227   2.0000      -0.293204        -7.9785
 228   2.0000      -0.282478        -7.6866
 229   2.0000      -0.275448        -7.4953
 230   2.0000      -0.229304        -6.2397
 231   0.0000      -0.147835        -4.0228
 232   0.0000      -0.134741        -3.6665
 233   0.0000      -0.081476        -2.2171
 234   0.0000      -0.076964        -2.0943
 235   0.0000      -0.053351        -1.4518

MULLIKEN ATOMIC CHARGES
-----------------------
   0 C :    0.002796
   1 C :   -0.190435
   2 C :    0.203629
   3 O :   -0.202643
   4 O :   -0.282752
   5 C :    0.188243
   6 C :   -0.115559
   7 N :    0.104218
   8 C :    0.062092
   9 C :    0.062423
  10 C :   -0.122570
  11 C :   -0.125498
  12 N :    0.142344
  13 C :   -0.023771
  14 C :    0.050807
  15 C :    0.057256
  16 C :    0.094858
  17 C :   -0.037526
  18 C :   -0.089005
  19 C :   -0.053524
  20 C :   -0.126798
  21 N :    0.149143
  22 C :   -0.026591
  23 C :    0.000610
  24 C :    0.121056
  25 C :   -0.101867
  26 C :    0.057643
  27 C :   -0.007581
  28 C :   -0.059843
  29 C :    0.145958
  30 N :   -0.218968
  31 C :    0.154106
  32 N :   -0.209337
  33 C :    0.094449
  34 C :   -0.110794
  35 C :    0.132216
  36 C :   -0.052356
  37 C :    0.026400
  38 C :    0.001861
  39 C :    0.037004
  40 C :    0.003077
  41 C :   -0.011698
  42 C :   -0.051919
  43 C :   -0.008175
  44 C :    0.077438
  45 C :   -0.015038
  46 C :   -0.096800
  47 C :   -0.131930
  48 N :    0.154492
  49 C :   -0.031281
  50 C :    0.050167
  51 C :    0.066927
  52 C :    0.083748
  53 C :   -0.006317
  54 C :   -0.093068
  55 C :   -0.045830
  56 C :   -0.110100
  57 N :    0.148339
  58 C :   -0.006170
  59 C :    0.002554
  60 C :    0.050023
  61 C :   -0.196028
  62 C :    0.225182
  63 O :   -0.212807
  64 O :   -0.284031
  65 C :    0.186546
  66 C :   -0.110156
  67 N :    0.103858
  68 H :    0.040878
  69 H :    0.044259
  70 H :    0.033499
  71 H :    0.037048
  72 H :    0.005963
  73 H :    0.017018
  74 H :   -0.007005
  75 H :    0.009538
  76 H :   -0.002442
  77 H :   -0.015321
  78 H :   -0.033159
  79 H :   -0.026615
  80 H :   -0.032688
  81 H :   -0.003408
  82 H :    0.097979
  83 H :    0.085469
  84 H :   -0.004483
  85 H :   -0.040402
  86 H :    0.103219
  87 H :    0.094615
  88 H :   -0.021483
  89 H :    0.032944
  90 H :   -0.007680
  91 H :   -0.031444
  92 H :   -0.035024
  93 H :   -0.028316
  94 H :    0.020791
  95 H :    0.015470
  96 H :   -0.001649
  97 H :    0.004860
  98 H :    0.011140
  99 H :   -0.001838
 100 H :    0.002294
 101 H :    0.032422
 102 H :    0.015268
 103 H :    0.045846
 104 H :    0.034613
 105 H :    0.035129
Sum of atomic charges:    0.0000000

LOEWDIN ATOMIC CHARGES
----------------------
   0 C :    0.068895
   1 C :   -0.119842
   2 C :    0.092605
   3 O :   -0.167840
   4 O :   -0.073725
   5 C :    0.084544
   6 C :   -0.038117
   7 N :   -0.055557
   8 C :   -0.057358
   9 C :    0.071030
  10 C :   -0.061971
  11 C :   -0.030974
  12 N :   -0.040325
  13 C :    0.018573
  14 C :    0.027653
  15 C :    0.049442
  16 C :   -0.016650
  17 C :   -0.011289
  18 C :   -0.031277
  19 C :   -0.026581
  20 C :   -0.028597
  21 N :   -0.032481
  22 C :   -0.043416
  23 C :    0.014269
  24 C :   -0.032273
  25 C :    0.004681
  26 C :   -0.024180
  27 C :   -0.015246
  28 C :   -0.040813
  29 C :    0.031328
  30 N :   -0.119171
  31 C :    0.025760
  32 N :   -0.098579
  33 C :   -0.017303
  34 C :    0.068916
  35 C :   -0.029553
  36 C :   -0.041078
  37 C :   -0.011413
  38 C :   -0.038090
  39 C :   -0.027821
  40 C :   -0.004068
  41 C :   -0.026031
  42 C :    0.020924
  43 C :   -0.040228
  44 C :   -0.024728
  45 C :    0.011392
  46 C :   -0.037467
  47 C :   -0.031872
  48 N :   -0.028082
  49 C :   -0.011170
  50 C :    0.048448
  51 C :    0.032410
  52 C :   -0.038696
  53 C :    0.034386
  54 C :   -0.052179
  55 C :    0.002694
  56 C :   -0.027656
  57 N :   -0.026967
  58 C :    0.012799
  59 C :   -0.019749
  60 C :    0.066179
  61 C :   -0.120615
  62 C :    0.097925
  63 O :   -0.177635
  64 O :   -0.073613
  65 C :    0.084144
  66 C :   -0.037132
  67 N :   -0.055122
  68 H :    0.052078
  69 H :    0.030733
  70 H :    0.024334
  71 H :    0.025848
  72 H :    0.037708
  73 H :    0.039605
  74 H :    0.031880
  75 H :    0.035486
  76 H :    0.026703
  77 H :    0.030822
  78 H :    0.027317
  79 H :    0.024652
  80 H :   -0.010593
  81 H :    0.016760
  82 H :    0.036670
  83 H :    0.050848
  84 H :    0.002911
  85 H :    0.006981
  86 H :    0.058247
  87 H :    0.055838
  88 H :    0.021776
  89 H :    0.054618
  90 H :    0.025618
  91 H :    0.031695
  92 H :    0.028733
  93 H :    0.025157
  94 H :    0.033253
  95 H :    0.031753
  96 H :    0.036172
  97 H :    0.035219
  98 H :    0.040307
  99 H :    0.030836
 100 H :    0.032426
 101 H :    0.035187
 102 H :    0.047118
 103 H :    0.031109
 104 H :    0.024752
 105 H :    0.024972

  Mayer bond orders larger than 0.100000
B(  0-C ,  1-C ) :   1.7713 B(  0-C ,  8-C ) :   1.0578 B(  0-C , 68-H ) :   0.9505
B(  1-C ,  2-C ) :   0.9312 B(  1-C ,  6-C ) :   1.0477 B(  2-C ,  3-O ) :   2.0829
B(  2-C ,  4-O ) :   1.2590 B(  4-O ,  5-C ) :   0.9155 B(  5-C , 69-H ) :   0.9812
B(  5-C , 70-H ) :   0.9757 B(  5-C , 71-H ) :   0.9764 B(  6-C ,  7-N ) :   3.0389
B(  8-C ,  9-C ) :   1.5834 B(  8-C , 14-C ) :   1.0708 B(  9-C , 10-C ) :   1.1096
B(  9-C , 72-H ) :   1.0101 B( 10-C , 11-C ) :   1.0589 B( 10-C , 13-C ) :   1.6138
B( 11-C , 12-N ) :   3.0396 B( 13-C , 14-C ) :   1.0884 B( 13-C , 73-H ) :   1.0132
B( 14-C , 15-C ) :   1.4682 B( 15-C , 16-C ) :   1.0261 B( 15-C , 19-C ) :   1.1034
B( 16-C , 17-C ) :   1.5954 B( 16-C , 22-C ) :   1.0927 B( 17-C , 18-C ) :   1.1082
B( 17-C , 74-H ) :   1.0165 B( 18-C , 19-C ) :   1.5992 B( 18-C , 20-C ) :   1.0592
B( 19-C , 75-H ) :   1.0151 B( 20-C , 21-N ) :   3.0374 B( 22-C , 23-C ) :   1.6496
B( 22-C , 76-H ) :   0.9556 B( 23-C , 24-C ) :   1.0980 B( 23-C , 77-H ) :   0.9896
B( 24-C , 25-C ) :   1.4698 B( 24-C , 41-C ) :   1.1194 B( 25-C , 26-C ) :   1.1419
B( 25-C , 78-H ) :   1.0047 B( 26-C , 27-C ) :   1.4717 B( 26-C , 39-C ) :   1.1147
B( 27-C , 28-C ) :   1.0352 B( 27-C , 33-C ) :   1.0850 B( 28-C , 29-C ) :   1.0153
B( 28-C , 31-C ) :   1.0431 B( 28-C , 79-H ) :   0.8747 B( 29-C , 30-N ) :   1.1316
B( 29-C , 80-H ) :   0.9144 B( 29-C , 81-H ) :   0.9476 B( 30-N , 82-H ) :   0.9471
B( 30-N , 83-H ) :   0.9669 B( 31-C , 32-N ) :   1.0950 B( 31-C , 84-H ) :   0.9418
B( 31-C , 85-H ) :   0.9272 B( 32-N , 86-H ) :   0.9623 B( 32-N , 87-H ) :   0.9658
B( 33-C , 34-C ) :   1.6679 B( 33-C , 38-C ) :   1.0501 B( 34-C , 35-C ) :   0.9804
B( 34-C , 88-H ) :   0.9576 B( 35-C , 36-C ) :   0.9800 B( 35-C , 42-C ) :   0.9493
B( 35-C , 89-H ) :   0.8803 B( 36-C , 37-C ) :   1.7199 B( 36-C , 90-H ) :   0.9783
B( 37-C , 38-C ) :   1.1330 B( 37-C , 91-H ) :   0.9903 B( 38-C , 39-C ) :   1.4401
B( 39-C , 40-C ) :   1.1410 B( 40-C , 41-C ) :   1.6226 B( 40-C , 92-H ) :   0.9895
B( 41-C , 93-H ) :   0.9814 B( 42-C , 43-C ) :   1.8320 B( 42-C , 94-H ) :   0.9793
B( 43-C , 44-C ) :   1.0182 B( 43-C , 95-H ) :   0.9469 B( 44-C , 45-C ) :   1.6606
B( 44-C , 50-C ) :   1.0580 B( 45-C , 46-C ) :   1.0682 B( 45-C , 96-H ) :   1.0203
B( 46-C , 47-C ) :   1.0648 B( 46-C , 49-C ) :   1.6503 B( 47-C , 48-N ) :   3.0358
B( 49-C , 50-C ) :   1.0761 B( 49-C , 97-H ) :   1.0138 B( 50-C , 51-C ) :   1.4714
B( 51-C , 52-C ) :   1.0418 B( 51-C , 55-C ) :   1.1015 B( 52-C , 53-C ) :   1.5808
B( 52-C , 58-C ) :   1.0733 B( 53-C , 54-C ) :   1.1055 B( 53-C , 98-H ) :   1.0139
B( 54-C , 55-C ) :   1.6083 B( 54-C , 56-C ) :   1.0622 B( 55-C , 99-H ) :   1.0107
B( 56-C , 57-N ) :   2.9696 B( 58-C , 59-C ) :   1.6297 B( 58-C ,100-H ) :   0.9726
B( 59-C , 60-C ) :   1.1390 B( 59-C ,101-H ) :   0.9694 B( 60-C , 61-C ) :   1.6872
B( 60-C ,102-H ) :   0.9788 B( 61-C , 62-C ) :   0.9520 B( 61-C , 66-C ) :   1.0572
B( 62-C , 63-O ) :   2.0433 B( 62-C , 64-O ) :   1.2604 B( 64-O , 65-C ) :   0.9157
B( 65-C ,103-H ) :   0.9812 B( 65-C ,104-H ) :   0.9759 B( 65-C ,105-H ) :   0.9762
B( 66-C , 67-N ) :   3.0327

-----------------------------------------------------------------------------
         ABSORPTION SPECTRUM VIA TRANSITION ELECTRIC DIPOLE MOMENTS
-----------------------------------------------------------------------------
State   Energy  Wavelength   fosc         T2         TX        TY        TZ
        (cm-1)    (nm)                  (au**2)     (au)      (au)      (au)
-----------------------------------------------------------------------------
   0    4782.0   2091.2   0.024654528   1.69731  -1.08773   0.53723   0.47491
   1    6847.6   1460.4   0.126459911   6.07983  -2.15704  -0.05793   1.19317
   2   12438.4    804.0   0.011212218   0.29676  -0.44544  -0.22476   0.21869
   3   12877.5    776.5   0.086219127   2.20418  -0.81441   0.80889   0.94160
   4   14238.4    702.3   0.034339714   0.79398  -0.23049  -0.45326  -0.73172
   5   14431.4    692.9   0.005407198   0.12335   0.15268  -0.24061  -0.20530
   6   14747.0    678.1   0.015846319   0.35375   0.00422  -0.33100  -0.49414
   7   16255.8    615.2   0.022279011   0.45119   0.52055  -0.10900  -0.41030
   8   17709.7    564.7   0.005613106   0.10434   0.31993   0.03135   0.03168
   9   19423.2    514.8   0.004325891   0.07332   0.25071  -0.04426   0.09223
  10   21158.1    472.6   0.010689628   0.16633  -0.29919   0.05948   0.27069
  11   23387.5    427.6   0.003332296   0.04691  -0.18454  -0.01794  -0.11194
  12   24643.5    405.8   0.330011734   4.40861  -2.06260   0.14413   0.36543
  13   25346.0    394.5   0.118716612   1.54198   0.65086  -0.19469  -1.03945
  14   26019.9    384.3   0.014368795   0.18180  -0.06558   0.10438   0.40817
  15   26172.1    382.1   0.024815240   0.31214  -0.26838   0.30461   0.38384
  16   26353.9    379.4   0.541968833   6.77024   0.43477  -0.53979  -2.50796
  17   26550.5    376.6   0.242897050   3.01179   1.47848   0.20711  -0.88487
  18   26934.7    371.3   0.002339655   0.02860  -0.03823   0.03396  -0.16119
  19   27180.9    367.9   0.014612659   0.17699  -0.03042  -0.04604  -0.41706
  20   27412.3    364.8   0.391258450   4.69888  -0.38873  -0.04264   2.13212
  21   27904.9    358.4   0.003381325   0.03989   0.01440  -0.10598   0.16868
  22   28219.2    354.4   0.415229716   4.84416   0.92880  -0.96537  -1.74630
  23   29269.0    341.7   0.021724958   0.24436  -0.31174  -0.07478   0.37628
  24   29674.9    337.0   0.009882867   0.10964   0.30107  -0.13021  -0.04521
  25   30004.2    333.3   0.240073719   2.63413   1.50206  -0.60475   0.11055
  26   30958.4    323.0   0.913006084   9.70892   3.02866   0.09235   0.72638
  27   30987.6    322.7   0.013942180   0.14812   0.37115  -0.01983   0.09988
  28   31047.6    322.1   0.238954565   2.53374  -1.12380   1.10987   0.19752
  29   31391.8    318.6   0.073645026   0.77233  -0.53092   0.67782  -0.17611
  30   31542.4    317.0   0.026669177   0.27835  -0.42116  -0.01464  -0.31743
  31   32019.9    312.3   0.013770275   0.14158   0.36552  -0.03249   0.08316
  32   32258.1    310.0   0.476866013   4.86668   1.86149  -0.74926   0.91660
  33   32423.1    308.4   0.046163402   0.46873   0.44808  -0.23416  -0.46165
  34   33011.3    302.9   0.095412139   0.95152   0.90047  -0.32858   0.18083
  35   33036.1    302.7   0.152086017   1.51557  -1.15609   0.31247  -0.28529
  36   33393.2    299.5   0.000722382   0.00712  -0.06652   0.05086   0.01053
  37   33505.3    298.5   0.037999329   0.37337   0.52851  -0.21340   0.22024
  38   34620.6    288.8   0.108633448   1.03301  -0.95314   0.34978  -0.04677
  39   34663.6    288.5   0.472473232   4.48724   2.02954  -0.28029   0.53818
  40   34744.8    287.8   0.017199188   0.16296  -0.21324  -0.24920  -0.23536
  41   35548.6    281.3   0.004237687   0.03924  -0.08199   0.11968   0.13491
  42   36092.1    277.1   0.018502628   0.16877  -0.32665   0.24897  -0.00903
  43   36166.6    276.5   0.115794404   1.05404   0.96012  -0.20633   0.29938
  44   36563.8    273.5   0.045201551   0.40698  -0.44405  -0.13281  -0.43837
  45   36715.5    272.4   0.022622238   0.20284  -0.35789   0.10998  -0.25032
  46   37286.3    268.2   0.035111360   0.31001  -0.55448  -0.03221   0.03907
  47   37734.5    265.0   0.088770591   0.77447  -0.67005   0.27450   0.50016
  48   38298.5    261.1   0.018439918   0.15851   0.36126  -0.08300  -0.14530
  49   38381.3    260.5   0.002370669   0.02033   0.03393   0.09016   0.10514
  50   38435.3    260.2   0.001705635   0.01461  -0.02839   0.00840   0.11719
  51   38689.4    258.5   0.009082962   0.07729   0.17360   0.02575   0.21561
  52   38761.5    258.0   0.014805042   0.12574   0.23907  -0.19526  -0.17454
  53   38796.4    257.8   0.001818646   0.01543   0.07663  -0.07718   0.06002
  54   39923.4    250.5   0.333343441   2.74878   1.65318   0.11479   0.05101
  55   40115.0    249.3   0.005808634   0.04767   0.10515  -0.00028  -0.19135
  56   40161.4    249.0   0.018064983   0.14808   0.06419  -0.05292   0.37571

FINAL SINGLE POINT ENERGY     -2891.727563129622

DIPOLE MOMENT
-------------
                                X             Y             Z
Electronic contribution:    -14.02267       1.60822      22.42141
Nuclear contribution   :     16.28101      -1.26510     -23.00179
                        -----------------------------------------
Total Dipole Moment    :      2.25834       0.34313      -0.58038
                        -----------------------------------------
Magnitude (a.u.)       :      2.35684
Magnitude (Debye)      :      5.99061

Rotational constants in cm-1:     0.002116     0.000258     0.000248
Rotational constants in MHz :    63.437247     7.732531     7.429238

                             ****ORCA TERMINATED NORMALLY****
TOTAL RUN TIME: 0 days 0 hours 11 minutes 43 seconds 388 msec
