                         Program Version 4.2.0 -  RELEASE  -
|  1> # ORCA input file
|  2> # SCF done       -190.981176486797          0.000920856144
|  3> ! CAM-B3LYP def2-SVP def2/J RIJCOSX Grid4 TightSCF
|  4> %maxcore 5000
|  5> %tddft
|  6>     Mode sTDDFT
|  7>     Ethresh 5.0
|  8>     maxcore 5000
|  9> end
| 10>
| 11> %pal
| 12>   nprocs 6
| 13>   end
| 14> * xyz 0 1
| 15>    C       -8.63915        -1.67560        -1.80395
| 16>    C       -8.78360        -2.37261        -0.63981
| 17>    C       -9.04776        -3.75978        -0.58892
| 18>    N       -9.28548        -4.87791        -0.48946
| 19>    C       -8.76000        -1.81927         0.66079
| 20>    N       -8.77767        -1.45039         1.74664
| 21>    C       -8.68755        -2.23826        -3.14697
| 22>    C       -8.69395        -1.18239        -4.09408
| 23>    C       -8.74204        -1.40232        -5.45061
| 24>    C       -8.78296        -2.72568        -5.89476
| 25>    C       -8.75118        -3.77579        -4.94497
| 26>    C       -8.71135        -3.55373        -3.57418
| 27>    S       -8.80799        -5.32805        -5.71928
| 28>    C       -8.91104        -4.57315        -7.27337
| 29>    C       -8.88129        -3.22317        -7.22556
| 30>    C       -8.66895         0.10709        -3.38989
| 31>    O       -8.82722         1.20921        -3.86206
| 32>    C       -8.48219        -0.23067        -1.94360
| 33>    C       -8.26045         0.68090        -0.97326
| 34>    C       -8.08796         2.09497        -1.18102
| 35>    N       -8.73640         2.95782        -0.43040
| 36>    C       -8.41312         4.18417        -0.90971
| 37>    C       -7.47624         4.08099        -2.03925
| 38>    C       -7.13081         5.41515        -2.54055
| 39>    O       -6.40465         5.71901        -3.46651
| 40>    C       -7.88908         6.30673        -1.63968
| 41>    C       -8.66480         5.50786        -0.66528
| 42>    N       -9.35052         6.32167         0.17937
| 43>    C       -9.04772         7.53682        -0.19447
| 44>    C       -8.13020         7.60170        -1.31983
| 45>    C       -7.22219         2.74316        -2.20216
| 46>    C       -6.34660         2.04708        -3.08236
| 47>    C       -5.82189         2.65383        -4.16949
| 48>    C       -4.98580         2.13853        -5.20962
| 49>    C       -4.35815         2.96645        -6.12360
| 50>    C       -4.31844         4.44265        -6.25914
| 51>    N       -3.65453         2.17584        -6.99242
| 52>    C       -3.81178         0.86740        -6.71250
| 53>    C       -3.09518        -0.17502        -7.47516
| 54>    C       -4.65638         0.77459        -5.59394
| 55>    C       -5.10631        -0.38482        -4.94303
| 56>    C       -5.02397        -1.70605        -5.30501
| 57>    C       -5.40114        -2.66629        -4.34998
| 58>    N       -5.72680        -2.29922        -3.09689
| 59>    C       -5.80928        -3.41965        -2.38262
| 60>    C       -5.52728        -4.60287        -3.20554
| 61>    C       -5.60009        -5.83864        -2.39528
| 62>    O       -5.44014        -6.97914        -2.76866
| 63>    C       -5.90425        -5.31668        -1.05595
| 64>    C       -6.03355        -3.85106        -1.08972
| 65>    N       -6.32969        -3.36633         0.13493
| 66>    C       -6.38794        -4.42756         0.92057
| 67>    C       -6.13577        -5.66796         0.24274
| 68>    C       -5.31129        -4.14172        -4.47669
| 69>    C       -5.08791        -4.95825        -5.62362
| 70>    C       -5.51766        -4.70130        -6.88371
| 71>    C       -5.34642        -5.67395        -7.89983
| 72>    C       -5.90642        -5.77902        -9.13672
| 73>    C       -6.79610        -4.94500        -9.91506
| 74>    C       -6.88194        -3.57577        -9.90910
| 75>    C       -7.77528        -2.82993       -10.70633
| 76>    N       -8.49566        -2.15913       -11.29713
| 77>    C       -6.03596        -2.72183        -9.18592
| 78>    N       -5.35262        -1.95335        -8.67329
| 79>    C       -7.47874        -5.81076       -10.87055
| 80>    C       -6.85966        -7.08744       -10.85627
| 81>    C       -5.80580        -7.10003        -9.82774
| 82>    O       -5.03682        -7.99256        -9.55852
| 83>    C       -7.25194        -8.10721       -11.68875
| 84>    C       -8.31016        -7.86132       -12.56932
| 85>    C       -8.93463        -6.58993       -12.56287
| 86>    C       -8.53457        -5.55580       -11.72519
| 87>    S      -10.22266        -6.51625       -13.72299
| 88>    C       -9.91704        -8.14915       -14.20162
| 89>    C       -8.90167        -8.73177       -13.52677
| 90>    H       -8.75322        -0.57676        -6.14522
| 91>    H       -8.70082        -4.38790        -2.89227
| 92>    H       -8.99731        -5.20145        -8.13928
| 93>    H       -8.94909        -2.58161        -8.08643
| 94>    H       -8.25277         0.37657         0.06623
| 95>    H       -9.47053         8.38482         0.31585
| 96>    H       -7.75807         8.50180        -1.76809
| 97>    H       -6.15389         1.01746        -2.82410
| 98>    H       -6.06800         3.70008        -4.29151
| 99>    H       -4.87537         4.92652        -5.46323
|100>    H       -4.74594         4.74703        -7.21522
|101>    H       -3.28888         4.79974        -6.22280
|102>    H       -3.08615         2.53356        -7.74575
|103>    H       -2.35248         0.27524        -8.13070
|104>    H       -3.79376        -0.75006        -8.08271
|105>    H       -2.59795        -0.86619        -6.79665
|106>    H       -5.58413        -0.23664        -3.98857
|107>    H       -4.65864        -2.03249        -6.26412
|108>    H       -6.61969        -4.30825         1.96420
|109>    H       -6.14222        -6.63962         0.69415
|110>    H       -4.62630        -5.91647        -5.41410
|111>    H       -6.06531        -3.79452        -7.08798
|112>    H       -4.75187        -6.53957        -7.61966
|113>    H       -6.75608        -9.06485       -11.66165
|114>    H       -9.04630        -4.60796       -11.75218
|115>    H      -10.52733        -8.57975       -14.97155
|116>    H       -8.57130        -9.74148       -13.68989
|117> *
|118>
|119>                          ****END OF INPUT****

CARTESIAN COORDINATES (ANGSTROEM)
---------------------------------
  C     -8.639150   -1.675600   -1.803950
  C     -8.783600   -2.372610   -0.639810
  C     -9.047760   -3.759780   -0.588920
  N     -9.285480   -4.877910   -0.489460
  C     -8.760000   -1.819270    0.660790
  N     -8.777670   -1.450390    1.746640
  C     -8.687550   -2.238260   -3.146970
  C     -8.693950   -1.182390   -4.094080
  C     -8.742040   -1.402320   -5.450610
  C     -8.782960   -2.725680   -5.894760
  C     -8.751180   -3.775790   -4.944970
  C     -8.711350   -3.553730   -3.574180
  S     -8.807990   -5.328050   -5.719280
  C     -8.911040   -4.573150   -7.273370
  C     -8.881290   -3.223170   -7.225560
  C     -8.668950    0.107090   -3.389890
  O     -8.827220    1.209210   -3.862060
  C     -8.482190   -0.230670   -1.943600
  C     -8.260450    0.680900   -0.973260
  C     -8.087960    2.094970   -1.181020
  N     -8.736400    2.957820   -0.430400
  C     -8.413120    4.184170   -0.909710
  C     -7.476240    4.080990   -2.039250
  C     -7.130810    5.415150   -2.540550
  O     -6.404650    5.719010   -3.466510
  C     -7.889080    6.306730   -1.639680
  C     -8.664800    5.507860   -0.665280
  N     -9.350520    6.321670    0.179370
  C     -9.047720    7.536820   -0.194470
  C     -8.130200    7.601700   -1.319830
  C     -7.222190    2.743160   -2.202160
  C     -6.346600    2.047080   -3.082360
  C     -5.821890    2.653830   -4.169490
  C     -4.985800    2.138530   -5.209620
  C     -4.358150    2.966450   -6.123600
  C     -4.318440    4.442650   -6.259140
  N     -3.654530    2.175840   -6.992420
  C     -3.811780    0.867400   -6.712500
  C     -3.095180   -0.175020   -7.475160
  C     -4.656380    0.774590   -5.593940
  C     -5.106310   -0.384820   -4.943030
  C     -5.023970   -1.706050   -5.305010
  C     -5.401140   -2.666290   -4.349980
  N     -5.726800   -2.299220   -3.096890
  C     -5.809280   -3.419650   -2.382620
  C     -5.527280   -4.602870   -3.205540
  C     -5.600090   -5.838640   -2.395280
  O     -5.440140   -6.979140   -2.768660
  C     -5.904250   -5.316680   -1.055950
  C     -6.033550   -3.851060   -1.089720
  N     -6.329690   -3.366330    0.134930
  C     -6.387940   -4.427560    0.920570
  C     -6.135770   -5.667960    0.242740
  C     -5.311290   -4.141720   -4.476690
  C     -5.087910   -4.958250   -5.623620
  C     -5.517660   -4.701300   -6.883710
  C     -5.346420   -5.673950   -7.899830
  C     -5.906420   -5.779020   -9.136720
  C     -6.796100   -4.945000   -9.915060
  C     -6.881940   -3.575770   -9.909100
  C     -7.775280   -2.829930  -10.706330
  N     -8.495660   -2.159130  -11.297130
  C     -6.035960   -2.721830   -9.185920
  N     -5.352620   -1.953350   -8.673290
  C     -7.478740   -5.810760  -10.870550
  C     -6.859660   -7.087440  -10.856270
  C     -5.805800   -7.100030   -9.827740
  O     -5.036820   -7.992560   -9.558520
  C     -7.251940   -8.107210  -11.688750
  C     -8.310160   -7.861320  -12.569320
  C     -8.934630   -6.589930  -12.562870
  C     -8.534570   -5.555800  -11.725190
  S    -10.222660   -6.516250  -13.722990
  C     -9.917040   -8.149150  -14.201620
  C     -8.901670   -8.731770  -13.526770
  H     -8.753220   -0.576760   -6.145220
  H     -8.700820   -4.387900   -2.892270
  H     -8.997310   -5.201450   -8.139280
  H     -8.949090   -2.581610   -8.086430
  H     -8.252770    0.376570    0.066230
  H     -9.470530    8.384820    0.315850
  H     -7.758070    8.501800   -1.768090
  H     -6.153890    1.017460   -2.824100
  H     -6.068000    3.700080   -4.291510
  H     -4.875370    4.926520   -5.463230
  H     -4.745940    4.747030   -7.215220
  H     -3.288880    4.799740   -6.222800
  H     -3.086150    2.533560   -7.745750
  H     -2.352480    0.275240   -8.130700
  H     -3.793760   -0.750060   -8.082710
  H     -2.597950   -0.866190   -6.796650
  H     -5.584130   -0.236640   -3.988570
  H     -4.658640   -2.032490   -6.264120
  H     -6.619690   -4.308250    1.964200
  H     -6.142220   -6.639620    0.694150
  H     -4.626300   -5.916470   -5.414100
  H     -6.065310   -3.794520   -7.087980
  H     -4.751870   -6.539570   -7.619660
  H     -6.756080   -9.064850  -11.661650
  H     -9.046300   -4.607960  -11.752180
  H    -10.527330   -8.579750  -14.971550
  H     -8.571300   -9.741480  -13.689890

 Total Charge           Charge          ....    0
 Multiplicity           Mult            ....    1
 Number of Electrons    NEL             ....  514
 Basis Dimension        Dim             .... 1193

ORBITAL ENERGIES
----------------

  NO   OCC          E(Eh)            E(eV)
   0   2.0000     -88.976873     -2421.1838
   1   2.0000     -88.970207     -2421.0024
   2   2.0000     -19.223127      -523.0879
   3   2.0000     -19.221436      -523.0419
   4   2.0000     -19.206256      -522.6288
   5   2.0000     -19.206044      -522.6230
   6   2.0000     -14.482261      -394.0823
   7   2.0000     -14.437479      -392.8638
   8   2.0000     -14.431573      -392.7031
   9   2.0000     -14.416190      -392.2845
  10   2.0000     -14.410261      -392.1231
  11   2.0000     -14.408447      -392.0738
  12   2.0000     -14.400476      -391.8569
  13   2.0000     -14.398938      -391.8150
  14   2.0000     -14.397062      -391.7640
  15   2.0000     -10.373471      -282.2765
  16   2.0000     -10.369384      -282.1653
  17   2.0000     -10.367496      -282.1139
  18   2.0000     -10.365073      -282.0480
  19   2.0000     -10.358072      -281.8575
  20   2.0000     -10.356156      -281.8053
  21   2.0000     -10.346138      -281.5327
  22   2.0000     -10.343641      -281.4648
  23   2.0000     -10.341644      -281.4104
  24   2.0000     -10.339998      -281.3656
  25   2.0000     -10.335727      -281.2494
  26   2.0000     -10.334111      -281.2055
  27   2.0000     -10.331563      -281.1361
  28   2.0000     -10.331295      -281.1288
  29   2.0000     -10.328961      -281.0653
  30   2.0000     -10.324808      -280.9523
  31   2.0000     -10.324478      -280.9433
  32   2.0000     -10.323795      -280.9247
  33   2.0000     -10.323446      -280.9152
  34   2.0000     -10.319123      -280.7976
  35   2.0000     -10.318115      -280.7702
  36   2.0000     -10.317990      -280.7668
  37   2.0000     -10.317538      -280.7545
  38   2.0000     -10.316436      -280.7245
  39   2.0000     -10.315995      -280.7125
  40   2.0000     -10.314926      -280.6834
  41   2.0000     -10.313947      -280.6568
  42   2.0000     -10.312502      -280.6175
  43   2.0000     -10.312480      -280.6169
  44   2.0000     -10.312402      -280.6147
  45   2.0000     -10.311265      -280.5838
  46   2.0000     -10.310053      -280.5508
  47   2.0000     -10.309810      -280.5442
  48   2.0000     -10.309421      -280.5336
  49   2.0000     -10.308042      -280.4961
  50   2.0000     -10.307949      -280.4936
  51   2.0000     -10.306507      -280.4543
  52   2.0000     -10.303569      -280.3744
  53   2.0000     -10.303406      -280.3699
  54   2.0000     -10.301764      -280.3253
  55   2.0000     -10.301760      -280.3251
  56   2.0000     -10.300598      -280.2935
  57   2.0000     -10.300217      -280.2832
  58   2.0000     -10.298463      -280.2354
  59   2.0000     -10.298244      -280.2295
  60   2.0000     -10.296567      -280.1838
  61   2.0000     -10.293277      -280.0943
  62   2.0000     -10.291063      -280.0341
  63   2.0000     -10.284684      -279.8605
  64   2.0000     -10.281246      -279.7669
  65   2.0000     -10.278308      -279.6870
  66   2.0000     -10.277559      -279.6666
  67   2.0000     -10.277190      -279.6566
  68   2.0000     -10.276834      -279.6469
  69   2.0000     -10.276657      -279.6421
  70   2.0000     -10.275627      -279.6140
  71   2.0000     -10.275575      -279.6126
  72   2.0000     -10.273579      -279.5583
  73   2.0000     -10.272770      -279.5363
  74   2.0000     -10.269577      -279.4494
  75   2.0000      -8.073030      -219.6783
  76   2.0000      -8.065993      -219.4868
  77   2.0000      -6.042546      -164.4260
  78   2.0000      -6.038215      -164.3082
  79   2.0000      -6.035530      -164.2351
  80   2.0000      -6.034752      -164.2139
  81   2.0000      -6.031233      -164.1182
  82   2.0000      -6.027659      -164.0209
  83   2.0000      -1.138840       -30.9894
  84   2.0000      -1.137069       -30.9412
  85   2.0000      -1.121062       -30.5057
  86   2.0000      -1.119133       -30.4532
  87   2.0000      -1.099602       -29.9217
  88   2.0000      -1.073620       -29.2147
  89   2.0000      -1.071910       -29.1681
  90   2.0000      -1.052781       -28.6476
  91   2.0000      -1.050648       -28.5896
  92   2.0000      -1.037051       -28.2196
  93   2.0000      -1.022385       -27.8205
  94   2.0000      -1.019490       -27.7417
  95   2.0000      -1.013221       -27.5712
  96   2.0000      -1.008526       -27.4434
  97   2.0000      -0.997441       -27.1417
  98   2.0000      -0.991666       -26.9846
  99   2.0000      -0.984954       -26.8020
 100   2.0000      -0.947216       -25.7750
 101   2.0000      -0.937806       -25.5190
 102   2.0000      -0.935564       -25.4580
 103   2.0000      -0.935061       -25.4443
 104   2.0000      -0.927249       -25.2317
 105   2.0000      -0.922143       -25.0928
 106   2.0000      -0.910052       -24.7638
 107   2.0000      -0.907146       -24.6847
 108   2.0000      -0.902023       -24.5453
 109   2.0000      -0.892888       -24.2967
 110   2.0000      -0.887679       -24.1550
 111   2.0000      -0.882703       -24.0196
 112   2.0000      -0.881926       -23.9984
 113   2.0000      -0.871081       -23.7033
 114   2.0000      -0.868250       -23.6263
 115   2.0000      -0.849370       -23.1125
 116   2.0000      -0.844232       -22.9727
 117   2.0000      -0.837141       -22.7798
 118   2.0000      -0.833938       -22.6926
 119   2.0000      -0.826038       -22.4776
 120   2.0000      -0.825179       -22.4543
 121   2.0000      -0.821264       -22.3477
 122   2.0000      -0.799194       -21.7472
 123   2.0000      -0.791141       -21.5281
 124   2.0000      -0.784565       -21.3491
 125   2.0000      -0.770024       -20.9534
 126   2.0000      -0.760495       -20.6941
 127   2.0000      -0.758560       -20.6415
 128   2.0000      -0.750915       -20.4334
 129   2.0000      -0.749644       -20.3989
 130   2.0000      -0.736611       -20.0442
 131   2.0000      -0.728011       -19.8102
 132   2.0000      -0.720093       -19.5947
 133   2.0000      -0.714083       -19.4312
 134   2.0000      -0.710849       -19.3432
 135   2.0000      -0.707977       -19.2650
 136   2.0000      -0.697267       -18.9736
 137   2.0000      -0.690596       -18.7921
 138   2.0000      -0.685032       -18.6407
 139   2.0000      -0.679969       -18.5029
 140   2.0000      -0.675160       -18.3720
 141   2.0000      -0.670559       -18.2468
 142   2.0000      -0.663760       -18.0618
 143   2.0000      -0.661834       -18.0094
 144   2.0000      -0.655726       -17.8432
 145   2.0000      -0.648184       -17.6380
 146   2.0000      -0.637409       -17.3448
 147   2.0000      -0.634212       -17.2578
 148   2.0000      -0.630803       -17.1650
 149   2.0000      -0.629213       -17.1217
 150   2.0000      -0.621449       -16.9105
 151   2.0000      -0.618068       -16.8185
 152   2.0000      -0.610255       -16.6059
 153   2.0000      -0.608074       -16.5465
 154   2.0000      -0.606193       -16.4953
 155   2.0000      -0.604989       -16.4626
 156   2.0000      -0.598975       -16.2989
 157   2.0000      -0.596239       -16.2245
 158   2.0000      -0.584825       -15.9139
 159   2.0000      -0.584199       -15.8969
 160   2.0000      -0.577698       -15.7199
 161   2.0000      -0.568812       -15.4782
 162   2.0000      -0.563399       -15.3309
 163   2.0000      -0.559256       -15.2181
 164   2.0000      -0.558149       -15.1880
 165   2.0000      -0.556478       -15.1425
 166   2.0000      -0.553895       -15.0722
 167   2.0000      -0.552541       -15.0354
 168   2.0000      -0.550990       -14.9932
 169   2.0000      -0.546532       -14.8719
 170   2.0000      -0.543781       -14.7970
 171   2.0000      -0.541871       -14.7451
 172   2.0000      -0.540307       -14.7025
 173   2.0000      -0.536727       -14.6051
 174   2.0000      -0.534895       -14.5552
 175   2.0000      -0.528341       -14.3769
 176   2.0000      -0.528169       -14.3722
 177   2.0000      -0.526183       -14.3182
 178   2.0000      -0.522781       -14.2256
 179   2.0000      -0.521825       -14.1996
 180   2.0000      -0.519595       -14.1389
 181   2.0000      -0.517804       -14.0902
 182   2.0000      -0.517114       -14.0714
 183   2.0000      -0.515006       -14.0140
 184   2.0000      -0.513375       -13.9696
 185   2.0000      -0.511127       -13.9085
 186   2.0000      -0.509249       -13.8574
 187   2.0000      -0.506280       -13.7766
 188   2.0000      -0.505478       -13.7548
 189   2.0000      -0.503880       -13.7113
 190   2.0000      -0.498278       -13.5588
 191   2.0000      -0.497537       -13.5387
 192   2.0000      -0.496835       -13.5196
 193   2.0000      -0.494877       -13.4663
 194   2.0000      -0.492958       -13.4141
 195   2.0000      -0.487875       -13.2757
 196   2.0000      -0.484804       -13.1922
 197   2.0000      -0.481209       -13.0944
 198   2.0000      -0.480319       -13.0701
 199   2.0000      -0.476158       -12.9569
 200   2.0000      -0.475898       -12.9499
 201   2.0000      -0.473601       -12.8873
 202   2.0000      -0.471897       -12.8410
 203   2.0000      -0.469349       -12.7716
 204   2.0000      -0.466420       -12.6919
 205   2.0000      -0.465861       -12.6767
 206   2.0000      -0.465562       -12.6686
 207   2.0000      -0.461713       -12.5639
 208   2.0000      -0.460571       -12.5328
 209   2.0000      -0.457880       -12.4595
 210   2.0000      -0.457434       -12.4474
 211   2.0000      -0.454892       -12.3782
 212   2.0000      -0.452095       -12.3021
 213   2.0000      -0.451573       -12.2879
 214   2.0000      -0.447905       -12.1881
 215   2.0000      -0.446932       -12.1617
 216   2.0000      -0.445671       -12.1273
 217   2.0000      -0.444479       -12.0949
 218   2.0000      -0.442231       -12.0337
 219   2.0000      -0.440613       -11.9897
 220   2.0000      -0.439614       -11.9625
 221   2.0000      -0.436597       -11.8804
 222   2.0000      -0.433741       -11.8027
 223   2.0000      -0.427467       -11.6320
 224   2.0000      -0.425636       -11.5821
 225   2.0000      -0.422049       -11.4845
 226   2.0000      -0.420864       -11.4523
 227   2.0000      -0.416306       -11.3283
 228   2.0000      -0.410523       -11.1709
 229   2.0000      -0.407216       -11.0809
 230   2.0000      -0.402849       -10.9621
 231   2.0000      -0.400600       -10.9009
 232   2.0000      -0.395525       -10.7628
 233   2.0000      -0.385277       -10.4839
 234   2.0000      -0.375411       -10.2155
 235   2.0000      -0.362237        -9.8570
 236   2.0000      -0.355936        -9.6855
 237   2.0000      -0.355211        -9.6658
 238   2.0000      -0.352328        -9.5873
 239   2.0000      -0.347612        -9.4590
 240   2.0000      -0.347070        -9.4442
 241   2.0000      -0.346424        -9.4267
 242   2.0000      -0.344143        -9.3646
 243   2.0000      -0.335183        -9.1208
 244   2.0000      -0.329786        -8.9739
 245   2.0000      -0.326556        -8.8860
 246   2.0000      -0.325163        -8.8481
 247   2.0000      -0.324100        -8.8192
 248   2.0000      -0.323084        -8.7916
 249   2.0000      -0.319827        -8.7029
 250   2.0000      -0.316425        -8.6104
 251   2.0000      -0.308296        -8.3892
 252   2.0000      -0.305826        -8.3219
 253   2.0000      -0.296630        -8.0717
 254   2.0000      -0.289522        -7.8783
 255   2.0000      -0.262708        -7.1487
 256   2.0000      -0.256743        -6.9863
 257   0.0000      -0.116291        -3.1644
 258   0.0000      -0.109976        -2.9926
 259   0.0000      -0.096743        -2.6325
 260   0.0000      -0.073002        -1.9865
 261   0.0000      -0.067535        -1.8377

MULLIKEN ATOMIC CHARGES
-----------------------
   0 C :    0.314163
   1 C :   -0.318375
   2 C :   -0.225302
   3 N :    0.172654
   4 C :   -0.173290
   5 N :    0.178038
   6 C :    0.044629
   7 C :   -0.004398
   8 C :   -0.067848
   9 C :    0.110950
  10 C :   -0.097184
  11 C :   -0.028910
  12 S :    0.152547
  13 C :   -0.074243
  14 C :    0.031088
  15 C :    0.112145
  16 O :   -0.123469
  17 C :   -0.041929
  18 C :   -0.050438
  19 C :    0.020492
  20 N :   -0.022686
  21 C :    0.071220
  22 C :   -0.183117
  23 C :    0.220243
  24 O :   -0.155651
  25 C :   -0.015351
  26 C :   -0.024918
  27 N :   -0.047373
  28 C :    0.084862
  29 C :   -0.098479
  30 C :    0.075444
  31 C :   -0.027949
  32 C :   -0.025313
  33 C :    0.100664
  34 C :   -0.151639
  35 C :    0.126545
  36 N :   -0.016424
  37 C :   -0.138650
  38 C :    0.140861
  39 C :    0.076516
  40 C :    0.011981
  41 C :   -0.072715
  42 C :    0.050971
  43 N :   -0.077709
  44 C :    0.032463
  45 C :   -0.090088
  46 C :    0.188800
  47 O :   -0.129647
  48 C :   -0.023047
  49 C :   -0.044640
  50 N :   -0.101757
  51 C :    0.103966
  52 C :   -0.075233
  53 C :    0.021014
  54 C :   -0.024382
  55 C :    0.015616
  56 C :    0.007661
  57 C :   -0.094994
  58 C :    0.289355
  59 C :   -0.373744
  60 C :   -0.184768
  61 N :    0.159023
  62 C :   -0.178243
  63 N :    0.177747
  64 C :   -0.000849
  65 C :   -0.002009
  66 C :    0.136376
  67 O :   -0.139464
  68 C :   -0.062503
  69 C :    0.109796
  70 C :   -0.096554
  71 C :   -0.024412
  72 S :    0.146312
  73 C :   -0.047521
  74 C :    0.027614
  75 H :   -0.007850
  76 H :   -0.010288
  77 H :    0.036791
  78 H :   -0.002047
  79 H :    0.053671
  80 H :    0.007378
  81 H :   -0.008559
  82 H :   -0.013321
  83 H :    0.004049
  84 H :    0.043961
  85 H :    0.026799
  86 H :    0.023534
  87 H :    0.123489
  88 H :   -0.007214
  89 H :    0.047537
  90 H :    0.037882
  91 H :    0.009560
  92 H :   -0.029947
  93 H :    0.012363
  94 H :   -0.011258
  95 H :    0.030142
  96 H :    0.023948
  97 H :    0.025583
  98 H :   -0.007020
  99 H :   -0.004119
 100 H :    0.043239
 101 H :   -0.002842
Sum of atomic charges:    0.0000000

LOEWDIN ATOMIC CHARGES
----------------------
   0 C :    0.063579
   1 C :   -0.100873
   2 C :   -0.015891
   3 N :   -0.048019
   4 C :   -0.015408
   5 N :   -0.038419
   6 C :   -0.008481
   7 C :   -0.053379
   8 C :    0.029858
   9 C :   -0.041257
  10 C :   -0.143431
  11 C :   -0.018534
  12 S :    0.439285
  13 C :   -0.155820
  14 C :   -0.061394
  15 C :    0.082902
  16 O :   -0.115003
  17 C :   -0.042012
  18 C :    0.051837
  19 C :    0.067946
  20 N :   -0.077794
  21 C :    0.054071
  22 C :   -0.072734
  23 C :    0.075487
  24 O :   -0.156392
  25 C :   -0.038756
  26 C :    0.021521
  27 N :   -0.091574
  28 C :    0.069249
  29 C :   -0.034137
  30 C :    0.000998
  31 C :   -0.052978
  32 C :    0.025740
  33 C :   -0.062608
  34 C :    0.005473
  35 C :   -0.053954
  36 N :    0.108582
  37 C :    0.054535
  38 C :   -0.064421
  39 C :   -0.090562
  40 C :    0.093140
  41 C :   -0.085161
  42 C :    0.083869
  43 N :   -0.138783
  44 C :    0.033481
  45 C :   -0.011400
  46 C :    0.058972
  47 O :   -0.144068
  48 C :   -0.046445
  49 C :   -0.005729
  50 N :   -0.104538
  51 C :    0.070531
  52 C :   -0.033856
  53 C :   -0.045915
  54 C :    0.048375
  55 C :   -0.038185
  56 C :    0.075575
  57 C :   -0.099294
  58 C :    0.078954
  59 C :   -0.151721
  60 C :   -0.023942
  61 N :   -0.050370
  62 C :    0.010133
  63 N :   -0.050365
  64 C :   -0.026835
  65 C :   -0.053760
  66 C :    0.083135
  67 O :   -0.137426
  68 C :    0.026411
  69 C :   -0.032608
  70 C :   -0.145607
  71 C :   -0.012224
  72 S :    0.434004
  73 C :   -0.145614
  74 C :   -0.056262
  75 H :    0.042500
  76 H :    0.038246
  77 H :    0.025033
  78 H :    0.035572
  79 H :    0.060607
  80 H :    0.022532
  81 H :    0.032690
  82 H :    0.023986
  83 H :    0.034905
  84 H :    0.049799
  85 H :    0.037979
  86 H :    0.037052
  87 H :    0.094122
  88 H :    0.029508
  89 H :    0.039322
  90 H :    0.044939
  91 H :    0.035526
  92 H :    0.026270
  93 H :    0.025015
  94 H :    0.033872
  95 H :    0.047135
  96 H :    0.030329
  97 H :    0.048094
  98 H :    0.042692
  99 H :    0.040331
 100 H :    0.031262
 101 H :    0.036978

  Mayer bond orders larger than 0.100000
B(  0-C ,  1-C ) :   1.7013 B(  0-C ,  6-C ) :   1.0106 B(  0-C , 17-C ) :   1.0245
B(  1-C ,  2-C ) :   1.1414 B(  1-C ,  4-C ) :   1.1353 B(  2-C ,  3-N ) :   2.9465
B(  4-C ,  5-N ) :   2.9796 B(  6-C ,  7-C ) :   1.2678 B(  6-C , 11-C ) :   1.4038
B(  7-C ,  8-C ) :   1.4042 B(  7-C , 15-C ) :   0.9427 B(  8-C ,  9-C ) :   1.2475
B(  8-C , 75-H ) :   1.0199 B(  9-C , 10-C ) :   1.3019 B(  9-C , 14-C ) :   1.1621
B( 10-C , 11-C ) :   1.3322 B( 10-C , 12-S ) :   1.0993 B( 11-C , 76-H ) :   0.9775
B( 12-S , 13-C ) :   1.1245 B( 13-C , 14-C ) :   1.6166 B( 13-C , 77-H ) :   0.9629
B( 14-C , 78-H ) :   0.9944 B( 15-C , 16-O ) :   2.2328 B( 15-C , 17-C ) :   0.9123
B( 17-C , 18-C ) :   1.7629 B( 18-C , 19-C ) :   1.0123 B( 18-C , 79-H ) :   0.9299
B( 19-C , 20-N ) :   1.6461 B( 19-C , 21-C ) :   0.1146 B( 19-C , 30-C ) :   1.0122
B( 20-N , 21-C ) :   1.2997 B( 21-C , 22-C ) :   1.0579 B( 21-C , 26-C ) :   1.4647
B( 22-C , 23-C ) :   0.9115 B( 22-C , 30-C ) :   1.5609 B( 23-C , 24-O ) :   2.1726
B( 23-C , 25-C ) :   0.9230 B( 25-C , 26-C ) :   1.0627 B( 25-C , 29-C ) :   1.6184
B( 26-C , 27-N ) :   1.2927 B( 27-N , 28-C ) :   1.6823 B( 28-C , 29-C ) :   1.0565
B( 28-C , 80-H ) :   0.9889 B( 29-C , 81-H ) :   1.0109 B( 30-C , 31-C ) :   1.1320
B( 31-C , 32-C ) :   1.6772 B( 31-C , 82-H ) :   0.9393 B( 32-C , 33-C ) :   1.1171
B( 32-C , 83-H ) :   0.9505 B( 33-C , 34-C ) :   1.4793 B( 33-C , 39-C ) :   1.1503
B( 34-C , 35-C ) :   1.1074 B( 34-C , 36-N ) :   1.1697 B( 35-C , 84-H ) :   0.9304
B( 35-C , 85-H ) :   0.9399 B( 35-C , 86-H ) :   0.9407 B( 36-N , 37-C ) :   1.3054
B( 36-N , 87-H ) :   0.9313 B( 37-C , 38-C ) :   1.1249 B( 37-C , 39-C ) :   1.3261
B( 38-C , 88-H ) :   0.9214 B( 38-C , 89-H ) :   0.8922 B( 38-C , 90-H ) :   0.9269
B( 39-C , 40-C ) :   1.1835 B( 40-C , 41-C ) :   1.4979 B( 40-C , 91-H ) :   0.9643
B( 41-C , 42-C ) :   1.2540 B( 41-C , 92-H ) :   0.9644 B( 42-C , 43-N ) :   1.4492
B( 42-C , 44-C ) :   0.1055 B( 42-C , 53-C ) :   0.9746 B( 43-N , 44-C ) :   1.4188
B( 44-C , 45-C ) :   1.0425 B( 44-C , 49-C ) :   1.3490 B( 45-C , 46-C ) :   0.8795
B( 45-C , 53-C ) :   1.5822 B( 46-C , 47-O ) :   2.2821 B( 46-C , 48-C ) :   0.9137
B( 48-C , 49-C ) :   1.0824 B( 48-C , 52-C ) :   1.5382 B( 49-C , 50-N ) :   1.2985
B( 50-N , 51-C ) :   1.5588 B( 51-C , 52-C ) :   1.1296 B( 51-C , 93-H ) :   0.9907
B( 52-C , 94-H ) :   1.0140 B( 53-C , 54-C ) :   1.0662 B( 54-C , 55-C ) :   1.6489
B( 54-C , 95-H ) :   0.9719 B( 55-C , 56-C ) :   1.1438 B( 55-C , 96-H ) :   0.9620
B( 56-C , 57-C ) :   1.6090 B( 56-C , 97-H ) :   0.9480 B( 57-C , 58-C ) :   1.0309
B( 57-C , 66-C ) :   0.9362 B( 58-C , 59-C ) :   1.6209 B( 58-C , 64-C ) :   1.0249
B( 59-C , 60-C ) :   1.1221 B( 59-C , 62-C ) :   1.1807 B( 60-C , 61-N ) :   2.9702
B( 62-C , 63-N ) :   2.9373 B( 63-N , 89-H ) :   0.1244 B( 64-C , 65-C ) :   1.2617
B( 64-C , 71-C ) :   1.4051 B( 65-C , 66-C ) :   0.9255 B( 65-C , 68-C ) :   1.4329
B( 66-C , 67-O ) :   2.2569 B( 68-C , 69-C ) :   1.2468 B( 68-C , 98-H ) :   1.0158
B( 69-C , 70-C ) :   1.2977 B( 69-C , 74-C ) :   1.1763 B( 70-C , 71-C ) :   1.3273
B( 70-C , 72-S ) :   1.1004 B( 71-C , 99-H ) :   0.9844 B( 72-S , 73-C ) :   1.1280
B( 73-C , 74-C ) :   1.6267 B( 73-C ,100-H ) :   0.9685 B( 74-C ,101-H ) :   0.9992

-----------------------------------------------------------------------------
         ABSORPTION SPECTRUM VIA TRANSITION ELECTRIC DIPOLE MOMENTS
-----------------------------------------------------------------------------
State   Energy  Wavelength   fosc         T2         TX        TY        TZ
        (cm-1)    (nm)                  (au**2)     (au)      (au)      (au)
-----------------------------------------------------------------------------
   0   14064.8    711.0   0.087745105   2.05383   0.31618  -1.35492  -0.34360
   1   15778.6    633.8   0.261179903   5.44938   0.71675   1.37504  -1.74497
   2   16425.9    608.8   0.012831289   0.25717   0.24592  -0.28622  -0.33878
   3   17899.3    558.7   0.007847208   0.14433  -0.32062  -0.15246  -0.13523
   4   19504.2    512.7   0.112515053   1.89915  -0.63520  -0.94934  -0.77098
   5   20422.2    489.7   0.202843319   3.26990   0.16081   1.71206  -0.55937
   6   21937.2    455.8   0.234837297   3.52421   0.10213  -0.23115   1.86020
   7   22189.7    450.7   0.006728937   0.09983  -0.19674   0.21392  -0.12395
   8   22252.2    449.4   0.003570645   0.05283   0.01981  -0.19238  -0.12419
   9   22330.1    447.8   0.134657121   1.98524  -0.11782   0.73782  -1.19456
  10   23574.6    424.2   0.075086270   1.04856   0.23633   0.75932   0.64509
  11   23957.3    417.4   0.089402012   1.22853   0.44654   0.76105  -0.67077
  12   24229.7    412.7   0.046556905   0.63257  -0.55719  -0.26359   0.50262
  13   24397.1    409.9   0.023895765   0.32245   0.31108   0.23672   0.41188
  14   24887.5    401.8   0.258714832   3.42228   0.23702  -0.99725   1.54000
  15   25436.8    393.1   0.168166327   2.17646   0.30219   1.11302   0.91996
  16   25529.8    391.7   0.172514432   2.22460  -0.47890   0.46761  -1.33289
  17   25953.1    385.3   0.013545544   0.17182  -0.35315   0.16236  -0.14404
  18   26105.6    383.1   0.151328768   1.90837  -0.01582   0.17312   1.37046
  19   26245.9    381.0   0.017175911   0.21544   0.07598   0.44085  -0.12378
  20   26519.2    377.1   0.034397840   0.42702   0.05936  -0.30735   0.57361
  21   26810.5    373.0   0.128305978   1.57550  -0.48189  -0.89233  -0.73961
  22   26883.9    372.0   0.024131607   0.29551   0.25176   0.48166   0.01150
  23   27123.3    368.7   0.059478762   0.72193   0.57111   0.59189  -0.21313
  24   27164.5    368.1   0.049209790   0.59638  -0.31167   0.24528   0.66263
  25   27603.5    362.3   0.164852588   1.96611   0.51842  -1.27443  -0.27052
  26   27755.5    360.3   0.298750752   3.54353  -0.01231   1.78143   0.60818
  27   27898.6    358.4   0.166099743   1.96003   0.04019  -1.39939  -0.01106
  28   27945.7    357.8   0.044285822   0.52170  -0.04644  -0.68933  -0.21066
  29   28392.4    352.2   0.235879226   2.73504   0.70745  -0.97516  -1.13297
  30   28424.7    351.8   0.036324564   0.42071   0.41972  -0.09605  -0.48510
  31   28691.5    348.5   0.121094835   1.38947  -0.23165   0.80537   0.82896
  32   28946.8    345.5   0.015528937   0.17661  -0.05562  -0.35988   0.20977
  33   29679.5    336.9   0.043212767   0.47933  -0.12313   0.66078   0.16595
  34   29899.0    334.5   0.017700578   0.19490   0.15600   0.29501   0.28902
  35   30043.9    332.8   0.035481648   0.38880   0.14224  -0.16958  -0.58293
  36   30342.2    329.6   0.201646587   2.18786   0.29314  -1.44881  -0.05358
  37   30439.0    328.5   0.019688486   0.21294  -0.06282  -0.38293  -0.24972
  38   30761.0    325.1   0.006950038   0.07438  -0.12306  -0.01649  -0.24283
  39   31128.6    321.2   0.061190165   0.64714   0.07615  -0.50875  -0.61848
  40   31414.7    318.3   0.010882629   0.11404  -0.01976   0.14217   0.30568
  41   31523.5    317.2   0.076346066   0.79731  -0.02134  -0.46875  -0.75969
  42   31635.1    316.1   0.304447141   3.16824  -0.00291  -1.26506  -1.25213
  43   32029.6    312.2   0.472695284   4.85854  -0.33663  -0.19922  -2.16922
  44   32241.6    310.2   0.306424251   3.12883   0.67990   1.18578   1.12272
  45   32472.0    308.0   0.132616682   1.34451   0.43382   0.24930   1.04602
  46   32532.0    307.4   0.019432895   0.19665  -0.07500  -0.37247   0.22867
  47   32721.7    305.6   0.035035556   0.35249   0.07568  -0.23145   0.54147
  48   32955.3    303.4   0.081566200   0.81482   0.20397  -0.33114  -0.81459
  49   32984.2    303.2   0.194274673   1.93903   0.08812   0.38330   1.33580
  50   33378.4    299.6   0.024515166   0.24179   0.36800   0.32338   0.04240
  51   33556.0    298.0   0.058203683   0.57103  -0.24605  -0.71271  -0.05028
  52   33748.8    296.3   0.065088584   0.63492   0.21139  -0.71763  -0.27431
  53   33912.0    294.9   0.002012975   0.01954  -0.06616   0.11132   0.05265
  54   34023.8    293.9   0.072165199   0.69827   0.36844   0.56388   0.49453
  55   34168.6    292.7   0.011604685   0.11181  -0.22730  -0.20548  -0.13387
  56   34436.3    290.4   0.083865503   0.80176   0.11355   0.72727   0.50984
  57   34504.7    289.8   0.036172937   0.34513   0.20683   0.49834   0.23240
  58   34709.4    288.1   0.002188328   0.02076  -0.02655  -0.14048   0.01779
  59   34723.3    288.0   0.067387007   0.63890  -0.06286   0.54794   0.57854
  60   34851.4    286.9   0.045131881   0.42632  -0.05879   0.64333   0.09484
  61   35262.0    283.6   0.025602164   0.23903   0.35803   0.16386   0.28982
  62   35546.2    281.3   0.015041067   0.13930  -0.03066   0.36347   0.07908
  63   35713.3    280.0   0.133607931   1.23162   0.22300  -0.53386   0.94704
  64   35827.8    279.1   0.010944996   0.10057   0.11552   0.29503   0.01357
  65   35972.3    278.0   0.040022194   0.36628  -0.24738  -0.14267   0.53359
  66   36203.3    276.2   0.015384445   0.13990  -0.20607   0.06528  -0.30524
  67   36446.5    274.4   0.132833980   1.19985  -0.28124  -1.05810   0.03427
  68   36587.2    273.3   0.137426711   1.23657  -0.18403   0.90933   0.61304
  69   36717.5    272.3   0.028314815   0.25387   0.14236  -0.20853   0.43603
  70   36848.4    271.4   0.017254196   0.15415   0.09169   0.11235   0.36486
  71   36934.9    270.7   0.040316197   0.35935  -0.19394  -0.27852  -0.49413
  72   37076.3    269.7   0.027059316   0.24027   0.18422  -0.01481  -0.45399
  73   37361.1    267.7   0.065001431   0.57277  -0.40213   0.02038   0.64082
  74   37398.2    267.4   0.042849210   0.37720  -0.06457  -0.58708   0.16841
  75   37526.4    266.5   0.103324908   0.90645  -0.31732  -0.85453   0.27483
  76   37697.0    265.3   0.019064236   0.16649  -0.04420  -0.29110   0.28249
  77   37835.0    264.3   0.027628330   0.24040   0.04973  -0.38532   0.29909
  78   37985.5    263.3   0.013937398   0.12079   0.28179   0.16309  -0.12160
  79   38147.8    262.1   0.031933629   0.27558  -0.16839   0.20376  -0.45355
  80   38206.7    261.7   0.047628891   0.41040  -0.40724  -0.31206   0.38364
  81   38279.3    261.2   0.105355099   0.90608   0.05871   0.43888   0.84263
  82   38437.8    260.2   0.012169799   0.10423  -0.13327   0.28574  -0.06943
  83   38542.0    259.5   0.008498222   0.07259   0.04495  -0.06305  -0.25806
  84   38629.7    258.9   0.027007932   0.23017  -0.19535   0.00914   0.43809
  85   38912.0    257.0   0.032440801   0.27446   0.18787  -0.04322  -0.48713
  86   38996.1    256.4   0.025910278   0.21874   0.11544  -0.22684  -0.39238
  87   39232.8    254.9   0.019622516   0.16466  -0.25972  -0.29737  -0.09366
  88   39435.9    253.6   0.024880001   0.20770  -0.27300  -0.27817   0.23620
  89   39559.7    252.8   0.090258792   0.75113  -0.24720  -0.48313   0.67572
  90   39599.5    252.5   0.236358933   1.96498  -0.01631  -1.25869  -0.61677
  91   39651.8    252.2   0.017112079   0.14207   0.04867  -0.27143  -0.25697
  92   39789.9    251.3   0.052375849   0.43335  -0.16700   0.59246  -0.23333
  93   39892.9    250.7   0.007240872   0.05975   0.21024  -0.12383   0.01481
  94   40125.5    249.2   0.013012826   0.10676  -0.27672   0.12645  -0.11917

FINAL SINGLE POINT ENERGY     -3888.287216562722

DIPOLE MOMENT
-------------
                                X             Y             Z
Electronic contribution:    -20.19266     -16.05416      14.41604
Nuclear contribution   :     21.70271      15.66264     -19.68581
                        -----------------------------------------
Total Dipole Moment    :      1.51005      -0.39152      -5.26977
                        -----------------------------------------
Magnitude (a.u.)       :      5.49582
Magnitude (Debye)      :     13.96927

Rotational constants in cm-1:     0.001468     0.000556     0.000475
Rotational constants in MHz :    43.996370    16.668120    14.231101

                             ****ORCA TERMINATED NORMALLY****
TOTAL RUN TIME: 0 days 0 hours 13 minutes 32 seconds 181 msec
