                         Program Version 4.2.0 -  RELEASE  -
|  1> # ORCA input file
|  2> # SCF done       -173.095683367650          0.000339545685
|  3> ! CAM-B3LYP def2-SVP def2/J RIJCOSX Grid4 TightSCF
|  4> %maxcore 5000
|  5> %tddft
|  6>     Mode sTDDFT
|  7>     Ethresh 5.0
|  8>     maxcore 5000
|  9> end
| 10>
| 11> %pal
| 12>   nprocs 6
| 13>   end
| 14> * xyz 0 1
| 15>    C        3.41736         1.21242         6.08702
| 16>    C        4.88949         1.57072         6.26359
| 17>    O        5.49041         1.73305         7.27971
| 18>    O        5.47118         1.69109         5.03889
| 19>    C        4.54067         1.44892         4.06410
| 20>    C        3.28433         1.15615         4.60367
| 21>    C        2.20220         0.88221         3.78831
| 22>    C        2.45056         0.91524         2.42772
| 23>    C        3.70730         1.20028         1.88939
| 24>    C        4.78876         1.48123         2.70313
| 25>    C        3.58684         1.14664         0.39998
| 26>    C        2.09673         0.78346         0.23101
| 27>    O        1.50499         0.61830        -0.78894
| 28>    O        1.51743         0.67478         1.45123
| 29>    C        3.87635         2.44021        -0.29707
| 30>    C        4.39479         2.50256        -1.52308
| 31>    C        4.64296         3.71245        -2.27664
| 32>    C        4.59991         5.01143        -1.75621
| 33>    N        4.79420         6.08344        -2.49232
| 34>    C        5.05406         5.90646        -3.79108
| 35>    N        5.17143         4.71322        -4.37684
| 36>    C        4.96933         3.64924        -3.64216
| 37>    C        5.22247         7.04660        -4.66119
| 38>    N        5.39830         8.34442        -4.26012
| 39>    C        5.41667         8.85969        -2.91291
| 40>    C        4.00539         9.12535        -2.39799
| 41>    C        5.53268         9.21570        -5.36395
| 42>    O        5.71600        10.40989        -5.25598
| 43>    C        5.41665         8.34672        -6.51213
| 44>    C        5.23773         7.01739        -6.04726
| 45>    C        5.10205         6.16346        -7.21100
| 46>    O        4.91971         4.97850        -7.35495
| 47>    N        5.23274         7.05400        -8.31218
| 48>    C        5.07871         6.54010        -9.65112
| 49>    C        3.69269         6.83716       -10.21872
| 50>    C        5.40666         8.35254        -7.90225
| 51>    C        5.56249         9.54490        -8.67014
| 52>    C        5.62179         9.71980       -10.00460
| 53>    C        5.77464        11.03477       -10.59384
| 54>    N        5.84067        11.07975       -11.92791
| 55>    C        5.97183        12.27173       -12.47942
| 56>    C        6.03042        13.43875       -11.73487
| 57>    C        5.94732        13.29859       -10.34338
| 58>    N        5.82963        12.09464        -9.79410
| 59>    C        5.97521        14.40349        -9.39436
| 60>    C        6.00088        15.69572        -9.70758
| 61>    C        5.98203        16.79284        -8.68789
| 62>    C        4.59044        17.45644        -8.65967
| 63>    O        3.54564        16.94007        -8.41729
| 64>    O        4.71017        18.77077        -8.97328
| 65>    C        6.02883        19.07308        -9.19825
| 66>    C        6.85355        17.95704        -9.03952
| 67>    C        8.21963        18.04042        -9.23414
| 68>    C        8.70086        19.29040        -9.58159
| 69>    C        7.87663        20.40859        -9.73018
| 70>    C        6.50969        20.32302        -9.54490
| 71>    C        8.74258        21.56196       -10.12617
| 72>    C       10.13274        20.90722       -10.13657
| 73>    O       11.17879        21.42187       -10.38091
| 74>    O       10.01645        19.59003        -9.82081
| 75>    C        8.41750        22.12064       -11.48384
| 76>    C        8.32173        23.40971       -11.74467
| 77>    H        2.78886         1.97293         6.55366
| 78>    H        3.20330         0.26213         6.57935
| 79>    H        1.22443         0.65601         4.17840
| 80>    H        5.76479         1.70902         2.30944
| 81>    H        4.18368         0.34384        -0.04435
| 82>    H        3.58771         3.33057         0.24266
| 83>    H        4.63697         1.58448        -2.04391
| 84>    H        4.41040         5.20093        -0.70718
| 85>    H        5.06526         2.69840        -4.15145
| 86>    H        5.97842         9.79737        -2.95381
| 87>    H        5.92572         8.14597        -2.26378
| 88>    H        3.49161         9.81996        -3.05798
| 89>    H        4.05341         9.55832        -1.40294
| 90>    H        3.44649         8.19472        -2.35056
| 91>    H        5.20898         5.45660        -9.56605
| 92>    H        5.86889         6.93621       -10.29269
| 93>    H        2.93448         6.35939        -9.60307
| 94>    H        3.61649         6.44559       -11.22938
| 95>    H        3.49734         7.90668       -10.24026
| 96>    H        5.64793        10.43340        -8.05544
| 97>    H        5.55973         8.92483       -10.72870
| 98>    H        6.02907        12.28689       -13.56091
| 99>    H        6.13571        14.39815       -12.21165
|100>    H        5.95128        14.08481        -8.36152
|101>    H        6.00672        16.03205       -10.73519
|102>    H        6.19206        16.38138        -7.69645
|103>    H        8.87162        17.19048        -9.12444
|104>    H        5.85645        21.17064        -9.66399
|105>    H        8.73907        22.37034        -9.38924
|106>    H        8.27363        21.38076       -12.25935
|107>    H        8.46850        24.15873       -10.98462
|108>    H        8.09812        23.76815       -12.73419
|109> *
|110>
|111>                          ****END OF INPUT****

CARTESIAN COORDINATES (ANGSTROEM)
---------------------------------
  C      3.417360    1.212420    6.087020
  C      4.889490    1.570720    6.263590
  O      5.490410    1.733050    7.279710
  O      5.471180    1.691090    5.038890
  C      4.540670    1.448920    4.064100
  C      3.284330    1.156150    4.603670
  C      2.202200    0.882210    3.788310
  C      2.450560    0.915240    2.427720
  C      3.707300    1.200280    1.889390
  C      4.788760    1.481230    2.703130
  C      3.586840    1.146640    0.399980
  C      2.096730    0.783460    0.231010
  O      1.504990    0.618300   -0.788940
  O      1.517430    0.674780    1.451230
  C      3.876350    2.440210   -0.297070
  C      4.394790    2.502560   -1.523080
  C      4.642960    3.712450   -2.276640
  C      4.599910    5.011430   -1.756210
  N      4.794200    6.083440   -2.492320
  C      5.054060    5.906460   -3.791080
  N      5.171430    4.713220   -4.376840
  C      4.969330    3.649240   -3.642160
  C      5.222470    7.046600   -4.661190
  N      5.398300    8.344420   -4.260120
  C      5.416670    8.859690   -2.912910
  C      4.005390    9.125350   -2.397990
  C      5.532680    9.215700   -5.363950
  O      5.716000   10.409890   -5.255980
  C      5.416650    8.346720   -6.512130
  C      5.237730    7.017390   -6.047260
  C      5.102050    6.163460   -7.211000
  O      4.919710    4.978500   -7.354950
  N      5.232740    7.054000   -8.312180
  C      5.078710    6.540100   -9.651120
  C      3.692690    6.837160  -10.218720
  C      5.406660    8.352540   -7.902250
  C      5.562490    9.544900   -8.670140
  C      5.621790    9.719800  -10.004600
  C      5.774640   11.034770  -10.593840
  N      5.840670   11.079750  -11.927910
  C      5.971830   12.271730  -12.479420
  C      6.030420   13.438750  -11.734870
  C      5.947320   13.298590  -10.343380
  N      5.829630   12.094640   -9.794100
  C      5.975210   14.403490   -9.394360
  C      6.000880   15.695720   -9.707580
  C      5.982030   16.792840   -8.687890
  C      4.590440   17.456440   -8.659670
  O      3.545640   16.940070   -8.417290
  O      4.710170   18.770770   -8.973280
  C      6.028830   19.073080   -9.198250
  C      6.853550   17.957040   -9.039520
  C      8.219630   18.040420   -9.234140
  C      8.700860   19.290400   -9.581590
  C      7.876630   20.408590   -9.730180
  C      6.509690   20.323020   -9.544900
  C      8.742580   21.561960  -10.126170
  C     10.132740   20.907220  -10.136570
  O     11.178790   21.421870  -10.380910
  O     10.016450   19.590030   -9.820810
  C      8.417500   22.120640  -11.483840
  C      8.321730   23.409710  -11.744670
  H      2.788860    1.972930    6.553660
  H      3.203300    0.262130    6.579350
  H      1.224430    0.656010    4.178400
  H      5.764790    1.709020    2.309440
  H      4.183680    0.343840   -0.044350
  H      3.587710    3.330570    0.242660
  H      4.636970    1.584480   -2.043910
  H      4.410400    5.200930   -0.707180
  H      5.065260    2.698400   -4.151450
  H      5.978420    9.797370   -2.953810
  H      5.925720    8.145970   -2.263780
  H      3.491610    9.819960   -3.057980
  H      4.053410    9.558320   -1.402940
  H      3.446490    8.194720   -2.350560
  H      5.208980    5.456600   -9.566050
  H      5.868890    6.936210  -10.292690
  H      2.934480    6.359390   -9.603070
  H      3.616490    6.445590  -11.229380
  H      3.497340    7.906680  -10.240260
  H      5.647930   10.433400   -8.055440
  H      5.559730    8.924830  -10.728700
  H      6.029070   12.286890  -13.560910
  H      6.135710   14.398150  -12.211650
  H      5.951280   14.084810   -8.361520
  H      6.006720   16.032050  -10.735190
  H      6.192060   16.381380   -7.696450
  H      8.871620   17.190480   -9.124440
  H      5.856450   21.170640   -9.663990
  H      8.739070   22.370340   -9.389240
  H      8.273630   21.380760  -12.259350
  H      8.468500   24.158730  -10.984620
  H      8.098120   23.768150  -12.734190

 Total Charge           Charge          ....    0
 Multiplicity           Mult            ....    1
 Number of Electrons    NEL             ....  430
 Basis Dimension        Dim             .... 1028

ORBITAL ENERGIES
----------------

  NO   OCC          E(Eh)            E(eV)
   0   2.0000     -19.290272      -524.9150
   1   2.0000     -19.286665      -524.8168
   2   2.0000     -19.286648      -524.8164
   3   2.0000     -19.284794      -524.7659
   4   2.0000     -19.221228      -523.0362
   5   2.0000     -19.217338      -522.9304
   6   2.0000     -19.216806      -522.9159
   7   2.0000     -19.215435      -522.8786
   8   2.0000     -19.179489      -521.9004
   9   2.0000     -19.178024      -521.8606
  10   2.0000     -14.442680      -393.0053
  11   2.0000     -14.442552      -393.0018
  12   2.0000     -14.423719      -392.4894
  13   2.0000     -14.415092      -392.2546
  14   2.0000     -14.409676      -392.1072
  15   2.0000     -14.408629      -392.0787
  16   2.0000     -10.417474      -283.4739
  17   2.0000     -10.415673      -283.4249
  18   2.0000     -10.413848      -283.3752
  19   2.0000     -10.411573      -283.3133
  20   2.0000     -10.364174      -282.0235
  21   2.0000     -10.361980      -281.9638
  22   2.0000     -10.354536      -281.7612
  23   2.0000     -10.353281      -281.7271
  24   2.0000     -10.352264      -281.6994
  25   2.0000     -10.350207      -281.6434
  26   2.0000     -10.349621      -281.6275
  27   2.0000     -10.342245      -281.4268
  28   2.0000     -10.332968      -281.1744
  29   2.0000     -10.332390      -281.1586
  30   2.0000     -10.331912      -281.1456
  31   2.0000     -10.328661      -281.0572
  32   2.0000     -10.326596      -281.0010
  33   2.0000     -10.321759      -280.8693
  34   2.0000     -10.317091      -280.7423
  35   2.0000     -10.313172      -280.6357
  36   2.0000     -10.309350      -280.5317
  37   2.0000     -10.308080      -280.4971
  38   2.0000     -10.305943      -280.4390
  39   2.0000     -10.305002      -280.4134
  40   2.0000     -10.304009      -280.3863
  41   2.0000     -10.303888      -280.3830
  42   2.0000     -10.302958      -280.3577
  43   2.0000     -10.302370      -280.3417
  44   2.0000     -10.301528      -280.3188
  45   2.0000     -10.301416      -280.3158
  46   2.0000     -10.300955      -280.3032
  47   2.0000     -10.300617      -280.2941
  48   2.0000     -10.300185      -280.2823
  49   2.0000     -10.297646      -280.2132
  50   2.0000     -10.297052      -280.1970
  51   2.0000     -10.290103      -280.0079
  52   2.0000     -10.288098      -279.9534
  53   2.0000     -10.286902      -279.9208
  54   2.0000     -10.284969      -279.8682
  55   2.0000     -10.283854      -279.8379
  56   2.0000     -10.280706      -279.7522
  57   2.0000     -10.276026      -279.6249
  58   2.0000     -10.256703      -279.0991
  59   2.0000     -10.253771      -279.0193
  60   2.0000     -10.252778      -278.9923
  61   2.0000     -10.242269      -278.7063
  62   2.0000      -1.226120       -33.3644
  63   2.0000      -1.222453       -33.2646
  64   2.0000      -1.222423       -33.2638
  65   2.0000      -1.220144       -33.2018
  66   2.0000      -1.132310       -30.8117
  67   2.0000      -1.128567       -30.7099
  68   2.0000      -1.128359       -30.7042
  69   2.0000      -1.126324       -30.6488
  70   2.0000      -1.122827       -30.5537
  71   2.0000      -1.115588       -30.3567
  72   2.0000      -1.094132       -29.7728
  73   2.0000      -1.083903       -29.4945
  74   2.0000      -1.051555       -28.6143
  75   2.0000      -1.041998       -28.3542
  76   2.0000      -0.987610       -26.8742
  77   2.0000      -0.983086       -26.7511
  78   2.0000      -0.982335       -26.7307
  79   2.0000      -0.979814       -26.6621
  80   2.0000      -0.945435       -25.7266
  81   2.0000      -0.941620       -25.6228
  82   2.0000      -0.922386       -25.0994
  83   2.0000      -0.922192       -25.0941
  84   2.0000      -0.916795       -24.9473
  85   2.0000      -0.909371       -24.7453
  86   2.0000      -0.894795       -24.3486
  87   2.0000      -0.878598       -23.9079
  88   2.0000      -0.867183       -23.5973
  89   2.0000      -0.864338       -23.5198
  90   2.0000      -0.860816       -23.4240
  91   2.0000      -0.852721       -23.2037
  92   2.0000      -0.851452       -23.1692
  93   2.0000      -0.838424       -22.8147
  94   2.0000      -0.815185       -22.1823
  95   2.0000      -0.807300       -21.9678
  96   2.0000      -0.799447       -21.7541
  97   2.0000      -0.795067       -21.6349
  98   2.0000      -0.785937       -21.3864
  99   2.0000      -0.759481       -20.6665
 100   2.0000      -0.755060       -20.5462
 101   2.0000      -0.751312       -20.4442
 102   2.0000      -0.747229       -20.3331
 103   2.0000      -0.744736       -20.2653
 104   2.0000      -0.742450       -20.2031
 105   2.0000      -0.731260       -19.8986
 106   2.0000      -0.719369       -19.5750
 107   2.0000      -0.717598       -19.5268
 108   2.0000      -0.698205       -18.9991
 109   2.0000      -0.697655       -18.9842
 110   2.0000      -0.694844       -18.9077
 111   2.0000      -0.680812       -18.5258
 112   2.0000      -0.678149       -18.4534
 113   2.0000      -0.668123       -18.1806
 114   2.0000      -0.663690       -18.0599
 115   2.0000      -0.661388       -17.9973
 116   2.0000      -0.660323       -17.9683
 117   2.0000      -0.653462       -17.7816
 118   2.0000      -0.642910       -17.4945
 119   2.0000      -0.637968       -17.3600
 120   2.0000      -0.635711       -17.2986
 121   2.0000      -0.631569       -17.1859
 122   2.0000      -0.621789       -16.9198
 123   2.0000      -0.620759       -16.8917
 124   2.0000      -0.612135       -16.6571
 125   2.0000      -0.610734       -16.6189
 126   2.0000      -0.596750       -16.2384
 127   2.0000      -0.595631       -16.2079
 128   2.0000      -0.582765       -15.8578
 129   2.0000      -0.580467       -15.7953
 130   2.0000      -0.577545       -15.7158
 131   2.0000      -0.576264       -15.6809
 132   2.0000      -0.573766       -15.6130
 133   2.0000      -0.572256       -15.5719
 134   2.0000      -0.571173       -15.5424
 135   2.0000      -0.568469       -15.4688
 136   2.0000      -0.558732       -15.2039
 137   2.0000      -0.553664       -15.0660
 138   2.0000      -0.553472       -15.0607
 139   2.0000      -0.549038       -14.9401
 140   2.0000      -0.547632       -14.9018
 141   2.0000      -0.543592       -14.7919
 142   2.0000      -0.541657       -14.7392
 143   2.0000      -0.540244       -14.7008
 144   2.0000      -0.537199       -14.6179
 145   2.0000      -0.528158       -14.3719
 146   2.0000      -0.527682       -14.3589
 147   2.0000      -0.526136       -14.3169
 148   2.0000      -0.525906       -14.3106
 149   2.0000      -0.523263       -14.2387
 150   2.0000      -0.522628       -14.2214
 151   2.0000      -0.521019       -14.1776
 152   2.0000      -0.520233       -14.1563
 153   2.0000      -0.518124       -14.0989
 154   2.0000      -0.515392       -14.0245
 155   2.0000      -0.513405       -13.9705
 156   2.0000      -0.510525       -13.8921
 157   2.0000      -0.508808       -13.8454
 158   2.0000      -0.507074       -13.7982
 159   2.0000      -0.501120       -13.6362
 160   2.0000      -0.498507       -13.5651
 161   2.0000      -0.497199       -13.5295
 162   2.0000      -0.494399       -13.4533
 163   2.0000      -0.490476       -13.3465
 164   2.0000      -0.488133       -13.2828
 165   2.0000      -0.486736       -13.2448
 166   2.0000      -0.485595       -13.2137
 167   2.0000      -0.484625       -13.1873
 168   2.0000      -0.477648       -12.9975
 169   2.0000      -0.476524       -12.9669
 170   2.0000      -0.472294       -12.8518
 171   2.0000      -0.467864       -12.7312
 172   2.0000      -0.466293       -12.6885
 173   2.0000      -0.463247       -12.6056
 174   2.0000      -0.453842       -12.3497
 175   2.0000      -0.450369       -12.2552
 176   2.0000      -0.449945       -12.2436
 177   2.0000      -0.447437       -12.1754
 178   2.0000      -0.447336       -12.1726
 179   2.0000      -0.443934       -12.0801
 180   2.0000      -0.443762       -12.0754
 181   2.0000      -0.442522       -12.0416
 182   2.0000      -0.441700       -12.0193
 183   2.0000      -0.437897       -11.9158
 184   2.0000      -0.436745       -11.8844
 185   2.0000      -0.429826       -11.6961
 186   2.0000      -0.425857       -11.5882
 187   2.0000      -0.417861       -11.3706
 188   2.0000      -0.414785       -11.2869
 189   2.0000      -0.409628       -11.1465
 190   2.0000      -0.399687       -10.8760
 191   2.0000      -0.397485       -10.8161
 192   2.0000      -0.396771       -10.7967
 193   2.0000      -0.390972       -10.6389
 194   2.0000      -0.386057       -10.5051
 195   2.0000      -0.384703       -10.4683
 196   2.0000      -0.379761       -10.3338
 197   2.0000      -0.374605       -10.1935
 198   2.0000      -0.370087       -10.0706
 199   2.0000      -0.367839       -10.0094
 200   2.0000      -0.362044        -9.8517
 201   2.0000      -0.350854        -9.5472
 202   2.0000      -0.349472        -9.5096
 203   2.0000      -0.339352        -9.2342
 204   2.0000      -0.337863        -9.1937
 205   2.0000      -0.333256        -9.0684
 206   2.0000      -0.326504        -8.8846
 207   2.0000      -0.324985        -8.8433
 208   2.0000      -0.315708        -8.5908
 209   2.0000      -0.315181        -8.5765
 210   2.0000      -0.312935        -8.5154
 211   2.0000      -0.304511        -8.2862
 212   2.0000      -0.302481        -8.2309
 213   2.0000      -0.300078        -8.1655
 214   2.0000      -0.237245        -6.4558
 215   0.0000      -0.082325        -2.2402
 216   0.0000      -0.035038        -0.9534
 217   0.0000      -0.026822        -0.7299
 218   0.0000      -0.011710        -0.3186
 219   0.0000      -0.008946        -0.2434

MULLIKEN ATOMIC CHARGES
-----------------------
   0 C :    0.112671
   1 C :    0.133519
   2 O :   -0.136661
   3 O :   -0.215571
   4 C :    0.207443
   5 C :   -0.108811
   6 C :   -0.104769
   7 C :    0.205562
   8 C :   -0.025236
   9 C :   -0.104285
  10 C :   -0.028949
  11 C :    0.205861
  12 O :   -0.124126
  13 O :   -0.209332
  14 C :    0.009137
  15 C :    0.041524
  16 C :    0.021253
  17 C :    0.041597
  18 N :   -0.057560
  19 C :   -0.183274
  20 N :    0.005107
  21 C :    0.037675
  22 C :    0.196955
  23 N :   -0.266780
  24 C :    0.142773
  25 C :    0.006245
  26 C :    0.149675
  27 O :   -0.194097
  28 C :   -0.046083
  29 C :   -0.048716
  30 C :    0.147817
  31 O :   -0.162506
  32 N :   -0.276400
  33 C :    0.100680
  34 C :    0.000397
  35 C :    0.132635
  36 C :   -0.005419
  37 C :    0.038535
  38 C :   -0.085909
  39 N :   -0.059793
  40 C :    0.075117
  41 C :   -0.048508
  42 C :    0.033680
  43 N :   -0.045311
  44 C :    0.058969
  45 C :    0.025165
  46 C :   -0.020503
  47 C :    0.202143
  48 O :   -0.122043
  49 O :   -0.208334
  50 C :    0.203031
  51 C :   -0.025397
  52 C :   -0.107509
  53 C :    0.204258
  54 C :   -0.028699
  55 C :   -0.103708
  56 C :   -0.026749
  57 C :    0.199469
  58 O :   -0.127619
  59 O :   -0.210392
  60 C :    0.005690
  61 C :   -0.000076
  62 H :    0.068977
  63 H :    0.069082
  64 H :   -0.015750
  65 H :   -0.015418
  66 H :    0.055054
  67 H :    0.009195
  68 H :   -0.005086
  69 H :    0.003146
  70 H :    0.012728
  71 H :    0.028701
  72 H :    0.017940
  73 H :    0.020130
  74 H :    0.009068
  75 H :    0.014046
  76 H :    0.042103
  77 H :    0.024774
  78 H :    0.025469
  79 H :    0.019802
  80 H :    0.023777
  81 H :    0.028553
  82 H :   -0.014545
  83 H :    0.008324
  84 H :   -0.007218
  85 H :    0.006738
  86 H :    0.005512
  87 H :    0.056779
  88 H :   -0.013211
  89 H :   -0.014224
  90 H :    0.049169
  91 H :    0.007037
  92 H :    0.023533
  93 H :    0.030361
Sum of atomic charges:   -0.0000000

LOEWDIN ATOMIC CHARGES
----------------------
   0 C :   -0.045831
   1 C :    0.097704
   2 O :   -0.128759
   3 O :   -0.046363
   4 C :    0.043462
   5 C :   -0.045697
   6 C :   -0.029439
   7 C :    0.044668
   8 C :   -0.044553
   9 C :   -0.026802
  10 C :   -0.048160
  11 C :    0.100626
  12 O :   -0.122398
  13 O :   -0.040817
  14 C :   -0.004100
  15 C :   -0.013384
  16 C :   -0.066898
  17 C :    0.054572
  18 N :   -0.066879
  19 C :    0.016333
  20 N :   -0.040088
  21 C :    0.057974
  22 C :    0.058244
  23 N :    0.005784
  24 C :    0.036318
  25 C :   -0.062181
  26 C :    0.077769
  27 O :   -0.196416
  28 C :   -0.114495
  29 C :   -0.102729
  30 C :    0.085806
  31 O :   -0.168610
  32 N :   -0.009041
  33 C :    0.033947
  34 C :   -0.063083
  35 C :    0.078691
  36 C :   -0.000372
  37 C :   -0.017664
  38 C :    0.026669
  39 N :   -0.090656
  40 C :    0.048729
  41 C :   -0.060150
  42 C :    0.037909
  43 N :   -0.076241
  44 C :   -0.017786
  45 C :    0.006939
  46 C :   -0.045738
  47 C :    0.100454
  48 O :   -0.119931
  49 O :   -0.041543
  50 C :    0.043912
  51 C :   -0.043017
  52 C :   -0.026278
  53 C :    0.044225
  54 C :   -0.040554
  55 C :   -0.025194
  56 C :   -0.048958
  57 C :    0.101111
  58 O :   -0.123093
  59 O :   -0.043413
  60 C :   -0.012199
  61 C :   -0.031884
  62 H :    0.062403
  63 H :    0.062568
  64 H :    0.041675
  65 H :    0.042110
  66 H :    0.060741
  67 H :    0.027784
  68 H :    0.034515
  69 H :    0.024158
  70 H :    0.030224
  71 H :    0.029598
  72 H :    0.021569
  73 H :    0.026291
  74 H :    0.025739
  75 H :    0.018181
  76 H :    0.036232
  77 H :    0.021394
  78 H :    0.031223
  79 H :    0.029820
  80 H :    0.022857
  81 H :    0.049024
  82 H :    0.031829
  83 H :    0.027210
  84 H :    0.031267
  85 H :    0.042003
  86 H :    0.026720
  87 H :    0.062281
  88 H :    0.042926
  89 H :    0.042791
  90 H :    0.058881
  91 H :    0.029287
  92 H :    0.025991
  93 H :    0.030259

  Mayer bond orders larger than 0.100000
B(  0-C ,  1-C ) :   0.9856 B(  0-C ,  5-C ) :   1.0112 B(  0-C , 62-H ) :   0.8978
B(  0-C , 63-H ) :   0.8975 B(  1-C ,  2-O ) :   2.2570 B(  1-C ,  3-O ) :   1.0710
B(  3-O ,  4-C ) :   1.0540 B(  4-C ,  5-C ) :   1.3829 B(  4-C ,  9-C ) :   1.3636
B(  5-C ,  6-C ) :   1.3483 B(  6-C ,  7-C ) :   1.3692 B(  6-C ,  9-C ) :   0.1246
B(  6-C , 64-H ) :   1.0287 B(  7-C ,  8-C ) :   1.3812 B(  7-C , 13-O ) :   1.0489
B(  8-C ,  9-C ) :   1.3485 B(  8-C , 10-C ) :   0.9373 B(  9-C , 65-H ) :   1.0312
B( 10-C , 11-C ) :   0.9010 B( 10-C , 14-C ) :   1.0045 B( 10-C , 66-H ) :   0.8788
B( 11-C , 12-O ) :   2.2848 B( 11-C , 13-O ) :   1.0845 B( 14-C , 15-C ) :   1.8231
B( 14-C , 67-H ) :   0.9678 B( 15-C , 16-C ) :   1.0478 B( 15-C , 68-H ) :   0.9788
B( 16-C , 17-C ) :   1.3245 B( 16-C , 21-C ) :   1.2894 B( 17-C , 18-N ) :   1.5561
B( 17-C , 69-H ) :   0.9824 B( 18-N , 19-C ) :   1.4950 B( 19-C , 20-N ) :   1.6362
B( 19-C , 22-C ) :   0.9765 B( 20-N , 21-C ) :   1.5832 B( 20-N , 22-C ) :  -0.1207
B( 21-C , 70-H ) :   0.9913 B( 22-C , 23-N ) :   1.2082 B( 22-C , 29-C ) :   1.4037
B( 23-N , 24-C ) :   0.9407 B( 23-N , 26-C ) :   1.0334 B( 24-C , 25-C ) :   1.1231
B( 24-C , 71-H ) :   0.9282 B( 24-C , 72-H ) :   0.9384 B( 25-C , 73-H ) :   0.9654
B( 25-C , 74-H ) :   0.9674 B( 25-C , 75-H ) :   0.9636 B( 26-C , 27-O ) :   2.1284
B( 26-C , 28-C ) :   0.9773 B( 28-C , 29-C ) :   1.2225 B( 28-C , 35-C ) :   1.3631
B( 29-C , 30-C ) :   0.9505 B( 30-C , 31-O ) :   2.1731 B( 30-C , 32-N ) :   1.0153
B( 32-N , 33-C ) :   0.9462 B( 32-N , 35-C ) :   1.1810 B( 33-C , 34-C ) :   1.1181
B( 33-C , 76-H ) :   0.9229 B( 33-C , 77-H ) :   0.9508 B( 34-C , 78-H ) :   0.9619
B( 34-C , 79-H ) :   0.9680 B( 34-C , 80-H ) :   0.9680 B( 35-C , 36-C ) :   1.1190
B( 36-C , 37-C ) :   1.6256 B( 36-C , 81-H ) :   0.9468 B( 37-C , 38-C ) :   1.0174
B( 37-C , 82-H ) :   0.9736 B( 38-C , 39-N ) :   1.5512 B( 38-C , 43-N ) :   1.5385
B( 39-N , 40-C ) :   1.5402 B( 40-C , 41-C ) :   1.3939 B( 40-C , 83-H ) :   0.9785
B( 41-C , 42-C ) :   1.3444 B( 41-C , 84-H ) :   0.9677 B( 42-C , 43-N ) :   1.5194
B( 42-C , 44-C ) :   1.0363 B( 44-C , 45-C ) :   1.8038 B( 44-C , 85-H ) :   0.9855
B( 45-C , 46-C ) :   1.0003 B( 45-C , 86-H ) :   0.9614 B( 46-C , 47-C ) :   0.9003
B( 46-C , 51-C ) :   0.9386 B( 46-C , 87-H ) :   0.8810 B( 47-C , 48-O ) :   2.2872
B( 47-C , 49-O ) :   1.0819 B( 49-O , 50-C ) :   1.0517 B( 50-C , 51-C ) :   1.3761
B( 50-C , 55-C ) :   1.3632 B( 51-C , 52-C ) :   1.3459 B( 52-C , 53-C ) :   1.3623
B( 52-C , 55-C ) :   0.1266 B( 52-C , 88-H ) :   1.0321 B( 53-C , 54-C ) :   1.3773
B( 53-C , 59-O ) :   1.0558 B( 54-C , 55-C ) :   1.3448 B( 54-C , 56-C ) :   0.9495
B( 55-C , 89-H ) :   1.0315 B( 56-C , 57-C ) :   0.9062 B( 56-C , 60-C ) :   1.0078
B( 56-C , 90-H ) :   0.8758 B( 57-C , 58-O ) :   2.2831 B( 57-C , 59-O ) :   1.0756
B( 60-C , 61-C ) :   2.0204 B( 60-C , 91-H ) :   0.9659 B( 61-C , 92-H ) :   0.9611
B( 61-C , 93-H ) :   0.9490

-----------------------------------------------------------------------------
         ABSORPTION SPECTRUM VIA TRANSITION ELECTRIC DIPOLE MOMENTS
-----------------------------------------------------------------------------
State   Energy  Wavelength   fosc         T2         TX        TY        TZ
        (cm-1)    (nm)                  (au**2)     (au)      (au)      (au)
-----------------------------------------------------------------------------
   0   17468.5    572.5   0.641961920  12.09847  -0.23038  -1.26730   3.23100
   1   25671.9    389.5   0.000852159   0.01093  -0.05302  -0.08163  -0.03812
   2   26758.1    373.7   0.002676210   0.03293   0.04953  -0.13761   0.10741
   3   28359.6    352.6   0.005197406   0.06033  -0.06884  -0.12591  -0.19935
   4   29455.0    339.5   0.011128925   0.12439  -0.07612  -0.26644   0.21817
   5   30279.6    330.3   0.001226768   0.01334  -0.02474  -0.11217   0.01198
   6   30906.6    323.6   0.018363799   0.19561   0.09826   0.03313  -0.42995
   7   31439.2    318.1   0.001229145   0.01287   0.01643   0.08199  -0.07667
   8   31834.1    314.1   0.004153715   0.04296  -0.01288  -0.10329   0.17922
   9   34071.5    293.5   0.801389708   7.74333  -0.39062  -2.04747   1.84354
  10   35869.7    278.8   0.045783835   0.42020   0.30566   0.33882  -0.46041
  11   36735.4    272.2   0.020786322   0.18628   0.06742   0.42360  -0.04798
  12   36825.5    271.6   0.006588295   0.05890  -0.23623   0.03940  -0.03927
  13   37114.8    269.4   0.749039518   6.64405  -0.50090  -2.36316   0.89924
  14   37714.7    265.1   0.031892329   0.27839   0.01502   0.50287  -0.15902
  15   37768.3    264.8   0.010673171   0.09303   0.26600  -0.05305   0.13951
  16   39083.5    255.9   0.015126184   0.12741  -0.02272  -0.29565   0.19872
  17   39643.3    252.2   0.140071476   1.16320  -0.10223  -0.94708   0.50575

FINAL SINGLE POINT ENERGY     -2849.466101561770

DIPOLE MOMENT
-------------
                                X             Y             Z
Electronic contribution:      3.95441     -10.88136      18.75798
Nuclear contribution   :     -4.29875      10.92721     -18.61419
                        -----------------------------------------
Total Dipole Moment    :     -0.34435       0.04585       0.14379
                        -----------------------------------------
Magnitude (a.u.)       :      0.37597
Magnitude (Debye)      :      0.95564

Rotational constants in cm-1:     0.002260     0.000265     0.000245
Rotational constants in MHz :    67.765814     7.938634     7.348167

                             ****ORCA TERMINATED NORMALLY****
TOTAL RUN TIME: 0 days 0 hours 6 minutes 30 seconds 192 msec
