                         Program Version 4.2.0 -  RELEASE  -
|  1> # ORCA input file
|  2> # SCF done       -195.301156950317          0.000813073301
|  3> ! CAM-B3LYP def2-SVP def2/J RIJCOSX Grid4 TightSCF
|  4> %maxcore 5000
|  5> %tddft
|  6>     Mode sTDDFT
|  7>     Ethresh 5.0
|  8>     maxcore 5000
|  9> end
| 10>
| 11> %pal
| 12>   nprocs 6
| 13>   end
| 14> * xyz 0 1
| 15>    C        3.71531         5.23205        -8.70555
| 16>    C        4.55327         4.22523        -9.09655
| 17>    C        4.25732         3.30382       -10.12301
| 18>    N        4.06294         2.53522       -10.95232
| 19>    C        5.78639         3.95637        -8.46420
| 20>    N        6.76975         3.67586        -7.94323
| 21>    C        2.36746         5.48575        -9.19162
| 22>    C        1.76504         6.48611        -8.37159
| 23>    C        0.48973         6.92382        -8.59288
| 24>    C       -0.25188         6.37446        -9.66197
| 25>    C        0.34522         5.37694       -10.48714
| 26>    C        1.66612         4.94164       -10.23478
| 27>    C       -0.40393         4.84034       -11.55377
| 28>    C       -1.68124         5.26752       -11.79635
| 29>    C       -2.26759         6.25028       -10.98472
| 30>    C       -1.56879         6.79131        -9.93975
| 31>    C        2.72370         6.93002        -7.35215
| 32>    O        2.55906         7.77470        -6.49532
| 33>    C        3.97843         6.18292        -7.63880
| 34>    C        5.17103         6.53768        -7.10678
| 35>    C        5.28296         7.46976        -6.02333
| 36>    C        5.94588         8.67831        -6.04286
| 37>    N        6.65584         9.18101        -7.14703
| 38>    O        7.26232        10.22563        -7.00813
| 39>    O        6.61801         8.53069        -8.18128
| 40>    C        5.72452         9.37456        -4.80093
| 41>    C        4.89706         8.62079        -4.03806
| 42>    C        4.59619         7.39327        -4.73821
| 43>    C        3.96998         6.27058        -4.24006
| 44>    C        4.25300         4.91929        -4.59642
| 45>    C        3.69531         4.09486        -3.66243
| 46>    C        2.96394         4.88157        -2.71709
| 47>    N        2.21392         4.32070        -1.67489
| 48>    O        1.60411         5.06719        -0.92153
| 49>    O        2.21559         3.10506        -1.57214
| 50>    C        3.06083         6.22910        -3.07452
| 51>    C        2.32351         7.30394        -2.56176
| 52>    C        2.02915         8.44216        -3.27491
| 53>    C        1.29792         9.50231        -2.72736
| 54>    S        0.75571        10.85484        -3.69512
| 55>    C       -0.02318        11.66774        -2.35867
| 56>    C        0.13861        10.90581        -1.19228
| 57>    C        0.86773         9.71586        -1.41489
| 58>    O        1.00048         9.01798        -0.27847
| 59>    C        0.35949         9.73112         0.67651
| 60>    C       -0.18345        10.88105         0.19641
| 61>    C       -0.67973        12.89153        -2.58304
| 62>    C       -1.25271        13.65728        -1.61570
| 63>    C       -1.91850        14.86994        -1.91487
| 64>    S       -2.58850        15.91069        -0.66301
| 65>    C       -3.10954        16.94870        -1.99145
| 66>    N       -2.76557        16.46802        -3.15525
| 67>    N       -2.12048        15.34753        -3.11706
| 68>    C       -3.82348        18.15355        -1.76780
| 69>    C       -4.30628        18.92908        -2.77077
| 70>    C       -5.02328        20.11945        -2.48894
| 71>    C       -5.59035        20.93602        -3.42065
| 72>    C       -6.34070        22.15548        -3.16549
| 73>    C       -6.52007        22.77226        -1.95480
| 74>    C       -7.25441        23.96434        -1.77452
| 75>    N       -7.83708        24.92838        -1.55381
| 76>    C       -6.00118        22.33280        -0.71860
| 77>    N       -5.61504        22.04888         0.32525
| 78>    C       -6.86020        22.63253        -4.44137
| 79>    C       -6.40691        21.76341        -5.47483
| 80>    C       -5.58657        20.68868        -4.89221
| 81>    O       -5.03628        19.79028        -5.48933
| 82>    C       -6.73970        21.96298        -6.78392
| 83>    C       -7.56191        23.05914        -7.12690
| 84>    C       -8.02363        23.93137        -6.09870
| 85>    C       -7.65892        23.70210        -4.75275
| 86>    C       -8.84893        25.01913        -6.45049
| 87>    C       -9.20252        25.23603        -7.75430
| 88>    C       -8.74671        24.37716        -8.76585
| 89>    C       -7.94337        23.31243        -8.45912
| 90>    H        0.05264         7.68331        -7.96152
| 91>    H        2.09717         4.19300       -10.88085
| 92>    H        0.05146         4.08378       -12.17551
| 93>    H       -2.24684         4.85056       -12.61586
| 94>    H       -3.27552         6.57693       -11.19195
| 95>    H       -2.01506         7.54859        -9.31201
| 96>    H        6.09688         6.18144        -7.54303
| 97>    H        6.15869        10.32783        -4.56866
| 98>    H        4.59025         8.82769        -3.03144
| 99>    H        4.90848         4.62024        -5.39208
|100>    H        3.77214         3.02489        -3.60957
|101>    H        1.88144         7.16723        -1.58271
|102>    H        2.30348         8.51690        -4.31809
|103>    H        0.35847         9.31299         1.66414
|104>    H       -0.73618        11.59967         0.76353
|105>    H       -0.72416        13.24691        -3.60299
|106>    H       -1.21218        13.36704        -0.57812
|107>    H       -3.98183        18.43503        -0.73465
|108>    H       -4.15108        18.63515        -3.79812
|109>    H       -5.12723        20.37340        -1.44124
|110>    H       -6.38107        21.28939        -7.54802
|111>    H       -8.02715        24.37986        -3.99929
|112>    H       -9.19661        25.67783        -5.66830
|113>    H       -9.83582        26.07104        -8.01369
|114>    H       -9.03575        24.56344        -9.78929
|115>    H       -7.58955        22.64795        -9.23365
|116> *
|117>
|118>                          ****END OF INPUT****

CARTESIAN COORDINATES (ANGSTROEM)
---------------------------------
  C      3.715310    5.232050   -8.705550
  C      4.553270    4.225230   -9.096550
  C      4.257320    3.303820  -10.123010
  N      4.062940    2.535220  -10.952320
  C      5.786390    3.956370   -8.464200
  N      6.769750    3.675860   -7.943230
  C      2.367460    5.485750   -9.191620
  C      1.765040    6.486110   -8.371590
  C      0.489730    6.923820   -8.592880
  C     -0.251880    6.374460   -9.661970
  C      0.345220    5.376940  -10.487140
  C      1.666120    4.941640  -10.234780
  C     -0.403930    4.840340  -11.553770
  C     -1.681240    5.267520  -11.796350
  C     -2.267590    6.250280  -10.984720
  C     -1.568790    6.791310   -9.939750
  C      2.723700    6.930020   -7.352150
  O      2.559060    7.774700   -6.495320
  C      3.978430    6.182920   -7.638800
  C      5.171030    6.537680   -7.106780
  C      5.282960    7.469760   -6.023330
  C      5.945880    8.678310   -6.042860
  N      6.655840    9.181010   -7.147030
  O      7.262320   10.225630   -7.008130
  O      6.618010    8.530690   -8.181280
  C      5.724520    9.374560   -4.800930
  C      4.897060    8.620790   -4.038060
  C      4.596190    7.393270   -4.738210
  C      3.969980    6.270580   -4.240060
  C      4.253000    4.919290   -4.596420
  C      3.695310    4.094860   -3.662430
  C      2.963940    4.881570   -2.717090
  N      2.213920    4.320700   -1.674890
  O      1.604110    5.067190   -0.921530
  O      2.215590    3.105060   -1.572140
  C      3.060830    6.229100   -3.074520
  C      2.323510    7.303940   -2.561760
  C      2.029150    8.442160   -3.274910
  C      1.297920    9.502310   -2.727360
  S      0.755710   10.854840   -3.695120
  C     -0.023180   11.667740   -2.358670
  C      0.138610   10.905810   -1.192280
  C      0.867730    9.715860   -1.414890
  O      1.000480    9.017980   -0.278470
  C      0.359490    9.731120    0.676510
  C     -0.183450   10.881050    0.196410
  C     -0.679730   12.891530   -2.583040
  C     -1.252710   13.657280   -1.615700
  C     -1.918500   14.869940   -1.914870
  S     -2.588500   15.910690   -0.663010
  C     -3.109540   16.948700   -1.991450
  N     -2.765570   16.468020   -3.155250
  N     -2.120480   15.347530   -3.117060
  C     -3.823480   18.153550   -1.767800
  C     -4.306280   18.929080   -2.770770
  C     -5.023280   20.119450   -2.488940
  C     -5.590350   20.936020   -3.420650
  C     -6.340700   22.155480   -3.165490
  C     -6.520070   22.772260   -1.954800
  C     -7.254410   23.964340   -1.774520
  N     -7.837080   24.928380   -1.553810
  C     -6.001180   22.332800   -0.718600
  N     -5.615040   22.048880    0.325250
  C     -6.860200   22.632530   -4.441370
  C     -6.406910   21.763410   -5.474830
  C     -5.586570   20.688680   -4.892210
  O     -5.036280   19.790280   -5.489330
  C     -6.739700   21.962980   -6.783920
  C     -7.561910   23.059140   -7.126900
  C     -8.023630   23.931370   -6.098700
  C     -7.658920   23.702100   -4.752750
  C     -8.848930   25.019130   -6.450490
  C     -9.202520   25.236030   -7.754300
  C     -8.746710   24.377160   -8.765850
  C     -7.943370   23.312430   -8.459120
  H      0.052640    7.683310   -7.961520
  H      2.097170    4.193000  -10.880850
  H      0.051460    4.083780  -12.175510
  H     -2.246840    4.850560  -12.615860
  H     -3.275520    6.576930  -11.191950
  H     -2.015060    7.548590   -9.312010
  H      6.096880    6.181440   -7.543030
  H      6.158690   10.327830   -4.568660
  H      4.590250    8.827690   -3.031440
  H      4.908480    4.620240   -5.392080
  H      3.772140    3.024890   -3.609570
  H      1.881440    7.167230   -1.582710
  H      2.303480    8.516900   -4.318090
  H      0.358470    9.312990    1.664140
  H     -0.736180   11.599670    0.763530
  H     -0.724160   13.246910   -3.602990
  H     -1.212180   13.367040   -0.578120
  H     -3.981830   18.435030   -0.734650
  H     -4.151080   18.635150   -3.798120
  H     -5.127230   20.373400   -1.441240
  H     -6.381070   21.289390   -7.548020
  H     -8.027150   24.379860   -3.999290
  H     -9.196610   25.677830   -5.668300
  H     -9.835820   26.071040   -8.013690
  H     -9.035750   24.563440   -9.789290
  H     -7.589550   22.647950   -9.233650

 Total Charge           Charge          ....    0
 Multiplicity           Mult            ....    1
 Number of Electrons    NEL             ....  518
 Basis Dimension        Dim             .... 1188

ORBITAL ENERGIES
----------------

  NO   OCC          E(Eh)            E(eV)
   0   2.0000     -88.986364     -2421.4421
   1   2.0000     -88.984137     -2421.3815
   2   2.0000     -19.316566      -525.6305
   3   2.0000     -19.247172      -523.7422
   4   2.0000     -19.245881      -523.7071
   5   2.0000     -19.233673      -523.3748
   6   2.0000     -19.226429      -523.1777
   7   2.0000     -19.226164      -523.1705
   8   2.0000     -19.218786      -522.9698
   9   2.0000     -14.653728      -398.7482
  10   2.0000     -14.636258      -398.2728
  11   2.0000     -14.450964      -393.2307
  12   2.0000     -14.447690      -393.1416
  13   2.0000     -14.424131      -392.5005
  14   2.0000     -14.423591      -392.4859
  15   2.0000     -14.420603      -392.4046
  16   2.0000     -14.417648      -392.3241
  17   2.0000     -10.383120      -282.5391
  18   2.0000     -10.369494      -282.1683
  19   2.0000     -10.359391      -281.8934
  20   2.0000     -10.358407      -281.8666
  21   2.0000     -10.355302      -281.7821
  22   2.0000     -10.353262      -281.7266
  23   2.0000     -10.351186      -281.6701
  24   2.0000     -10.349406      -281.6217
  25   2.0000     -10.345980      -281.5284
  26   2.0000     -10.343906      -281.4720
  27   2.0000     -10.338794      -281.3329
  28   2.0000     -10.337180      -281.2890
  29   2.0000     -10.332684      -281.1666
  30   2.0000     -10.332599      -281.1643
  31   2.0000     -10.328254      -281.0461
  32   2.0000     -10.326400      -280.9956
  33   2.0000     -10.326031      -280.9856
  34   2.0000     -10.325425      -280.9691
  35   2.0000     -10.323369      -280.9132
  36   2.0000     -10.320444      -280.8336
  37   2.0000     -10.320203      -280.8270
  38   2.0000     -10.320007      -280.8217
  39   2.0000     -10.318091      -280.7695
  40   2.0000     -10.317579      -280.7556
  41   2.0000     -10.315286      -280.6932
  42   2.0000     -10.313991      -280.6580
  43   2.0000     -10.313762      -280.6517
  44   2.0000     -10.312924      -280.6289
  45   2.0000     -10.311541      -280.5913
  46   2.0000     -10.308883      -280.5190
  47   2.0000     -10.308812      -280.5170
  48   2.0000     -10.308173      -280.4996
  49   2.0000     -10.306934      -280.4659
  50   2.0000     -10.306681      -280.4590
  51   2.0000     -10.306177      -280.4453
  52   2.0000     -10.305363      -280.4232
  53   2.0000     -10.304024      -280.3867
  54   2.0000     -10.301735      -280.3244
  55   2.0000     -10.300067      -280.2791
  56   2.0000     -10.300066      -280.2791
  57   2.0000     -10.299807      -280.2720
  58   2.0000     -10.299786      -280.2714
  59   2.0000     -10.299070      -280.2519
  60   2.0000     -10.298566      -280.2382
  61   2.0000     -10.296323      -280.1772
  62   2.0000     -10.296057      -280.1699
  63   2.0000     -10.295197      -280.1465
  64   2.0000     -10.294605      -280.1304
  65   2.0000     -10.294099      -280.1167
  66   2.0000     -10.293690      -280.1055
  67   2.0000     -10.293111      -280.0898
  68   2.0000     -10.292617      -280.0763
  69   2.0000     -10.290535      -280.0197
  70   2.0000     -10.288923      -279.9758
  71   2.0000     -10.288228      -279.9569
  72   2.0000     -10.288000      -279.9507
  73   2.0000     -10.287507      -279.9373
  74   2.0000     -10.281651      -279.7780
  75   2.0000      -8.081259      -219.9022
  76   2.0000      -8.080599      -219.8843
  77   2.0000      -6.050541      -164.6436
  78   2.0000      -6.049189      -164.6068
  79   2.0000      -6.046490      -164.5334
  80   2.0000      -6.045953      -164.5187
  81   2.0000      -6.043350      -164.4479
  82   2.0000      -6.042973      -164.4377
  83   2.0000      -1.324891       -36.0521
  84   2.0000      -1.305092       -35.5134
  85   2.0000      -1.238247       -33.6944
  86   2.0000      -1.154748       -31.4223
  87   2.0000      -1.147977       -31.2381
  88   2.0000      -1.143216       -31.1085
  89   2.0000      -1.133794       -30.8521
  90   2.0000      -1.122011       -30.5315
  91   2.0000      -1.027634       -27.9633
  92   2.0000      -1.021493       -27.7962
  93   2.0000      -1.019553       -27.7435
  94   2.0000      -1.010882       -27.5075
  95   2.0000      -1.007664       -27.4199
  96   2.0000      -1.002238       -27.2723
  97   2.0000      -1.001447       -27.2508
  98   2.0000      -0.997690       -27.1485
  99   2.0000      -0.997170       -27.1344
 100   2.0000      -0.980351       -26.6767
 101   2.0000      -0.974274       -26.5113
 102   2.0000      -0.961430       -26.1618
 103   2.0000      -0.944577       -25.7033
 104   2.0000      -0.934590       -25.4315
 105   2.0000      -0.933280       -25.3959
 106   2.0000      -0.927203       -25.2305
 107   2.0000      -0.915590       -24.9145
 108   2.0000      -0.912358       -24.8265
 109   2.0000      -0.911476       -24.8025
 110   2.0000      -0.903616       -24.5886
 111   2.0000      -0.893708       -24.3190
 112   2.0000      -0.891053       -24.2468
 113   2.0000      -0.886814       -24.1314
 114   2.0000      -0.885425       -24.0937
 115   2.0000      -0.882574       -24.0161
 116   2.0000      -0.878705       -23.9108
 117   2.0000      -0.857110       -23.3232
 118   2.0000      -0.848932       -23.1006
 119   2.0000      -0.840662       -22.8756
 120   2.0000      -0.837579       -22.7917
 121   2.0000      -0.833156       -22.6713
 122   2.0000      -0.830547       -22.6003
 123   2.0000      -0.812421       -22.1071
 124   2.0000      -0.799404       -21.7529
 125   2.0000      -0.789981       -21.4965
 126   2.0000      -0.776706       -21.1352
 127   2.0000      -0.771531       -20.9944
 128   2.0000      -0.764483       -20.8026
 129   2.0000      -0.747617       -20.3437
 130   2.0000      -0.743613       -20.2347
 131   2.0000      -0.736988       -20.0545
 132   2.0000      -0.729744       -19.8573
 133   2.0000      -0.721471       -19.6322
 134   2.0000      -0.713333       -19.4108
 135   2.0000      -0.712724       -19.3942
 136   2.0000      -0.708901       -19.2902
 137   2.0000      -0.705145       -19.1880
 138   2.0000      -0.704708       -19.1761
 139   2.0000      -0.698739       -19.0136
 140   2.0000      -0.690129       -18.7794
 141   2.0000      -0.686235       -18.6734
 142   2.0000      -0.683445       -18.5975
 143   2.0000      -0.674124       -18.3439
 144   2.0000      -0.673360       -18.3231
 145   2.0000      -0.659534       -17.9468
 146   2.0000      -0.653201       -17.7745
 147   2.0000      -0.649097       -17.6628
 148   2.0000      -0.643688       -17.5156
 149   2.0000      -0.639813       -17.4102
 150   2.0000      -0.636476       -17.3194
 151   2.0000      -0.634789       -17.2735
 152   2.0000      -0.628033       -17.0896
 153   2.0000      -0.621082       -16.9005
 154   2.0000      -0.620088       -16.8735
 155   2.0000      -0.617998       -16.8166
 156   2.0000      -0.615732       -16.7549
 157   2.0000      -0.614553       -16.7228
 158   2.0000      -0.612196       -16.6587
 159   2.0000      -0.609074       -16.5738
 160   2.0000      -0.602814       -16.4034
 161   2.0000      -0.593025       -16.1370
 162   2.0000      -0.592357       -16.1189
 163   2.0000      -0.591218       -16.0879
 164   2.0000      -0.583785       -15.8856
 165   2.0000      -0.581429       -15.8215
 166   2.0000      -0.575576       -15.6622
 167   2.0000      -0.573164       -15.5966
 168   2.0000      -0.562944       -15.3185
 169   2.0000      -0.562107       -15.2957
 170   2.0000      -0.555933       -15.1277
 171   2.0000      -0.553509       -15.0617
 172   2.0000      -0.552641       -15.0381
 173   2.0000      -0.549973       -14.9655
 174   2.0000      -0.548969       -14.9382
 175   2.0000      -0.547769       -14.9055
 176   2.0000      -0.545975       -14.8567
 177   2.0000      -0.544772       -14.8240
 178   2.0000      -0.539922       -14.6920
 179   2.0000      -0.539664       -14.6850
 180   2.0000      -0.537758       -14.6331
 181   2.0000      -0.536605       -14.6018
 182   2.0000      -0.531362       -14.4591
 183   2.0000      -0.530417       -14.4334
 184   2.0000      -0.524309       -14.2672
 185   2.0000      -0.521630       -14.1943
 186   2.0000      -0.520507       -14.1637
 187   2.0000      -0.516816       -14.0633
 188   2.0000      -0.516635       -14.0584
 189   2.0000      -0.513839       -13.9823
 190   2.0000      -0.512014       -13.9326
 191   2.0000      -0.506944       -13.7946
 192   2.0000      -0.506118       -13.7722
 193   2.0000      -0.503463       -13.6999
 194   2.0000      -0.500272       -13.6131
 195   2.0000      -0.499847       -13.6015
 196   2.0000      -0.498207       -13.5569
 197   2.0000      -0.497733       -13.5440
 198   2.0000      -0.491742       -13.3810
 199   2.0000      -0.489702       -13.3255
 200   2.0000      -0.488610       -13.2958
 201   2.0000      -0.487720       -13.2715
 202   2.0000      -0.485560       -13.2128
 203   2.0000      -0.480802       -13.0833
 204   2.0000      -0.478081       -13.0092
 205   2.0000      -0.476004       -12.9527
 206   2.0000      -0.473650       -12.8887
 207   2.0000      -0.466746       -12.7008
 208   2.0000      -0.465778       -12.6745
 209   2.0000      -0.463084       -12.6011
 210   2.0000      -0.456281       -12.4160
 211   2.0000      -0.452768       -12.3204
 212   2.0000      -0.452334       -12.3086
 213   2.0000      -0.451312       -12.2808
 214   2.0000      -0.448631       -12.2079
 215   2.0000      -0.447647       -12.1811
 216   2.0000      -0.444781       -12.1031
 217   2.0000      -0.442551       -12.0424
 218   2.0000      -0.442477       -12.0404
 219   2.0000      -0.441656       -12.0181
 220   2.0000      -0.440900       -11.9975
 221   2.0000      -0.436435       -11.8760
 222   2.0000      -0.435482       -11.8501
 223   2.0000      -0.434679       -11.8282
 224   2.0000      -0.433896       -11.8069
 225   2.0000      -0.429189       -11.6788
 226   2.0000      -0.428297       -11.6546
 227   2.0000      -0.422555       -11.4983
 228   2.0000      -0.418567       -11.3898
 229   2.0000      -0.412046       -11.2123
 230   2.0000      -0.409585       -11.1454
 231   2.0000      -0.409217       -11.1354
 232   2.0000      -0.402233       -10.9453
 233   2.0000      -0.394577       -10.7370
 234   2.0000      -0.393884       -10.7181
 235   2.0000      -0.385810       -10.4984
 236   2.0000      -0.384161       -10.4536
 237   2.0000      -0.381731       -10.3874
 238   2.0000      -0.380775       -10.3614
 239   2.0000      -0.375365       -10.2142
 240   2.0000      -0.373728       -10.1697
 241   2.0000      -0.372385       -10.1331
 242   2.0000      -0.366512        -9.9733
 243   2.0000      -0.359520        -9.7830
 244   2.0000      -0.354884        -9.6569
 245   2.0000      -0.353840        -9.6285
 246   2.0000      -0.347986        -9.4692
 247   2.0000      -0.338207        -9.2031
 248   2.0000      -0.334675        -9.1070
 249   2.0000      -0.331898        -9.0314
 250   2.0000      -0.330477        -8.9927
 251   2.0000      -0.325983        -8.8704
 252   2.0000      -0.321101        -8.7376
 253   2.0000      -0.316465        -8.6114
 254   2.0000      -0.308118        -8.3843
 255   2.0000      -0.300976        -8.1900
 256   2.0000      -0.296948        -8.0804
 257   2.0000      -0.287569        -7.8252
 258   2.0000      -0.250131        -6.8064
 259   0.0000      -0.134617        -3.6631
 260   0.0000      -0.108213        -2.9446
 261   0.0000      -0.095061        -2.5867
 262   0.0000      -0.078086        -2.1248
 263   0.0000      -0.067799        -1.8449

MULLIKEN ATOMIC CHARGES
-----------------------
   0 C :    0.304567
   1 C :   -0.320374
   2 C :   -0.183390
   3 N :    0.155699
   4 C :   -0.192445
   5 N :    0.162633
   6 C :    0.051942
   7 C :   -0.003386
   8 C :   -0.074165
   9 C :    0.098015
  10 C :    0.097588
  11 C :   -0.081237
  12 C :   -0.017222
  13 C :    0.038766
  14 C :    0.039254
  15 C :   -0.017896
  16 C :    0.177152
  17 O :   -0.154303
  18 C :   -0.096263
  19 C :   -0.026942
  20 C :   -0.002560
  21 C :    0.108454
  22 N :    0.270220
  23 O :   -0.234634
  24 O :   -0.248376
  25 C :    0.006051
  26 C :    0.012893
  27 C :    0.058895
  28 C :    0.024958
  29 C :   -0.006250
  30 C :    0.026812
  31 C :    0.076943
  32 N :    0.274191
  33 O :   -0.265927
  34 O :   -0.259229
  35 C :    0.049335
  36 C :   -0.068811
  37 C :    0.064296
  38 C :   -0.196716
  39 S :    0.192544
  40 C :   -0.148844
  41 C :    0.116797
  42 C :    0.173606
  43 O :   -0.185234
  44 C :    0.180180
  45 C :   -0.070022
  46 C :    0.077349
  47 C :    0.046681
  48 C :   -0.093971
  49 S :    0.104469
  50 C :   -0.107219
  51 N :   -0.022775
  52 N :   -0.049484
  53 C :    0.084343
  54 C :    0.013610
  55 C :   -0.055646
  56 C :   -0.052589
  57 C :    0.334089
  58 C :   -0.352864
  59 C :   -0.183142
  60 N :    0.150691
  61 C :   -0.190143
  62 N :    0.148077
  63 C :    0.046039
  64 C :   -0.003641
  65 C :    0.145645
  66 O :   -0.138207
  67 C :   -0.075815
  68 C :    0.095483
  69 C :    0.095465
  70 C :   -0.081473
  71 C :   -0.017012
  72 C :    0.035757
  73 C :    0.037559
  74 C :   -0.016652
  75 H :   -0.014321
  76 H :   -0.004379
  77 H :   -0.006110
  78 H :   -0.000705
  79 H :   -0.001800
  80 H :   -0.015039
  81 H :    0.057780
  82 H :   -0.002449
  83 H :    0.004807
  84 H :   -0.007020
  85 H :    0.009814
  86 H :    0.033340
  87 H :    0.016232
  88 H :    0.028428
  89 H :    0.005396
  90 H :    0.016333
  91 H :   -0.025105
  92 H :    0.011148
  93 H :    0.053728
  94 H :    0.013068
  95 H :   -0.012020
  96 H :   -0.009459
  97 H :   -0.008212
  98 H :   -0.003977
  99 H :   -0.004723
 100 H :   -0.016946
Sum of atomic charges:   -0.0000000

LOEWDIN ATOMIC CHARGES
----------------------
   0 C :    0.076210
   1 C :   -0.126562
   2 C :   -0.017855
   3 N :   -0.043474
   4 C :   -0.021677
   5 N :   -0.044333
   6 C :   -0.023618
   7 C :   -0.057319
   8 C :    0.037439
   9 C :   -0.007877
  10 C :   -0.003604
  11 C :    0.023030
  12 C :   -0.004035
  13 C :   -0.008810
  14 C :   -0.009229
  15 C :   -0.007713
  16 C :    0.097808
  17 O :   -0.144986
  18 C :   -0.077787
  19 C :    0.082348
  20 C :   -0.006715
  21 C :   -0.017960
  22 N :    0.285715
  23 O :   -0.198766
  24 O :   -0.208401
  25 C :   -0.011199
  26 C :   -0.017133
  27 C :    0.032949
  28 C :    0.055780
  29 C :   -0.059899
  30 C :    0.037217
  31 C :   -0.072698
  32 N :    0.285427
  33 O :   -0.230124
  34 O :   -0.223374
  35 C :    0.021755
  36 C :   -0.019754
  37 C :    0.007526
  38 C :   -0.197993
  39 S :    0.480634
  40 C :   -0.164668
  41 C :   -0.064912
  42 C :    0.026794
  43 O :    0.016263
  44 C :    0.083001
  45 C :   -0.073128
  46 C :    0.003892
  47 C :   -0.057400
  48 C :   -0.141098
  49 S :    0.389741
  50 C :   -0.156987
  51 N :   -0.053029
  52 N :   -0.076998
  53 C :   -0.011824
  54 C :    0.008580
  55 C :    0.061346
  56 C :   -0.080474
  57 C :    0.075074
  58 C :   -0.136184
  59 C :   -0.017022
  60 N :   -0.051630
  61 C :   -0.019761
  62 N :   -0.053010
  63 C :   -0.026321
  64 C :   -0.055883
  65 C :    0.083561
  66 O :   -0.133943
  67 C :    0.033184
  68 C :   -0.007594
  69 C :   -0.005992
  70 C :    0.020003
  71 C :   -0.005004
  72 C :   -0.012870
  73 C :   -0.011146
  74 C :   -0.009370
  75 H :    0.039049
  76 H :    0.040421
  77 H :    0.036009
  78 H :    0.034918
  79 H :    0.034317
  80 H :    0.032802
  81 H :    0.054289
  82 H :    0.037727
  83 H :    0.033014
  84 H :    0.029344
  85 H :    0.040878
  86 H :    0.037923
  87 H :    0.037506
  88 H :    0.033676
  89 H :    0.033244
  90 H :    0.042669
  91 H :    0.030085
  92 H :    0.038101
  93 H :    0.044021
  94 H :    0.041611
  95 H :    0.039522
  96 H :    0.038947
  97 H :    0.035075
  98 H :    0.033524
  99 H :    0.033008
 100 H :    0.032189

  Mayer bond orders larger than 0.100000
B(  0-C ,  1-C ) :   1.6794 B(  0-C ,  6-C ) :   1.0026 B(  0-C , 18-C ) :   1.0201
B(  1-C ,  2-C ) :   1.1335 B(  1-C ,  4-C ) :   1.1502 B(  2-C ,  3-N ) :   2.9745
B(  4-C ,  5-N ) :   2.9608 B(  6-C ,  7-C ) :   1.2112 B(  6-C , 11-C ) :   1.4492
B(  7-C ,  8-C ) :   1.4595 B(  7-C , 16-C ) :   0.9608 B(  8-C ,  9-C ) :   1.1850
B(  8-C , 75-H ) :   1.0179 B(  9-C , 10-C ) :   1.2537 B(  9-C , 15-C ) :   1.2400
B( 10-C , 11-C ) :   1.2040 B( 10-C , 12-C ) :   1.2400 B( 11-C , 76-H ) :   0.9925
B( 12-C , 13-C ) :   1.4873 B( 12-C , 77-H ) :   0.9985 B( 13-C , 14-C ) :   1.2592
B( 13-C , 78-H ) :   0.9893 B( 14-C , 15-C ) :   1.4903 B( 14-C , 79-H ) :   0.9884
B( 15-C , 80-H ) :   0.9987 B( 16-C , 17-O ) :   2.1272 B( 16-C , 18-C ) :   0.9501
B( 18-C , 19-C ) :   1.6975 B( 19-C , 20-C ) :   1.0661 B( 19-C , 81-H ) :   0.9229
B( 20-C , 21-C ) :   1.5720 B( 20-C , 27-C ) :   1.0648 B( 21-C , 22-N ) :   0.9333
B( 21-C , 25-C ) :   1.1329 B( 22-N , 23-O ) :   1.5370 B( 22-N , 24-O ) :   1.4950
B( 23-O , 24-O ) :   0.2689 B( 25-C , 26-C ) :   1.5828 B( 25-C , 82-H ) :   1.0169
B( 26-C , 27-C ) :   1.1250 B( 26-C , 83-H ) :   0.9945 B( 27-C , 28-C ) :   1.4602
B( 28-C , 29-C ) :   1.1827 B( 28-C , 35-C ) :   0.9983 B( 29-C , 30-C ) :   1.5211
B( 29-C , 84-H ) :   1.0003 B( 30-C , 31-C ) :   1.1497 B( 30-C , 85-H ) :   1.0114
B( 31-C , 32-N ) :   0.9680 B( 31-C , 35-C ) :   1.4416 B( 32-N , 33-O ) :   1.4870
B( 32-N , 34-O ) :   1.5254 B( 33-O , 34-O ) :   0.2499 B( 35-C , 36-C ) :   1.2572
B( 36-C , 37-C ) :   1.4816 B( 36-C , 86-H ) :   0.9498 B( 37-C , 38-C ) :   1.2212
B( 37-C , 87-H ) :   0.9357 B( 38-C , 39-S ) :   1.1148 B( 38-C , 40-C ) :   0.1008
B( 38-C , 42-C ) :   1.3589 B( 39-S , 40-C ) :   1.1329 B( 40-C , 41-C ) :   1.3260
B( 40-C , 46-C ) :   1.1647 B( 41-C , 42-C ) :   1.2805 B( 41-C , 45-C ) :   1.1326
B( 42-C , 43-O ) :   1.1488 B( 43-O , 44-C ) :   1.0981 B( 44-C , 45-C ) :   1.6138
B( 44-C , 88-H ) :   1.0036 B( 45-C , 89-H ) :   1.0026 B( 46-C , 47-C ) :   1.6646
B( 46-C , 90-H ) :   0.9625 B( 47-C , 48-C ) :   1.1372 B( 47-C , 91-H ) :   0.9490
B( 48-C , 49-S ) :   1.1023 B( 48-C , 52-N ) :   1.6434 B( 49-S , 50-C ) :   1.0814
B( 50-C , 51-N ) :   1.6634 B( 50-C , 53-C ) :   1.0928 B( 51-N , 52-N ) :   1.2538
B( 53-C , 54-C ) :   1.6282 B( 53-C , 92-H ) :   0.9584 B( 54-C , 55-C ) :   1.1248
B( 54-C , 93-H ) :   0.9863 B( 55-C , 56-C ) :   1.5677 B( 55-C , 94-H ) :   0.9608
B( 56-C , 57-C ) :   1.0562 B( 56-C , 65-C ) :   0.9319 B( 57-C , 58-C ) :   1.6312
B( 57-C , 63-C ) :   0.9916 B( 58-C , 59-C ) :   1.1451 B( 58-C , 61-C ) :   1.1462
B( 59-C , 60-N ) :   2.9633 B( 61-C , 62-N ) :   2.9631 B( 63-C , 64-C ) :   1.2147
B( 63-C , 70-C ) :   1.4460 B( 64-C , 65-C ) :   0.9405 B( 64-C , 67-C ) :   1.4714
B( 65-C , 66-O ) :   2.2244 B( 67-C , 68-C ) :   1.1823 B( 67-C , 95-H ) :   1.0151
B( 68-C , 69-C ) :   1.2542 B( 68-C , 74-C ) :   1.2430 B( 69-C , 70-C ) :   1.2107
B( 69-C , 71-C ) :   1.2383 B( 70-C , 96-H ) :   0.9882 B( 71-C , 72-C ) :   1.4902
B( 71-C , 97-H ) :   0.9970 B( 72-C , 73-C ) :   1.2586 B( 72-C , 98-H ) :   0.9886
B( 73-C , 74-C ) :   1.4909 B( 73-C , 99-H ) :   0.9888 B( 74-C ,100-H ) :   0.9973

-----------------------------------------------------------------------------
         ABSORPTION SPECTRUM VIA TRANSITION ELECTRIC DIPOLE MOMENTS
-----------------------------------------------------------------------------
State   Energy  Wavelength   fosc         T2         TX        TY        TZ
        (cm-1)    (nm)                  (au**2)     (au)      (au)      (au)
-----------------------------------------------------------------------------
   0    8853.3   1129.5   0.381002536  14.16770   2.18818  -2.73863  -1.37094
   1   17355.1    576.2   0.908640973  17.23613  -2.25691   3.40100  -0.75877
   2   17762.9    563.0   0.696583115  12.91027  -1.52771   3.25103  -0.08487
   3   19646.8    509.0   0.275082753   4.60943  -0.80088   1.95904   0.36078
   4   20504.0    487.7   0.011581450   0.18595   0.01561  -0.30466  -0.30478
   5   22311.8    448.2   0.014789137   0.21821  -0.15117   0.32490  -0.29968
   6   23407.7    427.2   0.030981355   0.43573  -0.17513   0.20612   0.60214
   7   24233.3    412.7   0.032570932   0.44248  -0.00241   0.36218  -0.55794
   8   24622.9    406.1   0.039509892   0.52825  -0.21399   0.54555   0.42992
   9   25106.4    398.3   0.021790646   0.28573  -0.12402   0.37092  -0.36438
  10   25403.2    393.7   0.032086912   0.41583   0.06192   0.13759  -0.62695
  11   25641.4    390.0   0.018599902   0.23881   0.21526  -0.42151   0.12164
  12   25714.8    388.9   0.082979163   1.06233   0.54873  -0.86791   0.08920
  13   26025.2    384.2   0.222416869   2.81352  -0.06054  -1.60776   0.47432
  14   26364.3    379.3   0.065299369   0.81540   0.39293   0.29392   0.75803
  15   26524.8    377.0   0.001120016   0.01390  -0.02785  -0.02923  -0.11077
  16   26843.3    372.5   0.060643616   0.74375  -0.40502   0.35377  -0.67421
  17   27687.0    361.2   0.167538875   1.99212  -0.58332   1.18308  -0.50217
  18   27996.7    357.2   0.031736203   0.37318  -0.10445   0.40834   0.44219
  19   28321.1    353.1   0.040451522   0.47022   0.26318  -0.14140   0.61722
  20   28526.7    350.5   0.107213337   1.23730  -1.09253  -0.17512  -0.11408
  21   28681.5    348.7   0.186390845   2.13943  -0.06768   1.04764  -1.01848
  22   29642.7    337.4   0.007131552   0.07920  -0.11283   0.16171   0.20080
  23   29928.9    334.1   0.063083957   0.69391  -0.10856  -0.63919  -0.52304
  24   30129.3    331.9   0.132491956   1.44769  -0.72447  -0.92779  -0.24909
  25   30173.7    331.4   0.100877472   1.10063   1.03390   0.04273  -0.17276
  26   30248.9    330.6   0.020304384   0.22098  -0.03873  -0.46287   0.07236
  27   30893.0    323.7   0.148453233   1.58200   0.02429  -0.45825   1.17107
  28   31220.6    320.3   0.114369340   1.20599  -0.64886  -0.59091  -0.66014
  29   31432.5    318.1   0.152838213   1.60077  -0.33639   0.85135  -0.87339
  30   31467.6    317.8   0.004970612   0.05200  -0.04220   0.15046  -0.16609
  31   31523.2    317.2   0.060134121   0.62801   0.74609   0.19996   0.17712
  32   32248.9    310.1   0.078011428   0.79638   0.84968   0.02745   0.27141
  33   32544.2    307.3   0.107662304   1.08910  -0.99464  -0.16167  -0.27140
  34   32871.9    304.2   0.408373574   4.08985   0.80750  -0.65398   1.73496
  35   32976.3    303.2   0.194486278   1.94161  -0.37603  -1.17687   0.64435
  36   33016.2    302.9   0.035802599   0.35700   0.30707  -0.11485   0.49951
  37   33252.5    300.7   0.005317149   0.05264  -0.06983   0.17441  -0.13170
  38   33691.0    296.8   0.056741782   0.55445   0.71154  -0.13583   0.17238
  39   33998.2    294.1   0.079961354   0.77428   0.55661  -0.66720   0.13893
  40   34268.7    291.8   0.297839460   2.86128   1.53614  -0.70312   0.08473
  41   34442.4    290.3   0.264105429   2.52441   0.41023  -0.36295   1.49144
  42   34804.4    287.3   0.256015070   2.42163   1.49638  -0.39364   0.16591
  43   35133.3    284.6   0.226197717   2.11956   0.22069  -0.46064   1.36333
  44   35276.7    283.5   0.038866921   0.36272   0.14769   0.44146   0.38212
  45   35476.6    281.9   0.024333452   0.22581  -0.06902   0.43457  -0.17942
  46   35830.6    279.1   0.018103176   0.16633  -0.21950  -0.15106  -0.30876
  47   35978.8    277.9   0.040727221   0.37266   0.17495  -0.10447   0.57545
  48   36271.8    275.7   0.026896663   0.24412   0.48403  -0.09893  -0.00678
  49   36403.6    274.7   0.003409134   0.03083  -0.00707   0.12822   0.11975
  50   36458.1    274.3   0.074760409   0.67508   0.64715   0.45976   0.21189
  51   36633.0    273.0   0.033109230   0.29755   0.32830   0.41241  -0.14029
  52   36678.0    272.6   0.014327528   0.12860  -0.20015   0.07468   0.28804
  53   36875.3    271.2   0.001861651   0.01662  -0.03384  -0.00772  -0.12416
  54   37176.3    269.0   0.115971604   1.02698  -0.23942   0.59381  -0.78552
  55   37456.6    267.0   0.134249284   1.17994   1.07290  -0.16706  -0.03032
  56   37606.0    265.9   0.001374679   0.01203  -0.01418   0.10645  -0.02242
  57   37786.1    264.6   0.005513260   0.04803  -0.19094  -0.05045   0.09503
  58   37855.9    264.2   0.121318737   1.05504   0.91069  -0.37787   0.28793
  59   38069.4    262.7   0.010915631   0.09439  -0.08848   0.03533   0.29209
  60   38401.7    260.4   0.041639088   0.35697  -0.24321  -0.54546  -0.01690
  61   38486.6    259.8   0.165588363   1.41643  -0.10705  -0.78878  -0.88476
  62   38611.4    259.0   0.019324539   0.16477   0.00938   0.38432   0.13029
  63   39059.1    256.0   0.099205197   0.83616   0.21968   0.58417  -0.66831
  64   39132.4    255.5   0.120889416   1.01702   0.05644  -0.56937  -0.83045
  65   39202.4    255.1   0.034159441   0.28686  -0.49344  -0.12925   0.16332
  66   39576.9    252.7   0.049524752   0.41196   0.07871   0.63246  -0.07589
  67   39772.1    251.4   0.196755579   1.62864   0.78827   0.85695   0.52241
  68   39941.7    250.4   0.198966341   1.63994   0.72064  -0.41066  -0.97570

FINAL SINGLE POINT ENERGY     -3982.154297465082

DIPOLE MOMENT
-------------
                                X             Y             Z
Electronic contribution:     24.06177     -14.14617      15.35349
Nuclear contribution   :    -27.15470      15.62587     -16.08442
                        -----------------------------------------
Total Dipole Moment    :     -3.09293       1.47970      -0.73093
                        -----------------------------------------
Magnitude (a.u.)       :      3.50571
Magnitude (Debye)      :      8.91080

Rotational constants in cm-1:     0.001253     0.000228     0.000207
Rotational constants in MHz :    37.560416     6.823770     6.211825

                             ****ORCA TERMINATED NORMALLY****
TOTAL RUN TIME: 0 days 0 hours 12 minutes 17 seconds 327 msec
