                         Program Version 4.2.0 -  RELEASE  -
|  1> # ORCA input file
|  2> # SCF done       -193.189942433033          0.000196061876
|  3> ! CAM-B3LYP def2-SVP def2/J RIJCOSX Grid4 TightSCF
|  4> %maxcore 5000
|  5> %tddft
|  6>     Mode sTDDFT
|  7>     Ethresh 5.0
|  8>     maxcore 5000
|  9> end
| 10>
| 11> %pal
| 12>   nprocs 6
| 13>   end
| 14> * xyz 0 1
| 15>    C        6.26673         1.46676        -6.64932
| 16>    C        6.84348         2.38045        -5.80950
| 17>    C        7.88034         2.06681        -4.90676
| 18>    N        8.70965         1.85329        -4.14244
| 19>    C        6.53420         3.75708        -5.81351
| 20>    N        6.37668         4.89380        -5.82086
| 21>    C        6.74303         0.10843        -6.88089
| 22>    C        6.22990        -0.34611        -8.13166
| 23>    C        6.55010        -1.57480        -8.63372
| 24>    C        7.40367        -2.42198        -7.89210
| 25>    C        7.90561        -1.98036        -6.63342
| 26>    C        7.56205        -0.70121        -6.13993
| 27>    C        8.75217        -2.83770        -5.90125
| 28>    C        9.09128        -4.07026        -6.38873
| 29>    C        8.59797        -4.50365        -7.62864
| 30>    C        7.77237        -3.69735        -8.36404
| 31>    C        5.35381         0.68967        -8.70690
| 32>    O        4.79023         0.68470        -9.77604
| 33>    C        5.25173         1.74385        -7.65246
| 34>    C        4.26048         2.66078        -7.70958
| 35>    C        3.78152         3.52446        -6.65662
| 36>    C        3.77006         3.08299        -5.31667
| 37>    C        3.32406         3.87183        -4.28496
| 38>    C        2.89502         5.15807        -4.60237
| 39>    C        2.88370         5.59169        -5.95116
| 40>    C        3.29285         4.78965        -6.99059
| 41>    O        2.41361         6.86040        -5.96538
| 42>    C        2.17206         7.14767        -4.65576
| 43>    N        2.43448         6.17498        -3.82403
| 44>    C        1.67658         8.42111        -4.28900
| 45>    S        1.31335         9.63928        -5.46734
| 46>    C        0.83226        10.79939        -4.23339
| 47>    C        0.98043        10.22204        -2.98523
| 48>    C        1.42855         8.87518        -2.99978
| 49>    C        1.51087         8.31825        -1.69967
| 50>    C        1.12646         9.19608        -0.73897
| 51>    C        1.08615         8.98317         0.72827
| 52>    S        0.65794        10.76242        -1.38169
| 53>    C        0.40144        12.09816        -4.60028
| 54>    C        0.67832        13.32351        -3.99358
| 55>    N        1.48452        13.59308        -2.89017
| 56>    O        1.57207        14.75539        -2.51672
| 57>    O        2.09010        12.66539        -2.35913
| 58>    C        0.12779        14.37627        -4.80202
| 59>    C       -0.43436        13.83574        -5.91268
| 60>    C       -0.34568        12.40785        -5.82378
| 61>    C       -1.04664        11.49619        -6.59711
| 62>    C       -1.59904        10.26111        -6.15655
| 63>    C       -2.41455         9.77581        -7.13451
| 64>    C       -2.37976        10.64873        -8.26732
| 65>    N       -3.12486        10.33297        -9.40764
| 66>    O       -3.28126        11.16945       -10.28878
| 67>    O       -3.61339         9.21336        -9.46105
| 68>    C       -1.51955        11.72397        -7.98371
| 69>    C       -0.92598        12.73027        -8.75671
| 70>    C       -1.24321        13.14539       -10.03002
| 71>    C       -0.54505        14.17867       -10.66226
| 72>    S       -0.98149        14.68180       -12.27165
| 73>    C        0.21655        15.92088       -12.34061
| 74>    C        0.94045        15.95550       -11.13908
| 75>    C        0.51324        14.98547       -10.18722
| 76>    N        1.08239        14.92241        -8.97591
| 77>    C        2.04458        15.77122        -8.70097
| 78>    C        2.56968        15.71839        -7.30216
| 79>    C        2.14310        16.96101        -6.51119
| 80>    O        0.73073        17.04358        -6.53844
| 81>    C        2.53055        16.68280        -9.69147
| 82>    C        3.70773        17.59605        -9.47373
| 83>    N        3.26782        18.82887        -8.82427
| 84>    N        1.97527        16.77178       -10.87522
| 85>    C        0.43204        16.76940       -13.46600
| 86>    C       -0.27132        16.72737       -14.60054
| 87>    H        6.15786        -1.89668        -9.58696
| 88>    H        7.94855        -0.39446        -5.18045
| 89>    H        9.13227        -2.49800        -4.94900
| 90>    H        9.74254        -4.71843        -5.82178
| 91>    H        8.87523        -5.47967        -7.99775
| 92>    H        7.38954        -4.02571        -9.31924
| 93>    H        3.73117         2.71454        -8.65593
| 94>    H        4.09647         2.07460        -5.10694
| 95>    H        3.31002         3.52376        -3.26551
| 96>    H        3.28466         5.13658        -8.01105
| 97>    H        1.83917         7.31148        -1.52172
| 98>    H        1.37063         7.96207         0.96833
| 99>    H        0.08675         9.17673         1.11601
|100>    H        1.77169         9.66790         1.22683
|101>    H        0.18427        15.41497        -4.54293
|102>    H       -0.95861        14.38153        -6.67066
|103>    H       -1.49246         9.85518        -5.16926
|104>    H       -3.02077         8.89020        -7.09542
|105>    H       -0.10477        13.25337        -8.28678
|106>    H       -2.06335        12.69497       -10.57055
|107>    H        3.65811        15.65521        -7.29264
|108>    H        2.14593        14.83387        -6.82574
|109>    H        2.58458        17.85684        -6.96567
|110>    H        2.50188        16.85878        -5.47748
|111>    H        0.46081        17.82716        -6.04963
|112>    H        4.16588        17.77284       -10.45949
|113>    H        4.44523        17.11965        -8.82269
|114>    H        2.55817        19.27801        -9.39480
|115>    H        4.04907        19.47077        -8.73993
|116>    H        1.23636        17.48025       -13.33071
|117>    H       -1.07356        16.02093       -14.73790
|118>    H       -0.06400        17.39593       -15.41645
|119> *
|120>
|121>                          ****END OF INPUT****

CARTESIAN COORDINATES (ANGSTROEM)
---------------------------------
  C      6.266730    1.466760   -6.649320
  C      6.843480    2.380450   -5.809500
  C      7.880340    2.066810   -4.906760
  N      8.709650    1.853290   -4.142440
  C      6.534200    3.757080   -5.813510
  N      6.376680    4.893800   -5.820860
  C      6.743030    0.108430   -6.880890
  C      6.229900   -0.346110   -8.131660
  C      6.550100   -1.574800   -8.633720
  C      7.403670   -2.421980   -7.892100
  C      7.905610   -1.980360   -6.633420
  C      7.562050   -0.701210   -6.139930
  C      8.752170   -2.837700   -5.901250
  C      9.091280   -4.070260   -6.388730
  C      8.597970   -4.503650   -7.628640
  C      7.772370   -3.697350   -8.364040
  C      5.353810    0.689670   -8.706900
  O      4.790230    0.684700   -9.776040
  C      5.251730    1.743850   -7.652460
  C      4.260480    2.660780   -7.709580
  C      3.781520    3.524460   -6.656620
  C      3.770060    3.082990   -5.316670
  C      3.324060    3.871830   -4.284960
  C      2.895020    5.158070   -4.602370
  C      2.883700    5.591690   -5.951160
  C      3.292850    4.789650   -6.990590
  O      2.413610    6.860400   -5.965380
  C      2.172060    7.147670   -4.655760
  N      2.434480    6.174980   -3.824030
  C      1.676580    8.421110   -4.289000
  S      1.313350    9.639280   -5.467340
  C      0.832260   10.799390   -4.233390
  C      0.980430   10.222040   -2.985230
  C      1.428550    8.875180   -2.999780
  C      1.510870    8.318250   -1.699670
  C      1.126460    9.196080   -0.738970
  C      1.086150    8.983170    0.728270
  S      0.657940   10.762420   -1.381690
  C      0.401440   12.098160   -4.600280
  C      0.678320   13.323510   -3.993580
  N      1.484520   13.593080   -2.890170
  O      1.572070   14.755390   -2.516720
  O      2.090100   12.665390   -2.359130
  C      0.127790   14.376270   -4.802020
  C     -0.434360   13.835740   -5.912680
  C     -0.345680   12.407850   -5.823780
  C     -1.046640   11.496190   -6.597110
  C     -1.599040   10.261110   -6.156550
  C     -2.414550    9.775810   -7.134510
  C     -2.379760   10.648730   -8.267320
  N     -3.124860   10.332970   -9.407640
  O     -3.281260   11.169450  -10.288780
  O     -3.613390    9.213360   -9.461050
  C     -1.519550   11.723970   -7.983710
  C     -0.925980   12.730270   -8.756710
  C     -1.243210   13.145390  -10.030020
  C     -0.545050   14.178670  -10.662260
  S     -0.981490   14.681800  -12.271650
  C      0.216550   15.920880  -12.340610
  C      0.940450   15.955500  -11.139080
  C      0.513240   14.985470  -10.187220
  N      1.082390   14.922410   -8.975910
  C      2.044580   15.771220   -8.700970
  C      2.569680   15.718390   -7.302160
  C      2.143100   16.961010   -6.511190
  O      0.730730   17.043580   -6.538440
  C      2.530550   16.682800   -9.691470
  C      3.707730   17.596050   -9.473730
  N      3.267820   18.828870   -8.824270
  N      1.975270   16.771780  -10.875220
  C      0.432040   16.769400  -13.466000
  C     -0.271320   16.727370  -14.600540
  H      6.157860   -1.896680   -9.586960
  H      7.948550   -0.394460   -5.180450
  H      9.132270   -2.498000   -4.949000
  H      9.742540   -4.718430   -5.821780
  H      8.875230   -5.479670   -7.997750
  H      7.389540   -4.025710   -9.319240
  H      3.731170    2.714540   -8.655930
  H      4.096470    2.074600   -5.106940
  H      3.310020    3.523760   -3.265510
  H      3.284660    5.136580   -8.011050
  H      1.839170    7.311480   -1.521720
  H      1.370630    7.962070    0.968330
  H      0.086750    9.176730    1.116010
  H      1.771690    9.667900    1.226830
  H      0.184270   15.414970   -4.542930
  H     -0.958610   14.381530   -6.670660
  H     -1.492460    9.855180   -5.169260
  H     -3.020770    8.890200   -7.095420
  H     -0.104770   13.253370   -8.286780
  H     -2.063350   12.694970  -10.570550
  H      3.658110   15.655210   -7.292640
  H      2.145930   14.833870   -6.825740
  H      2.584580   17.856840   -6.965670
  H      2.501880   16.858780   -5.477480
  H      0.460810   17.827160   -6.049630
  H      4.165880   17.772840  -10.459490
  H      4.445230   17.119650   -8.822690
  H      2.558170   19.278010   -9.394800
  H      4.049070   19.470770   -8.739930
  H      1.236360   17.480250  -13.330710
  H     -1.073560   16.020930  -14.737900
  H     -0.064000   17.395930  -15.416450

 Total Charge           Charge          ....    0
 Multiplicity           Mult            ....    1
 Number of Electrons    NEL             ....  516
 Basis Dimension        Dim             .... 1180

ORBITAL ENERGIES
----------------

  NO   OCC          E(Eh)            E(eV)
   0   2.0000     -88.982356     -2421.3330
   1   2.0000     -88.969876     -2420.9934
   2   2.0000     -88.947257     -2420.3779
   3   2.0000     -19.302525      -525.2484
   4   2.0000     -19.221977      -523.0566
   5   2.0000     -19.218056      -522.9499
   6   2.0000     -19.217684      -522.9398
   7   2.0000     -19.214804      -522.8614
   8   2.0000     -19.211709      -522.7772
   9   2.0000     -19.207848      -522.6721
  10   2.0000     -14.626761      -398.0144
  11   2.0000     -14.626368      -398.0037
  12   2.0000     -14.433082      -392.7441
  13   2.0000     -14.424987      -392.5238
  14   2.0000     -14.413210      -392.2034
  15   2.0000     -14.409579      -392.1046
  16   2.0000     -14.408641      -392.0790
  17   2.0000     -14.404787      -391.9742
  18   2.0000     -10.380620      -282.4710
  19   2.0000     -10.362923      -281.9895
  20   2.0000     -10.340241      -281.3723
  21   2.0000     -10.338314      -281.3198
  22   2.0000     -10.337639      -281.3015
  23   2.0000     -10.330670      -281.1118
  24   2.0000     -10.329487      -281.0796
  25   2.0000     -10.322969      -280.9023
  26   2.0000     -10.321262      -280.8558
  27   2.0000     -10.320785      -280.8428
  28   2.0000     -10.319258      -280.8013
  29   2.0000     -10.315678      -280.7039
  30   2.0000     -10.315482      -280.6985
  31   2.0000     -10.314568      -280.6737
  32   2.0000     -10.314504      -280.6719
  33   2.0000     -10.313857      -280.6543
  34   2.0000     -10.312115      -280.6069
  35   2.0000     -10.311154      -280.5808
  36   2.0000     -10.310739      -280.5695
  37   2.0000     -10.309101      -280.5249
  38   2.0000     -10.308625      -280.5120
  39   2.0000     -10.308497      -280.5085
  40   2.0000     -10.306802      -280.4623
  41   2.0000     -10.306344      -280.4499
  42   2.0000     -10.303881      -280.3829
  43   2.0000     -10.302594      -280.3478
  44   2.0000     -10.302342      -280.3410
  45   2.0000     -10.301875      -280.3283
  46   2.0000     -10.296535      -280.1830
  47   2.0000     -10.296180      -280.1733
  48   2.0000     -10.295411      -280.1524
  49   2.0000     -10.295141      -280.1450
  50   2.0000     -10.293731      -280.1067
  51   2.0000     -10.293462      -280.0993
  52   2.0000     -10.292720      -280.0792
  53   2.0000     -10.291802      -280.0542
  54   2.0000     -10.290896      -280.0295
  55   2.0000     -10.289399      -279.9888
  56   2.0000     -10.287615      -279.9402
  57   2.0000     -10.285250      -279.8759
  58   2.0000     -10.284864      -279.8654
  59   2.0000     -10.284636      -279.8592
  60   2.0000     -10.284152      -279.8460
  61   2.0000     -10.282687      -279.8062
  62   2.0000     -10.282482      -279.8006
  63   2.0000     -10.282178      -279.7923
  64   2.0000     -10.280123      -279.7364
  65   2.0000     -10.275904      -279.6216
  66   2.0000     -10.275852      -279.6202
  67   2.0000     -10.273329      -279.5515
  68   2.0000     -10.269386      -279.4442
  69   2.0000     -10.267196      -279.3846
  70   2.0000     -10.267054      -279.3807
  71   2.0000     -10.264415      -279.3089
  72   2.0000      -8.077207      -219.7920
  73   2.0000      -8.063966      -219.4317
  74   2.0000      -8.042630      -218.8511
  75   2.0000      -6.045954      -164.5188
  76   2.0000      -6.042066      -164.4130
  77   2.0000      -6.040291      -164.3647
  78   2.0000      -6.033407      -164.1773
  79   2.0000      -6.029147      -164.0614
  80   2.0000      -6.025992      -163.9756
  81   2.0000      -6.012295      -163.6029
  82   2.0000      -6.007899      -163.4832
  83   2.0000      -6.004109      -163.3801
  84   2.0000      -1.295961       -35.2649
  85   2.0000      -1.294661       -35.2295
  86   2.0000      -1.232110       -33.5274
  87   2.0000      -1.127089       -30.6696
  88   2.0000      -1.113051       -30.2877
  89   2.0000      -1.110425       -30.2162
  90   2.0000      -1.094584       -29.7852
  91   2.0000      -1.087510       -29.5927
  92   2.0000      -1.025044       -27.8929
  93   2.0000      -1.015124       -27.6229
  94   2.0000      -1.014318       -27.6010
  95   2.0000      -1.012922       -27.5630
  96   2.0000      -0.997826       -27.1522
  97   2.0000      -0.995499       -27.0889
  98   2.0000      -0.995429       -27.0870
  99   2.0000      -0.989647       -26.9297
 100   2.0000      -0.979729       -26.6598
 101   2.0000      -0.976274       -26.5658
 102   2.0000      -0.971010       -26.4225
 103   2.0000      -0.961926       -26.1753
 104   2.0000      -0.945979       -25.7414
 105   2.0000      -0.921843       -25.0846
 106   2.0000      -0.911181       -24.7945
 107   2.0000      -0.902355       -24.5543
 108   2.0000      -0.896584       -24.3973
 109   2.0000      -0.889238       -24.1974
 110   2.0000      -0.887601       -24.1528
 111   2.0000      -0.879744       -23.9390
 112   2.0000      -0.875890       -23.8342
 113   2.0000      -0.869464       -23.6593
 114   2.0000      -0.865529       -23.5522
 115   2.0000      -0.854118       -23.2417
 116   2.0000      -0.847404       -23.0590
 117   2.0000      -0.841353       -22.8944
 118   2.0000      -0.833786       -22.6885
 119   2.0000      -0.826687       -22.4953
 120   2.0000      -0.825241       -22.4560
 121   2.0000      -0.819552       -22.3011
 122   2.0000      -0.801057       -21.7979
 123   2.0000      -0.795235       -21.6395
 124   2.0000      -0.787995       -21.4424
 125   2.0000      -0.776902       -21.1406
 126   2.0000      -0.769482       -20.9387
 127   2.0000      -0.767648       -20.8888
 128   2.0000      -0.756339       -20.5810
 129   2.0000      -0.739589       -20.1252
 130   2.0000      -0.732751       -19.9392
 131   2.0000      -0.724046       -19.7023
 132   2.0000      -0.719804       -19.5869
 133   2.0000      -0.712530       -19.3889
 134   2.0000      -0.706819       -19.2335
 135   2.0000      -0.704154       -19.1610
 136   2.0000      -0.700528       -19.0623
 137   2.0000      -0.695350       -18.9214
 138   2.0000      -0.689801       -18.7704
 139   2.0000      -0.685012       -18.6401
 140   2.0000      -0.672707       -18.3053
 141   2.0000      -0.659814       -17.9545
 142   2.0000      -0.656770       -17.8716
 143   2.0000      -0.654685       -17.8149
 144   2.0000      -0.650839       -17.7102
 145   2.0000      -0.645065       -17.5531
 146   2.0000      -0.635153       -17.2834
 147   2.0000      -0.633437       -17.2367
 148   2.0000      -0.632410       -17.2087
 149   2.0000      -0.624399       -16.9907
 150   2.0000      -0.618184       -16.8216
 151   2.0000      -0.612196       -16.6587
 152   2.0000      -0.611256       -16.6331
 153   2.0000      -0.609175       -16.5765
 154   2.0000      -0.605845       -16.4859
 155   2.0000      -0.605442       -16.4749
 156   2.0000      -0.604033       -16.4366
 157   2.0000      -0.601177       -16.3589
 158   2.0000      -0.595918       -16.2158
 159   2.0000      -0.595328       -16.1997
 160   2.0000      -0.591913       -16.1068
 161   2.0000      -0.591035       -16.0829
 162   2.0000      -0.580752       -15.8031
 163   2.0000      -0.578830       -15.7508
 164   2.0000      -0.575419       -15.6580
 165   2.0000      -0.569476       -15.4962
 166   2.0000      -0.565945       -15.4002
 167   2.0000      -0.560736       -15.2584
 168   2.0000      -0.556895       -15.1539
 169   2.0000      -0.551066       -14.9953
 170   2.0000      -0.549461       -14.9516
 171   2.0000      -0.545268       -14.8375
 172   2.0000      -0.540279       -14.7017
 173   2.0000      -0.539496       -14.6804
 174   2.0000      -0.533650       -14.5213
 175   2.0000      -0.532825       -14.4989
 176   2.0000      -0.530803       -14.4439
 177   2.0000      -0.529970       -14.4212
 178   2.0000      -0.528727       -14.3874
 179   2.0000      -0.525114       -14.2891
 180   2.0000      -0.519683       -14.1413
 181   2.0000      -0.518320       -14.1042
 182   2.0000      -0.516866       -14.0646
 183   2.0000      -0.514969       -14.0130
 184   2.0000      -0.513781       -13.9807
 185   2.0000      -0.511781       -13.9263
 186   2.0000      -0.509993       -13.8776
 187   2.0000      -0.504974       -13.7410
 188   2.0000      -0.500597       -13.6219
 189   2.0000      -0.497316       -13.5327
 190   2.0000      -0.496950       -13.5227
 191   2.0000      -0.494979       -13.4691
 192   2.0000      -0.493601       -13.4316
 193   2.0000      -0.490321       -13.3423
 194   2.0000      -0.487787       -13.2734
 195   2.0000      -0.484472       -13.1831
 196   2.0000      -0.483722       -13.1627
 197   2.0000      -0.482417       -13.1272
 198   2.0000      -0.480357       -13.0712
 199   2.0000      -0.474003       -12.8983
 200   2.0000      -0.470983       -12.8161
 201   2.0000      -0.467191       -12.7129
 202   2.0000      -0.465045       -12.6545
 203   2.0000      -0.462301       -12.5799
 204   2.0000      -0.461409       -12.5556
 205   2.0000      -0.458084       -12.4651
 206   2.0000      -0.455892       -12.4055
 207   2.0000      -0.454147       -12.3580
 208   2.0000      -0.453414       -12.3380
 209   2.0000      -0.451482       -12.2854
 210   2.0000      -0.446976       -12.1628
 211   2.0000      -0.445800       -12.1308
 212   2.0000      -0.443341       -12.0639
 213   2.0000      -0.441400       -12.0111
 214   2.0000      -0.440045       -11.9742
 215   2.0000      -0.438314       -11.9271
 216   2.0000      -0.435054       -11.8384
 217   2.0000      -0.432477       -11.7683
 218   2.0000      -0.431537       -11.7427
 219   2.0000      -0.429624       -11.6907
 220   2.0000      -0.427621       -11.6362
 221   2.0000      -0.425600       -11.5812
 222   2.0000      -0.421252       -11.4629
 223   2.0000      -0.418527       -11.3887
 224   2.0000      -0.414345       -11.2749
 225   2.0000      -0.412088       -11.2135
 226   2.0000      -0.409705       -11.1486
 227   2.0000      -0.404107       -10.9963
 228   2.0000      -0.400626       -10.9016
 229   2.0000      -0.393679       -10.7125
 230   2.0000      -0.389843       -10.6082
 231   2.0000      -0.386421       -10.5150
 232   2.0000      -0.378117       -10.2891
 233   2.0000      -0.373281       -10.1575
 234   2.0000      -0.368789       -10.0352
 235   2.0000      -0.368384       -10.0242
 236   2.0000      -0.366059        -9.9610
 237   2.0000      -0.362649        -9.8682
 238   2.0000      -0.359170        -9.7735
 239   2.0000      -0.355961        -9.6862
 240   2.0000      -0.351883        -9.5752
 241   2.0000      -0.349679        -9.5152
 242   2.0000      -0.343894        -9.3578
 243   2.0000      -0.338833        -9.2201
 244   2.0000      -0.331102        -9.0097
 245   2.0000      -0.328334        -8.9344
 246   2.0000      -0.324926        -8.8417
 247   2.0000      -0.323994        -8.8163
 248   2.0000      -0.322212        -8.7678
 249   2.0000      -0.316579        -8.6146
 250   2.0000      -0.314414        -8.5556
 251   2.0000      -0.308489        -8.3944
 252   2.0000      -0.299062        -8.1379
 253   2.0000      -0.296705        -8.0738
 254   2.0000      -0.291948        -7.9443
 255   2.0000      -0.288567        -7.8523
 256   2.0000      -0.251800        -6.8518
 257   2.0000      -0.235067        -6.3965
 258   0.0000      -0.124653        -3.3920
 259   0.0000      -0.087028        -2.3682
 260   0.0000      -0.074756        -2.0342
 261   0.0000      -0.055233        -1.5030
 262   0.0000      -0.047544        -1.2937

MULLIKEN ATOMIC CHARGES
-----------------------
   0 C :    0.258698
   1 C :   -0.329917
   2 C :   -0.179601
   3 N :    0.150660
   4 C :   -0.190631
   5 N :    0.173489
   6 C :    0.032552
   7 C :    0.012960
   8 C :   -0.081681
   9 C :    0.093296
  10 C :    0.095253
  11 C :   -0.079901
  12 C :   -0.015754
  13 C :    0.032372
  14 C :    0.036970
  15 C :   -0.013438
  16 C :    0.137238
  17 O :   -0.140290
  18 C :   -0.113580
  19 C :    0.037097
  20 C :    0.040072
  21 C :    0.022979
  22 C :   -0.049500
  23 C :    0.057137
  24 C :    0.255065
  25 C :   -0.118216
  26 O :   -0.195364
  27 C :    0.115683
  28 N :   -0.054076
  29 C :   -0.157424
  30 S :    0.218289
  31 C :   -0.259130
  32 C :    0.022935
  33 C :    0.099382
  34 C :    0.008049
  35 C :   -0.205170
  36 C :    0.116036
  37 S :    0.171654
  38 C :    0.066536
  39 C :    0.061365
  40 N :    0.273201
  41 O :   -0.269799
  42 O :   -0.263527
  43 C :    0.000042
  44 C :    0.013581
  45 C :    0.019142
  46 C :   -0.000539
  47 C :    0.018429
  48 C :    0.014525
  49 C :    0.049178
  50 N :    0.279980
  51 O :   -0.272329
  52 O :   -0.267206
  53 C :    0.115564
  54 C :   -0.110126
  55 C :    0.059451
  56 C :   -0.175807
  57 S :    0.197908
  58 C :   -0.153963
  59 C :    0.023355
  60 C :    0.077250
  61 N :    0.011722
  62 C :   -0.107945
  63 C :    0.120892
  64 C :    0.150778
  65 O :   -0.317609
  66 C :   -0.178259
  67 C :    0.240275
  68 N :   -0.222329
  69 N :    0.008284
  70 C :    0.004848
  71 C :   -0.011148
  72 H :   -0.012431
  73 H :   -0.007183
  74 H :   -0.011319
  75 H :   -0.003822
  76 H :   -0.005835
  77 H :   -0.017835
  78 H :    0.026352
  79 H :   -0.003407
  80 H :   -0.018513
  81 H :   -0.010594
  82 H :   -0.013798
  83 H :    0.025631
  84 H :    0.034829
  85 H :    0.044387
  86 H :   -0.019513
  87 H :   -0.001925
  88 H :   -0.001135
  89 H :    0.000223
  90 H :    0.020709
  91 H :    0.004393
  92 H :    0.014260
  93 H :    0.025174
  94 H :    0.008427
  95 H :    0.006647
  96 H :    0.172167
  97 H :    0.008184
  98 H :   -0.001280
  99 H :    0.102478
 100 H :    0.104278
 101 H :    0.006909
 102 H :    0.028277
 103 H :    0.035350
Sum of atomic charges:   -0.0000000

LOEWDIN ATOMIC CHARGES
----------------------
   0 C :    0.066776
   1 C :   -0.132701
   2 C :   -0.018038
   3 N :   -0.052706
   4 C :   -0.018075
   5 N :   -0.043834
   6 C :   -0.023718
   7 C :   -0.057438
   8 C :    0.032831
   9 C :   -0.009144
  10 C :   -0.005632
  11 C :    0.015919
  12 C :   -0.006118
  13 C :   -0.013448
  14 C :   -0.013059
  15 C :   -0.009020
  16 C :    0.084019
  17 O :   -0.140952
  18 C :   -0.089902
  19 C :    0.082236
  20 C :   -0.043628
  21 C :   -0.007822
  22 C :   -0.016954
  23 C :   -0.011577
  24 C :    0.038281
  25 C :   -0.010626
  26 O :   -0.006234
  27 C :    0.060642
  28 N :   -0.104932
  29 C :   -0.205120
  30 S :    0.497517
  31 C :   -0.174866
  32 C :   -0.176576
  33 C :   -0.039626
  34 C :   -0.069142
  35 C :   -0.134678
  36 C :   -0.058827
  37 S :    0.443303
  38 C :   -0.021833
  39 C :   -0.058603
  40 N :    0.278652
  41 O :   -0.235966
  42 O :   -0.228946
  43 C :    0.006207
  44 C :   -0.032102
  45 C :    0.016429
  46 C :    0.045121
  47 C :   -0.069366
  48 C :    0.024384
  49 C :   -0.075488
  50 N :    0.287684
  51 O :   -0.233265
  52 O :   -0.230394
  53 C :    0.020122
  54 C :   -0.032579
  55 C :    0.012673
  56 C :   -0.186501
  57 S :    0.513640
  58 C :   -0.164996
  59 C :   -0.053351
  60 C :   -0.029378
  61 N :   -0.031972
  62 C :    0.029279
  63 C :   -0.041219
  64 C :    0.068961
  65 O :   -0.145567
  66 C :   -0.002790
  67 C :    0.021119
  68 N :   -0.094545
  69 N :   -0.040078
  70 C :   -0.036714
  71 C :   -0.026215
  72 H :    0.039291
  73 H :    0.038438
  74 H :    0.034225
  75 H :    0.033194
  76 H :    0.032569
  77 H :    0.031790
  78 H :    0.047150
  79 H :    0.031105
  80 H :    0.037902
  81 H :    0.040537
  82 H :    0.033150
  83 H :    0.040397
  84 H :    0.039207
  85 H :    0.043227
  86 H :    0.028549
  87 H :    0.032699
  88 H :    0.026538
  89 H :    0.036417
  90 H :    0.033697
  91 H :    0.029382
  92 H :    0.034487
  93 H :    0.037892
  94 H :   -0.000354
  95 H :    0.006830
  96 H :    0.079976
  97 H :    0.017676
  98 H :    0.023303
  99 H :    0.058613
 100 H :    0.060388
 101 H :    0.040304
 102 H :    0.020953
 103 H :    0.030939

  Mayer bond orders larger than 0.100000
B(  0-C ,  1-C ) :   1.6737 B(  0-C ,  6-C ) :   1.0031 B(  0-C , 18-C ) :   1.0130
B(  1-C ,  2-C ) :   1.1328 B(  1-C ,  4-C ) :   1.1531 B(  2-C ,  3-N ) :   2.9861
B(  4-C ,  5-N ) :   3.0108 B(  6-C ,  7-C ) :   1.2174 B(  6-C , 11-C ) :   1.4534
B(  7-C ,  8-C ) :   1.4709 B(  7-C , 16-C ) :   0.9182 B(  8-C ,  9-C ) :   1.1851
B(  8-C , 72-H ) :   1.0164 B(  9-C , 10-C ) :   1.2586 B(  9-C , 15-C ) :   1.2440
B( 10-C , 11-C ) :   1.2053 B( 10-C , 12-C ) :   1.2379 B( 11-C , 73-H ) :   0.9943
B( 12-C , 13-C ) :   1.4910 B( 12-C , 74-H ) :   0.9978 B( 13-C , 14-C ) :   1.2595
B( 13-C , 75-H ) :   0.9886 B( 14-C , 15-C ) :   1.4900 B( 14-C , 76-H ) :   0.9889
B( 15-C , 77-H ) :   0.9978 B( 16-C , 17-O ) :   2.2767 B( 16-C , 18-C ) :   0.9285
B( 18-C , 19-C ) :   1.7204 B( 19-C , 20-C ) :   1.0442 B( 19-C , 78-H ) :   0.9449
B( 20-C , 21-C ) :   1.3077 B( 20-C , 25-C ) :   1.3063 B( 21-C , 22-C ) :   1.4135
B( 21-C , 79-H ) :   0.9848 B( 22-C , 23-C ) :   1.2818 B( 22-C , 80-H ) :   1.0194
B( 23-C , 24-C ) :   1.2541 B( 23-C , 28-N ) :   1.3101 B( 24-C , 25-C ) :   1.3237
B( 24-C , 26-O ) :   1.0942 B( 25-C , 81-H ) :   1.0279 B( 26-O , 27-C ) :   1.1971
B( 27-C , 28-N ) :   1.7342 B( 27-C , 29-C ) :   1.0797 B( 29-C , 30-S ) :   1.1251
B( 29-C , 31-C ) :   0.1176 B( 29-C , 33-C ) :   1.4059 B( 30-S , 31-C ) :   1.1273
B( 31-C , 32-C ) :   1.4807 B( 31-C , 38-C ) :   1.1118 B( 32-C , 33-C ) :   1.2338
B( 32-C , 37-S ) :   1.0798 B( 33-C , 34-C ) :   1.1762 B( 34-C , 35-C ) :   1.6198
B( 34-C , 82-H ) :   0.9929 B( 35-C , 36-C ) :   1.0720 B( 35-C , 37-S ) :   1.0898
B( 36-C , 83-H ) :   0.9571 B( 36-C , 84-H ) :   0.9475 B( 36-C , 85-H ) :   0.9477
B( 38-C , 39-C ) :   1.5026 B( 38-C , 45-C ) :   1.0674 B( 39-C , 40-N ) :   0.9793
B( 39-C , 43-C ) :   1.1148 B( 40-N , 41-O ) :   1.5031 B( 40-N , 42-O ) :   1.4550
B( 41-O , 42-O ) :   0.2449 B( 43-C , 44-C ) :   1.5753 B( 43-C , 86-H ) :   1.0093
B( 44-C , 45-C ) :   1.1247 B( 44-C , 87-H ) :   1.0103 B( 45-C , 46-C ) :   1.4517
B( 46-C , 47-C ) :   1.1650 B( 46-C , 53-C ) :   1.0115 B( 47-C , 48-C ) :   1.5392
B( 47-C , 88-H ) :   0.9995 B( 48-C , 49-C ) :   1.1540 B( 48-C , 89-H ) :   1.0066
B( 49-C , 50-N ) :   0.9867 B( 49-C , 53-C ) :   1.3912 B( 50-N , 51-O ) :   1.4546
B( 50-N , 52-O ) :   1.5209 B( 51-O , 52-O ) :   0.2367 B( 53-C , 54-C ) :   1.2338
B( 54-C , 55-C ) :   1.5192 B( 54-C , 90-H ) :   0.9400 B( 55-C , 56-C ) :   1.2190
B( 55-C , 91-H ) :   0.9365 B( 56-C , 57-S ) :   1.1467 B( 56-C , 58-C ) :   0.1158
B( 56-C , 60-C ) :   1.2493 B( 57-S , 58-C ) :   1.1787 B( 58-C , 59-C ) :   1.3083
B( 58-C , 70-C ) :   1.1659 B( 59-C , 60-C ) :   1.2396 B( 59-C , 69-N ) :   1.4112
B( 60-C , 61-N ) :   1.4030 B( 61-N , 62-C ) :   1.6980 B( 62-C , 63-C ) :   1.0585
B( 62-C , 66-C ) :   1.1387 B( 63-C , 64-C ) :   1.0770 B( 63-C , 92-H ) :   0.9161
B( 63-C , 93-H ) :   0.9073 B( 64-C , 65-O ) :   1.0315 B( 64-C , 94-H ) :   0.9208
B( 64-C , 95-H ) :   0.9443 B( 65-O , 96-H ) :   0.9757 B( 66-C , 67-C ) :   1.0532
B( 66-C , 69-N ) :   1.7113 B( 67-C , 68-N ) :   1.0744 B( 67-C , 97-H ) :   0.9157
B( 67-C , 98-H ) :   0.9161 B( 68-N , 94-H ) :   0.1217 B( 68-N , 99-H ) :   0.9624
B( 68-N ,100-H ) :   0.9668 B( 70-C , 71-C ) :   1.8663 B( 70-C ,101-H ) :   0.9632
B( 71-C ,102-H ) :   0.9582 B( 71-C ,103-H ) :   0.9515

-----------------------------------------------------------------------------
         ABSORPTION SPECTRUM VIA TRANSITION ELECTRIC DIPOLE MOMENTS
-----------------------------------------------------------------------------
State   Energy  Wavelength   fosc         T2         TX        TY        TZ
        (cm-1)    (nm)                  (au**2)     (au)      (au)      (au)
-----------------------------------------------------------------------------
   0    7357.7   1359.1   0.274172683  12.26757  -0.27127   2.47714  -2.46125
   1   11484.0    870.8   0.071804768   2.05842   1.07491  -0.94360  -0.11228
   2   18673.5    535.5   0.185017821   3.26185  -1.27803   0.17319   1.26431
   3   18806.6    531.7   0.052203383   0.91383  -0.66836  -0.27687   0.62488
   4   19871.0    503.2   0.494906118   8.19935  -0.65196   2.70793  -0.66438
   5   20457.4    488.8   0.309244424   4.97654   1.38126  -1.27467  -1.20160
   6   22285.6    448.7   0.113888213   1.68240  -0.16045  -1.25651   0.27900
   7   23135.8    432.2   0.051379331   0.73111  -0.55568  -0.01164   0.64977
   8   23307.3    429.1   0.004087604   0.05774   0.18444  -0.04501  -0.14728
   9   23733.5    421.3   0.003495245   0.04848   0.06342   0.13526  -0.16176
  10   24005.9    416.6   0.254003958   3.48336   0.37356  -1.81982  -0.17902
  11   25489.5    392.3   0.040590949   0.52426  -0.54513  -0.17598  -0.44286
  12   25990.8    384.8   0.055462868   0.70252   0.64644  -0.28321  -0.45214
  13   26524.8    377.0   0.009823773   0.12193  -0.18035  -0.29731  -0.03170
  14   26865.0    372.2   0.062515606   0.76609   0.07788  -0.85080   0.19016
  15   27097.7    369.0   0.022310170   0.27105  -0.08361   0.49297  -0.14506
  16   27650.7    361.7   0.090752575   1.08051  -0.13057   1.01586   0.17744
  17   28067.1    356.3   0.309754943   3.63326  -0.28372  -1.52584  -1.10660
  18   28268.4    353.8   0.023015872   0.26804   0.27341  -0.23246   0.37317
  19   29053.7    344.2   0.010990394   0.12453  -0.27704   0.20103   0.08586
  20   29598.7    337.9   0.204409805   2.27355   0.11733   1.15723   0.95948
  21   29763.8    336.0   0.238140842   2.63403   0.66438   1.00160   1.09061
  22   29988.9    333.5   0.040156238   0.44083   0.28370   0.53163   0.27878
  23   30297.6    330.1   0.205358406   2.23141  -0.28697   1.40223   0.42758
  24   30338.6    329.6   0.034403416   0.37332  -0.59985   0.11270  -0.02831
  25   30466.3    328.2   0.100264446   1.08343  -0.56215  -0.40774  -0.77535
  26   30781.9    324.9   0.204119086   2.18305   0.17131  -1.46465   0.09219
  27   31060.4    322.0   0.129612029   1.37377   1.14192   0.23256   0.12531
  28   31416.3    318.3   0.068690461   0.71981   0.44353   0.61081   0.38731
  29   31618.7    316.3   0.001050560   0.01094  -0.07914  -0.06837   0.00092
  30   32012.2    312.4   0.024594505   0.25293   0.32610   0.32563  -0.20138
  31   32141.0    311.1   0.014986538   0.15350  -0.14545  -0.02053   0.36322
  32   32351.8    309.1   0.014473208   0.14728  -0.06457  -0.30152   0.22846
  33   32739.2    305.4   0.023806447   0.23939  -0.14796  -0.46239  -0.06074
  34   32818.7    304.7   0.230817063   2.31538   1.28854   0.53777   0.60486
  35   33233.1    300.9   0.163872528   1.62335  -0.04142   1.15752   0.53083
  36   33324.0    300.1   0.254145651   2.51073  -0.07948   1.33978   0.84227
  37   33604.0    297.6   0.028777199   0.28192  -0.49364   0.19369   0.02691
  38   33800.6    295.9   0.033423684   0.32554  -0.11491   0.53863  -0.14904
  39   33972.7    294.4   0.011501628   0.11146  -0.10217  -0.02906   0.31650
  40   34092.3    293.3   0.166333929   1.60620  -0.07889   1.10451   0.61647
  41   34675.8    288.4   0.007436967   0.07061   0.23961   0.10083   0.05502
  42   34825.7    287.1   0.011100680   0.10494  -0.01868  -0.16311  -0.27926
  43   34967.6    286.0   0.040836426   0.38447   0.28144  -0.49071  -0.25388
  44   35168.6    284.3   0.261467246   2.44759   0.33654  -1.52535  -0.08734
  45   35447.3    282.1   0.270968594   2.51659   0.41345  -1.46243  -0.45492
  46   35720.6    280.0   0.080274238   0.73983  -0.27910  -0.13647  -0.80207
  47   35873.5    278.8   0.243613945   2.23565   0.17322  -0.56362   1.37404
  48   35899.8    278.6   0.027229046   0.24970   0.23647   0.42661  -0.10854
  49   36575.7    273.4   0.037577845   0.33823  -0.38930  -0.37272  -0.21855
  50   36781.0    271.9   0.023174472   0.20743  -0.10421   0.20585  -0.39267
  51   37246.3    268.5   0.057530847   0.50850  -0.22547  -0.40318   0.54324
  52   37258.3    268.4   0.008451572   0.07468   0.04063   0.06066   0.26334
  53   37311.2    268.0   0.001361207   0.01201  -0.05377  -0.09099  -0.02898
  54   37638.0    265.7   0.060278352   0.52724   0.30595  -0.37658   0.54020
  55   37991.1    263.2   0.008181550   0.07090   0.20589  -0.14345   0.08906
  56   38051.1    262.8   0.009432384   0.08161   0.06633  -0.26919   0.06890
  57   38319.8    261.0   0.014886597   0.12789   0.20206  -0.08959  -0.28113
  58   38424.3    260.3   0.004188154   0.03588   0.02162  -0.02737   0.18619
  59   38526.8    259.6   0.050029458   0.42750  -0.17137  -0.63080  -0.01496
  60   38786.2    257.8   0.013553241   0.11504  -0.17778   0.24541   0.15234
  61   38984.0    256.5   0.020129209   0.16999   0.06696   0.18856   0.36048
  62   39087.6    255.8   0.011141353   0.09384  -0.03760   0.24361   0.18187
  63   39441.9    253.5   0.038372493   0.32029   0.09804   0.22298   0.51083
  64   39954.2    250.3   0.184801157   1.52271  -0.66919  -0.27365  -1.00001
  65   40145.6    249.1   0.265976647   2.18113  -1.00970  -0.48371  -0.96315
  66   40257.4    248.4   0.030302236   0.24780  -0.47068  -0.11761   0.11151

FINAL SINGLE POINT ENERGY     -4231.686160235481

DIPOLE MOMENT
-------------
                                X             Y             Z
Electronic contribution:    -11.25101     -26.96827       3.94786
Nuclear contribution   :     12.10530      27.80339      -4.87220
                        -----------------------------------------
Total Dipole Moment    :      0.85428       0.83512      -0.92435
                        -----------------------------------------
Magnitude (a.u.)       :      1.51051
Magnitude (Debye)      :      3.83941

Rotational constants in cm-1:     0.001291     0.000333     0.000301
Rotational constants in MHz :    38.689725     9.977747     9.028970

                             ****ORCA TERMINATED NORMALLY****
TOTAL RUN TIME: 0 days 0 hours 13 minutes 2 seconds 178 msec
