                         Program Version 4.2.0 -  RELEASE  -
|  1> # ORCA input file
|  2> # SCF done       -202.479852043400          0.000393535977
|  3> ! CAM-B3LYP def2-SVP def2/J RIJCOSX Grid4 TightSCF
|  4> %maxcore 5000
|  5> %tddft
|  6>     Mode sTDDFT
|  7>     Ethresh 5.0
|  8>     maxcore 5000
|  9> end
| 10>
| 11> %pal
| 12>   nprocs 6
| 13>   end
| 14> * xyz 0 1
| 15>    C        2.13594         5.10252        -6.24860
| 16>    C        3.23879         4.33942        -5.96736
| 17>    C        4.09580         3.79822        -6.95002
| 18>    N        4.83194         3.32905        -7.69520
| 19>    C        3.68427         3.97405        -4.67963
| 20>    N        4.11131         3.63558        -3.66842
| 21>    C        1.68119         5.46736        -7.58624
| 22>    C        0.49055         6.24129        -7.46841
| 23>    C       -0.16722         6.73383        -8.55882
| 24>    C        0.34821         6.47199        -9.84741
| 25>    C        1.53829         5.69856        -9.97686
| 26>    C        2.19513         5.20012        -8.82791
| 27>    C        2.04503         5.44501       -11.26758
| 28>    C        1.40928         5.93234       -12.37738
| 29>    C        0.23837         6.69408       -12.24834
| 30>    C       -0.28158         6.95779       -11.00994
| 31>    C        0.15204         6.39209        -6.04941
| 32>    O       -0.80805         6.98209        -5.58777
| 33>    C        1.20694         5.69057        -5.29555
| 34>    C        1.30378         5.63956        -3.93402
| 35>    C        0.46964         6.20408        -2.94481
| 36>    S       -0.99795         7.11293        -3.17610
| 37>    C       -1.18091         7.34651        -1.46874
| 38>    C       -0.13689         6.73149        -0.75235
| 39>    C        0.77258         6.09131        -1.58938
| 40>    C        0.00766         6.73476         0.64573
| 41>    N        0.15360         6.72554         1.78429
| 42>    C       -2.27668         8.11200        -1.01091
| 43>    C       -2.49323         8.49384         0.27949
| 44>    C       -3.58443         9.30850         0.65381
| 45>    N       -3.77483         9.78838         1.92557
| 46>    C       -2.91415         9.57717         3.06623
| 47>    C       -1.68154        10.47605         3.02280
| 48>    C       -4.90987        10.61552         2.01235
| 49>    O       -5.26919        11.16019         3.03365
| 50>    C       -5.46129        10.60676         0.67051
| 51>    C       -4.63606         9.79658        -0.13374
| 52>    C       -5.19749         9.77355        -1.47140
| 53>    O       -4.83200         9.22489        -2.49154
| 54>    N       -6.33685        10.58310        -1.38296
| 55>    C       -7.21803        10.76746        -2.51328
| 56>    C       -8.46806         9.89990        -2.40122
| 57>    C       -6.50860        11.10049        -0.11878
| 58>    C       -7.53202        12.00620         0.21190
| 59>    C       -7.66587        12.58835         1.44436
| 60>    C       -8.65400        13.55941         1.67265
| 61>    C       -9.62035        14.08714         0.82440
| 62>    C      -10.31649        15.09895         1.53462
| 63>    C       -9.75192        15.14036         2.87737
| 64>    O      -10.02247        15.79036         3.84390
| 65>    O       -8.74379        14.18159         2.88227
| 66>    C      -11.28009        15.61876         0.68807
| 67>    O      -11.22242        14.95223        -0.50831
| 68>    C      -10.21098        14.01091        -0.49715
| 69>    O       -9.95772        13.32119        -1.45087
| 70>    C      -12.22119        16.65379         0.84504
| 71>    C      -12.20476        17.52814         1.89208
| 72>    C      -13.16200        18.56377         1.99630
| 73>    C      -13.06312        19.63081         2.84272
| 74>    C      -14.04246        20.68158         3.05191
| 75>    C      -15.27952        20.78095         2.46735
| 76>    C      -16.19171        21.82820         2.71737
| 77>    N      -16.97995        22.64862         2.87078
| 78>    C      -15.82795        19.87069         1.53988
| 79>    N      -16.34899        19.18031         0.78417
| 80>    C      -13.48740        21.62200         4.01921
| 81>    C      -12.19172        21.17263         4.40387
| 82>    C      -11.86199        19.93653         3.67490
| 83>    O      -10.81353        19.33332         3.70302
| 84>    C      -11.42441        21.85911         5.30006
| 85>    C      -11.92654        23.05256         5.86490
| 86>    C      -13.22094        23.51150         5.48440
| 87>    C      -13.99294        22.77792         4.55484
| 88>    C      -13.71003        24.70743         6.04880
| 89>    C      -12.95810        25.41703         6.94509
| 90>    C      -11.68412        24.96374         7.31929
| 91>    C      -11.17954        23.80631         6.79123
| 92>    H       -1.06760         7.31762        -8.43803
| 93>    H        3.09382         4.61995        -8.96308
| 94>    H        2.94669         4.85810       -11.36267
| 95>    H        1.80602         5.73338       -13.36153
| 96>    H       -0.24956         7.07104       -13.13459
| 97>    H       -1.18285         7.54348       -10.90367
| 98>    H        2.14969         5.10658        -3.51682
| 99>    H        1.63796         5.56125        -1.22957
|100>    H       -2.97315         8.42943        -1.77769
|101>    H       -1.80372         8.19385         1.05348
|102>    H       -2.62356         8.52473         3.11551
|103>    H       -3.51449         9.82092         3.94695
|104>    H       -1.08066        10.27312         2.13920
|105>    H       -1.07195        10.30025         3.90415
|106>    H       -1.98190        11.52097         3.00873
|107>    H       -6.64127        10.47431        -3.39469
|108>    H       -7.49358        11.82096        -2.60036
|109>    H       -8.19242         8.85038        -2.32781
|110>    H       -9.08560        10.03926        -3.28333
|111>    H       -9.05221        10.17343        -1.52628
|112>    H       -8.22845        12.28020        -0.56859
|113>    H       -7.00370        12.34143         2.26303
|114>    H      -12.94384        16.76349         0.04669
|115>    H      -11.43510        17.45316         2.64824
|116>    H      -14.02218        18.49163         1.34222
|117>    H      -10.44518        21.49464         5.57263
|118>    H      -14.96733        23.15470         4.28771
|119>    H      -14.69136        25.05245         5.75783
|120>    H      -13.34096        26.33235         7.37092
|121>    H      -11.10456        25.53649         8.02773
|122>    H      -10.19941        23.45215         7.07507
|123> *
|124>
|125>                          ****END OF INPUT****

CARTESIAN COORDINATES (ANGSTROEM)
---------------------------------
  C      2.135940    5.102520   -6.248600
  C      3.238790    4.339420   -5.967360
  C      4.095800    3.798220   -6.950020
  N      4.831940    3.329050   -7.695200
  C      3.684270    3.974050   -4.679630
  N      4.111310    3.635580   -3.668420
  C      1.681190    5.467360   -7.586240
  C      0.490550    6.241290   -7.468410
  C     -0.167220    6.733830   -8.558820
  C      0.348210    6.471990   -9.847410
  C      1.538290    5.698560   -9.976860
  C      2.195130    5.200120   -8.827910
  C      2.045030    5.445010  -11.267580
  C      1.409280    5.932340  -12.377380
  C      0.238370    6.694080  -12.248340
  C     -0.281580    6.957790  -11.009940
  C      0.152040    6.392090   -6.049410
  O     -0.808050    6.982090   -5.587770
  C      1.206940    5.690570   -5.295550
  C      1.303780    5.639560   -3.934020
  C      0.469640    6.204080   -2.944810
  S     -0.997950    7.112930   -3.176100
  C     -1.180910    7.346510   -1.468740
  C     -0.136890    6.731490   -0.752350
  C      0.772580    6.091310   -1.589380
  C      0.007660    6.734760    0.645730
  N      0.153600    6.725540    1.784290
  C     -2.276680    8.112000   -1.010910
  C     -2.493230    8.493840    0.279490
  C     -3.584430    9.308500    0.653810
  N     -3.774830    9.788380    1.925570
  C     -2.914150    9.577170    3.066230
  C     -1.681540   10.476050    3.022800
  C     -4.909870   10.615520    2.012350
  O     -5.269190   11.160190    3.033650
  C     -5.461290   10.606760    0.670510
  C     -4.636060    9.796580   -0.133740
  C     -5.197490    9.773550   -1.471400
  O     -4.832000    9.224890   -2.491540
  N     -6.336850   10.583100   -1.382960
  C     -7.218030   10.767460   -2.513280
  C     -8.468060    9.899900   -2.401220
  C     -6.508600   11.100490   -0.118780
  C     -7.532020   12.006200    0.211900
  C     -7.665870   12.588350    1.444360
  C     -8.654000   13.559410    1.672650
  C     -9.620350   14.087140    0.824400
  C    -10.316490   15.098950    1.534620
  C     -9.751920   15.140360    2.877370
  O    -10.022470   15.790360    3.843900
  O     -8.743790   14.181590    2.882270
  C    -11.280090   15.618760    0.688070
  O    -11.222420   14.952230   -0.508310
  C    -10.210980   14.010910   -0.497150
  O     -9.957720   13.321190   -1.450870
  C    -12.221190   16.653790    0.845040
  C    -12.204760   17.528140    1.892080
  C    -13.162000   18.563770    1.996300
  C    -13.063120   19.630810    2.842720
  C    -14.042460   20.681580    3.051910
  C    -15.279520   20.780950    2.467350
  C    -16.191710   21.828200    2.717370
  N    -16.979950   22.648620    2.870780
  C    -15.827950   19.870690    1.539880
  N    -16.348990   19.180310    0.784170
  C    -13.487400   21.622000    4.019210
  C    -12.191720   21.172630    4.403870
  C    -11.861990   19.936530    3.674900
  O    -10.813530   19.333320    3.703020
  C    -11.424410   21.859110    5.300060
  C    -11.926540   23.052560    5.864900
  C    -13.220940   23.511500    5.484400
  C    -13.992940   22.777920    4.554840
  C    -13.710030   24.707430    6.048800
  C    -12.958100   25.417030    6.945090
  C    -11.684120   24.963740    7.319290
  C    -11.179540   23.806310    6.791230
  H     -1.067600    7.317620   -8.438030
  H      3.093820    4.619950   -8.963080
  H      2.946690    4.858100  -11.362670
  H      1.806020    5.733380  -13.361530
  H     -0.249560    7.071040  -13.134590
  H     -1.182850    7.543480  -10.903670
  H      2.149690    5.106580   -3.516820
  H      1.637960    5.561250   -1.229570
  H     -2.973150    8.429430   -1.777690
  H     -1.803720    8.193850    1.053480
  H     -2.623560    8.524730    3.115510
  H     -3.514490    9.820920    3.946950
  H     -1.080660   10.273120    2.139200
  H     -1.071950   10.300250    3.904150
  H     -1.981900   11.520970    3.008730
  H     -6.641270   10.474310   -3.394690
  H     -7.493580   11.820960   -2.600360
  H     -8.192420    8.850380   -2.327810
  H     -9.085600   10.039260   -3.283330
  H     -9.052210   10.173430   -1.526280
  H     -8.228450   12.280200   -0.568590
  H     -7.003700   12.341430    2.263030
  H    -12.943840   16.763490    0.046690
  H    -11.435100   17.453160    2.648240
  H    -14.022180   18.491630    1.342220
  H    -10.445180   21.494640    5.572630
  H    -14.967330   23.154700    4.287710
  H    -14.691360   25.052450    5.757830
  H    -13.340960   26.332350    7.370920
  H    -11.104560   25.536490    8.027730
  H    -10.199410   23.452150    7.075070

 Total Charge           Charge          ....    0
 Multiplicity           Mult            ....    1
 Number of Electrons    NEL             ....  526
 Basis Dimension        Dim             .... 1237

ORBITAL ENERGIES
----------------

  NO   OCC          E(Eh)            E(eV)
   0   2.0000     -88.987828     -2421.4819
   1   2.0000     -19.296449      -525.0831
   2   2.0000     -19.294831      -525.0390
   3   2.0000     -19.233095      -523.3591
   4   2.0000     -19.225660      -523.1568
   5   2.0000     -19.224475      -523.1246
   6   2.0000     -19.218035      -522.9493
   7   2.0000     -19.209443      -522.7155
   8   2.0000     -19.200467      -522.4713
   9   2.0000     -14.467133      -393.6707
  10   2.0000     -14.462327      -393.5399
  11   2.0000     -14.426314      -392.5600
  12   2.0000     -14.423915      -392.4947
  13   2.0000     -14.422011      -392.4429
  14   2.0000     -14.419961      -392.3871
  15   2.0000     -14.417547      -392.3214
  16   2.0000     -10.424106      -283.6543
  17   2.0000     -10.423892      -283.6485
  18   2.0000     -10.390203      -282.7318
  19   2.0000     -10.384102      -282.5658
  20   2.0000     -10.383956      -282.5618
  21   2.0000     -10.380527      -282.4685
  22   2.0000     -10.378170      -282.4044
  23   2.0000     -10.368427      -282.1392
  24   2.0000     -10.356341      -281.8104
  25   2.0000     -10.351483      -281.6782
  26   2.0000     -10.350467      -281.6505
  27   2.0000     -10.348538      -281.5980
  28   2.0000     -10.346510      -281.5428
  29   2.0000     -10.343706      -281.4665
  30   2.0000     -10.338383      -281.3217
  31   2.0000     -10.336544      -281.2717
  32   2.0000     -10.335576      -281.2453
  33   2.0000     -10.331378      -281.1311
  34   2.0000     -10.328692      -281.0580
  35   2.0000     -10.324888      -280.9545
  36   2.0000     -10.324731      -280.9502
  37   2.0000     -10.322359      -280.8857
  38   2.0000     -10.320135      -280.8252
  39   2.0000     -10.319723      -280.8139
  40   2.0000     -10.318082      -280.7693
  41   2.0000     -10.314406      -280.6693
  42   2.0000     -10.313899      -280.6555
  43   2.0000     -10.313094      -280.6336
  44   2.0000     -10.312588      -280.6198
  45   2.0000     -10.312280      -280.6114
  46   2.0000     -10.311114      -280.5797
  47   2.0000     -10.309065      -280.5239
  48   2.0000     -10.308923      -280.5201
  49   2.0000     -10.306510      -280.4544
  50   2.0000     -10.305712      -280.4327
  51   2.0000     -10.305405      -280.4243
  52   2.0000     -10.305060      -280.4149
  53   2.0000     -10.304784      -280.4074
  54   2.0000     -10.304627      -280.4032
  55   2.0000     -10.304464      -280.3987
  56   2.0000     -10.302915      -280.3566
  57   2.0000     -10.302837      -280.3545
  58   2.0000     -10.298846      -280.2458
  59   2.0000     -10.298605      -280.2393
  60   2.0000     -10.298107      -280.2257
  61   2.0000     -10.297659      -280.2135
  62   2.0000     -10.297287      -280.2034
  63   2.0000     -10.297261      -280.2027
  64   2.0000     -10.293124      -280.0901
  65   2.0000     -10.292648      -280.0772
  66   2.0000     -10.292356      -280.0692
  67   2.0000     -10.291863      -280.0558
  68   2.0000     -10.289354      -279.9875
  69   2.0000     -10.287523      -279.9377
  70   2.0000     -10.286902      -279.9208
  71   2.0000     -10.286731      -279.9162
  72   2.0000     -10.286282      -279.9040
  73   2.0000     -10.281795      -279.7819
  74   2.0000     -10.277317      -279.6600
  75   2.0000     -10.266946      -279.3778
  76   2.0000     -10.262056      -279.2447
  77   2.0000      -8.080844      -219.8910
  78   2.0000      -6.050122      -164.6322
  79   2.0000      -6.045511      -164.5067
  80   2.0000      -6.043400      -164.4493
  81   2.0000      -1.230288       -33.4778
  82   2.0000      -1.222620       -33.2692
  83   2.0000      -1.148736       -31.2587
  84   2.0000      -1.148559       -31.2539
  85   2.0000      -1.139154       -30.9980
  86   2.0000      -1.134803       -30.8796
  87   2.0000      -1.133574       -30.8461
  88   2.0000      -1.132027       -30.8040
  89   2.0000      -1.078010       -29.3342
  90   2.0000      -1.067462       -29.0471
  91   2.0000      -1.028181       -27.9782
  92   2.0000      -1.025329       -27.9006
  93   2.0000      -1.021030       -27.7836
  94   2.0000      -1.007875       -27.4257
  95   2.0000      -1.002548       -27.2807
  96   2.0000      -1.001504       -27.2523
  97   2.0000      -1.000629       -27.2285
  98   2.0000      -0.996664       -27.1206
  99   2.0000      -0.979638       -26.6573
 100   2.0000      -0.973509       -26.4905
 101   2.0000      -0.950461       -25.8633
 102   2.0000      -0.942403       -25.6441
 103   2.0000      -0.940341       -25.5880
 104   2.0000      -0.936731       -25.4898
 105   2.0000      -0.929451       -25.2916
 106   2.0000      -0.926853       -25.2210
 107   2.0000      -0.922005       -25.0890
 108   2.0000      -0.912294       -24.8248
 109   2.0000      -0.898500       -24.4494
 110   2.0000      -0.892445       -24.2847
 111   2.0000      -0.888072       -24.1657
 112   2.0000      -0.882538       -24.0151
 113   2.0000      -0.881704       -23.9924
 114   2.0000      -0.875987       -23.8368
 115   2.0000      -0.872932       -23.7537
 116   2.0000      -0.856513       -23.3069
 117   2.0000      -0.850613       -23.1464
 118   2.0000      -0.835972       -22.7479
 119   2.0000      -0.829482       -22.5714
 120   2.0000      -0.826561       -22.4919
 121   2.0000      -0.824599       -22.4385
 122   2.0000      -0.814880       -22.1740
 123   2.0000      -0.788445       -21.4547
 124   2.0000      -0.782681       -21.2978
 125   2.0000      -0.773391       -21.0450
 126   2.0000      -0.772083       -21.0095
 127   2.0000      -0.766055       -20.8454
 128   2.0000      -0.763596       -20.7785
 129   2.0000      -0.758574       -20.6419
 130   2.0000      -0.742528       -20.2052
 131   2.0000      -0.734351       -19.9827
 132   2.0000      -0.730638       -19.8817
 133   2.0000      -0.719183       -19.5700
 134   2.0000      -0.715197       -19.4615
 135   2.0000      -0.713278       -19.4093
 136   2.0000      -0.709701       -19.3119
 137   2.0000      -0.705287       -19.1918
 138   2.0000      -0.705173       -19.1887
 139   2.0000      -0.697226       -18.9725
 140   2.0000      -0.688611       -18.7381
 141   2.0000      -0.687645       -18.7118
 142   2.0000      -0.682306       -18.5665
 143   2.0000      -0.677019       -18.4226
 144   2.0000      -0.667857       -18.1733
 145   2.0000      -0.664836       -18.0911
 146   2.0000      -0.657318       -17.8865
 147   2.0000      -0.647351       -17.6153
 148   2.0000      -0.646648       -17.5962
 149   2.0000      -0.636562       -17.3217
 150   2.0000      -0.631425       -17.1820
 151   2.0000      -0.628471       -17.1016
 152   2.0000      -0.617675       -16.8078
 153   2.0000      -0.614281       -16.7154
 154   2.0000      -0.608159       -16.5489
 155   2.0000      -0.607241       -16.5239
 156   2.0000      -0.606043       -16.4913
 157   2.0000      -0.599051       -16.3010
 158   2.0000      -0.597831       -16.2678
 159   2.0000      -0.594372       -16.1737
 160   2.0000      -0.588384       -16.0107
 161   2.0000      -0.585177       -15.9235
 162   2.0000      -0.580478       -15.7956
 163   2.0000      -0.576548       -15.6887
 164   2.0000      -0.574542       -15.6341
 165   2.0000      -0.570332       -15.5195
 166   2.0000      -0.563691       -15.3388
 167   2.0000      -0.557447       -15.1689
 168   2.0000      -0.556656       -15.1474
 169   2.0000      -0.552421       -15.0321
 170   2.0000      -0.550646       -14.9838
 171   2.0000      -0.550568       -14.9817
 172   2.0000      -0.547365       -14.8946
 173   2.0000      -0.546848       -14.8805
 174   2.0000      -0.543771       -14.7968
 175   2.0000      -0.540872       -14.7179
 176   2.0000      -0.538441       -14.6517
 177   2.0000      -0.537663       -14.6306
 178   2.0000      -0.537400       -14.6234
 179   2.0000      -0.535962       -14.5843
 180   2.0000      -0.533066       -14.5055
 181   2.0000      -0.532986       -14.5033
 182   2.0000      -0.529458       -14.4073
 183   2.0000      -0.527916       -14.3653
 184   2.0000      -0.524515       -14.2728
 185   2.0000      -0.522878       -14.2282
 186   2.0000      -0.521138       -14.1809
 187   2.0000      -0.519969       -14.1491
 188   2.0000      -0.517179       -14.0732
 189   2.0000      -0.515687       -14.0325
 190   2.0000      -0.515091       -14.0163
 191   2.0000      -0.509967       -13.8769
 192   2.0000      -0.508337       -13.8325
 193   2.0000      -0.506471       -13.7818
 194   2.0000      -0.503811       -13.7094
 195   2.0000      -0.499549       -13.5934
 196   2.0000      -0.499025       -13.5792
 197   2.0000      -0.496337       -13.5060
 198   2.0000      -0.495720       -13.4892
 199   2.0000      -0.494882       -13.4664
 200   2.0000      -0.490487       -13.3468
 201   2.0000      -0.487083       -13.2542
 202   2.0000      -0.483371       -13.1532
 203   2.0000      -0.481678       -13.1071
 204   2.0000      -0.476470       -12.9654
 205   2.0000      -0.474331       -12.9072
 206   2.0000      -0.473722       -12.8906
 207   2.0000      -0.472555       -12.8589
 208   2.0000      -0.470523       -12.8036
 209   2.0000      -0.465569       -12.6688
 210   2.0000      -0.461106       -12.5473
 211   2.0000      -0.460224       -12.5233
 212   2.0000      -0.457966       -12.4619
 213   2.0000      -0.457785       -12.4570
 214   2.0000      -0.455406       -12.3922
 215   2.0000      -0.454381       -12.3643
 216   2.0000      -0.452483       -12.3127
 217   2.0000      -0.452091       -12.3020
 218   2.0000      -0.451827       -12.2949
 219   2.0000      -0.449565       -12.2333
 220   2.0000      -0.448144       -12.1946
 221   2.0000      -0.446932       -12.1616
 222   2.0000      -0.443085       -12.0569
 223   2.0000      -0.443011       -12.0549
 224   2.0000      -0.442017       -12.0279
 225   2.0000      -0.440765       -11.9938
 226   2.0000      -0.435976       -11.8635
 227   2.0000      -0.435592       -11.8531
 228   2.0000      -0.435393       -11.8476
 229   2.0000      -0.434483       -11.8229
 230   2.0000      -0.432693       -11.7742
 231   2.0000      -0.431482       -11.7412
 232   2.0000      -0.426842       -11.6150
 233   2.0000      -0.425686       -11.5835
 234   2.0000      -0.425397       -11.5757
 235   2.0000      -0.421682       -11.4746
 236   2.0000      -0.420540       -11.4435
 237   2.0000      -0.416130       -11.3235
 238   2.0000      -0.413656       -11.2562
 239   2.0000      -0.408905       -11.1269
 240   2.0000      -0.401373       -10.9219
 241   2.0000      -0.396962       -10.8019
 242   2.0000      -0.388857       -10.5813
 243   2.0000      -0.384381       -10.4595
 244   2.0000      -0.383684       -10.4406
 245   2.0000      -0.375773       -10.2253
 246   2.0000      -0.369214       -10.0468
 247   2.0000      -0.365507        -9.9460
 248   2.0000      -0.361710        -9.8426
 249   2.0000      -0.354592        -9.6489
 250   2.0000      -0.348620        -9.4864
 251   2.0000      -0.345892        -9.4122
 252   2.0000      -0.344450        -9.3730
 253   2.0000      -0.336908        -9.1677
 254   2.0000      -0.333175        -9.0661
 255   2.0000      -0.328221        -8.9313
 256   2.0000      -0.325606        -8.8602
 257   2.0000      -0.317309        -8.6344
 258   2.0000      -0.306953        -8.3526
 259   2.0000      -0.296965        -8.0808
 260   2.0000      -0.295492        -8.0408
 261   2.0000      -0.279859        -7.6154
 262   2.0000      -0.242868        -6.6088
 263   0.0000      -0.133173        -3.6238
 264   0.0000      -0.109878        -2.9899
 265   0.0000      -0.089673        -2.4401
 266   0.0000      -0.069375        -1.8878
 267   0.0000      -0.064332        -1.7506

MULLIKEN ATOMIC CHARGES
-----------------------
   0 C :    0.332284
   1 C :   -0.351795
   2 C :   -0.183803
   3 N :    0.153530
   4 C :   -0.186450
   5 N :    0.150354
   6 C :    0.045220
   7 C :   -0.005217
   8 C :   -0.073986
   9 C :    0.095210
  10 C :    0.095170
  11 C :   -0.078978
  12 C :   -0.017450
  13 C :    0.036778
  14 C :    0.038546
  15 C :   -0.015513
  16 C :    0.174207
  17 O :   -0.177355
  18 C :   -0.088128
  19 C :   -0.016120
  20 C :   -0.050185
  21 S :    0.245691
  22 C :   -0.060081
  23 C :   -0.042285
  24 C :    0.004310
  25 C :   -0.160665
  26 N :    0.121517
  27 C :    0.058226
  28 C :   -0.035062
  29 C :    0.143652
  30 N :   -0.256308
  31 C :    0.094261
  32 C :    0.004342
  33 C :    0.163537
  34 O :   -0.183153
  35 C :   -0.051520
  36 C :   -0.069359
  37 C :    0.168880
  38 O :   -0.205318
  39 N :   -0.254959
  40 C :    0.097088
  41 C :    0.009166
  42 C :    0.131807
  43 C :   -0.010812
  44 C :   -0.001046
  45 C :    0.160506
  46 C :   -0.110888
  47 C :   -0.066495
  48 C :    0.243705
  49 O :   -0.112030
  50 O :   -0.229031
  51 C :    0.140214
  52 O :   -0.234296
  53 C :    0.253005
  54 O :   -0.159139
  55 C :    0.004965
  56 C :    0.013243
  57 C :   -0.048803
  58 C :   -0.055089
  59 C :    0.330034
  60 C :   -0.346001
  61 C :   -0.183501
  62 N :    0.152818
  63 C :   -0.189617
  64 N :    0.148907
  65 C :    0.046819
  66 C :   -0.009915
  67 C :    0.146606
  68 O :   -0.132791
  69 C :   -0.072607
  70 C :    0.096562
  71 C :    0.092765
  72 C :   -0.080303
  73 C :   -0.016350
  74 C :    0.037966
  75 C :    0.033273
  76 C :   -0.013213
  77 H :   -0.009498
  78 H :   -0.008083
  79 H :   -0.006623
  80 H :   -0.002419
  81 H :   -0.002536
  82 H :   -0.015232
  83 H :    0.012575
  84 H :    0.019574
  85 H :    0.012196
  86 H :   -0.010207
  87 H :    0.041008
  88 H :    0.044999
  89 H :    0.017796
  90 H :    0.032789
  91 H :    0.028394
  92 H :    0.041005
  93 H :    0.039392
  94 H :    0.024045
  95 H :    0.030015
  96 H :    0.018544
  97 H :   -0.001320
  98 H :    0.019916
  99 H :    0.019083
 100 H :    0.057391
 101 H :    0.020308
 102 H :   -0.010809
 103 H :   -0.008836
 104 H :   -0.009045
 105 H :   -0.004406
 106 H :   -0.003011
 107 H :   -0.016553
Sum of atomic charges:   -0.0000000

LOEWDIN ATOMIC CHARGES
----------------------
   0 C :    0.076287
   1 C :   -0.136121
   2 C :   -0.017126
   3 N :   -0.048737
   4 C :   -0.021052
   5 N :   -0.049179
   6 C :   -0.025897
   7 C :   -0.057324
   8 C :    0.036334
   9 C :   -0.008104
  10 C :   -0.005145
  11 C :    0.021954
  12 C :   -0.004385
  13 C :   -0.010580
  14 C :   -0.009655
  15 C :   -0.008234
  16 C :    0.087005
  17 O :   -0.161841
  18 C :   -0.094747
  19 C :    0.056270
  20 C :   -0.182853
  21 S :    0.559288
  22 C :   -0.141498
  23 C :   -0.107496
  24 C :    0.012768
  25 C :   -0.026214
  26 N :   -0.056309
  27 C :    0.006966
  28 C :   -0.026978
  29 C :    0.084654
  30 N :    0.004040
  31 C :    0.037638
  32 C :   -0.058806
  33 C :    0.084073
  34 O :   -0.176278
  35 C :   -0.095465
  36 C :   -0.115067
  37 C :    0.077716
  38 O :   -0.197044
  39 N :    0.006239
  40 C :    0.037969
  41 C :   -0.057639
  42 C :    0.059615
  43 C :    0.014149
  44 C :   -0.010648
  45 C :    0.109410
  46 C :   -0.130459
  47 C :   -0.104502
  48 C :    0.106900
  49 O :   -0.111352
  50 O :   -0.038164
  51 C :    0.088831
  52 O :   -0.038493
  53 C :    0.100537
  54 O :   -0.153807
  55 C :   -0.005589
  56 C :    0.020690
  57 C :    0.055520
  58 C :   -0.069911
  59 C :    0.072523
  60 C :   -0.132410
  61 C :   -0.016834
  62 N :   -0.049723
  63 C :   -0.020323
  64 N :   -0.048748
  65 C :   -0.026247
  66 C :   -0.056183
  67 C :    0.082430
  68 O :   -0.127307
  69 C :    0.034529
  70 C :   -0.007464
  71 C :   -0.005893
  72 C :    0.019950
  73 C :   -0.005057
  74 C :   -0.012490
  75 C :   -0.011452
  76 C :   -0.008567
  77 H :    0.040584
  78 H :    0.039570
  79 H :    0.035639
  80 H :    0.034275
  81 H :    0.033941
  82 H :    0.032784
  83 H :    0.051916
  84 H :    0.047830
  85 H :    0.038823
  86 H :    0.037183
  87 H :    0.029955
  88 H :    0.039161
  89 H :    0.023090
  90 H :    0.035417
  91 H :    0.031080
  92 H :    0.037074
  93 H :    0.029459
  94 H :    0.029061
  95 H :    0.034653
  96 H :    0.023869
  97 H :    0.037825
  98 H :    0.046987
  99 H :    0.047592
 100 H :    0.042197
 101 H :    0.043933
 102 H :    0.040190
 103 H :    0.038953
 104 H :    0.034822
 105 H :    0.033452
 106 H :    0.033351
 107 H :    0.032447

  Mayer bond orders larger than 0.100000
B(  0-C ,  1-C ) :   1.6318 B(  0-C ,  6-C ) :   0.9897 B(  0-C , 18-C ) :   1.0632
B(  1-C ,  2-C ) :   1.1485 B(  1-C ,  4-C ) :   1.1436 B(  2-C ,  3-N ) :   2.9627
B(  4-C ,  5-N ) :   2.9556 B(  6-C ,  7-C ) :   1.2127 B(  6-C , 11-C ) :   1.4512
B(  7-C ,  8-C ) :   1.4658 B(  7-C , 16-C ) :   0.9652 B(  8-C ,  9-C ) :   1.1796
B(  8-C , 77-H ) :   1.0167 B(  9-C , 10-C ) :   1.2544 B(  9-C , 15-C ) :   1.2442
B( 10-C , 11-C ) :   1.2062 B( 10-C , 12-C ) :   1.2412 B( 11-C , 78-H ) :   0.9889
B( 12-C , 13-C ) :   1.4869 B( 12-C , 79-H ) :   0.9974 B( 13-C , 14-C ) :   1.2606
B( 13-C , 80-H ) :   0.9891 B( 14-C , 15-C ) :   1.4875 B( 14-C , 81-H ) :   0.9892
B( 15-C , 82-H ) :   0.9978 B( 16-C , 17-O ) :   2.1268 B( 16-C , 18-C ) :   0.9653
B( 18-C , 19-C ) :   1.5494 B( 19-C , 20-C ) :   1.2172 B( 19-C , 83-H ) :   0.9377
B( 20-C , 21-S ) :   1.1068 B( 20-C , 24-C ) :   1.3615 B( 21-S , 22-C ) :   1.1467
B( 22-C , 23-C ) :   1.3569 B( 22-C , 27-C ) :   1.1788 B( 23-C , 24-C ) :   1.3493
B( 23-C , 25-C ) :   1.1009 B( 24-C , 84-H ) :   1.0137 B( 25-C , 26-N ) :   2.9730
B( 27-C , 28-C ) :   1.5873 B( 27-C , 85-H ) :   0.9194 B( 28-C , 29-C ) :   1.1868
B( 28-C , 86-H ) :   0.9457 B( 29-C , 30-N ) :   1.1775 B( 29-C , 36-C ) :   1.2937
B( 30-N , 31-C ) :   0.9361 B( 30-N , 33-C ) :   1.0510 B( 31-C , 32-C ) :   1.1202
B( 31-C , 87-H ) :   0.9480 B( 31-C , 88-H ) :   0.9284 B( 32-C , 89-H ) :   0.9683
B( 32-C , 90-H ) :   0.9682 B( 32-C , 91-H ) :   0.9639 B( 33-C , 34-O ) :   2.0709
B( 33-C , 35-C ) :   0.9675 B( 35-C , 36-C ) :   1.2930 B( 35-C , 42-C ) :   1.3060
B( 36-C , 37-C ) :   0.9792 B( 37-C , 38-O ) :   2.0280 B( 37-C , 39-N ) :   1.0751
B( 38-O , 85-H ) :   0.1150 B( 39-N , 40-C ) :   0.9366 B( 39-N , 42-C ) :   1.1573
B( 40-C , 41-C ) :   1.1224 B( 40-C , 92-H ) :   0.9280 B( 40-C , 93-H ) :   0.9464
B( 41-C , 94-H ) :   0.9641 B( 41-C , 95-H ) :   0.9681 B( 41-C , 96-H ) :   0.9676
B( 42-C , 43-C ) :   1.1997 B( 43-C , 44-C ) :   1.4951 B( 43-C , 97-H ) :   0.9364
B( 44-C , 45-C ) :   1.2146 B( 44-C , 98-H ) :   0.9594 B( 45-C , 46-C ) :   1.3323
B( 45-C , 50-O ) :   1.1421 B( 46-C , 47-C ) :   1.1926 B( 46-C , 53-C ) :   0.9795
B( 47-C , 48-C ) :   0.9422 B( 47-C , 51-C ) :   1.4002 B( 48-C , 49-O ) :   2.2141
B( 48-C , 50-O ) :   1.0206 B( 51-C , 52-O ) :   1.1118 B( 51-C , 55-C ) :   1.1690
B( 52-O , 53-C ) :   1.0527 B( 53-C , 54-O ) :   2.1191 B( 55-C , 56-C ) :   1.5431
B( 55-C , 99-H ) :   0.9729 B( 56-C , 57-C ) :   1.1545 B( 56-C ,100-H ) :   0.9629
B( 57-C , 58-C ) :   1.5726 B( 57-C ,101-H ) :   0.9585 B( 58-C , 59-C ) :   1.0578
B( 58-C , 67-C ) :   0.9296 B( 59-C , 60-C ) :   1.6286 B( 59-C , 65-C ) :   0.9909
B( 60-C , 61-C ) :   1.1472 B( 60-C , 63-C ) :   1.1459 B( 61-C , 62-N ) :   2.9622
B( 63-C , 64-N ) :   2.9592 B( 65-C , 66-C ) :   1.2129 B( 65-C , 72-C ) :   1.4460
B( 66-C , 67-C ) :   0.9413 B( 66-C , 69-C ) :   1.4735 B( 67-C , 68-O ) :   2.2248
B( 69-C , 70-C ) :   1.1802 B( 69-C ,102-H ) :   1.0156 B( 70-C , 71-C ) :   1.2551
B( 70-C , 76-C ) :   1.2438 B( 71-C , 72-C ) :   1.2096 B( 71-C , 73-C ) :   1.2391
B( 72-C ,103-H ) :   0.9882 B( 73-C , 74-C ) :   1.4903 B( 73-C ,104-H ) :   0.9969
B( 74-C , 75-C ) :   1.2581 B( 74-C ,105-H ) :   0.9890 B( 75-C , 76-C ) :   1.4892
B( 75-C ,106-H ) :   0.9891 B( 76-C ,107-H ) :   0.9977

-----------------------------------------------------------------------------
         ABSORPTION SPECTRUM VIA TRANSITION ELECTRIC DIPOLE MOMENTS
-----------------------------------------------------------------------------
State   Energy  Wavelength   fosc         T2         TX        TY        TZ
        (cm-1)    (nm)                  (au**2)     (au)      (au)      (au)
-----------------------------------------------------------------------------
   0    9933.8   1006.7   1.395870359  46.26010   4.93042  -4.45330  -1.45577
   1   16488.4    606.5   0.082433148   1.64588   0.05970   1.04840  -0.73701
   2   18051.8    554.0   0.182339341   3.32533  -0.95898   1.50645   0.36919
   3   20952.4    477.3   0.235247673   3.69630   0.23031  -0.73675  -1.76081
   4   22635.3    441.8   0.020683967   0.30083   0.49890   0.05264  -0.22172
   5   22811.2    438.4   0.694926080  10.02921  -1.63472   1.34405   2.35594
   6   23898.2    418.4   0.004712660   0.06492   0.20480  -0.15130   0.00922
   7   24244.0    412.5   0.001294759   0.01758   0.08935  -0.08532  -0.04815
   8   24969.6    400.5   0.142086924   1.87334  -0.32335   0.18251   1.31738
   9   25315.1    395.0   0.045787351   0.59544  -0.37087   0.37670   0.56213
  10   25907.6    386.0   0.003799721   0.04828  -0.08972   0.14875  -0.13456
  11   25974.6    385.0   0.005464734   0.06926  -0.17665   0.09646  -0.16957
  12   26501.4    377.3   0.015519144   0.19279  -0.36946  -0.09904   0.21558
  13   26802.6    373.1   0.080211239   0.98522  -0.55726   0.14379  -0.80871
  14   27172.2    368.0   0.000990562   0.01200  -0.01535  -0.08696   0.06483
  15   27825.6    359.4   0.017643104   0.20874  -0.44586   0.05458  -0.08349
  16   28368.3    352.5   0.023447399   0.27210   0.06594  -0.13984   0.49820
  17   28952.8    345.4   0.062438129   0.70996   0.33537  -0.22344  -0.73998
  18   29240.2    342.0   0.004369762   0.04920   0.00081  -0.16476  -0.14850
  19   29466.3    339.4   0.212416976   2.37322  -0.03883  -1.19154  -0.97568
  20   29846.2    335.1   0.050996595   0.56251   0.03560   0.62972   0.40583
  21   30272.6    330.3   0.131912624   1.43454  -0.08206   0.86824   0.82096
  22   30913.9    323.5   0.147623999   1.57210   0.44721   0.82647   0.83009
  23   31274.6    319.7   0.223285220   2.35041  -0.44189   0.49747  -1.38118
  24   31783.8    314.6   0.062162737   0.64387  -0.79254  -0.02383  -0.12325
  25   31922.5    313.3   0.062936802   0.64906   0.47495  -0.18798   0.62301
  26   32760.0    305.3   0.422352808   4.24431  -0.52530   0.25219  -1.97605
  27   32904.0    303.9   0.266234084   2.66373  -0.51429  -1.17509  -1.00916
  28   33543.0    298.1   0.014796965   0.14523  -0.03175  -0.20653  -0.31869
  29   33578.5    297.8   0.001566390   0.01536  -0.11012   0.00382  -0.05672
  30   33690.6    296.8   0.003186027   0.03113  -0.06948   0.14654  -0.06950
  31   33775.2    296.1   0.010501088   0.10236   0.11237  -0.00383   0.29952
  32   34240.4    292.1   0.002494142   0.02398  -0.02286  -0.01774   0.15213
  33   34443.8    290.3   0.173766588   1.66085   0.75179  -1.04629   0.03072
  34   34594.1    289.1   0.114044664   1.08530  -0.47739   0.51236  -0.77128
  35   34894.1    286.6   0.056838204   0.53625  -0.71349  -0.11476   0.11838
  36   35644.8    280.5   0.141409973   1.30605   1.09149  -0.31653   0.12045
  37   35846.5    279.0   0.166905790   1.53285  -0.51394   0.92681  -0.64010
  38   35906.0    278.5   0.739181486   6.77735   0.73283   0.78532   2.37141
  39   36029.1    277.6   0.001733270   0.01584   0.02413  -0.09728   0.07611
  40   36306.3    275.4   0.005572419   0.05053  -0.01657   0.17124  -0.14467
  41   36569.6    273.5   0.061235413   0.55126   0.02263  -0.55023  -0.49799
  42   36781.7    271.9   0.014502333   0.12980  -0.03401  -0.08113  -0.34937
  43   37000.0    270.3   0.007487997   0.06663  -0.24623  -0.00051  -0.07744
  44   37061.6    269.8   0.009633975   0.08558  -0.24289   0.13615  -0.08968
  45   37478.4    266.8   0.007256783   0.06374   0.08095   0.08914   0.22191
  46   37698.6    265.3   0.008861050   0.07738  -0.26169   0.02233  -0.09166
  47   37997.6    263.2   0.196221676   1.70007  -0.81482  -0.55807  -0.85128
  48   38235.2    261.5   0.048585404   0.41833   0.44295  -0.46324  -0.08680
  49   38648.1    258.7   0.006350375   0.05409   0.10969  -0.01237  -0.20472
  50   38667.3    258.6   0.006221107   0.05297   0.07831  -0.20337   0.07399
  51   39072.4    255.9   0.054483232   0.45906   0.55864  -0.31349  -0.22069
  52   39088.0    255.8   0.212527759   1.78998  -0.96857   0.76581   0.51516
  53   39493.4    253.2   0.008678632   0.07234  -0.04323  -0.14965   0.21928
  54   39769.9    251.4   0.099467327   0.82338   0.79007  -0.44272  -0.05636
  55   40039.2    249.8   0.134226906   1.10365  -1.00419   0.30743   0.02692
  56   40208.6    248.7   0.002071786   0.01696   0.05382  -0.07038  -0.09546

FINAL SINGLE POINT ENERGY     -3722.066074395177

DIPOLE MOMENT
-------------
                                X             Y             Z
Electronic contribution:     -3.49850      -5.63674      -1.67769
Nuclear contribution   :      4.65917       6.62478       0.20066
                        -----------------------------------------
Total Dipole Moment    :      1.16067       0.98803      -1.47703
                        -----------------------------------------
Magnitude (a.u.)       :      2.12249
Magnitude (Debye)      :      5.39495

Rotational constants in cm-1:     0.001739     0.000173     0.000165
Rotational constants in MHz :    52.136326     5.200686     4.939852

                             ****ORCA TERMINATED NORMALLY****
TOTAL RUN TIME: 0 days 0 hours 11 minutes 52 seconds 90 msec
