                         Program Version 4.2.0 -  RELEASE  -
|  1> # ORCA input file
|  2> # SCF done       -157.605079881280          0.000619045306
|  3> ! CAM-B3LYP def2-SVP def2/J RIJCOSX Grid4 TightSCF
|  4> %maxcore 5000
|  5> %tddft
|  6>     Mode sTDDFT
|  7>     Ethresh 5.0
|  8>     maxcore 5000
|  9> end
| 10>
| 11> %pal
| 12>   nprocs 6
| 13>   end
| 14> * xyz 0 1
| 15>    C       -1.79325         2.91161         3.37830
| 16>    C       -0.93841         2.22908         4.21866
| 17>    C       -0.12345         2.71276         5.35772
| 18>    O       -0.02692         3.81956         5.80212
| 19>    O        0.54762         1.64754         5.86244
| 20>    C        0.25537         0.45552         5.15020
| 21>    C       -0.71304         0.86150         4.08669
| 22>    C       -1.35163         0.14159         3.09570
| 23>    C       -2.21115         0.81710         2.24775
| 24>    C       -2.44394         2.19575         2.36899
| 25>    C       -3.35001         2.87489         1.46588
| 26>    S       -3.84164         4.51612         1.76442
| 27>    C       -4.83438         4.55374         0.34212
| 28>    C       -4.76727         3.32715        -0.32412
| 29>    C       -3.93161         2.39395         0.31855
| 30>    C       -5.44599         3.00328        -1.50891
| 31>    N       -5.98255         2.69070        -2.47521
| 32>    C       -5.54782         5.73779         0.03757
| 33>    C       -6.34474         5.90958        -1.05159
| 34>    C       -7.02787         7.11982        -1.31077
| 35>    N       -7.82997         7.31788        -2.40958
| 36>    C       -8.16408         6.34296        -3.42067
| 37>    C       -9.22382         5.35799        -2.93475
| 38>    C       -8.37117         8.61365        -2.43963
| 39>    O       -9.11014         9.01156        -3.31902
| 40>    C       -7.83924         9.25271        -1.25505
| 41>    C       -7.02656         8.31251        -0.58262
| 42>    C       -6.48117         8.95416         0.59498
| 43>    O       -5.73902         8.54950         1.46888
| 44>    N       -6.99665        10.25690         0.55108
| 45>    C       -6.70973        11.21238         1.59515
| 46>    C       -7.87497        11.35841         2.57010
| 47>    C       -7.80718        10.45790        -0.54381
| 48>    C       -8.41886        11.69051        -0.85018
| 49>    C       -9.21616        11.86847        -1.94305
| 50>    C       -9.79678        13.10689        -2.30379
| 51>    C       -9.68196        14.33778        -1.68911
| 52>    C      -10.39549        15.31078        -2.44365
| 53>    C      -10.99580        14.58443        -3.58190
| 54>    C      -10.63521        13.27988        -3.48364
| 55>    C      -11.81955        15.12340        -4.57579
| 56>    N      -12.50994        15.53879        -5.39513
| 57>    C      -10.48099        16.65830        -2.19275
| 58>    C      -11.09289        17.66107        -3.01526
| 59>    C      -10.89918        18.88818        -2.44402
| 60>    C      -10.18393        18.70094        -1.19242
| 61>    C       -9.92591        17.37414        -1.03344
| 62>    C       -9.28312        16.79956         0.06663
| 63>    N       -8.76280        16.33210         0.97902
| 64>    C      -11.34987        20.15448        -2.98485
| 65>    C      -10.61883        21.34249        -2.88199
| 66>    C       -9.26885        21.61658        -2.34058
| 67>    O       -8.47536        20.86833        -1.84103
| 68>    O       -9.00919        22.93543        -2.51451
| 69>    C      -10.08061        23.59789        -3.16241
| 70>    C      -11.10266        22.53571        -3.41262
| 71>    C      -12.31893        22.60048        -4.06080
| 72>    C      -13.04496        21.42280        -4.18241
| 73>    C      -12.57159        20.23080        -3.66282
| 74>    H       -1.94582         3.97267         3.50337
| 75>    H       -0.16494        -0.27774         5.84784
| 76>    H        1.18857         0.05169         4.74142
| 77>    H       -1.19090        -0.91937         2.98273
| 78>    H       -2.72232         0.26100         1.47822
| 79>    H       -3.76887         1.40787        -0.07811
| 80>    H       -5.43004         6.55393         0.73956
| 81>    H       -6.46600         5.10605        -1.76144
| 82>    H       -7.26034         5.81331        -3.73354
| 83>    H       -8.55291         6.91162        -4.26993
| 84>    H       -8.86948         4.79735        -2.07283
| 85>    H       -9.46112         4.65685        -3.72945
| 86>    H      -10.12955         5.89148        -2.65638
| 87>    H       -6.45425        12.17729         1.14902
| 88>    H       -5.83386        10.82642         2.12399
| 89>    H       -8.77303        11.69715         2.05847
| 90>    H       -7.61936        12.08176         3.33900
| 91>    H       -8.08547        10.40338         3.04552
| 92>    H       -8.22661        12.52495        -0.19196
| 93>    H       -9.41540        11.02710        -2.59375
| 94>    H       -9.12898        14.56053        -0.79898
| 95>    H      -10.90820        12.48390        -4.15185
| 96>    H      -11.56443        17.46442        -3.95797
| 97>    H       -9.92322        19.48362        -0.50738
| 98>    H       -9.70654        24.05026        -4.08759
| 99>    H      -10.45150        24.39638        -2.50959
|100>    H      -12.68759        23.52934        -4.46689
|101>    H      -13.99600        21.43541        -4.69296
|102>    H      -13.16419        19.33450        -3.76370
|103> *
|104>
|105>                          ****END OF INPUT****

CARTESIAN COORDINATES (ANGSTROEM)
---------------------------------
  C     -1.793250    2.911610    3.378300
  C     -0.938410    2.229080    4.218660
  C     -0.123450    2.712760    5.357720
  O     -0.026920    3.819560    5.802120
  O      0.547620    1.647540    5.862440
  C      0.255370    0.455520    5.150200
  C     -0.713040    0.861500    4.086690
  C     -1.351630    0.141590    3.095700
  C     -2.211150    0.817100    2.247750
  C     -2.443940    2.195750    2.368990
  C     -3.350010    2.874890    1.465880
  S     -3.841640    4.516120    1.764420
  C     -4.834380    4.553740    0.342120
  C     -4.767270    3.327150   -0.324120
  C     -3.931610    2.393950    0.318550
  C     -5.445990    3.003280   -1.508910
  N     -5.982550    2.690700   -2.475210
  C     -5.547820    5.737790    0.037570
  C     -6.344740    5.909580   -1.051590
  C     -7.027870    7.119820   -1.310770
  N     -7.829970    7.317880   -2.409580
  C     -8.164080    6.342960   -3.420670
  C     -9.223820    5.357990   -2.934750
  C     -8.371170    8.613650   -2.439630
  O     -9.110140    9.011560   -3.319020
  C     -7.839240    9.252710   -1.255050
  C     -7.026560    8.312510   -0.582620
  C     -6.481170    8.954160    0.594980
  O     -5.739020    8.549500    1.468880
  N     -6.996650   10.256900    0.551080
  C     -6.709730   11.212380    1.595150
  C     -7.874970   11.358410    2.570100
  C     -7.807180   10.457900   -0.543810
  C     -8.418860   11.690510   -0.850180
  C     -9.216160   11.868470   -1.943050
  C     -9.796780   13.106890   -2.303790
  C     -9.681960   14.337780   -1.689110
  C    -10.395490   15.310780   -2.443650
  C    -10.995800   14.584430   -3.581900
  C    -10.635210   13.279880   -3.483640
  C    -11.819550   15.123400   -4.575790
  N    -12.509940   15.538790   -5.395130
  C    -10.480990   16.658300   -2.192750
  C    -11.092890   17.661070   -3.015260
  C    -10.899180   18.888180   -2.444020
  C    -10.183930   18.700940   -1.192420
  C     -9.925910   17.374140   -1.033440
  C     -9.283120   16.799560    0.066630
  N     -8.762800   16.332100    0.979020
  C    -11.349870   20.154480   -2.984850
  C    -10.618830   21.342490   -2.881990
  C     -9.268850   21.616580   -2.340580
  O     -8.475360   20.868330   -1.841030
  O     -9.009190   22.935430   -2.514510
  C    -10.080610   23.597890   -3.162410
  C    -11.102660   22.535710   -3.412620
  C    -12.318930   22.600480   -4.060800
  C    -13.044960   21.422800   -4.182410
  C    -12.571590   20.230800   -3.662820
  H     -1.945820    3.972670    3.503370
  H     -0.164940   -0.277740    5.847840
  H      1.188570    0.051690    4.741420
  H     -1.190900   -0.919370    2.982730
  H     -2.722320    0.261000    1.478220
  H     -3.768870    1.407870   -0.078110
  H     -5.430040    6.553930    0.739560
  H     -6.466000    5.106050   -1.761440
  H     -7.260340    5.813310   -3.733540
  H     -8.552910    6.911620   -4.269930
  H     -8.869480    4.797350   -2.072830
  H     -9.461120    4.656850   -3.729450
  H    -10.129550    5.891480   -2.656380
  H     -6.454250   12.177290    1.149020
  H     -5.833860   10.826420    2.123990
  H     -8.773030   11.697150    2.058470
  H     -7.619360   12.081760    3.339000
  H     -8.085470   10.403380    3.045520
  H     -8.226610   12.524950   -0.191960
  H     -9.415400   11.027100   -2.593750
  H     -9.128980   14.560530   -0.798980
  H    -10.908200   12.483900   -4.151850
  H    -11.564430   17.464420   -3.957970
  H     -9.923220   19.483620   -0.507380
  H     -9.706540   24.050260   -4.087590
  H    -10.451500   24.396380   -2.509590
  H    -12.687590   23.529340   -4.466890
  H    -13.996000   21.435410   -4.692960
  H    -13.164190   19.334500   -3.763700

 Total Charge           Charge          ....    0
 Multiplicity           Mult            ....    1
 Number of Electrons    NEL             ....  410
 Basis Dimension        Dim             ....  975

ORBITAL ENERGIES
----------------

  NO   OCC          E(Eh)            E(eV)
   0   2.0000     -88.980365     -2421.2788
   1   2.0000     -19.262924      -524.1708
   2   2.0000     -19.259581      -524.0798
   3   2.0000     -19.204064      -522.5691
   4   2.0000     -19.198225      -522.4103
   5   2.0000     -19.193687      -522.2868
   6   2.0000     -19.192289      -522.2487
   7   2.0000     -14.454207      -393.3190
   8   2.0000     -14.453730      -393.3060
   9   2.0000     -14.417342      -392.3158
  10   2.0000     -14.405702      -391.9991
  11   2.0000     -14.400713      -391.8633
  12   2.0000     -10.404457      -283.1197
  13   2.0000     -10.398472      -282.9568
  14   2.0000     -10.375744      -282.3383
  15   2.0000     -10.374919      -282.3159
  16   2.0000     -10.347366      -281.5662
  17   2.0000     -10.347343      -281.5655
  18   2.0000     -10.340487      -281.3790
  19   2.0000     -10.339399      -281.3494
  20   2.0000     -10.333357      -281.1849
  21   2.0000     -10.326236      -280.9912
  22   2.0000     -10.322838      -280.8987
  23   2.0000     -10.319022      -280.7949
  24   2.0000     -10.318562      -280.7823
  25   2.0000     -10.318506      -280.7808
  26   2.0000     -10.312216      -280.6097
  27   2.0000     -10.311425      -280.5882
  28   2.0000     -10.310182      -280.5543
  29   2.0000     -10.308218      -280.5009
  30   2.0000     -10.305560      -280.4285
  31   2.0000     -10.304943      -280.4118
  32   2.0000     -10.304160      -280.3905
  33   2.0000     -10.304054      -280.3876
  34   2.0000     -10.304009      -280.3863
  35   2.0000     -10.303953      -280.3848
  36   2.0000     -10.303658      -280.3768
  37   2.0000     -10.303044      -280.3601
  38   2.0000     -10.302646      -280.3492
  39   2.0000     -10.301741      -280.3246
  40   2.0000     -10.301175      -280.3092
  41   2.0000     -10.301094      -280.3070
  42   2.0000     -10.300480      -280.2903
  43   2.0000     -10.299441      -280.2620
  44   2.0000     -10.297151      -280.1997
  45   2.0000     -10.296925      -280.1936
  46   2.0000     -10.296699      -280.1874
  47   2.0000     -10.296061      -280.1701
  48   2.0000     -10.295534      -280.1557
  49   2.0000     -10.294878      -280.1379
  50   2.0000     -10.294771      -280.1350
  51   2.0000     -10.291363      -280.0422
  52   2.0000     -10.291127      -280.0358
  53   2.0000     -10.283202      -279.8201
  54   2.0000     -10.281307      -279.7686
  55   2.0000     -10.264849      -279.3207
  56   2.0000     -10.263639      -279.2878
  57   2.0000     -10.259594      -279.1777
  58   2.0000     -10.258758      -279.1550
  59   2.0000      -8.075716      -219.7514
  60   2.0000      -6.044816      -164.4878
  61   2.0000      -6.040698      -164.3757
  62   2.0000      -6.038133      -164.3060
  63   2.0000      -1.198049       -32.6006
  64   2.0000      -1.193342       -32.4725
  65   2.0000      -1.135183       -30.8899
  66   2.0000      -1.128522       -30.7087
  67   2.0000      -1.110267       -30.2119
  68   2.0000      -1.105163       -30.0730
  69   2.0000      -1.065180       -28.9850
  70   2.0000      -1.056687       -28.7539
  71   2.0000      -1.019997       -27.7555
  72   2.0000      -1.011642       -27.5282
  73   2.0000      -0.997313       -27.1383
  74   2.0000      -0.996206       -27.1082
  75   2.0000      -0.983761       -26.7695
  76   2.0000      -0.980852       -26.6903
  77   2.0000      -0.980199       -26.6726
  78   2.0000      -0.969995       -26.3949
  79   2.0000      -0.929760       -25.3001
  80   2.0000      -0.921721       -25.0813
  81   2.0000      -0.911272       -24.7970
  82   2.0000      -0.897013       -24.4090
  83   2.0000      -0.892810       -24.2946
  84   2.0000      -0.877655       -23.8822
  85   2.0000      -0.876083       -23.8394
  86   2.0000      -0.871241       -23.7077
  87   2.0000      -0.866027       -23.5658
  88   2.0000      -0.858169       -23.3520
  89   2.0000      -0.848434       -23.0871
  90   2.0000      -0.845637       -23.0110
  91   2.0000      -0.836279       -22.7563
  92   2.0000      -0.818500       -22.2725
  93   2.0000      -0.815838       -22.2001
  94   2.0000      -0.813636       -22.1402
  95   2.0000      -0.798334       -21.7238
  96   2.0000      -0.786439       -21.4001
  97   2.0000      -0.766547       -20.8588
  98   2.0000      -0.758390       -20.6368
  99   2.0000      -0.744548       -20.2602
 100   2.0000      -0.742804       -20.2127
 101   2.0000      -0.732541       -19.9335
 102   2.0000      -0.722856       -19.6699
 103   2.0000      -0.717419       -19.5220
 104   2.0000      -0.709053       -19.2943
 105   2.0000      -0.702710       -19.1217
 106   2.0000      -0.701905       -19.0998
 107   2.0000      -0.695154       -18.9161
 108   2.0000      -0.688664       -18.7395
 109   2.0000      -0.676838       -18.4177
 110   2.0000      -0.674164       -18.3449
 111   2.0000      -0.667771       -18.1710
 112   2.0000      -0.650051       -17.6888
 113   2.0000      -0.646546       -17.5934
 114   2.0000      -0.638868       -17.3845
 115   2.0000      -0.636086       -17.3088
 116   2.0000      -0.621028       -16.8990
 117   2.0000      -0.609916       -16.5967
 118   2.0000      -0.608132       -16.5481
 119   2.0000      -0.604933       -16.4611
 120   2.0000      -0.601637       -16.3714
 121   2.0000      -0.594065       -16.1653
 122   2.0000      -0.592238       -16.1156
 123   2.0000      -0.591597       -16.0982
 124   2.0000      -0.589481       -16.0406
 125   2.0000      -0.583371       -15.8743
 126   2.0000      -0.581010       -15.8101
 127   2.0000      -0.578271       -15.7356
 128   2.0000      -0.572033       -15.5658
 129   2.0000      -0.561334       -15.2747
 130   2.0000      -0.559079       -15.2133
 131   2.0000      -0.549784       -14.9604
 132   2.0000      -0.548585       -14.9278
 133   2.0000      -0.543474       -14.7887
 134   2.0000      -0.541646       -14.7389
 135   2.0000      -0.535843       -14.5810
 136   2.0000      -0.531482       -14.4624
 137   2.0000      -0.530002       -14.4221
 138   2.0000      -0.528471       -14.3804
 139   2.0000      -0.525158       -14.2903
 140   2.0000      -0.521566       -14.1925
 141   2.0000      -0.521473       -14.1900
 142   2.0000      -0.519528       -14.1371
 143   2.0000      -0.514929       -14.0119
 144   2.0000      -0.511490       -13.9184
 145   2.0000      -0.510509       -13.8916
 146   2.0000      -0.508546       -13.8382
 147   2.0000      -0.508405       -13.8344
 148   2.0000      -0.505423       -13.7533
 149   2.0000      -0.501895       -13.6573
 150   2.0000      -0.497751       -13.5445
 151   2.0000      -0.494915       -13.4673
 152   2.0000      -0.490859       -13.3570
 153   2.0000      -0.487020       -13.2525
 154   2.0000      -0.485193       -13.2028
 155   2.0000      -0.480138       -13.0652
 156   2.0000      -0.477808       -13.0018
 157   2.0000      -0.475786       -12.9468
 158   2.0000      -0.474339       -12.9074
 159   2.0000      -0.473018       -12.8715
 160   2.0000      -0.470684       -12.8080
 161   2.0000      -0.467791       -12.7293
 162   2.0000      -0.465086       -12.6556
 163   2.0000      -0.463388       -12.6094
 164   2.0000      -0.459034       -12.4909
 165   2.0000      -0.456626       -12.4254
 166   2.0000      -0.454593       -12.3701
 167   2.0000      -0.451960       -12.2984
 168   2.0000      -0.450314       -12.2537
 169   2.0000      -0.447471       -12.1763
 170   2.0000      -0.444945       -12.1076
 171   2.0000      -0.442858       -12.0508
 172   2.0000      -0.442048       -12.0287
 173   2.0000      -0.441663       -12.0182
 174   2.0000      -0.438925       -11.9437
 175   2.0000      -0.436526       -11.8785
 176   2.0000      -0.435773       -11.8580
 177   2.0000      -0.432367       -11.7653
 178   2.0000      -0.430933       -11.7263
 179   2.0000      -0.428656       -11.6643
 180   2.0000      -0.424578       -11.5534
 181   2.0000      -0.422819       -11.5055
 182   2.0000      -0.417279       -11.3547
 183   2.0000      -0.411356       -11.1936
 184   2.0000      -0.410852       -11.1798
 185   2.0000      -0.397518       -10.8170
 186   2.0000      -0.392092       -10.6694
 187   2.0000      -0.381140       -10.3714
 188   2.0000      -0.376431       -10.2432
 189   2.0000      -0.372862       -10.1461
 190   2.0000      -0.354096        -9.6354
 191   2.0000      -0.351492        -9.5646
 192   2.0000      -0.350946        -9.5497
 193   2.0000      -0.349718        -9.5163
 194   2.0000      -0.348842        -9.4925
 195   2.0000      -0.344647        -9.3783
 196   2.0000      -0.340082        -9.2541
 197   2.0000      -0.339665        -9.2427
 198   2.0000      -0.333998        -9.0885
 199   2.0000      -0.318984        -8.6800
 200   2.0000      -0.316617        -8.6156
 201   2.0000      -0.299478        -8.1492
 202   2.0000      -0.293250        -7.9797
 203   2.0000      -0.287735        -7.8297
 204   2.0000      -0.233269        -6.3476
 205   0.0000      -0.123494        -3.3604
 206   0.0000      -0.083974        -2.2851
 207   0.0000      -0.037914        -1.0317
 208   0.0000      -0.025388        -0.6908
 209   0.0000      -0.024150        -0.6572

MULLIKEN ATOMIC CHARGES
-----------------------
   0 C :   -0.099737
   1 C :   -0.028905
   2 C :    0.209923
   3 O :   -0.150742
   4 O :   -0.291799
   5 C :    0.333123
   6 C :   -0.099781
   7 C :   -0.016789
   8 C :   -0.027023
   9 C :    0.161473
  10 C :   -0.062143
  11 S :    0.171971
  12 C :   -0.056727
  13 C :   -0.072518
  14 C :    0.002577
  15 C :   -0.170293
  16 N :    0.112801
  17 C :    0.057267
  18 C :   -0.040161
  19 C :    0.140763
  20 N :   -0.257538
  21 C :    0.098324
  22 C :    0.009273
  23 C :    0.167521
  24 O :   -0.210157
  25 C :   -0.063591
  26 C :   -0.069718
  27 C :    0.169704
  28 O :   -0.213370
  29 N :   -0.256964
  30 C :    0.096019
  31 C :    0.006482
  32 C :    0.146565
  33 C :   -0.014080
  34 C :    0.004332
  35 C :    0.110442
  36 C :   -0.119682
  37 C :    0.113118
  38 C :   -0.089236
  39 C :    0.001457
  40 C :   -0.176430
  41 N :    0.127293
  42 C :    0.104171
  43 C :   -0.104920
  44 C :    0.059491
  45 C :    0.059455
  46 C :   -0.127813
  47 C :   -0.168479
  48 N :    0.120417
  49 C :    0.057904
  50 C :   -0.060983
  51 C :    0.204266
  52 O :   -0.159832
  53 O :   -0.285691
  54 C :    0.327139
  55 C :   -0.109473
  56 C :   -0.026763
  57 C :    0.048890
  58 C :   -0.022032
  59 H :    0.010295
  60 H :    0.043920
  61 H :    0.044189
  62 H :   -0.016571
  63 H :   -0.011916
  64 H :   -0.007373
  65 H :    0.006730
  66 H :   -0.014681
  67 H :    0.035496
  68 H :    0.040072
  69 H :    0.017360
  70 H :    0.028457
  71 H :    0.023584
  72 H :    0.031099
  73 H :    0.044065
  74 H :    0.017906
  75 H :    0.031247
  76 H :    0.025257
  77 H :   -0.012798
  78 H :    0.003994
  79 H :    0.001593
  80 H :    0.010153
  81 H :    0.002739
  82 H :    0.003748
  83 H :    0.044311
  84 H :    0.046176
  85 H :   -0.016577
  86 H :    0.001904
  87 H :   -0.003167
Sum of atomic charges:   -0.0000000

LOEWDIN ATOMIC CHARGES
----------------------
   0 C :    0.010883
   1 C :   -0.069046
   2 C :    0.082236
   3 O :   -0.148721
   4 O :   -0.089930
   5 C :    0.102456
   6 C :   -0.024202
   7 C :   -0.017964
   8 C :    0.008074
   9 C :   -0.035610
  10 C :   -0.157249
  11 S :    0.492989
  12 C :   -0.142037
  13 C :   -0.103267
  14 C :   -0.028280
  15 C :   -0.025855
  16 N :   -0.062603
  17 C :   -0.000390
  18 C :   -0.033297
  19 C :    0.075581
  20 N :    0.003420
  21 C :    0.037129
  22 C :   -0.058721
  23 C :    0.081178
  24 O :   -0.199162
  25 C :   -0.113150
  26 C :   -0.117618
  27 C :    0.079878
  28 O :   -0.202180
  29 N :    0.002365
  30 C :    0.037217
  31 C :   -0.059456
  32 C :    0.072784
  33 C :   -0.021651
  34 C :    0.022202
  35 C :   -0.020706
  36 C :   -0.016061
  37 C :    0.035729
  38 C :   -0.084393
  39 C :    0.061675
  40 C :   -0.029066
  41 N :   -0.069134
  42 C :    0.042193
  43 C :   -0.015228
  44 C :   -0.009485
  45 C :    0.075620
  46 C :   -0.096796
  47 C :   -0.024831
  48 N :   -0.077084
  49 C :    0.005292
  50 C :   -0.074217
  51 C :    0.086588
  52 O :   -0.149685
  53 O :   -0.084473
  54 C :    0.101796
  55 C :   -0.019804
  56 C :   -0.022967
  57 C :    0.006200
  58 C :   -0.004365
  59 H :    0.033262
  60 H :    0.037012
  61 H :    0.036975
  62 H :    0.033645
  63 H :    0.032133
  64 H :    0.037134
  65 H :    0.037339
  66 H :    0.035468
  67 H :    0.027715
  68 H :    0.037007
  69 H :    0.023276
  70 H :    0.033665
  71 H :    0.029568
  72 H :    0.026087
  73 H :    0.038158
  74 H :    0.023209
  75 H :    0.034336
  76 H :    0.030557
  77 H :    0.034973
  78 H :    0.037277
  79 H :    0.031769
  80 H :    0.042033
  81 H :    0.033937
  82 H :    0.037591
  83 H :    0.037439
  84 H :    0.037578
  85 H :    0.032134
  86 H :    0.036645
  87 H :    0.037276

  Mayer bond orders larger than 0.100000
B(  0-C ,  1-C ) :   1.3806 B(  0-C ,  9-C ) :   1.3180 B(  0-C , 59-H ) :   0.9944
B(  1-C ,  2-C ) :   0.8874 B(  1-C ,  6-C ) :   1.4177 B(  2-C ,  3-O ) :   2.2549
B(  2-C ,  4-O ) :   1.1134 B(  4-O ,  5-C ) :   0.9771 B(  5-C ,  6-C ) :   1.0091
B(  5-C , 60-H ) :   0.9276 B(  5-C , 61-H ) :   0.9277 B(  6-C ,  7-C ) :   1.3608
B(  7-C ,  8-C ) :   1.4040 B(  7-C , 62-H ) :   1.0043 B(  8-C ,  9-C ) :   1.3469
B(  8-C , 63-H ) :   0.9911 B(  9-C , 10-C ) :   1.0468 B( 10-C , 11-S ) :   1.1351
B( 10-C , 14-C ) :   1.5142 B( 11-S , 12-C ) :   1.1451 B( 12-C , 13-C ) :   1.4343
B( 12-C , 17-C ) :   1.1604 B( 13-C , 14-C ) :   1.2846 B( 13-C , 15-C ) :   1.1203
B( 14-C , 64-H ) :   0.9989 B( 15-C , 16-N ) :   2.9652 B( 17-C , 18-C ) :   1.6058
B( 17-C , 65-H ) :   0.9204 B( 18-C , 19-C ) :   1.1798 B( 18-C , 66-H ) :   0.9464
B( 19-C , 20-N ) :   1.1646 B( 19-C , 26-C ) :   1.3178 B( 20-N , 21-C ) :   0.9400
B( 20-N , 23-C ) :   1.0630 B( 21-C , 22-C ) :   1.1232 B( 21-C , 67-H ) :   0.9479
B( 21-C , 68-H ) :   0.9272 B( 22-C , 69-H ) :   0.9678 B( 22-C , 70-H ) :   0.9676
B( 22-C , 71-H ) :   0.9635 B( 23-C , 24-O ) :   2.0232 B( 23-C , 25-C ) :   0.9840
B( 24-O , 78-H ) :   0.1127 B( 25-C , 26-C ) :   1.2704 B( 25-C , 32-C ) :   1.3172
B( 26-C , 27-C ) :   0.9844 B( 27-C , 28-O ) :   2.0180 B( 27-C , 29-N ) :   1.0687
B( 28-O , 65-H ) :   0.1182 B( 29-N , 30-C ) :   0.9405 B( 29-N , 32-C ) :   1.1567
B( 30-C , 31-C ) :   1.1229 B( 30-C , 72-H ) :   0.9493 B( 30-C , 73-H ) :   0.9278
B( 31-C , 74-H ) :   0.9684 B( 31-C , 75-H ) :   0.9677 B( 31-C , 76-H ) :   0.9633
B( 32-C , 33-C ) :   1.1703 B( 33-C , 34-C ) :   1.5696 B( 33-C , 77-H ) :   0.9657
B( 34-C , 35-C ) :   1.1137 B( 34-C , 78-H ) :   0.9563 B( 35-C , 36-C ) :   1.5239
B( 35-C , 39-C ) :   1.0351 B( 36-C , 37-C ) :   1.1328 B( 36-C , 79-H ) :   0.9954
B( 37-C , 38-C ) :   1.0981 B( 37-C , 42-C ) :   1.4227 B( 38-C , 39-C ) :   1.6619
B( 38-C , 40-C ) :   1.0889 B( 39-C , 80-H ) :   1.0270 B( 40-C , 41-N ) :   2.9680
B( 42-C , 43-C ) :   1.0906 B( 42-C , 46-C ) :   1.1157 B( 43-C , 44-C ) :   1.6166
B( 43-C , 81-H ) :   1.0013 B( 44-C , 45-C ) :   1.0742 B( 44-C , 49-C ) :   0.9642
B( 45-C , 46-C ) :   1.6511 B( 45-C , 82-H ) :   1.0075 B( 46-C , 47-C ) :   1.0950
B( 47-C , 48-N ) :   2.9612 B( 49-C , 50-C ) :   1.3519 B( 49-C , 58-C ) :   1.4042
B( 50-C , 51-C ) :   0.9041 B( 50-C , 55-C ) :   1.4096 B( 51-C , 52-O ) :   2.1821
B( 51-C , 53-O ) :   1.1313 B( 53-O , 54-C ) :   0.9744 B( 54-C , 55-C ) :   1.0074
B( 54-C , 83-H ) :   0.9280 B( 54-C , 84-H ) :   0.9268 B( 55-C , 56-C ) :   1.3824
B( 56-C , 57-C ) :   1.3633 B( 56-C , 85-H ) :   1.0088 B( 57-C , 58-C ) :   1.3734
B( 57-C , 86-H ) :   0.9868 B( 58-C , 87-H ) :   0.9944

-----------------------------------------------------------------------------
         ABSORPTION SPECTRUM VIA TRANSITION ELECTRIC DIPOLE MOMENTS
-----------------------------------------------------------------------------
State   Energy  Wavelength   fosc         T2         TX        TY        TZ
        (cm-1)    (nm)                  (au**2)     (au)      (au)      (au)
-----------------------------------------------------------------------------
   0   10234.0    977.1   0.768092843  24.70835  -1.67484   4.66334  -0.39560
   1   17197.1    581.5   0.251516600   4.81489  -1.08400   1.88689  -0.28193
   2   17744.0    563.6   0.056715029   1.05226  -0.19512   1.00339   0.08602
   3   19499.1    512.8   0.011716023   0.19781   0.09021  -0.43306  -0.04617
   4   24456.0    408.9   0.224315578   3.01960   0.89322  -1.37411   0.57757
   5   25054.5    399.1   0.198529166   2.60864  -0.91072   1.12659  -0.71415
   6   26109.4    383.0   0.627921218   7.91742  -0.42800   2.77975  -0.08491
   7   27184.6    367.9   0.094377990   1.14294  -0.69305   0.49407  -0.64692
   8   27291.2    366.4   0.090155055   1.08754   0.60898  -0.45175   0.71596
   9   30446.3    328.4   0.002694034   0.02913   0.11520  -0.01159   0.12540
  10   30713.3    325.6   0.001918346   0.02056   0.01605   0.01963   0.14114
  11   31014.8    322.4   0.206784819   2.19495  -0.84920   0.90804  -0.80577
  12   31173.7    320.8   0.166077625   1.75388  -0.91781   0.44746  -0.84338
  13   32205.8    310.5   0.009950254   0.10171  -0.24897   0.02239  -0.19805
  14   32480.8    307.9   0.005995360   0.06077  -0.20871   0.07789  -0.10555
  15   32841.7    304.5   0.054316628   0.54448  -0.35992   0.32391  -0.55679
  16   33049.2    302.6   0.043397094   0.43229   0.38213  -0.46384   0.26668
  17   34504.7    289.8   0.021619409   0.20627   0.03252   0.44383   0.09072
  18   34821.5    287.2   0.162142884   1.53294  -0.65562   0.64105  -0.83196
  19   34914.3    286.4   0.044420015   0.41884   0.23239   0.59275   0.11610
  20   35417.5    282.3   0.000282141   0.00262   0.04958   0.00640  -0.01113
  21   36188.9    276.3   0.134567870   1.22417   0.63199  -0.11788   0.90048
  22   36783.7    271.9   0.000177753   0.00159  -0.03226  -0.00633  -0.02259
  23   37488.0    266.8   0.022771305   0.19997  -0.21231   0.22019  -0.32621
  24   37992.7    263.2   0.019622075   0.17003   0.31253  -0.19555   0.18470
  25   38182.3    261.9   0.154235090   1.32983   0.49577  -0.98372   0.34108
  26   38509.1    259.7   0.013820714   0.11815  -0.14828   0.29635  -0.09134
  27   38662.5    258.6   0.016189533   0.13785  -0.14515   0.30952  -0.14485
  28   39239.4    254.8   0.172255401   1.44519  -0.01837  -1.18028   0.22759
  29   39790.8    251.3   0.001646211   0.01362  -0.07995   0.08009   0.02853
  30   40000.4    250.0   0.130584230   1.07474   0.39545   0.50586   0.81391

FINAL SINGLE POINT ENERGY     -2928.445379442195

DIPOLE MOMENT
-------------
                                X             Y             Z
Electronic contribution:     10.67205       6.27790       2.36923
Nuclear contribution   :    -11.63105      -6.93637      -3.06404
                        -----------------------------------------
Total Dipole Moment    :     -0.95900      -0.65847      -0.69481
                        -----------------------------------------
Magnitude (a.u.)       :      1.35500
Magnitude (Debye)      :      3.44414

Rotational constants in cm-1:     0.003252     0.000320     0.000296
Rotational constants in MHz :    97.481838     9.595700     8.860884

                             ****ORCA TERMINATED NORMALLY****
TOTAL RUN TIME: 0 days 0 hours 8 minutes 4 seconds 22 msec
