                         Program Version 4.2.0 -  RELEASE  -
|  1> # ORCA input file
|  2> # SCF done       -198.194644773353          0.000859023112
|  3> ! CAM-B3LYP def2-SVP def2/J RIJCOSX Grid4 TightSCF
|  4> %maxcore 5000
|  5> %tddft
|  6>     Mode sTDDFT
|  7>     Ethresh 5.0
|  8>     maxcore 5000
|  9> end
| 10>
| 11> %pal
| 12>   nprocs 6
| 13>   end
| 14> * xyz 0 1
| 15>    C        3.26903         0.94239        -6.27092
| 16>    S        1.80972         1.84780        -6.49531
| 17>    C        2.41081         3.03958        -5.37427
| 18>    C        3.67372         2.63444        -4.93285
| 19>    N        4.10481         1.45988        -5.45236
| 20>    C        4.60992         3.31431        -4.01233
| 21>    O        4.67926         4.50911        -3.82330
| 22>    O        5.40523         2.43268        -3.41584
| 23>    C        6.38002         2.96630        -2.53262
| 24>    C        1.54037         4.12176        -5.05522
| 25>    C        1.80796         5.08123        -4.13553
| 26>    C        0.99066         6.16167        -3.70612
| 27>    C       -0.02662         6.91426        -4.30706
| 28>    N       -0.61863         6.80086        -5.56991
| 29>    O       -0.44906         5.78890        -6.23480
| 30>    O       -1.28678         7.75029        -5.95551
| 31>    C       -0.35675         8.02032        -3.45260
| 32>    C        0.45640         7.99733        -2.36480
| 33>    C        1.32221         6.86161        -2.46561
| 34>    C        2.25371         6.44464        -1.51285
| 35>    C        2.54969         5.11481        -1.13980
| 36>    C        3.33813         5.12921        -0.01019
| 37>    C        3.62460         6.46912         0.33928
| 38>    N        4.45263         6.82707         1.40676
| 39>    O        4.62328         8.01537         1.64899
| 40>    O        4.95992         5.92420         2.05508
| 41>    C        3.00708         7.32500        -0.60001
| 42>    C        3.22008         8.69019        -0.76736
| 43>    C        2.93440         9.35726        -1.94442
| 44>    C        2.88555        10.73733        -2.12420
| 45>    C        2.92357        11.72117        -1.12195
| 46>    C        2.55904        12.95786        -1.65081
| 47>    O        2.53591        14.01851        -0.84444
| 48>    C        1.95156        15.25426        -1.20328
| 49>    C        2.30738        12.80124        -3.05839
| 50>    C        2.45439        11.39030        -3.35373
| 51>    C        2.07447        10.74491        -4.51506
| 52>    C        2.53810         9.50946        -5.04104
| 53>    C        1.77110         9.20193        -6.13998
| 54>    O        1.82834         8.18724        -6.98021
| 55>    C        2.83353         7.21002        -6.79711
| 56>    C        0.73984        10.23491        -6.30373
| 57>    C        0.95147        11.17686        -5.37575
| 58>    C        2.20052        13.83146        -3.99660
| 59>    C        2.40144        13.73783        -5.35796
| 60>    C        2.26444        14.84094        -6.21255
| 61>    C        1.88390        16.14277        -5.88504
| 62>    C        1.91029        16.94757        -7.03606
| 63>    C        2.31319        16.06261        -8.14756
| 64>    C        2.52519        14.81868        -7.64255
| 65>    C        2.46642        16.43053        -9.48833
| 66>    N        2.60067        16.70933       -10.59484
| 67>    C        1.64347        18.30774        -7.10742
| 68>    C        1.64839        19.14084        -8.24662
| 69>    C        1.34916        20.44066        -7.86534
| 70>    C        1.14562        20.44096        -6.42731
| 71>    C        1.31535        19.17556        -5.95848
| 72>    C        1.21995        18.79123        -4.61911
| 73>    N        1.14486        18.49149        -3.51080
| 74>    C        1.25471        21.61032        -8.65563
| 75>    C        1.42805        21.66228       -10.00322
| 76>    C        1.33494        22.88120       -10.71787
| 77>    S        1.54419        22.92443       -12.47698
| 78>    C        1.29515        24.63488       -12.43431
| 79>    C        1.07786        25.03120       -11.11269
| 80>    N        1.10522        24.04800       -10.20212
| 81>    C        0.83484        26.41919       -10.67000
| 82>    O        0.77608        27.38284       -11.39768
| 83>    O        0.68826        26.48294        -9.34689
| 84>    C        0.45341        27.77579        -8.81146
| 85>    C        1.32038        25.46405       -13.60211
| 86>    C        1.52693        25.01033       -14.83776
| 87>    H        3.43694         0.02029        -6.79047
| 88>    H        6.89645         2.11310        -2.10177
| 89>    H        5.90162         3.56196        -1.75148
| 90>    H        7.07979         3.60270        -3.07804
| 91>    H        0.59983         4.12579        -5.58575
| 92>    H        2.75653         5.03385        -3.62236
| 93>    H       -1.13348         8.72574        -3.67678
| 94>    H        0.41665         8.65776        -1.52034
| 95>    H        2.11756         4.23936        -1.58586
| 96>    H        3.68664         4.27785         0.54474
| 97>    H        3.68944         9.21648         0.05342
| 98>    H        2.69386         8.75403        -2.80475
| 99>    H        3.16181        11.55892        -0.08847
|100>    H        1.83607        15.79894        -0.26663
|101>    H        0.96999        15.12178        -1.66311
|102>    H        2.60556        15.83234        -1.86194
|103>    H        3.41727         8.98865        -4.71627
|104>    H        2.59913         6.40490        -7.49034
|105>    H        2.83652         6.82312        -5.77522
|106>    H        3.81827         7.62513        -7.02787
|107>    H       -0.03818        10.17194        -7.03819
|108>    H        0.34814        12.04087        -5.17721
|109>    H        2.01492        14.82462        -3.62131
|110>    H        2.71790        12.80175        -5.79566
|111>    H        1.61464        16.49768        -4.91154
|112>    H        2.83250        13.94832        -8.19277
|113>    H        1.85389        18.80426        -9.24317
|114>    H        0.90304        21.31144        -5.84607
|115>    H        1.03121        22.53767        -8.14508
|116>    H        1.64550        20.77344       -10.57654
|117>    H        0.35476        27.64502        -7.73715
|118>    H       -0.45950        28.20254        -9.23269
|119>    H        1.28834        28.44100        -9.04271
|120>    H        1.15343        26.51464       -13.40919
|121>    H        1.69050        23.96302       -15.03754
|122>    H        1.53483        25.67388       -15.68387
|123> *
|124>
|125>                          ****END OF INPUT****

CARTESIAN COORDINATES (ANGSTROEM)
---------------------------------
  C      3.269030    0.942390   -6.270920
  S      1.809720    1.847800   -6.495310
  C      2.410810    3.039580   -5.374270
  C      3.673720    2.634440   -4.932850
  N      4.104810    1.459880   -5.452360
  C      4.609920    3.314310   -4.012330
  O      4.679260    4.509110   -3.823300
  O      5.405230    2.432680   -3.415840
  C      6.380020    2.966300   -2.532620
  C      1.540370    4.121760   -5.055220
  C      1.807960    5.081230   -4.135530
  C      0.990660    6.161670   -3.706120
  C     -0.026620    6.914260   -4.307060
  N     -0.618630    6.800860   -5.569910
  O     -0.449060    5.788900   -6.234800
  O     -1.286780    7.750290   -5.955510
  C     -0.356750    8.020320   -3.452600
  C      0.456400    7.997330   -2.364800
  C      1.322210    6.861610   -2.465610
  C      2.253710    6.444640   -1.512850
  C      2.549690    5.114810   -1.139800
  C      3.338130    5.129210   -0.010190
  C      3.624600    6.469120    0.339280
  N      4.452630    6.827070    1.406760
  O      4.623280    8.015370    1.648990
  O      4.959920    5.924200    2.055080
  C      3.007080    7.325000   -0.600010
  C      3.220080    8.690190   -0.767360
  C      2.934400    9.357260   -1.944420
  C      2.885550   10.737330   -2.124200
  C      2.923570   11.721170   -1.121950
  C      2.559040   12.957860   -1.650810
  O      2.535910   14.018510   -0.844440
  C      1.951560   15.254260   -1.203280
  C      2.307380   12.801240   -3.058390
  C      2.454390   11.390300   -3.353730
  C      2.074470   10.744910   -4.515060
  C      2.538100    9.509460   -5.041040
  C      1.771100    9.201930   -6.139980
  O      1.828340    8.187240   -6.980210
  C      2.833530    7.210020   -6.797110
  C      0.739840   10.234910   -6.303730
  C      0.951470   11.176860   -5.375750
  C      2.200520   13.831460   -3.996600
  C      2.401440   13.737830   -5.357960
  C      2.264440   14.840940   -6.212550
  C      1.883900   16.142770   -5.885040
  C      1.910290   16.947570   -7.036060
  C      2.313190   16.062610   -8.147560
  C      2.525190   14.818680   -7.642550
  C      2.466420   16.430530   -9.488330
  N      2.600670   16.709330  -10.594840
  C      1.643470   18.307740   -7.107420
  C      1.648390   19.140840   -8.246620
  C      1.349160   20.440660   -7.865340
  C      1.145620   20.440960   -6.427310
  C      1.315350   19.175560   -5.958480
  C      1.219950   18.791230   -4.619110
  N      1.144860   18.491490   -3.510800
  C      1.254710   21.610320   -8.655630
  C      1.428050   21.662280  -10.003220
  C      1.334940   22.881200  -10.717870
  S      1.544190   22.924430  -12.476980
  C      1.295150   24.634880  -12.434310
  C      1.077860   25.031200  -11.112690
  N      1.105220   24.048000  -10.202120
  C      0.834840   26.419190  -10.670000
  O      0.776080   27.382840  -11.397680
  O      0.688260   26.482940   -9.346890
  C      0.453410   27.775790   -8.811460
  C      1.320380   25.464050  -13.602110
  C      1.526930   25.010330  -14.837760
  H      3.436940    0.020290   -6.790470
  H      6.896450    2.113100   -2.101770
  H      5.901620    3.561960   -1.751480
  H      7.079790    3.602700   -3.078040
  H      0.599830    4.125790   -5.585750
  H      2.756530    5.033850   -3.622360
  H     -1.133480    8.725740   -3.676780
  H      0.416650    8.657760   -1.520340
  H      2.117560    4.239360   -1.585860
  H      3.686640    4.277850    0.544740
  H      3.689440    9.216480    0.053420
  H      2.693860    8.754030   -2.804750
  H      3.161810   11.558920   -0.088470
  H      1.836070   15.798940   -0.266630
  H      0.969990   15.121780   -1.663110
  H      2.605560   15.832340   -1.861940
  H      3.417270    8.988650   -4.716270
  H      2.599130    6.404900   -7.490340
  H      2.836520    6.823120   -5.775220
  H      3.818270    7.625130   -7.027870
  H     -0.038180   10.171940   -7.038190
  H      0.348140   12.040870   -5.177210
  H      2.014920   14.824620   -3.621310
  H      2.717900   12.801750   -5.795660
  H      1.614640   16.497680   -4.911540
  H      2.832500   13.948320   -8.192770
  H      1.853890   18.804260   -9.243170
  H      0.903040   21.311440   -5.846070
  H      1.031210   22.537670   -8.145080
  H      1.645500   20.773440  -10.576540
  H      0.354760   27.645020   -7.737150
  H     -0.459500   28.202540   -9.232690
  H      1.288340   28.441000   -9.042710
  H      1.153430   26.514640  -13.409190
  H      1.690500   23.963020  -15.037540
  H      1.534830   25.673880  -15.683870

 Total Charge           Charge          ....    0
 Multiplicity           Mult            ....    1
 Number of Electrons    NEL             ....  514
 Basis Dimension        Dim             .... 1196

ORBITAL ENERGIES
----------------

  NO   OCC          E(Eh)            E(eV)
   0   2.0000     -88.973046     -2421.0797
   1   2.0000     -88.968868     -2420.9660
   2   2.0000     -19.288809      -524.8752
   3   2.0000     -19.274179      -524.4771
   4   2.0000     -19.260783      -524.1125
   5   2.0000     -19.254714      -523.9474
   6   2.0000     -19.232498      -523.3429
   7   2.0000     -19.230079      -523.2770
   8   2.0000     -19.217357      -522.9309
   9   2.0000     -19.216662      -522.9120
  10   2.0000     -19.209699      -522.7225
  11   2.0000     -19.201730      -522.5056
  12   2.0000     -14.639422      -398.3589
  13   2.0000     -14.627549      -398.0358
  14   2.0000     -14.416412      -392.2905
  15   2.0000     -14.412555      -392.1856
  16   2.0000     -14.410578      -392.1318
  17   2.0000     -14.409630      -392.1060
  18   2.0000     -10.406879      -283.1856
  19   2.0000     -10.399097      -282.9738
  20   2.0000     -10.369524      -282.1691
  21   2.0000     -10.363040      -281.9927
  22   2.0000     -10.340822      -281.3881
  23   2.0000     -10.338369      -281.3213
  24   2.0000     -10.335815      -281.2518
  25   2.0000     -10.335161      -281.2340
  26   2.0000     -10.326517      -280.9988
  27   2.0000     -10.326344      -280.9941
  28   2.0000     -10.321615      -280.8654
  29   2.0000     -10.319742      -280.8145
  30   2.0000     -10.318667      -280.7852
  31   2.0000     -10.318651      -280.7848
  32   2.0000     -10.317996      -280.7670
  33   2.0000     -10.317802      -280.7617
  34   2.0000     -10.317483      -280.7530
  35   2.0000     -10.316579      -280.7284
  36   2.0000     -10.315718      -280.7049
  37   2.0000     -10.314373      -280.6683
  38   2.0000     -10.314254      -280.6651
  39   2.0000     -10.313878      -280.6549
  40   2.0000     -10.311695      -280.5955
  41   2.0000     -10.310331      -280.5584
  42   2.0000     -10.309899      -280.5466
  43   2.0000     -10.308966      -280.5212
  44   2.0000     -10.308276      -280.5024
  45   2.0000     -10.307812      -280.4898
  46   2.0000     -10.307280      -280.4754
  47   2.0000     -10.307081      -280.4699
  48   2.0000     -10.306137      -280.4442
  49   2.0000     -10.304981      -280.4128
  50   2.0000     -10.304272      -280.3935
  51   2.0000     -10.303256      -280.3659
  52   2.0000     -10.302569      -280.3471
  53   2.0000     -10.297532      -280.2101
  54   2.0000     -10.297294      -280.2036
  55   2.0000     -10.296931      -280.1937
  56   2.0000     -10.295743      -280.1614
  57   2.0000     -10.294836      -280.1367
  58   2.0000     -10.294303      -280.1222
  59   2.0000     -10.293835      -280.1095
  60   2.0000     -10.290477      -280.0181
  61   2.0000     -10.290279      -280.0127
  62   2.0000     -10.289396      -279.9887
  63   2.0000     -10.283274      -279.8221
  64   2.0000     -10.279842      -279.7287
  65   2.0000     -10.277891      -279.6756
  66   2.0000     -10.277393      -279.6621
  67   2.0000     -10.276220      -279.6301
  68   2.0000     -10.274684      -279.5884
  69   2.0000     -10.274296      -279.5778
  70   2.0000     -10.273428      -279.5542
  71   2.0000     -10.272398      -279.5262
  72   2.0000      -8.069689      -219.5874
  73   2.0000      -8.064998      -219.4597
  74   2.0000      -6.038634      -164.3196
  75   2.0000      -6.034482      -164.2066
  76   2.0000      -6.033885      -164.1904
  77   2.0000      -6.032249      -164.1458
  78   2.0000      -6.030052      -164.0861
  79   2.0000      -6.027450      -164.0153
  80   2.0000      -1.308543       -35.6073
  81   2.0000      -1.295225       -35.2449
  82   2.0000      -1.197413       -32.5833
  83   2.0000      -1.193414       -32.4745
  84   2.0000      -1.190156       -32.3858
  85   2.0000      -1.178620       -32.0719
  86   2.0000      -1.124766       -30.6064
  87   2.0000      -1.112104       -30.2619
  88   2.0000      -1.100633       -29.9497
  89   2.0000      -1.094124       -29.7726
  90   2.0000      -1.072226       -29.1768
  91   2.0000      -1.070008       -29.1164
  92   2.0000      -1.013676       -27.5835
  93   2.0000      -1.008364       -27.4390
  94   2.0000      -1.003975       -27.3196
  95   2.0000      -0.999973       -27.2106
  96   2.0000      -0.985854       -26.8265
  97   2.0000      -0.984965       -26.8023
  98   2.0000      -0.979796       -26.6616
  99   2.0000      -0.978085       -26.6150
 100   2.0000      -0.927615       -25.2417
 101   2.0000      -0.926007       -25.1979
 102   2.0000      -0.924245       -25.1500
 103   2.0000      -0.912163       -24.8212
 104   2.0000      -0.906243       -24.6601
 105   2.0000      -0.898487       -24.4491
 106   2.0000      -0.886322       -24.1180
 107   2.0000      -0.877321       -23.8731
 108   2.0000      -0.874002       -23.7828
 109   2.0000      -0.869955       -23.6727
 110   2.0000      -0.862131       -23.4598
 111   2.0000      -0.860949       -23.4276
 112   2.0000      -0.851783       -23.1782
 113   2.0000      -0.844292       -22.9743
 114   2.0000      -0.842419       -22.9234
 115   2.0000      -0.831843       -22.6356
 116   2.0000      -0.825853       -22.4726
 117   2.0000      -0.822105       -22.3706
 118   2.0000      -0.818727       -22.2787
 119   2.0000      -0.807735       -21.9796
 120   2.0000      -0.805258       -21.9122
 121   2.0000      -0.800631       -21.7863
 122   2.0000      -0.790922       -21.5221
 123   2.0000      -0.780623       -21.2418
 124   2.0000      -0.770579       -20.9685
 125   2.0000      -0.742906       -20.2155
 126   2.0000      -0.739179       -20.1141
 127   2.0000      -0.724207       -19.7067
 128   2.0000      -0.723830       -19.6964
 129   2.0000      -0.718723       -19.5574
 130   2.0000      -0.717212       -19.5163
 131   2.0000      -0.713325       -19.4106
 132   2.0000      -0.700074       -19.0500
 133   2.0000      -0.691938       -18.8286
 134   2.0000      -0.679771       -18.4975
 135   2.0000      -0.678996       -18.4764
 136   2.0000      -0.674126       -18.3439
 137   2.0000      -0.665828       -18.1181
 138   2.0000      -0.663100       -18.0439
 139   2.0000      -0.660906       -17.9842
 140   2.0000      -0.652661       -17.7598
 141   2.0000      -0.649423       -17.6717
 142   2.0000      -0.648769       -17.6539
 143   2.0000      -0.641664       -17.4606
 144   2.0000      -0.637536       -17.3482
 145   2.0000      -0.636008       -17.3067
 146   2.0000      -0.631827       -17.1929
 147   2.0000      -0.630599       -17.1595
 148   2.0000      -0.629089       -17.1184
 149   2.0000      -0.622817       -16.9477
 150   2.0000      -0.619211       -16.8496
 151   2.0000      -0.614635       -16.7251
 152   2.0000      -0.612167       -16.6579
 153   2.0000      -0.610713       -16.6183
 154   2.0000      -0.609381       -16.5821
 155   2.0000      -0.607521       -16.5315
 156   2.0000      -0.603270       -16.4158
 157   2.0000      -0.596997       -16.2451
 158   2.0000      -0.586386       -15.9564
 159   2.0000      -0.578461       -15.7407
 160   2.0000      -0.578119       -15.7314
 161   2.0000      -0.576244       -15.6804
 162   2.0000      -0.575291       -15.6545
 163   2.0000      -0.572003       -15.5650
 164   2.0000      -0.569758       -15.5039
 165   2.0000      -0.568490       -15.4694
 166   2.0000      -0.566338       -15.4108
 167   2.0000      -0.563081       -15.3222
 168   2.0000      -0.558665       -15.2021
 169   2.0000      -0.557203       -15.1623
 170   2.0000      -0.551062       -14.9952
 171   2.0000      -0.545523       -14.8444
 172   2.0000      -0.543309       -14.7842
 173   2.0000      -0.539707       -14.6862
 174   2.0000      -0.538015       -14.6401
 175   2.0000      -0.535355       -14.5677
 176   2.0000      -0.533302       -14.5119
 177   2.0000      -0.525911       -14.3108
 178   2.0000      -0.525197       -14.2913
 179   2.0000      -0.522658       -14.2223
 180   2.0000      -0.520941       -14.1755
 181   2.0000      -0.520399       -14.1608
 182   2.0000      -0.518281       -14.1031
 183   2.0000      -0.517240       -14.0748
 184   2.0000      -0.516158       -14.0454
 185   2.0000      -0.510686       -13.8965
 186   2.0000      -0.509479       -13.8636
 187   2.0000      -0.506135       -13.7726
 188   2.0000      -0.505229       -13.7480
 189   2.0000      -0.502712       -13.6795
 190   2.0000      -0.497742       -13.5443
 191   2.0000      -0.497418       -13.5354
 192   2.0000      -0.496515       -13.5109
 193   2.0000      -0.494962       -13.4686
 194   2.0000      -0.490699       -13.3526
 195   2.0000      -0.488817       -13.3014
 196   2.0000      -0.486954       -13.2507
 197   2.0000      -0.483471       -13.1559
 198   2.0000      -0.480618       -13.0783
 199   2.0000      -0.477584       -12.9957
 200   2.0000      -0.477293       -12.9878
 201   2.0000      -0.475979       -12.9520
 202   2.0000      -0.474332       -12.9072
 203   2.0000      -0.470196       -12.7947
 204   2.0000      -0.469427       -12.7738
 205   2.0000      -0.468209       -12.7406
 206   2.0000      -0.462102       -12.5744
 207   2.0000      -0.459582       -12.5059
 208   2.0000      -0.458084       -12.4651
 209   2.0000      -0.455045       -12.3824
 210   2.0000      -0.451635       -12.2896
 211   2.0000      -0.449368       -12.2279
 212   2.0000      -0.443824       -12.0771
 213   2.0000      -0.443311       -12.0631
 214   2.0000      -0.441764       -12.0210
 215   2.0000      -0.439632       -11.9630
 216   2.0000      -0.439418       -11.9572
 217   2.0000      -0.438970       -11.9450
 218   2.0000      -0.437134       -11.8950
 219   2.0000      -0.435453       -11.8493
 220   2.0000      -0.429716       -11.6932
 221   2.0000      -0.429639       -11.6911
 222   2.0000      -0.427269       -11.6266
 223   2.0000      -0.418604       -11.3908
 224   2.0000      -0.417370       -11.3572
 225   2.0000      -0.415382       -11.3031
 226   2.0000      -0.409862       -11.1529
 227   2.0000      -0.406990       -11.0748
 228   2.0000      -0.403871       -10.9899
 229   2.0000      -0.395898       -10.7729
 230   2.0000      -0.382440       -10.4067
 231   2.0000      -0.380392       -10.3510
 232   2.0000      -0.379841       -10.3360
 233   2.0000      -0.373637       -10.1672
 234   2.0000      -0.372840       -10.1455
 235   2.0000      -0.367751       -10.0070
 236   2.0000      -0.365815        -9.9543
 237   2.0000      -0.364758        -9.9256
 238   2.0000      -0.360546        -9.8109
 239   2.0000      -0.357779        -9.7356
 240   2.0000      -0.357001        -9.7145
 241   2.0000      -0.353103        -9.6084
 242   2.0000      -0.348804        -9.4914
 243   2.0000      -0.345955        -9.4139
 244   2.0000      -0.345009        -9.3882
 245   2.0000      -0.342291        -9.3142
 246   2.0000      -0.334038        -9.0896
 247   2.0000      -0.329730        -8.9724
 248   2.0000      -0.326146        -8.8749
 249   2.0000      -0.321931        -8.7602
 250   2.0000      -0.317190        -8.6312
 251   2.0000      -0.308825        -8.4035
 252   2.0000      -0.287491        -7.8230
 253   2.0000      -0.285883        -7.7793
 254   2.0000      -0.269818        -7.3421
 255   2.0000      -0.260408        -7.0861
 256   2.0000      -0.231250        -6.2926
 257   0.0000      -0.146535        -3.9874
 258   0.0000      -0.116863        -3.1800
 259   0.0000      -0.101314        -2.7569
 260   0.0000      -0.058067        -1.5801
 261   0.0000      -0.045964        -1.2507

MULLIKEN ATOMIC CHARGES
-----------------------
   0 C :   -0.004086
   1 S :    0.125749
   2 C :   -0.094525
   3 C :   -0.021608
   4 N :   -0.060560
   5 C :    0.176982
   6 O :   -0.232940
   7 O :   -0.263088
   8 C :    0.189284
   9 C :    0.054364
  10 C :   -0.119671
  11 C :    0.093046
  12 C :    0.049225
  13 N :    0.272655
  14 O :   -0.260883
  15 O :   -0.260332
  16 C :    0.005371
  17 C :    0.014233
  18 C :   -0.045352
  19 C :    0.048058
  20 C :   -0.028948
  21 C :    0.024767
  22 C :    0.068805
  23 N :    0.277843
  24 O :   -0.276249
  25 O :   -0.270920
  26 C :    0.049393
  27 C :   -0.034624
  28 C :   -0.019649
  29 C :    0.097377
  30 C :   -0.066718
  31 C :    0.188042
  32 O :   -0.269973
  33 C :    0.174873
  34 C :    0.012386
  35 C :    0.067076
  36 C :   -0.022508
  37 C :   -0.167524
  38 C :    0.216072
  39 O :   -0.244356
  40 C :    0.160363
  41 C :    0.025234
  42 C :    0.014181
  43 C :   -0.014831
  44 C :   -0.024081
  45 C :    0.115027
  46 C :   -0.152608
  47 C :    0.133325
  48 C :   -0.094962
  49 C :   -0.005720
  50 C :   -0.168925
  51 N :    0.128691
  52 C :    0.118554
  53 C :   -0.124982
  54 C :    0.123160
  55 C :   -0.006593
  56 C :   -0.107119
  57 C :   -0.148845
  58 N :    0.096145
  59 C :   -0.001697
  60 C :    0.068137
  61 C :   -0.110610
  62 S :    0.124212
  63 C :   -0.091956
  64 C :    0.003416
  65 N :   -0.017923
  66 C :    0.156907
  67 O :   -0.210780
  68 O :   -0.274187
  69 C :    0.190216
  70 C :   -0.010164
  71 C :   -0.010901
  72 H :    0.044406
  73 H :    0.039264
  74 H :    0.031694
  75 H :    0.031483
  76 H :    0.008124
  77 H :    0.043846
  78 H :   -0.009976
  79 H :   -0.010666
  80 H :   -0.009351
  81 H :    0.002616
  82 H :    0.024161
  83 H :    0.028957
  84 H :   -0.002231
  85 H :    0.048284
  86 H :    0.039863
  87 H :    0.055075
  88 H :    0.001557
  89 H :    0.057324
  90 H :    0.052474
  91 H :    0.034414
  92 H :    0.008057
  93 H :    0.009103
  94 H :   -0.033773
  95 H :    0.006395
  96 H :   -0.007850
  97 H :   -0.004750
  98 H :   -0.001816
  99 H :   -0.005202
 100 H :    0.008952
 101 H :    0.002192
 102 H :    0.035396
 103 H :    0.030616
 104 H :    0.031586
 105 H :    0.031907
 106 H :    0.022368
 107 H :    0.033731
Sum of atomic charges:   -0.0000000

LOEWDIN ATOMIC CHARGES
----------------------
   0 C :   -0.130052
   1 S :    0.439899
   2 C :   -0.153987
   3 C :   -0.087681
   4 N :   -0.071702
   5 C :    0.083228
   6 O :   -0.185002
   7 O :   -0.063044
   8 C :    0.082441
   9 C :   -0.034755
  10 C :   -0.019827
  11 C :   -0.010846
  12 C :   -0.056812
  13 N :    0.288517
  14 O :   -0.220822
  15 O :   -0.224137
  16 C :   -0.018934
  17 C :   -0.041689
  18 C :    0.010258
  19 C :    0.046024
  20 C :   -0.067304
  21 C :    0.045730
  22 C :   -0.093967
  23 N :    0.287005
  24 O :   -0.241187
  25 O :   -0.235052
  26 C :    0.023714
  27 C :   -0.000111
  28 C :    0.037174
  29 C :   -0.024116
  30 C :   -0.002353
  31 C :    0.064870
  32 O :   -0.071446
  33 C :    0.086582
  34 C :   -0.059318
  35 C :   -0.004172
  36 C :    0.055367
  37 C :   -0.150449
  38 C :    0.097534
  39 O :   -0.034263
  40 C :    0.086839
  41 C :   -0.013270
  42 C :   -0.006448
  43 C :    0.012411
  44 C :   -0.022458
  45 C :   -0.011695
  46 C :   -0.050748
  47 C :    0.035546
  48 C :   -0.075624
  49 C :    0.049725
  50 C :   -0.029017
  51 N :   -0.066802
  52 C :    0.027719
  53 C :   -0.029974
  54 C :   -0.020586
  55 C :    0.049779
  56 C :   -0.089674
  57 C :   -0.020243
  58 N :   -0.089434
  59 C :    0.008725
  60 C :   -0.029949
  61 C :   -0.126868
  62 S :    0.431226
  63 C :   -0.148112
  64 C :   -0.085164
  65 N :   -0.073865
  66 C :    0.080487
  67 O :   -0.180943
  68 O :   -0.072400
  69 C :    0.081092
  70 C :   -0.041245
  71 C :   -0.027219
  72 H :    0.020675
  73 H :    0.028457
  74 H :    0.022792
  75 H :    0.024200
  76 H :    0.026275
  77 H :    0.032158
  78 H :    0.031193
  79 H :    0.028667
  80 H :    0.027951
  81 H :    0.037605
  82 H :    0.039838
  83 H :    0.038437
  84 H :    0.037341
  85 H :    0.036958
  86 H :    0.022722
  87 H :    0.025207
  88 H :    0.026736
  89 H :    0.036703
  90 H :    0.026523
  91 H :    0.023992
  92 H :    0.038569
  93 H :    0.033029
  94 H :    0.034902
  95 H :    0.035360
  96 H :    0.026240
  97 H :    0.036365
  98 H :    0.030679
  99 H :    0.036087
 100 H :    0.039405
 101 H :    0.034937
 102 H :    0.026225
 103 H :    0.022910
 104 H :    0.023202
 105 H :    0.042600
 106 H :    0.017397
 107 H :    0.030531

  Mayer bond orders larger than 0.100000
B(  0-C ,  1-S ) :   1.1451 B(  0-C ,  4-N ) :   1.7176 B(  0-C , 72-H ) :   0.9656
B(  1-S ,  2-C ) :   1.1621 B(  2-C ,  3-C ) :   1.4724 B(  2-C ,  9-C ) :   1.1171
B(  3-C ,  4-N ) :   1.3745 B(  3-C ,  5-C ) :   0.9309 B(  5-C ,  6-O ) :   2.0009
B(  5-C ,  7-O ) :   1.2932 B(  7-O ,  8-C ) :   0.9229 B(  8-C , 73-H ) :   0.9805
B(  8-C , 74-H ) :   0.9742 B(  8-C , 75-H ) :   0.9759 B(  9-C , 10-C ) :   1.6772
B(  9-C , 76-H ) :   0.9443 B( 10-C , 11-C ) :   1.1351 B( 10-C , 77-H ) :   0.9199
B( 11-C , 12-C ) :   1.4254 B( 11-C , 18-C ) :   1.0998 B( 12-C , 13-N ) :   0.9701
B( 12-C , 16-C ) :   1.1668 B( 13-N , 14-O ) :   1.4779 B( 13-N , 15-O ) :   1.5162
B( 14-O , 15-O ) :   0.2409 B( 16-C , 17-C ) :   1.5415 B( 16-C , 78-H ) :   1.0092
B( 17-C , 18-C ) :   1.1518 B( 17-C , 79-H ) :   0.9959 B( 18-C , 19-C ) :   1.3517
B( 19-C , 20-C ) :   1.2637 B( 19-C , 26-C ) :   1.0091 B( 20-C , 21-C ) :   1.4141
B( 20-C , 80-H ) :   1.0097 B( 21-C , 22-C ) :   1.2280 B( 21-C , 81-H ) :   1.0076
B( 22-C , 23-N ) :   0.9808 B( 22-C , 26-C ) :   1.3285 B( 23-N , 24-O ) :   1.4799
B( 23-N , 25-O ) :   1.5182 B( 24-O , 25-O ) :   0.2402 B( 26-C , 27-C ) :   1.3485
B( 27-C , 28-C ) :   1.3614 B( 27-C , 82-H ) :   0.9594 B( 28-C , 29-C ) :   1.2722
B( 28-C , 83-H ) :   0.9443 B( 29-C , 30-C ) :   1.3145 B( 29-C , 35-C ) :   1.1088
B( 30-C , 31-C ) :   1.2928 B( 30-C , 84-H ) :   1.0198 B( 31-C , 32-O ) :   1.2499
B( 31-C , 34-C ) :   1.2226 B( 32-O , 33-C ) :   0.9235 B( 33-C , 85-H ) :   0.9732
B( 33-C , 86-H ) :   0.9657 B( 33-C , 87-H ) :   0.9640 B( 34-C , 35-C ) :   1.0866
B( 34-C , 43-C ) :   1.2285 B( 35-C , 36-C ) :   1.4441 B( 36-C , 37-C ) :   1.1685
B( 36-C , 42-C ) :   1.0405 B( 37-C , 38-C ) :   1.4417 B( 37-C , 88-H ) :   1.0018
B( 38-C , 39-O ) :   1.2632 B( 38-C , 41-C ) :   1.0660 B( 39-O , 40-C ) :   0.9180
B( 40-C , 89-H ) :   0.9782 B( 40-C , 90-H ) :   0.9620 B( 40-C , 91-H ) :   0.9699
B( 41-C , 42-C ) :   1.6992 B( 41-C , 92-H ) :   1.0150 B( 42-C , 93-H ) :   0.9979
B( 43-C , 44-C ) :   1.5037 B( 43-C , 94-H ) :   0.9649 B( 44-C , 45-C ) :   1.1828
B( 44-C , 95-H ) :   0.9642 B( 45-C , 46-C ) :   1.4506 B( 45-C , 49-C ) :   1.0311
B( 46-C , 47-C ) :   1.2069 B( 46-C , 96-H ) :   0.9892 B( 47-C , 48-C ) :   1.1014
B( 47-C , 52-C ) :   1.3264 B( 48-C , 49-C ) :   1.6702 B( 48-C , 50-C ) :   1.0867
B( 49-C , 97-H ) :   1.0243 B( 50-C , 51-N ) :   2.9666 B( 52-C , 53-C ) :   1.1784
B( 52-C , 56-C ) :   1.1123 B( 53-C , 54-C ) :   1.4910 B( 53-C , 98-H ) :   0.9977
B( 54-C , 55-C ) :   1.0557 B( 54-C , 59-C ) :   1.0972 B( 55-C , 56-C ) :   1.6364
B( 55-C , 99-H ) :   1.0251 B( 56-C , 57-C ) :   1.0934 B( 57-C , 58-N ) :   2.9382
B( 59-C , 60-C ) :   1.6748 B( 59-C ,100-H ) :   0.9802 B( 60-C , 61-C ) :   1.0999
B( 60-C ,101-H ) :   0.9560 B( 61-C , 62-S ) :   1.0829 B( 61-C , 65-N ) :   1.6991
B( 62-S , 63-C ) :   1.1441 B( 63-C , 64-C ) :   1.4698 B( 63-C , 70-C ) :   1.1421
B( 64-C , 65-N ) :   1.3817 B( 64-C , 66-C ) :   0.9348 B( 66-C , 67-O ) :   2.0691
B( 66-C , 68-O ) :   1.2843 B( 68-O , 69-C ) :   0.9256 B( 69-C ,102-H ) :   0.9810
B( 69-C ,103-H ) :   0.9757 B( 69-C ,104-H ) :   0.9759 B( 70-C , 71-C ) :   1.8985
B( 70-C ,105-H ) :   0.9424 B( 71-C ,106-H ) :   0.9567 B( 71-C ,107-H ) :   0.9507

-----------------------------------------------------------------------------
         ABSORPTION SPECTRUM VIA TRANSITION ELECTRIC DIPOLE MOMENTS
-----------------------------------------------------------------------------
State   Energy  Wavelength   fosc         T2         TX        TY        TZ
        (cm-1)    (nm)                  (au**2)     (au)      (au)      (au)
-----------------------------------------------------------------------------
   0    4121.5   2426.3   0.320072560  25.56664  -0.01414   4.75662  -1.71494
   1    9576.4   1044.2   0.267030150   9.17985   0.43969  -2.07470   2.16382
   2   10464.2    955.6   0.107772325   3.39060  -0.71555   1.56776  -0.64864
   3   11189.6    893.7   0.109709390   3.22778  -0.03232  -1.79571   0.04653
   4   12565.4    795.8   0.079564759   2.08458  -0.15854   1.43507   0.00240
   5   14172.9    705.6   0.037685809   0.87538  -0.31083  -0.33451  -0.81662
   6   15065.8    663.8   0.010764699   0.23523  -0.25131   0.41481   0.00084
   7   17593.0    568.4   0.044298562   0.82894   0.36709   0.53583  -0.63802
   8   19112.2    523.2   0.292602884   5.04016   0.27754  -1.68914   1.45257
   9   19599.4    510.2   0.026850805   0.45101   0.12770  -0.65902   0.01995
  10   20538.5    486.9   0.072070299   1.15522   0.14601   1.00366   0.35577
  11   20914.5    478.1   0.039395868   0.62013  -0.02331  -0.53852  -0.57409
  12   21187.9    472.0   0.033784887   0.52494   0.01053  -0.52234   0.50198
  13   21461.4    466.0   0.224096342   3.43757  -0.14760   1.67570  -0.77963
  14   21993.7    454.7   0.122335074   1.83117   0.22612   0.17119   1.32315
  15   22743.6    439.7   0.089089875   1.28957  -0.09792  -0.70918   0.88150
  16   23021.8    434.4   0.090102623   1.28847   0.24952   0.46815   1.00352
  17   23798.8    420.2   0.065066992   0.90008  -0.59731   0.63636  -0.37195
  18   24266.0    412.1   0.202516405   2.74750   0.32114   0.46365   1.55865
  19   25056.0    399.1   0.091248234   1.19892  -0.30505   0.50035  -0.92493
  20   25912.9    385.9   0.008687442   0.11037  -0.12310   0.30605   0.03933
  21   26033.7    384.1   0.030820154   0.38974  -0.18875   0.58498   0.10916
  22   26878.9    372.0   0.138998591   1.70245   0.46332  -1.11841   0.48678
  23   27025.7    370.0   0.056633534   0.68988  -0.16866   0.69593  -0.42084
  24   27655.6    361.6   0.173426558   2.06447  -0.84585   0.39361  -1.09274
  25   28033.1    356.7   0.389687992   4.57638   1.02209  -1.85599   0.29496
  26   28116.2    355.7   0.028608559   0.33498   0.09130   0.13812   0.55458
  27   28847.2    346.7   0.167975995   1.91699   0.56360  -0.44635   1.18327
  28   28953.6    345.4   0.207551302   2.35992   0.18030   1.07123  -1.08622
  29   28986.6    345.0   0.367957268   4.17903  -0.16788  -1.04052   1.75161
  30   29830.9    335.2   0.023002114   0.25385   0.07792  -0.49282   0.07004
  31   30046.4    332.8   0.010994198   0.12046   0.08356  -0.32016  -0.10477
  32   30163.0    331.5   0.000325324   0.00355  -0.05914   0.00288  -0.00674
  33   30363.5    329.3   0.119773484   1.29863  -0.62322   0.17410  -0.93804
  34   30670.9    326.0   0.054701075   0.58714  -0.39153   0.09000  -0.65249
  35   30779.9    324.9   0.049193225   0.52615  -0.21572  -0.51452  -0.46356
  36   31147.4    321.1   0.037088875   0.39201   0.09518   0.58495  -0.20196
  37   31385.1    318.6   0.008548597   0.08967   0.04167  -0.03837   0.29404
  38   31575.1    316.7   0.172301522   1.79647   0.89766  -0.29089   0.95188
  39   31724.4    315.2   0.061629019   0.63954  -0.43428   0.66957   0.05119
  40   32050.1    312.0   0.004692921   0.04820   0.10383   0.08471   0.17392
  41   32222.3    310.3   0.027071227   0.27658  -0.15229  -0.13456  -0.48506
  42   32386.7    308.8   0.018974331   0.19287   0.34896  -0.05848   0.26016
  43   32486.6    307.8   0.240776891   2.43998  -1.24753   0.75330  -0.56230
  44   32629.1    306.5   0.014406773   0.14536   0.12881  -0.35380  -0.05990
  45   33265.9    300.6   0.031302456   0.30978  -0.23956   0.25051  -0.43547
  46   33391.4    299.5   0.019071301   0.18803   0.00362   0.14722  -0.40785
  47   33622.4    297.4   0.002544935   0.02492   0.09439   0.07845  -0.09927
  48   33660.8    297.1   0.012999986   0.12714   0.08004  -0.34324   0.05409
  49   33931.7    294.7   0.175154791   1.69938  -0.08706  -0.05970   1.29932
  50   33981.8    294.3   0.181548086   1.75882  -0.89031   0.74641  -0.63956
  51   34254.6    291.9   0.043519856   0.41826  -0.21598  -0.27345   0.54483
  52   34548.9    289.4   0.040560031   0.38649  -0.06546  -0.05291  -0.61596
  53   35217.9    283.9   0.050075174   0.46810   0.05618  -0.50301   0.46035
  54   35882.1    278.7   0.137010202   1.25704  -0.06562   1.00562   0.49139
  55   35944.0    278.2   0.002788312   0.02554   0.05713   0.01767   0.14820
  56   35984.0    277.9   0.002918039   0.02670  -0.00697   0.14746   0.07003
  57   36193.7    276.3   0.008860066   0.08059   0.00659   0.27475   0.07111
  58   36407.7    274.7   0.028580279   0.25843  -0.00685   0.19961   0.46748
  59   36518.3    273.8   0.010155201   0.09155   0.06328  -0.28575  -0.07676
  60   36639.4    272.9   0.014929105   0.13414  -0.13706  -0.03634  -0.33769
  61   36718.2    272.3   0.008051368   0.07219   0.06268  -0.09541  -0.24322
  62   36810.7    271.7   0.113524880   1.01530   0.21734   0.17975   0.96734
  63   37114.1    269.4   0.055733900   0.49437  -0.24657   0.47997   0.45079
  64   37238.6    268.5   0.015493170   0.13697  -0.02036   0.31292   0.19656
  65   37341.5    267.8   0.056911577   0.50175  -0.11682  -0.31120  -0.62550
  66   37888.4    263.9   0.005646214   0.04906   0.05821  -0.16916   0.13061
  67   38015.2    263.1   0.009185139   0.07954   0.08864   0.19982   0.17821
  68   38212.5    261.7   0.051335285   0.44227   0.05292   0.11330  -0.65317
  69   38787.5    257.8   0.036017965   0.30571   0.16132  -0.02201   0.52839
  70   39063.2    256.0   0.093898706   0.79135  -0.19873  -0.68163  -0.53594
  71   39094.9    255.8   0.001124992   0.00947  -0.03106  -0.01636   0.09078
  72   39229.3    254.9   0.005718787   0.04799   0.11362   0.03826   0.18335
  73   39359.1    254.1   0.000110330   0.00092   0.03016   0.00315  -0.00178
  74   39643.6    252.2   0.014965144   0.12427  -0.03474   0.31659  -0.15112
  75   39684.0    252.0   0.070524874   0.58506  -0.00562   0.66398   0.37969
  76   40007.2    250.0   0.002075006   0.01707   0.03580  -0.12477  -0.01506
  77   40068.6    249.6   0.004580788   0.03764  -0.06239   0.09573  -0.15678
  78   40164.2    249.0   0.023594144   0.19339   0.06669  -0.42627  -0.08509

FINAL SINGLE POINT ENERGY     -3951.889622224838

DIPOLE MOMENT
-------------
                                X             Y             Z
Electronic contribution:     -4.83865     -20.47728      -2.69647
Nuclear contribution   :      4.72764      20.65124       1.84216
                        -----------------------------------------
Total Dipole Moment    :     -0.11102       0.17396      -0.85431
                        -----------------------------------------
Magnitude (a.u.)       :      0.87888
Magnitude (Debye)      :      2.23393

Rotational constants in cm-1:     0.001973     0.000243     0.000226
Rotational constants in MHz :    59.148574     7.293121     6.761040

                             ****ORCA TERMINATED NORMALLY****
TOTAL RUN TIME: 0 days 0 hours 13 minutes 32 seconds 374 msec
