                         Program Version 4.2.0 -  RELEASE  -
|  1> # ORCA input file
|  2> # SCF done       -146.356858529790          0.000957407368
|  3> ! CAM-B3LYP def2-SVP def2/J RIJCOSX Grid4 TightSCF
|  4> %maxcore 5000
|  5> %tddft
|  6>     Mode sTDDFT
|  7>     Ethresh 5.0
|  8>     maxcore 5000
|  9> end
| 10>
| 11> %pal
| 12>   nprocs 6
| 13>   end
| 14> * xyz 0 1
| 15>    C       -4.20807         2.64221        -3.94391
| 16>    C       -3.48137         2.09268        -4.96741
| 17>    C       -3.71935         0.72620        -5.10750
| 18>    C       -4.65147         0.23773        -4.20252
| 19>    S       -5.24495         1.52468        -3.18473
| 20>    C       -5.14447        -1.09538        -4.18030
| 21>    C       -6.46442        -1.51350        -4.05810
| 22>    N       -7.57963        -0.76858        -3.67615
| 23>    O       -8.68013        -1.18722        -3.99695
| 24>    O       -7.40440         0.25190        -3.01722
| 25>    C       -6.58291        -2.87136        -4.52724
| 26>    C       -5.34925        -3.33413        -4.82461
| 27>    C       -4.37586        -2.31477        -4.50983
| 28>    C       -3.02444        -2.50797        -4.31732
| 29>    C       -2.01501        -1.50790        -4.11017
| 30>    C       -0.79668        -2.04608        -4.37798
| 31>    C       -0.95562        -3.43552        -4.68433
| 32>    N        0.13284        -4.27744        -4.93953
| 33>    O        1.24334        -3.76890        -4.94850
| 34>    O       -0.07094        -5.46612        -5.15160
| 35>    C       -2.30152        -3.78585        -4.52821
| 36>    C       -2.78578        -5.10025        -4.44412
| 37>    C       -3.83830        -5.50506        -3.66004
| 38>    C       -4.29698        -6.82175        -3.59644
| 39>    S       -3.69348        -8.10214        -4.63109
| 40>    C       -4.79667        -9.30504        -4.00344
| 41>    C       -5.59496        -8.73192        -2.99388
| 42>    C       -5.30543        -7.35672        -2.78726
| 43>    N       -6.11687        -6.88552        -1.81159
| 44>    C       -6.91526        -7.92317        -1.37850
| 45>    C       -7.85951        -7.75546        -0.35536
| 46>    N       -8.62875        -7.62251         0.48464
| 47>    C       -6.62080        -9.07282        -2.08518
| 48>    C       -4.78358       -10.58342        -4.56969
| 49>    C       -5.64904       -11.59644        -4.25182
| 50>    C       -5.67355       -12.85471        -4.87941
| 51>    C       -6.60228       -13.85820        -4.63069
| 52>    C       -6.35736       -14.95133        -5.49258
| 53>    C       -5.17875       -14.57961        -6.29612
| 54>    C       -4.78326       -13.33364        -5.92388
| 55>    C       -4.54884       -15.35495        -7.27609
| 56>    N       -4.00536       -15.96088        -8.08687
| 57>    C       -7.08756       -16.12030        -5.60995
| 58>    C       -6.89199       -17.17950        -6.52474
| 59>    C       -7.87642       -18.13498        -6.34431
| 60>    C       -8.73423       -17.68335        -5.25659
| 61>    C       -8.27595       -16.48595        -4.80946
| 62>    C       -8.84466       -15.75023        -3.76515
| 63>    N       -9.34011       -15.17010        -2.90560
| 64>    C       -8.02003       -19.31942        -7.10273
| 65>    C       -9.00704       -20.24027        -6.94748
| 66>    C       -9.13932       -21.40969        -7.73559
| 67>    C      -10.11882       -22.37855        -7.63473
| 68>    C       -9.97385       -23.41147        -8.56866
| 69>    C       -8.89041       -23.23583        -9.38035
| 70>    S       -8.02389       -21.80582        -9.02071
| 71>    H       -4.20603         3.66581        -3.62416
| 72>    H       -2.80420         2.64980        -5.58935
| 73>    H       -3.27490         0.11227        -5.87036
| 74>    H       -7.52483        -3.37688        -4.62213
| 75>    H       -5.11589        -4.29289        -5.24091
| 76>    H       -2.19983        -0.49131        -3.83047
| 77>    H        0.15604        -1.55188        -4.35414
| 78>    H       -2.19425        -5.86502        -4.93319
| 79>    H       -4.33723        -4.78627        -3.02224
| 80>    H       -6.14638        -5.94735        -1.44804
| 81>    H       -7.09620       -10.02085        -1.93767
| 82>    H       -4.04120       -10.74614        -5.33873
| 83>    H       -6.39776       -11.43054        -3.49144
| 84>    H       -7.39646       -13.80501        -3.91198
| 85>    H       -3.94849       -12.79482        -6.33108
| 86>    H       -6.10859       -17.22554        -7.25532
| 87>    H       -9.58605       -18.21226        -4.87191
| 88>    H       -7.27619       -19.48165        -7.87346
| 89>    H       -9.76396       -20.10564        -6.18649
| 90>    H      -10.90982       -22.33338        -6.90771
| 91>    H      -10.63956       -24.25234        -8.64332
| 92>    H       -8.55002       -23.87049       -10.17459
| 93> *
| 94>
| 95>                          ****END OF INPUT****

CARTESIAN COORDINATES (ANGSTROEM)
---------------------------------
  C     -4.208070    2.642210   -3.943910
  C     -3.481370    2.092680   -4.967410
  C     -3.719350    0.726200   -5.107500
  C     -4.651470    0.237730   -4.202520
  S     -5.244950    1.524680   -3.184730
  C     -5.144470   -1.095380   -4.180300
  C     -6.464420   -1.513500   -4.058100
  N     -7.579630   -0.768580   -3.676150
  O     -8.680130   -1.187220   -3.996950
  O     -7.404400    0.251900   -3.017220
  C     -6.582910   -2.871360   -4.527240
  C     -5.349250   -3.334130   -4.824610
  C     -4.375860   -2.314770   -4.509830
  C     -3.024440   -2.507970   -4.317320
  C     -2.015010   -1.507900   -4.110170
  C     -0.796680   -2.046080   -4.377980
  C     -0.955620   -3.435520   -4.684330
  N      0.132840   -4.277440   -4.939530
  O      1.243340   -3.768900   -4.948500
  O     -0.070940   -5.466120   -5.151600
  C     -2.301520   -3.785850   -4.528210
  C     -2.785780   -5.100250   -4.444120
  C     -3.838300   -5.505060   -3.660040
  C     -4.296980   -6.821750   -3.596440
  S     -3.693480   -8.102140   -4.631090
  C     -4.796670   -9.305040   -4.003440
  C     -5.594960   -8.731920   -2.993880
  C     -5.305430   -7.356720   -2.787260
  N     -6.116870   -6.885520   -1.811590
  C     -6.915260   -7.923170   -1.378500
  C     -7.859510   -7.755460   -0.355360
  N     -8.628750   -7.622510    0.484640
  C     -6.620800   -9.072820   -2.085180
  C     -4.783580  -10.583420   -4.569690
  C     -5.649040  -11.596440   -4.251820
  C     -5.673550  -12.854710   -4.879410
  C     -6.602280  -13.858200   -4.630690
  C     -6.357360  -14.951330   -5.492580
  C     -5.178750  -14.579610   -6.296120
  C     -4.783260  -13.333640   -5.923880
  C     -4.548840  -15.354950   -7.276090
  N     -4.005360  -15.960880   -8.086870
  C     -7.087560  -16.120300   -5.609950
  C     -6.891990  -17.179500   -6.524740
  C     -7.876420  -18.134980   -6.344310
  C     -8.734230  -17.683350   -5.256590
  C     -8.275950  -16.485950   -4.809460
  C     -8.844660  -15.750230   -3.765150
  N     -9.340110  -15.170100   -2.905600
  C     -8.020030  -19.319420   -7.102730
  C     -9.007040  -20.240270   -6.947480
  C     -9.139320  -21.409690   -7.735590
  C    -10.118820  -22.378550   -7.634730
  C     -9.973850  -23.411470   -8.568660
  C     -8.890410  -23.235830   -9.380350
  S     -8.023890  -21.805820   -9.020710
  H     -4.206030    3.665810   -3.624160
  H     -2.804200    2.649800   -5.589350
  H     -3.274900    0.112270   -5.870360
  H     -7.524830   -3.376880   -4.622130
  H     -5.115890   -4.292890   -5.240910
  H     -2.199830   -0.491310   -3.830470
  H      0.156040   -1.551880   -4.354140
  H     -2.194250   -5.865020   -4.933190
  H     -4.337230   -4.786270   -3.022240
  H     -6.146380   -5.947350   -1.448040
  H     -7.096200  -10.020850   -1.937670
  H     -4.041200  -10.746140   -5.338730
  H     -6.397760  -11.430540   -3.491440
  H     -7.396460  -13.805010   -3.911980
  H     -3.948490  -12.794820   -6.331080
  H     -6.108590  -17.225540   -7.255320
  H     -9.586050  -18.212260   -4.871910
  H     -7.276190  -19.481650   -7.873460
  H     -9.763960  -20.105640   -6.186490
  H    -10.909820  -22.333380   -6.907710
  H    -10.639560  -24.252340   -8.643320
  H     -8.550020  -23.870490  -10.174590

 Total Charge           Charge          ....    0
 Multiplicity           Mult            ....    1
 Number of Electrons    NEL             ....  402
 Basis Dimension        Dim             ....  906

ORBITAL ENERGIES
----------------

  NO   OCC          E(Eh)            E(eV)
   0   2.0000     -88.984806     -2421.3997
   1   2.0000     -88.965644     -2420.8782
   2   2.0000     -88.963128     -2420.8098
   3   2.0000     -19.237145      -523.4693
   4   2.0000     -19.234507      -523.3975
   5   2.0000     -19.225622      -523.1558
   6   2.0000     -19.225384      -523.1493
   7   2.0000     -14.642500      -398.4427
   8   2.0000     -14.635119      -398.2418
   9   2.0000     -14.499795      -394.5595
  10   2.0000     -14.427737      -392.5987
  11   2.0000     -14.411920      -392.1683
  12   2.0000     -14.409358      -392.0986
  13   2.0000     -10.364606      -282.0353
  14   2.0000     -10.346833      -281.5517
  15   2.0000     -10.341081      -281.3951
  16   2.0000     -10.329939      -281.0919
  17   2.0000     -10.328786      -281.0606
  18   2.0000     -10.327313      -281.0205
  19   2.0000     -10.327028      -281.0127
  20   2.0000     -10.326498      -280.9983
  21   2.0000     -10.326133      -280.9884
  22   2.0000     -10.322991      -280.9029
  23   2.0000     -10.320673      -280.8398
  24   2.0000     -10.318885      -280.7911
  25   2.0000     -10.318790      -280.7886
  26   2.0000     -10.318506      -280.7808
  27   2.0000     -10.317044      -280.7410
  28   2.0000     -10.316660      -280.7306
  29   2.0000     -10.313976      -280.6576
  30   2.0000     -10.312185      -280.6088
  31   2.0000     -10.311332      -280.5856
  32   2.0000     -10.311294      -280.5846
  33   2.0000     -10.311114      -280.5797
  34   2.0000     -10.310731      -280.5692
  35   2.0000     -10.308701      -280.5140
  36   2.0000     -10.308134      -280.4986
  37   2.0000     -10.307479      -280.4808
  38   2.0000     -10.307136      -280.4714
  39   2.0000     -10.306793      -280.4621
  40   2.0000     -10.306398      -280.4514
  41   2.0000     -10.304444      -280.3982
  42   2.0000     -10.303405      -280.3699
  43   2.0000     -10.297669      -280.2138
  44   2.0000     -10.295515      -280.1552
  45   2.0000     -10.293415      -280.0981
  46   2.0000     -10.293280      -280.0944
  47   2.0000     -10.292991      -280.0865
  48   2.0000     -10.287938      -279.9490
  49   2.0000     -10.285998      -279.8962
  50   2.0000     -10.284965      -279.8681
  51   2.0000     -10.283609      -279.8312
  52   2.0000     -10.283175      -279.8194
  53   2.0000     -10.278147      -279.6826
  54   2.0000     -10.277418      -279.6628
  55   2.0000     -10.276848      -279.6473
  56   2.0000      -8.079551      -219.8557
  57   2.0000      -8.061575      -219.3666
  58   2.0000      -8.057557      -219.2573
  59   2.0000      -6.048865      -164.5980
  60   2.0000      -6.044762      -164.4863
  61   2.0000      -6.041645      -164.4015
  62   2.0000      -6.030727      -164.1044
  63   2.0000      -6.026808      -163.9978
  64   2.0000      -6.026529      -163.9902
  65   2.0000      -6.023992      -163.9212
  66   2.0000      -6.022145      -163.8709
  67   2.0000      -6.020230      -163.8188
  68   2.0000      -1.312752       -35.7218
  69   2.0000      -1.303567       -35.4719
  70   2.0000      -1.130336       -30.7580
  71   2.0000      -1.122122       -30.5345
  72   2.0000      -1.120430       -30.4884
  73   2.0000      -1.017277       -27.6815
  74   2.0000      -1.016646       -27.6643
  75   2.0000      -1.011004       -27.5108
  76   2.0000      -1.002543       -27.2806
  77   2.0000      -1.000818       -27.2337
  78   2.0000      -0.996068       -27.1044
  79   2.0000      -0.992935       -27.0191
  80   2.0000      -0.986945       -26.8561
  81   2.0000      -0.982204       -26.7271
  82   2.0000      -0.980520       -26.6813
  83   2.0000      -0.940119       -25.5819
  84   2.0000      -0.916555       -24.9407
  85   2.0000      -0.909660       -24.7531
  86   2.0000      -0.908340       -24.7172
  87   2.0000      -0.901592       -24.5336
  88   2.0000      -0.878752       -23.9121
  89   2.0000      -0.873756       -23.7761
  90   2.0000      -0.863676       -23.5018
  91   2.0000      -0.862864       -23.4797
  92   2.0000      -0.857765       -23.3410
  93   2.0000      -0.850665       -23.1478
  94   2.0000      -0.839571       -22.8459
  95   2.0000      -0.837300       -22.7841
  96   2.0000      -0.836006       -22.7489
  97   2.0000      -0.817664       -22.2498
  98   2.0000      -0.809313       -22.0225
  99   2.0000      -0.789066       -21.4716
 100   2.0000      -0.777133       -21.1469
 101   2.0000      -0.768173       -20.9031
 102   2.0000      -0.759298       -20.6615
 103   2.0000      -0.744254       -20.2522
 104   2.0000      -0.735459       -20.0129
 105   2.0000      -0.728387       -19.8204
 106   2.0000      -0.725498       -19.7418
 107   2.0000      -0.712184       -19.3795
 108   2.0000      -0.700190       -19.0531
 109   2.0000      -0.685607       -18.6563
 110   2.0000      -0.680261       -18.5108
 111   2.0000      -0.671340       -18.2681
 112   2.0000      -0.667811       -18.1721
 113   2.0000      -0.666881       -18.1467
 114   2.0000      -0.661445       -17.9988
 115   2.0000      -0.646670       -17.5968
 116   2.0000      -0.643046       -17.4982
 117   2.0000      -0.637421       -17.3451
 118   2.0000      -0.633371       -17.2349
 119   2.0000      -0.632413       -17.2088
 120   2.0000      -0.627995       -17.0886
 121   2.0000      -0.624012       -16.9802
 122   2.0000      -0.620320       -16.8798
 123   2.0000      -0.617613       -16.8061
 124   2.0000      -0.616701       -16.7813
 125   2.0000      -0.612690       -16.6721
 126   2.0000      -0.610189       -16.6041
 127   2.0000      -0.605108       -16.4658
 128   2.0000      -0.594294       -16.1716
 129   2.0000      -0.586399       -15.9567
 130   2.0000      -0.576932       -15.6991
 131   2.0000      -0.571223       -15.5438
 132   2.0000      -0.566294       -15.4097
 133   2.0000      -0.562864       -15.3163
 134   2.0000      -0.559441       -15.2232
 135   2.0000      -0.557573       -15.1723
 136   2.0000      -0.550561       -14.9815
 137   2.0000      -0.546562       -14.8727
 138   2.0000      -0.540230       -14.7004
 139   2.0000      -0.535424       -14.5696
 140   2.0000      -0.533436       -14.5155
 141   2.0000      -0.526858       -14.3365
 142   2.0000      -0.521954       -14.2031
 143   2.0000      -0.519111       -14.1257
 144   2.0000      -0.511852       -13.9282
 145   2.0000      -0.509474       -13.8635
 146   2.0000      -0.503637       -13.7047
 147   2.0000      -0.502545       -13.6749
 148   2.0000      -0.498743       -13.5715
 149   2.0000      -0.495708       -13.4889
 150   2.0000      -0.494777       -13.4636
 151   2.0000      -0.490933       -13.3590
 152   2.0000      -0.490639       -13.3510
 153   2.0000      -0.488985       -13.3060
 154   2.0000      -0.485131       -13.2011
 155   2.0000      -0.484595       -13.1865
 156   2.0000      -0.481665       -13.1068
 157   2.0000      -0.480597       -13.0777
 158   2.0000      -0.480100       -13.0642
 159   2.0000      -0.475885       -12.9495
 160   2.0000      -0.469804       -12.7840
 161   2.0000      -0.468402       -12.7459
 162   2.0000      -0.465865       -12.6768
 163   2.0000      -0.458661       -12.4808
 164   2.0000      -0.457853       -12.4588
 165   2.0000      -0.455805       -12.4031
 166   2.0000      -0.455089       -12.3836
 167   2.0000      -0.451001       -12.2724
 168   2.0000      -0.443989       -12.0816
 169   2.0000      -0.441901       -12.0247
 170   2.0000      -0.441083       -12.0025
 171   2.0000      -0.438748       -11.9389
 172   2.0000      -0.437212       -11.8971
 173   2.0000      -0.434621       -11.8266
 174   2.0000      -0.431537       -11.7427
 175   2.0000      -0.425568       -11.5803
 176   2.0000      -0.424004       -11.5377
 177   2.0000      -0.422657       -11.5011
 178   2.0000      -0.417919       -11.3722
 179   2.0000      -0.403348       -10.9757
 180   2.0000      -0.398606       -10.8466
 181   2.0000      -0.384238       -10.4556
 182   2.0000      -0.380032       -10.3412
 183   2.0000      -0.377680       -10.2772
 184   2.0000      -0.374839       -10.1999
 185   2.0000      -0.370291       -10.0761
 186   2.0000      -0.364899        -9.9294
 187   2.0000      -0.361232        -9.8296
 188   2.0000      -0.353178        -9.6105
 189   2.0000      -0.345270        -9.3953
 190   2.0000      -0.340895        -9.2762
 191   2.0000      -0.337826        -9.1927
 192   2.0000      -0.333650        -9.0791
 193   2.0000      -0.328264        -8.9325
 194   2.0000      -0.321897        -8.7593
 195   2.0000      -0.321164        -8.7393
 196   2.0000      -0.315932        -8.5970
 197   2.0000      -0.297916        -8.1067
 198   2.0000      -0.279463        -7.6046
 199   2.0000      -0.267239        -7.2720
 200   2.0000      -0.237588        -6.4651
 201   0.0000      -0.135885        -3.6976
 202   0.0000      -0.114785        -3.1235
 203   0.0000      -0.076007        -2.0683
 204   0.0000      -0.042425        -1.1544
 205   0.0000      -0.032719        -0.8903

MULLIKEN ATOMIC CHARGES
-----------------------
   0 C :   -0.062846
   1 C :    0.032543
   2 C :    0.023665
   3 C :   -0.212739
   4 S :    0.217664
   5 C :    0.088973
   6 C :    0.044404
   7 N :    0.284344
   8 O :   -0.252431
   9 O :   -0.268306
  10 C :    0.004792
  11 C :   -0.026022
  12 C :    0.006102
  13 C :    0.058372
  14 C :   -0.025983
  15 C :    0.019313
  16 C :    0.077547
  17 N :    0.275105
  18 O :   -0.260517
  19 O :   -0.268734
  20 C :    0.026846
  21 C :   -0.080425
  22 C :   -0.011180
  23 C :   -0.145605
  24 S :    0.167465
  25 C :   -0.120580
  26 C :    0.115721
  27 C :    0.113201
  28 N :   -0.020537
  29 C :   -0.096109
  30 C :   -0.150999
  31 N :    0.179036
  32 C :   -0.032165
  33 C :    0.059363
  34 C :    0.004784
  35 C :    0.112250
  36 C :   -0.115588
  37 C :    0.123572
  38 C :   -0.100411
  39 C :   -0.013460
  40 C :   -0.173429
  41 N :    0.131151
  42 C :    0.133827
  43 C :   -0.128579
  44 C :    0.126284
  45 C :   -0.009807
  46 C :   -0.100706
  47 C :   -0.171170
  48 N :    0.128076
  49 C :   -0.020389
  50 C :    0.047748
  51 C :   -0.093741
  52 C :    0.015440
  53 C :    0.047020
  54 C :   -0.061158
  55 S :    0.124162
  56 H :    0.033854
  57 H :   -0.005086
  58 H :    0.009156
  59 H :   -0.001220
  60 H :    0.014626
  61 H :    0.016785
  62 H :    0.003374
  63 H :    0.032924
  64 H :    0.011892
  65 H :    0.138369
  66 H :    0.005130
  67 H :   -0.017027
  68 H :   -0.025571
  69 H :    0.000014
  70 H :   -0.001382
  71 H :   -0.000115
  72 H :   -0.002791
  73 H :    0.001301
  74 H :   -0.008603
  75 H :   -0.006952
  76 H :   -0.001576
  77 H :    0.037742
Sum of atomic charges:   -0.0000000

LOEWDIN ATOMIC CHARGES
----------------------
   0 C :   -0.179509
   1 C :   -0.072946
   2 C :   -0.038215
   3 C :   -0.197655
   4 S :    0.515787
   5 C :    0.006539
   6 C :   -0.058587
   7 N :    0.284070
   8 O :   -0.216212
   9 O :   -0.234099
  10 C :   -0.007565
  11 C :   -0.045926
  12 C :    0.024499
  13 C :    0.040582
  14 C :   -0.053045
  15 C :    0.020835
  16 C :   -0.067662
  17 N :    0.285391
  18 O :   -0.224693
  19 O :   -0.231576
  20 C :    0.018873
  21 C :   -0.041404
  22 C :   -0.004039
  23 C :   -0.206932
  24 S :    0.475597
  25 C :   -0.140202
  26 C :   -0.069326
  27 C :    0.008325
  28 N :    0.084945
  29 C :   -0.024059
  30 C :   -0.047289
  31 N :   -0.026917
  32 C :   -0.025780
  33 C :   -0.039604
  34 C :    0.005158
  35 C :   -0.023780
  36 C :   -0.021637
  37 C :    0.021055
  38 C :   -0.074963
  39 C :    0.043983
  40 C :   -0.029569
  41 N :   -0.063653
  42 C :    0.041738
  43 C :   -0.043748
  44 C :   -0.003664
  45 C :    0.051044
  46 C :   -0.075512
  47 C :   -0.029638
  48 N :   -0.064940
  49 C :   -0.031796
  50 C :   -0.006130
  51 C :   -0.178814
  52 C :   -0.042667
  53 C :   -0.064162
  54 C :   -0.167978
  55 S :    0.445932
  56 H :    0.026323
  57 H :    0.031639
  58 H :    0.033496
  59 H :    0.035500
  60 H :    0.032879
  61 H :    0.034085
  62 H :    0.037947
  63 H :    0.031514
  64 H :    0.035673
  65 H :    0.101664
  66 H :    0.038041
  67 H :    0.031381
  68 H :    0.035862
  69 H :    0.033865
  70 H :    0.034337
  71 H :    0.034461
  72 H :    0.034444
  73 H :    0.030604
  74 H :    0.035259
  75 H :    0.031927
  76 H :    0.033253
  77 H :    0.027382

  Mayer bond orders larger than 0.100000
B(  0-C ,  1-C ) :   1.4950 B(  0-C ,  4-S ) :   1.2066 B(  0-C , 56-H ) :   0.9731
B(  1-C ,  2-C ) :   1.3132 B(  1-C , 57-H ) :   0.9976 B(  2-C ,  3-C ) :   1.4485
B(  2-C , 58-H ) :   0.9916 B(  3-C ,  4-S ) :   1.1578 B(  3-C ,  5-C ) :   1.1261
B(  5-C ,  6-C ) :   1.5503 B(  5-C , 12-C ) :   1.0449 B(  6-C ,  7-N ) :   0.9702
B(  6-C , 10-C ) :   1.1129 B(  7-N ,  8-O ) :   1.5313 B(  7-N ,  9-O ) :   1.4515
B(  8-O ,  9-O ) :   0.2524 B( 10-C , 11-C ) :   1.6010 B( 10-C , 59-H ) :   1.0174
B( 11-C , 12-C ) :   1.0970 B( 11-C , 60-H ) :   0.9886 B( 12-C , 13-C ) :   1.5600
B( 13-C , 14-C ) :   1.1197 B( 13-C , 20-C ) :   0.9930 B( 14-C , 15-C ) :   1.5666
B( 14-C , 61-H ) :   1.0009 B( 15-C , 16-C ) :   1.1317 B( 15-C , 62-H ) :   1.0138
B( 16-C , 17-N ) :   0.9735 B( 16-C , 20-C ) :   1.4743 B( 17-N , 18-O ) :   1.5224
B( 17-N , 19-O ) :   1.4769 B( 18-O , 19-O ) :   0.2477 B( 20-C , 21-C ) :   1.2431
B( 21-C , 22-C ) :   1.4786 B( 21-C , 63-H ) :   0.9483 B( 22-C , 23-C ) :   1.2721
B( 22-C , 64-H ) :   0.9705 B( 23-C , 24-S ) :   1.0839 B( 23-C , 27-C ) :   1.3012
B( 24-S , 25-C ) :   1.1501 B( 25-C , 26-C ) :   1.2533 B( 25-C , 33-C ) :   1.2099
B( 26-C , 27-C ) :   1.2556 B( 26-C , 32-C ) :   1.1854 B( 27-C , 28-N ) :   1.2104
B( 28-N , 29-C ) :   1.1983 B( 28-N , 65-H ) :   0.9328 B( 29-C , 30-C ) :   1.0578
B( 29-C , 32-C ) :   1.5894 B( 30-C , 31-N ) :   3.0558 B( 32-C , 66-H ) :   1.0083
B( 33-C , 34-C ) :   1.5506 B( 33-C , 67-H ) :   0.9561 B( 34-C , 35-C ) :   1.1709
B( 34-C , 68-H ) :   0.9785 B( 35-C , 36-C ) :   1.4604 B( 35-C , 39-C ) :   1.0496
B( 36-C , 37-C ) :   1.1497 B( 36-C , 69-H ) :   1.0075 B( 37-C , 38-C ) :   1.1115
B( 37-C , 42-C ) :   1.3613 B( 38-C , 39-C ) :   1.6764 B( 38-C , 40-C ) :   1.0896
B( 39-C , 70-H ) :   1.0143 B( 40-C , 41-N ) :   2.9673 B( 42-C , 43-C ) :   1.1523
B( 42-C , 46-C ) :   1.0967 B( 43-C , 44-C ) :   1.4848 B( 43-C , 71-H ) :   1.0102
B( 44-C , 45-C ) :   1.0370 B( 44-C , 49-C ) :   1.1537 B( 45-C , 46-C ) :   1.6879
B( 45-C , 72-H ) :   1.0151 B( 46-C , 47-C ) :   1.0907 B( 47-C , 48-N ) :   2.9606
B( 49-C , 50-C ) :   1.6004 B( 49-C , 73-H ) :   0.9733 B( 50-C , 51-C ) :   1.1734
B( 50-C , 74-H ) :   0.9779 B( 51-C , 52-C ) :   1.4719 B( 51-C , 55-S ) :   1.1238
B( 52-C , 53-C ) :   1.2720 B( 52-C , 75-H ) :   1.0010 B( 53-C , 54-C ) :   1.5496
B( 53-C , 76-H ) :   0.9962 B( 54-C , 55-S ) :   1.1824 B( 54-C , 77-H ) :   0.9736

-----------------------------------------------------------------------------
         ABSORPTION SPECTRUM VIA TRANSITION ELECTRIC DIPOLE MOMENTS
-----------------------------------------------------------------------------
State   Energy  Wavelength   fosc         T2         TX        TY        TZ
        (cm-1)    (nm)                  (au**2)     (au)      (au)      (au)
-----------------------------------------------------------------------------
   0    8375.1   1194.0   1.009962417  39.70020   1.88111   5.99828   0.42689
   1   12079.1    827.9   0.317574348   8.65540  -1.37907  -2.38462  -1.03303
   2   14652.4    682.5   0.017169946   0.38578  -0.32253  -0.49214  -0.19886
   3   15282.5    654.3   0.013305879   0.28663  -0.20959  -0.43985  -0.22189
   4   19389.3    515.7   0.001165226   0.01978  -0.08220  -0.11304   0.01578
   5   19862.9    503.5   0.454110114   7.52653   1.01240   2.51790   0.40220
   6   21898.1    456.7   0.025619299   0.38516   0.12223  -0.54515  -0.27024
   7   23290.8    429.4   0.199774035   2.82378   0.55324   1.49117   0.54233
   8   23821.2    419.8   0.110992521   1.53393   0.14109   1.02484   0.68098
   9   24263.5    412.1   0.040123412   0.54440   0.17522   0.61036   0.37571
  10   24681.8    405.2   0.011510909   0.15354   0.29256   0.23367   0.11549
  11   26353.9    379.4   0.087964286   1.09884  -0.46026  -0.91329   0.23002
  12   26925.4    371.4   0.071631210   0.87582  -0.50856   0.05746   0.78351
  13   27195.5    367.7   0.153038782   1.85259  -0.84091   0.81490   0.69383
  14   27653.4    361.6   0.003616467   0.04305   0.03606   0.08760  -0.18460
  15   28186.7    354.8   0.115822504   1.35277   0.75618   0.88355  -0.01750
  16   28619.2    349.4   0.071400023   0.82133  -0.76451   0.47657  -0.09863
  17   29144.6    343.1   0.060601996   0.68455  -0.17735  -0.73324  -0.33978
  18   29782.6    335.8   0.029720892   0.32853   0.39945   0.02779  -0.41012
  19   29833.4    335.2   0.099768009   1.10094  -0.83586   0.00543   0.63424
  20   30209.5    331.0   0.099207859   1.08113   0.71200   0.69016  -0.31282
  21   30588.2    326.9   0.022606032   0.24330   0.07223  -0.38053  -0.30543
  22   31657.5    315.9   0.066499804   0.69154   0.73864   0.02125  -0.38144
  23   31870.4    313.8   0.030768900   0.31783  -0.32780   0.45756  -0.03196
  24   32149.9    311.0   0.011770716   0.12053  -0.18408   0.29042  -0.04795
  25   32737.3    305.5   0.622642602   6.26140   0.10918   2.19820   1.19054
  26   32811.9    304.8   0.368124526   3.69351  -1.92101   0.01693   0.05434
  27   33507.8    298.4   0.184651255   1.81418  -1.31780  -0.19106   0.20272
  28   33957.0    294.5   0.087552839   0.84882   0.82189  -0.41605  -0.01493
  29   34038.7    293.8   0.105705191   1.02235  -0.91677   0.30517   0.29792
  30   34618.1    288.9   0.014768275   0.14044   0.31549   0.17034  -0.10904
  31   34703.7    288.2   0.001880633   0.01784  -0.12075  -0.02761  -0.04998
  32   35114.2    284.8   0.001389226   0.01302   0.05736  -0.04681  -0.08685
  33   35298.9    283.3   0.059040352   0.55063  -0.53850  -0.45311   0.23525
  34   36010.5    277.7   0.296977188   2.71499   1.13902  -1.19053  -0.01626
  35   36095.2    277.0   0.052367090   0.47762  -0.64374  -0.25144   0.00039
  36   36368.1    275.0   0.090473430   0.81898  -0.72712   0.52367   0.12669
  37   36812.4    271.6   0.024851304   0.22224  -0.46448  -0.03806  -0.07112
  38   37259.0    268.4   0.003662505   0.03236  -0.10014  -0.13809  -0.05712
  39   37324.8    267.9   0.086406046   0.76212  -0.62593  -0.29000   0.53500
  40   37497.0    266.7   0.121232551   1.06438  -0.15726  -0.66419  -0.77363
  41   37573.3    266.1   0.035169224   0.30815   0.12685   0.53449   0.07985
  42   37721.6    265.1   0.190419015   1.66186   0.94305   0.87011  -0.12425
  43   37889.0    263.9   0.011989373   0.10417   0.10054   0.26995   0.14557
  44   38057.0    262.8   0.011068069   0.09574  -0.13727  -0.21565   0.17434
  45   38413.0    260.3   0.006451949   0.05530   0.19943  -0.03310  -0.12011
  46   38654.2    258.7   0.048516693   0.41321  -0.55692   0.27974  -0.15748
  47   39441.2    253.5   0.055517570   0.46340  -0.46287   0.10775   0.48738
  48   39600.1    252.5   0.015909654   0.13226  -0.36319   0.00988   0.01606
  49   39729.9    251.7   0.089564508   0.74215  -0.67616   0.20322   0.49363
  50   40192.3    248.8   0.043662022   0.35763   0.45624   0.10766  -0.37133

FINAL SINGLE POINT ENERGY     -3472.131957436822

DIPOLE MOMENT
-------------
                                X             Y             Z
Electronic contribution:      5.08909      20.48894       8.25450
Nuclear contribution   :     -5.68961     -22.40564      -9.22343
                        -----------------------------------------
Total Dipole Moment    :     -0.60052      -1.91670      -0.96893
                        -----------------------------------------
Magnitude (a.u.)       :      2.23007
Magnitude (Debye)      :      5.66838

Rotational constants in cm-1:     0.003089     0.000337     0.000320
Rotational constants in MHz :    92.616585    10.100619     9.578920

                             ****ORCA TERMINATED NORMALLY****
TOTAL RUN TIME: 0 days 0 hours 6 minutes 43 seconds 506 msec
