                         Program Version 4.2.0 -  RELEASE  -
|  1> # ORCA input file
|  2> # SCF done       -223.457073988650          0.000725279105
|  3> ! CAM-B3LYP def2-SVP def2/J RIJCOSX Grid4 TightSCF
|  4> %maxcore 5000
|  5> %tddft
|  6>     Mode sTDDFT
|  7>     Ethresh 5.0
|  8>     maxcore 5000
|  9> end
| 10>
| 11> %pal
| 12>   nprocs 6
| 13>   end
| 14> * xyz 0 1
| 15>    C       10.63768        -4.66191        -4.35249
| 16>    S        9.61923        -5.71120        -5.22161
| 17>    C        8.41961        -5.70269        -3.96159
| 18>    C        8.81880        -4.87029        -2.92499
| 19>    C       10.09525        -4.29017        -3.15423
| 20>    C       10.83817        -3.37584        -2.22465
| 21>    F       12.10703        -3.20706        -2.63556
| 22>    F       10.30735        -2.14710        -2.15869
| 23>    F       10.91290        -3.85056        -0.97518
| 24>    C        7.95235        -4.55069        -1.74866
| 25>    F        6.68495        -4.29167        -2.12832
| 26>    F        7.87297        -5.56569        -0.86305
| 27>    F        8.34750        -3.48389        -1.05891
| 28>    C        7.28513        -6.54076        -4.19541
| 29>    C        6.41187        -7.03571        -3.28592
| 30>    C        5.35658        -7.96159        -3.53877
| 31>    C        5.14551        -8.90184        -4.55342
| 32>    N        5.80493        -9.14304        -5.77093
| 33>    O        5.69942       -10.26749        -6.23428
| 34>    O        6.42909        -8.24849        -6.32102
| 35>    C        4.07739        -9.77956        -4.16728
| 36>    C        3.63627        -9.42626        -2.93190
| 37>    C        4.38204        -8.28628        -2.49148
| 38>    C        4.12762        -7.55765        -1.33759
| 39>    C        4.25802        -6.16197        -1.16445
| 40>    C        3.66290        -5.81492         0.01993
| 41>    C        3.18424        -6.98138         0.68570
| 42>    N        2.53929        -6.86270         1.92245
| 43>    O        2.53828        -5.76147         2.44745
| 44>    O        1.98720        -7.83831         2.41860
| 45>    C        3.49828        -8.10641        -0.10289
| 46>    C        3.53039        -9.48394         0.11341
| 47>    C        3.00830       -10.19819         1.17488
| 48>    C        2.99342       -11.58159         1.33245
| 49>    S        2.36686       -12.14946         2.86093
| 50>    C        2.56357       -13.80397         2.44466
| 51>    C        3.08858       -13.93666         1.13836
| 52>    C        3.34833       -12.68773         0.50486
| 53>    C        3.87450       -12.69048        -0.79326
| 54>    C        4.15130       -13.87414        -1.44357
| 55>    C        4.71469       -13.87996        -2.82551
| 56>    C        3.89823       -15.09790        -0.79663
| 57>    C        3.37760       -15.13660         0.46764
| 58>    C        2.33246       -14.86516         3.34687
| 59>    C        2.01446       -14.74647         4.66012
| 60>    C        1.99793       -15.85127         5.58648
| 61>    C        1.09590       -15.81799         6.66401
| 62>    C        1.02608       -16.90277         7.50184
| 63>    C        1.84877       -18.02140         7.31151
| 64>    C        1.53116       -19.01106         8.37031
| 65>    O        1.99881       -20.10450         8.55905
| 66>    N        0.53372       -18.42317         9.13375
| 67>    C        0.17060       -17.16082         8.68852
| 68>    O       -0.67567       -16.46502         9.18634
| 69>    C       -0.04209       -19.04771        10.30652
| 70>    C        0.75376       -18.70326        11.56015
| 71>    C        2.77448       -18.05860         6.29619
| 72>    C        2.86907       -16.96198         5.43021
| 73>    C        3.90531       -16.91030         4.41938
| 74>    C        4.36028       -17.95491         3.70590
| 75>    C        5.23948       -17.85331         2.57579
| 76>    S        5.15597       -19.13323         1.40579
| 77>    C        6.18644       -18.30370         0.29089
| 78>    C        6.55835       -17.07940         0.80226
| 79>    C        6.06567       -16.84286         2.11630
| 80>    C        6.52825       -15.69158         2.95630
| 81>    F        5.70814       -14.62041         2.89947
| 82>    F        6.61619       -16.02288         4.25603
| 83>    F        7.74606       -15.26572         2.61627
| 84>    C        7.25602       -16.03118        -0.01310
| 85>    F        6.95752       -16.13875        -1.32208
| 86>    F        6.87432       -14.79099         0.32271
| 87>    F        8.59204       -16.07375         0.06971
| 88>    C        6.54689       -18.97403        -0.93918
| 89>    C        7.72051       -18.86401        -1.55202
| 90>    H       11.58852        -4.36289        -4.74680
| 91>    H        7.18343        -6.84319        -5.22890
| 92>    H        6.49907        -6.75790        -2.24679
| 93>    H        3.70336       -10.56343        -4.79852
| 94>    H        2.77797        -9.83007        -2.42943
| 95>    H        4.62958        -5.47760        -1.90030
| 96>    H        3.54206        -4.82260         0.41319
| 97>    H        4.05850       -10.03160        -0.64936
| 98>    H        2.54120        -9.63654         1.97426
| 99>    H        4.07279       -11.77034        -1.31413
|100>    H        4.04652       -14.41126        -3.50208
|101>    H        5.67022       -14.40181        -2.83662
|102>    H        4.86231       -12.87069        -3.19951
|103>    H        4.12196       -16.01616        -1.31996
|104>    H        3.18039       -16.08422         0.94592
|105>    H        2.45306       -15.85658         2.93319
|106>    H        1.75209       -13.77381         5.05602
|107>    H        0.45146       -14.96473         6.80996
|108>    H       -0.03826       -20.12713        10.13749
|109>    H       -1.06959       -18.68746        10.39609
|110>    H        1.77861       -19.05417        11.46328
|111>    H        0.30122       -19.18017        12.42462
|112>    H        0.76038       -17.62720        11.71771
|113>    H        3.44173       -18.89958         6.19117
|114>    H        4.28072       -15.91899         4.22122
|115>    H        3.93918       -18.93932         3.85992
|116>    H        5.79905       -19.66126        -1.31197
|117>    H        8.51401       -18.23837        -1.18223
|118>    H        7.92613       -19.41621        -2.45150
|119> *
|120>
|121>                          ****END OF INPUT****

CARTESIAN COORDINATES (ANGSTROEM)
---------------------------------
  C     10.637680   -4.661910   -4.352490
  S      9.619230   -5.711200   -5.221610
  C      8.419610   -5.702690   -3.961590
  C      8.818800   -4.870290   -2.924990
  C     10.095250   -4.290170   -3.154230
  C     10.838170   -3.375840   -2.224650
  F     12.107030   -3.207060   -2.635560
  F     10.307350   -2.147100   -2.158690
  F     10.912900   -3.850560   -0.975180
  C      7.952350   -4.550690   -1.748660
  F      6.684950   -4.291670   -2.128320
  F      7.872970   -5.565690   -0.863050
  F      8.347500   -3.483890   -1.058910
  C      7.285130   -6.540760   -4.195410
  C      6.411870   -7.035710   -3.285920
  C      5.356580   -7.961590   -3.538770
  C      5.145510   -8.901840   -4.553420
  N      5.804930   -9.143040   -5.770930
  O      5.699420  -10.267490   -6.234280
  O      6.429090   -8.248490   -6.321020
  C      4.077390   -9.779560   -4.167280
  C      3.636270   -9.426260   -2.931900
  C      4.382040   -8.286280   -2.491480
  C      4.127620   -7.557650   -1.337590
  C      4.258020   -6.161970   -1.164450
  C      3.662900   -5.814920    0.019930
  C      3.184240   -6.981380    0.685700
  N      2.539290   -6.862700    1.922450
  O      2.538280   -5.761470    2.447450
  O      1.987200   -7.838310    2.418600
  C      3.498280   -8.106410   -0.102890
  C      3.530390   -9.483940    0.113410
  C      3.008300  -10.198190    1.174880
  C      2.993420  -11.581590    1.332450
  S      2.366860  -12.149460    2.860930
  C      2.563570  -13.803970    2.444660
  C      3.088580  -13.936660    1.138360
  C      3.348330  -12.687730    0.504860
  C      3.874500  -12.690480   -0.793260
  C      4.151300  -13.874140   -1.443570
  C      4.714690  -13.879960   -2.825510
  C      3.898230  -15.097900   -0.796630
  C      3.377600  -15.136600    0.467640
  C      2.332460  -14.865160    3.346870
  C      2.014460  -14.746470    4.660120
  C      1.997930  -15.851270    5.586480
  C      1.095900  -15.817990    6.664010
  C      1.026080  -16.902770    7.501840
  C      1.848770  -18.021400    7.311510
  C      1.531160  -19.011060    8.370310
  O      1.998810  -20.104500    8.559050
  N      0.533720  -18.423170    9.133750
  C      0.170600  -17.160820    8.688520
  O     -0.675670  -16.465020    9.186340
  C     -0.042090  -19.047710   10.306520
  C      0.753760  -18.703260   11.560150
  C      2.774480  -18.058600    6.296190
  C      2.869070  -16.961980    5.430210
  C      3.905310  -16.910300    4.419380
  C      4.360280  -17.954910    3.705900
  C      5.239480  -17.853310    2.575790
  S      5.155970  -19.133230    1.405790
  C      6.186440  -18.303700    0.290890
  C      6.558350  -17.079400    0.802260
  C      6.065670  -16.842860    2.116300
  C      6.528250  -15.691580    2.956300
  F      5.708140  -14.620410    2.899470
  F      6.616190  -16.022880    4.256030
  F      7.746060  -15.265720    2.616270
  C      7.256020  -16.031180   -0.013100
  F      6.957520  -16.138750   -1.322080
  F      6.874320  -14.790990    0.322710
  F      8.592040  -16.073750    0.069710
  C      6.546890  -18.974030   -0.939180
  C      7.720510  -18.864010   -1.552020
  H     11.588520   -4.362890   -4.746800
  H      7.183430   -6.843190   -5.228900
  H      6.499070   -6.757900   -2.246790
  H      3.703360  -10.563430   -4.798520
  H      2.777970   -9.830070   -2.429430
  H      4.629580   -5.477600   -1.900300
  H      3.542060   -4.822600    0.413190
  H      4.058500  -10.031600   -0.649360
  H      2.541200   -9.636540    1.974260
  H      4.072790  -11.770340   -1.314130
  H      4.046520  -14.411260   -3.502080
  H      5.670220  -14.401810   -2.836620
  H      4.862310  -12.870690   -3.199510
  H      4.121960  -16.016160   -1.319960
  H      3.180390  -16.084220    0.945920
  H      2.453060  -15.856580    2.933190
  H      1.752090  -13.773810    5.056020
  H      0.451460  -14.964730    6.809960
  H     -0.038260  -20.127130   10.137490
  H     -1.069590  -18.687460   10.396090
  H      1.778610  -19.054170   11.463280
  H      0.301220  -19.180170   12.424620
  H      0.760380  -17.627200   11.717710
  H      3.441730  -18.899580    6.191170
  H      4.280720  -15.918990    4.221220
  H      3.939180  -18.939320    3.859920
  H      5.799050  -19.661260   -1.311970
  H      8.514010  -18.238370   -1.182230
  H      7.926130  -19.416210   -2.451500

 Total Charge           Charge          ....    0
 Multiplicity           Mult            ....    1
 Number of Electrons    NEL             ....  560
 Basis Dimension        Dim             .... 1207

ORBITAL ENERGIES
----------------

  NO   OCC          E(Eh)            E(eV)
   0   2.0000     -88.994456     -2421.6623
   1   2.0000     -88.988557     -2421.5017
   2   2.0000     -88.978715     -2421.2339
   3   2.0000     -24.813749      -675.2164
   4   2.0000     -24.813552      -675.2111
   5   2.0000     -24.813125      -675.1995
   6   2.0000     -24.812602      -675.1852
   7   2.0000     -24.812285      -675.1766
   8   2.0000     -24.811984      -675.1684
   9   2.0000     -24.802619      -674.9136
  10   2.0000     -24.799549      -674.8300
  11   2.0000     -24.797992      -674.7877
  12   2.0000     -24.794834      -674.7017
  13   2.0000     -24.792829      -674.6472
  14   2.0000     -24.789838      -674.5658
  15   2.0000     -19.232218      -523.3353
  16   2.0000     -19.228781      -523.2417
  17   2.0000     -19.219291      -522.9835
  18   2.0000     -19.218982      -522.9751
  19   2.0000     -19.218814      -522.9705
  20   2.0000     -19.216464      -522.9066
  21   2.0000     -14.638720      -398.3398
  22   2.0000     -14.628694      -398.0670
  23   2.0000     -14.460681      -393.4951
  24   2.0000     -10.537071      -286.7283
  25   2.0000     -10.536773      -286.7202
  26   2.0000     -10.523445      -286.3575
  27   2.0000     -10.517338      -286.1913
  28   2.0000     -10.399474      -282.9841
  29   2.0000     -10.399147      -282.9752
  30   2.0000     -10.347454      -281.5685
  31   2.0000     -10.343957      -281.4734
  32   2.0000     -10.341414      -281.4042
  33   2.0000     -10.328885      -281.0632
  34   2.0000     -10.327390      -281.0226
  35   2.0000     -10.326585      -281.0007
  36   2.0000     -10.326272      -280.9922
  37   2.0000     -10.320245      -280.8281
  38   2.0000     -10.319906      -280.8189
  39   2.0000     -10.318145      -280.7710
  40   2.0000     -10.317814      -280.7620
  41   2.0000     -10.316171      -280.7173
  42   2.0000     -10.316055      -280.7141
  43   2.0000     -10.314880      -280.6822
  44   2.0000     -10.313848      -280.6541
  45   2.0000     -10.312910      -280.6285
  46   2.0000     -10.311260      -280.5836
  47   2.0000     -10.311123      -280.5799
  48   2.0000     -10.311016      -280.5770
  49   2.0000     -10.310673      -280.5677
  50   2.0000     -10.310381      -280.5597
  51   2.0000     -10.309724      -280.5418
  52   2.0000     -10.309356      -280.5318
  53   2.0000     -10.307242      -280.4743
  54   2.0000     -10.307162      -280.4721
  55   2.0000     -10.306968      -280.4669
  56   2.0000     -10.306635      -280.4578
  57   2.0000     -10.306574      -280.4561
  58   2.0000     -10.305924      -280.4384
  59   2.0000     -10.305641      -280.4307
  60   2.0000     -10.303292      -280.3668
  61   2.0000     -10.299611      -280.2667
  62   2.0000     -10.299183      -280.2550
  63   2.0000     -10.295349      -280.1507
  64   2.0000     -10.293722      -280.1064
  65   2.0000     -10.292663      -280.0776
  66   2.0000     -10.290069      -280.0070
  67   2.0000     -10.289185      -279.9830
  68   2.0000     -10.287717      -279.9430
  69   2.0000     -10.287457      -279.9359
  70   2.0000     -10.281210      -279.7659
  71   2.0000     -10.273676      -279.5609
  72   2.0000     -10.271401      -279.4990
  73   2.0000     -10.265997      -279.3520
  74   2.0000     -10.263612      -279.2871
  75   2.0000      -8.090532      -220.1546
  76   2.0000      -8.083855      -219.9729
  77   2.0000      -8.074768      -219.7256
  78   2.0000      -6.059612      -164.8904
  79   2.0000      -6.055547      -164.7798
  80   2.0000      -6.052842      -164.7062
  81   2.0000      -6.052694      -164.7022
  82   2.0000      -6.048648      -164.5921
  83   2.0000      -6.046770      -164.5410
  84   2.0000      -6.043834      -164.4611
  85   2.0000      -6.039529      -164.3439
  86   2.0000      -6.037352      -164.2847
  87   2.0000      -1.407205       -38.2920
  88   2.0000      -1.402087       -38.1527
  89   2.0000      -1.392759       -37.8989
  90   2.0000      -1.383750       -37.6537
  91   2.0000      -1.308910       -35.6172
  92   2.0000      -1.308683       -35.6111
  93   2.0000      -1.306300       -35.5462
  94   2.0000      -1.303879       -35.4804
  95   2.0000      -1.301438       -35.4139
  96   2.0000      -1.296894       -35.2903
  97   2.0000      -1.295888       -35.2629
  98   2.0000      -1.289328       -35.0844
  99   2.0000      -1.286211       -34.9996
 100   2.0000      -1.284090       -34.9419
 101   2.0000      -1.165455       -31.7136
 102   2.0000      -1.141983       -31.0749
 103   2.0000      -1.125294       -30.6208
 104   2.0000      -1.112884       -30.2831
 105   2.0000      -1.056530       -28.7497
 106   2.0000      -1.030885       -28.0518
 107   2.0000      -1.021104       -27.7857
 108   2.0000      -1.012114       -27.5410
 109   2.0000      -1.003392       -27.3037
 110   2.0000      -0.998295       -27.1650
 111   2.0000      -0.982555       -26.7367
 112   2.0000      -0.957826       -26.0638
 113   2.0000      -0.945234       -25.7211
 114   2.0000      -0.936285       -25.4776
 115   2.0000      -0.920432       -25.0462
 116   2.0000      -0.911677       -24.8080
 117   2.0000      -0.908301       -24.7161
 118   2.0000      -0.902312       -24.5532
 119   2.0000      -0.898012       -24.4362
 120   2.0000      -0.887580       -24.1523
 121   2.0000      -0.886752       -24.1298
 122   2.0000      -0.878115       -23.8947
 123   2.0000      -0.872779       -23.7495
 124   2.0000      -0.868270       -23.6268
 125   2.0000      -0.861955       -23.4550
 126   2.0000      -0.861226       -23.4352
 127   2.0000      -0.852798       -23.2058
 128   2.0000      -0.843484       -22.9524
 129   2.0000      -0.831661       -22.6306
 130   2.0000      -0.817336       -22.2408
 131   2.0000      -0.805848       -21.9282
 132   2.0000      -0.799485       -21.7551
 133   2.0000      -0.787828       -21.4379
 134   2.0000      -0.786377       -21.3984
 135   2.0000      -0.780930       -21.2502
 136   2.0000      -0.771142       -20.9838
 137   2.0000      -0.769270       -20.9329
 138   2.0000      -0.764512       -20.8034
 139   2.0000      -0.755365       -20.5545
 140   2.0000      -0.741100       -20.1664
 141   2.0000      -0.734596       -19.9894
 142   2.0000      -0.726438       -19.7674
 143   2.0000      -0.722168       -19.6512
 144   2.0000      -0.721194       -19.6247
 145   2.0000      -0.718674       -19.5561
 146   2.0000      -0.716166       -19.4879
 147   2.0000      -0.710802       -19.3419
 148   2.0000      -0.704421       -19.1683
 149   2.0000      -0.700842       -19.0709
 150   2.0000      -0.693175       -18.8623
 151   2.0000      -0.692217       -18.8362
 152   2.0000      -0.690163       -18.7803
 153   2.0000      -0.688305       -18.7297
 154   2.0000      -0.687747       -18.7145
 155   2.0000      -0.683113       -18.5884
 156   2.0000      -0.676631       -18.4121
 157   2.0000      -0.674462       -18.3530
 158   2.0000      -0.667044       -18.1512
 159   2.0000      -0.666060       -18.1244
 160   2.0000      -0.665655       -18.1134
 161   2.0000      -0.664975       -18.0949
 162   2.0000      -0.661623       -18.0037
 163   2.0000      -0.659977       -17.9589
 164   2.0000      -0.648294       -17.6410
 165   2.0000      -0.642312       -17.4782
 166   2.0000      -0.637609       -17.3502
 167   2.0000      -0.631677       -17.1888
 168   2.0000      -0.623822       -16.9751
 169   2.0000      -0.619992       -16.8708
 170   2.0000      -0.618583       -16.8325
 171   2.0000      -0.612968       -16.6797
 172   2.0000      -0.611633       -16.6434
 173   2.0000      -0.608981       -16.5712
 174   2.0000      -0.606902       -16.5146
 175   2.0000      -0.602907       -16.4059
 176   2.0000      -0.596173       -16.2227
 177   2.0000      -0.589909       -16.0522
 178   2.0000      -0.587659       -15.9910
 179   2.0000      -0.581734       -15.8298
 180   2.0000      -0.579840       -15.7782
 181   2.0000      -0.578410       -15.7393
 182   2.0000      -0.577215       -15.7068
 183   2.0000      -0.573079       -15.5943
 184   2.0000      -0.569894       -15.5076
 185   2.0000      -0.569258       -15.4903
 186   2.0000      -0.564415       -15.3585
 187   2.0000      -0.563005       -15.3201
 188   2.0000      -0.561044       -15.2668
 189   2.0000      -0.558123       -15.1873
 190   2.0000      -0.554357       -15.0848
 191   2.0000      -0.552919       -15.0457
 192   2.0000      -0.552838       -15.0435
 193   2.0000      -0.551971       -15.0199
 194   2.0000      -0.547032       -14.8855
 195   2.0000      -0.544869       -14.8266
 196   2.0000      -0.542929       -14.7738
 197   2.0000      -0.542368       -14.7586
 198   2.0000      -0.541077       -14.7235
 199   2.0000      -0.537282       -14.6202
 200   2.0000      -0.535442       -14.5701
 201   2.0000      -0.533397       -14.5145
 202   2.0000      -0.531919       -14.4742
 203   2.0000      -0.531493       -14.4627
 204   2.0000      -0.525672       -14.3043
 205   2.0000      -0.524476       -14.2717
 206   2.0000      -0.522234       -14.2107
 207   2.0000      -0.520791       -14.1714
 208   2.0000      -0.519423       -14.1342
 209   2.0000      -0.519128       -14.1262
 210   2.0000      -0.517416       -14.0796
 211   2.0000      -0.516258       -14.0481
 212   2.0000      -0.514350       -13.9962
 213   2.0000      -0.512434       -13.9440
 214   2.0000      -0.508991       -13.8503
 215   2.0000      -0.506753       -13.7894
 216   2.0000      -0.504663       -13.7326
 217   2.0000      -0.503230       -13.6936
 218   2.0000      -0.501140       -13.6367
 219   2.0000      -0.501079       -13.6350
 220   2.0000      -0.499676       -13.5969
 221   2.0000      -0.497230       -13.5303
 222   2.0000      -0.496124       -13.5002
 223   2.0000      -0.492721       -13.4076
 224   2.0000      -0.492473       -13.4009
 225   2.0000      -0.491833       -13.3835
 226   2.0000      -0.488954       -13.3051
 227   2.0000      -0.488388       -13.2897
 228   2.0000      -0.487703       -13.2711
 229   2.0000      -0.485282       -13.2052
 230   2.0000      -0.482095       -13.1185
 231   2.0000      -0.481387       -13.0992
 232   2.0000      -0.478660       -13.0250
 233   2.0000      -0.475933       -12.9508
 234   2.0000      -0.474590       -12.9142
 235   2.0000      -0.474249       -12.9050
 236   2.0000      -0.472033       -12.8447
 237   2.0000      -0.470801       -12.8112
 238   2.0000      -0.464218       -12.6320
 239   2.0000      -0.463006       -12.5990
 240   2.0000      -0.462613       -12.5883
 241   2.0000      -0.460577       -12.5329
 242   2.0000      -0.460080       -12.5194
 243   2.0000      -0.456434       -12.4202
 244   2.0000      -0.454541       -12.3687
 245   2.0000      -0.450413       -12.2564
 246   2.0000      -0.450050       -12.2465
 247   2.0000      -0.447946       -12.1892
 248   2.0000      -0.440444       -11.9851
 249   2.0000      -0.436813       -11.8863
 250   2.0000      -0.435438       -11.8489
 251   2.0000      -0.433551       -11.7975
 252   2.0000      -0.431381       -11.7385
 253   2.0000      -0.430521       -11.7151
 254   2.0000      -0.425966       -11.5911
 255   2.0000      -0.420101       -11.4315
 256   2.0000      -0.397505       -10.8167
 257   2.0000      -0.387990       -10.5577
 258   2.0000      -0.384709       -10.4685
 259   2.0000      -0.379322       -10.3219
 260   2.0000      -0.373100       -10.1526
 261   2.0000      -0.370141       -10.0720
 262   2.0000      -0.369590       -10.0570
 263   2.0000      -0.368253       -10.0207
 264   2.0000      -0.363468        -9.8905
 265   2.0000      -0.358819        -9.7640
 266   2.0000      -0.354470        -9.6456
 267   2.0000      -0.353086        -9.6080
 268   2.0000      -0.351162        -9.5556
 269   2.0000      -0.347610        -9.4590
 270   2.0000      -0.347354        -9.4520
 271   2.0000      -0.343654        -9.3513
 272   2.0000      -0.335929        -9.1411
 273   2.0000      -0.332622        -9.0511
 274   2.0000      -0.327738        -8.9182
 275   2.0000      -0.324525        -8.8308
 276   2.0000      -0.303311        -8.2535
 277   2.0000      -0.289994        -7.8911
 278   2.0000      -0.270605        -7.3635
 279   2.0000      -0.239244        -6.5102
 280   0.0000      -0.135096        -3.6762
 281   0.0000      -0.088208        -2.4003
 282   0.0000      -0.067999        -1.8504
 283   0.0000      -0.049999        -1.3605
 284   0.0000      -0.041612        -1.1323

MULLIKEN ATOMIC CHARGES
-----------------------
   0 C :   -0.091575
   1 S :    0.183453
   2 C :   -0.151332
   3 C :   -0.044681
   4 C :   -0.110446
   5 C :    0.530202
   6 F :   -0.163259
   7 F :   -0.157512
   8 F :   -0.158873
   9 C :    0.523263
  10 F :   -0.165769
  11 F :   -0.162424
  12 F :   -0.137278
  13 C :    0.056503
  14 C :   -0.071087
  15 C :    0.069952
  16 C :    0.047877
  17 N :    0.279540
  18 O :   -0.256646
  19 O :   -0.254706
  20 C :    0.004113
  21 C :   -0.023267
  22 C :   -0.002184
  23 C :    0.032303
  24 C :   -0.022522
  25 C :    0.036307
  26 C :    0.037464
  27 N :    0.283933
  28 O :   -0.265066
  29 O :   -0.281283
  30 C :    0.098284
  31 C :   -0.108625
  32 C :    0.092043
  33 C :   -0.129605
  34 S :    0.192025
  35 C :   -0.071325
  36 C :    0.100196
  37 C :    0.178421
  38 C :   -0.079371
  39 C :   -0.034854
  40 C :    0.091101
  41 C :   -0.002230
  42 C :   -0.026878
  43 C :   -0.023511
  44 C :   -0.015862
  45 C :    0.079512
  46 C :   -0.080500
  47 C :    0.013313
  48 C :    0.012295
  49 C :    0.187797
  50 O :   -0.154006
  51 N :   -0.300605
  52 C :    0.189895
  53 O :   -0.151826
  54 C :    0.131142
  55 C :   -0.010159
  56 C :   -0.077741
  57 C :    0.073861
  58 C :   -0.075256
  59 C :    0.069037
  60 C :   -0.151315
  61 S :    0.164218
  62 C :   -0.137960
  63 C :   -0.082296
  64 C :   -0.087022
  65 C :    0.540554
  66 F :   -0.165228
  67 F :   -0.160264
  68 F :   -0.145991
  69 C :    0.538752
  70 F :   -0.164594
  71 F :   -0.157417
  72 F :   -0.150220
  73 C :    0.005470
  74 C :    0.006515
  75 H :    0.046444
  76 H :    0.019849
  77 H :    0.017937
  78 H :   -0.004761
  79 H :   -0.000672
  80 H :   -0.002051
  81 H :    0.007945
  82 H :    0.004266
  83 H :    0.018110
  84 H :   -0.060992
  85 H :    0.030782
  86 H :    0.032621
  87 H :    0.024069
  88 H :   -0.023154
  89 H :   -0.026205
  90 H :    0.027735
  91 H :    0.016702
  92 H :   -0.001758
  93 H :    0.033415
  94 H :    0.033489
  95 H :    0.027903
  96 H :    0.024969
  97 H :    0.028271
  98 H :   -0.002579
  99 H :    0.056810
 100 H :   -0.006179
 101 H :    0.010576
 102 H :    0.041715
 103 H :    0.039971
Sum of atomic charges:   -0.0000000

LOEWDIN ATOMIC CHARGES
----------------------
   0 C :   -0.164167
   1 S :    0.504143
   2 C :   -0.140529
   3 C :   -0.114851
   4 C :   -0.109922
   5 C :    0.158763
   6 F :   -0.061287
   7 F :   -0.057801
   8 F :   -0.055735
   9 C :    0.169620
  10 F :   -0.058759
  11 F :   -0.062233
  12 F :   -0.035236
  13 C :   -0.034136
  14 C :   -0.015914
  15 C :    0.000595
  16 C :   -0.054630
  17 N :    0.289257
  18 O :   -0.218722
  19 O :   -0.214786
  20 C :   -0.009921
  21 C :   -0.057518
  22 C :    0.002122
  23 C :    0.055997
  24 C :   -0.073151
  25 C :    0.057171
  26 C :   -0.098677
  27 N :    0.288976
  28 O :   -0.227860
  29 O :   -0.242328
  30 C :    0.032608
  31 C :   -0.039615
  32 C :    0.018578
  33 C :   -0.168871
  34 S :    0.511619
  35 C :   -0.142955
  36 C :   -0.043992
  37 C :   -0.016251
  38 C :   -0.025208
  39 C :    0.005633
  40 C :   -0.043757
  41 C :   -0.017759
  42 C :   -0.006874
  43 C :   -0.030983
  44 C :   -0.000438
  45 C :   -0.009061
  46 C :    0.023121
  47 C :   -0.048333
  48 C :   -0.046123
  49 C :    0.086877
  50 O :   -0.156077
  51 N :   -0.034175
  52 C :    0.087420
  53 O :   -0.153443
  54 C :    0.044714
  55 C :   -0.059287
  56 C :    0.020291
  57 C :   -0.006590
  58 C :    0.005489
  59 C :   -0.060500
  60 C :   -0.147210
  61 S :    0.479830
  62 C :   -0.150646
  63 C :   -0.110355
  64 C :   -0.115187
  65 C :    0.164320
  66 F :   -0.061921
  67 F :   -0.053237
  68 F :   -0.040706
  69 C :    0.165349
  70 F :   -0.053423
  71 F :   -0.046727
  72 F :   -0.050366
  73 C :   -0.060682
  74 C :    0.001490
  75 H :    0.034244
  76 H :    0.025868
  77 H :    0.028864
  78 H :    0.031554
  79 H :    0.026989
  80 H :    0.026077
  81 H :    0.039959
  82 H :    0.032068
  83 H :    0.030691
  84 H :    0.027842
  85 H :    0.039427
  86 H :    0.038550
  87 H :    0.034183
  88 H :    0.028519
  89 H :    0.027743
  90 H :    0.040645
  91 H :    0.032048
  92 H :    0.042002
  93 H :    0.032798
  94 H :    0.033069
  95 H :    0.028509
  96 H :    0.031381
  97 H :    0.028651
  98 H :    0.040392
  99 H :    0.031230
 100 H :    0.029566
 101 H :    0.032732
 102 H :    0.025760
 103 H :    0.033572

  Mayer bond orders larger than 0.100000
B(  0-C ,  1-S ) :   1.1850 B(  0-C ,  4-C ) :   1.5723 B(  0-C , 75-H ) :   0.9691
B(  1-S ,  2-C ) :   1.1869 B(  2-C ,  3-C ) :   1.4971 B(  2-C , 13-C ) :   1.1096
B(  3-C ,  4-C ) :   1.2991 B(  3-C ,  9-C ) :   0.9440 B(  4-C ,  5-C ) :   0.9494
B(  5-C ,  6-F ) :   1.1583 B(  5-C ,  7-F ) :   1.1766 B(  5-C ,  8-F ) :   1.1619
B(  9-C , 10-F ) :   1.1363 B(  9-C , 11-F ) :   1.1212 B(  9-C , 12-F ) :   1.1709
B( 13-C , 14-C ) :   1.6864 B( 13-C , 76-H ) :   0.9203 B( 14-C , 15-C ) :   1.1573
B( 14-C , 77-H ) :   0.9457 B( 15-C , 16-C ) :   1.4535 B( 15-C , 22-C ) :   1.0813
B( 16-C , 17-N ) :   0.9536 B( 16-C , 20-C ) :   1.1764 B( 17-N , 18-O ) :   1.5315
B( 17-N , 19-O ) :   1.4681 B( 18-O , 19-O ) :   0.2486 B( 19-O , 76-H ) :   0.1043
B( 20-C , 21-C ) :   1.5370 B( 20-C , 78-H ) :   1.0042 B( 21-C , 22-C ) :   1.1512
B( 21-C , 79-H ) :   0.9968 B( 22-C , 23-C ) :   1.4135 B( 23-C , 24-C ) :   1.2136
B( 23-C , 30-C ) :   0.9984 B( 24-C , 25-C ) :   1.4692 B( 24-C , 80-H ) :   1.0057
B( 25-C , 26-C ) :   1.1874 B( 25-C , 81-H ) :   1.0041 B( 26-C , 27-N ) :   0.9937
B( 26-C , 30-C ) :   1.3293 B( 27-N , 28-O ) :   1.5284 B( 27-N , 29-O ) :   1.4423
B( 28-O , 29-O ) :   0.2290 B( 29-O , 83-H ) :   0.1159 B( 30-C , 31-C ) :   1.3331
B( 31-C , 32-C ) :   1.4263 B( 31-C , 82-H ) :   0.9629 B( 32-C , 33-C ) :   1.3015
B( 32-C , 83-H ) :   0.9161 B( 33-C , 34-S ) :   1.1200 B( 33-C , 37-C ) :   1.2059
B( 34-S , 35-C ) :   1.1957 B( 35-C , 36-C ) :   1.2579 B( 35-C , 43-C ) :   1.1907
B( 36-C , 37-C ) :   1.2516 B( 36-C , 42-C ) :   1.2252 B( 37-C , 38-C ) :   1.2166
B( 38-C , 39-C ) :   1.4997 B( 38-C , 84-H ) :   1.0018 B( 39-C , 40-C ) :   1.0530
B( 39-C , 41-C ) :   1.2516 B( 40-C , 85-H ) :   0.9498 B( 40-C , 86-H ) :   0.9453
B( 40-C , 87-H ) :   0.9566 B( 41-C , 42-C ) :   1.5173 B( 41-C , 88-H ) :   0.9874
B( 42-C , 89-H ) :   0.9884 B( 43-C , 44-C ) :   1.6490 B( 43-C , 90-H ) :   0.9552
B( 44-C , 45-C ) :   1.0925 B( 44-C , 91-H ) :   0.9695 B( 45-C , 46-C ) :   1.2766
B( 45-C , 57-C ) :   1.3303 B( 46-C , 47-C ) :   1.4079 B( 46-C , 92-H ) :   1.0152
B( 47-C , 48-C ) :   1.3441 B( 47-C , 52-C ) :   0.8731 B( 48-C , 49-C ) :   0.8758
B( 48-C , 56-C ) :   1.3938 B( 49-C , 50-O ) :   2.2312 B( 49-C , 51-N ) :   1.0660
B( 51-N , 52-C ) :   1.0644 B( 51-N , 54-C ) :   0.9164 B( 52-C , 53-O ) :   2.2341
B( 54-C , 55-C ) :   1.1232 B( 54-C , 93-H ) :   0.9427 B( 54-C , 94-H ) :   0.9423
B( 55-C , 95-H ) :   0.9700 B( 55-C , 96-H ) :   0.9704 B( 55-C , 97-H ) :   0.9697
B( 56-C , 57-C ) :   1.3228 B( 56-C , 98-H ) :   1.0088 B( 57-C , 58-C ) :   1.0595
B( 58-C , 59-C ) :   1.7494 B( 58-C , 99-H ) :   0.9330 B( 59-C , 60-C ) :   1.1016
B( 59-C ,100-H ) :   0.9518 B( 60-C , 61-S ) :   1.1484 B( 60-C , 64-C ) :   1.5410
B( 61-S , 62-C ) :   1.1423 B( 62-C , 63-C ) :   1.5746 B( 62-C , 73-C ) :   1.0573
B( 63-C , 64-C ) :   1.2771 B( 63-C , 69-C ) :   0.9477 B( 64-C , 65-C ) :   0.9493
B( 65-C , 66-F ) :   1.1075 B( 65-C , 67-F ) :   1.1515 B( 65-C , 68-F ) :   1.1611
B( 69-C , 70-F ) :   1.1152 B( 69-C , 71-F ) :   1.1314 B( 69-C , 72-F ) :   1.1508
B( 73-C , 74-C ) :   1.9602 B( 73-C ,101-H ) :   0.9506 B( 74-C ,102-H ) :   0.9572
B( 74-C ,103-H ) :   0.9501

-----------------------------------------------------------------------------
         ABSORPTION SPECTRUM VIA TRANSITION ELECTRIC DIPOLE MOMENTS
-----------------------------------------------------------------------------
State   Energy  Wavelength   fosc         T2         TX        TY        TZ
        (cm-1)    (nm)                  (au**2)     (au)      (au)      (au)
-----------------------------------------------------------------------------
   0    6604.1   1514.2   0.345082511  17.20233   1.14825   3.16257  -2.42529
   1   12382.4    807.6   0.033008884   0.87761  -0.88934  -0.29258   0.03297
   2   17978.1    556.2   0.453684543   8.30779   0.46839  -2.70729   0.87120
   3   19061.5    524.6   0.125722666   2.17136   0.02061   1.40628  -0.43969
   4   21407.6    467.1   0.028958011   0.44532   0.28031   0.59460  -0.11490
   5   23409.8    427.2   0.012616729   0.17743  -0.32430   0.07194   0.25901
   6   24291.6    411.7   0.197503253   2.67666   1.02462  -0.40088  -1.21083
   7   25225.2    396.4   0.067240496   0.87755  -0.76804  -0.30950   0.43804
   8   25784.7    387.8   0.030243892   0.38615  -0.00019  -0.43287   0.44584
   9   25968.4    385.1   0.147448977   1.86927  -0.30587  -1.03327  -0.84147
  10   26303.5    380.2   0.042206693   0.52825  -0.53943  -0.46194  -0.15453
  11   26895.5    371.8   0.315120788   3.85721   1.18369   0.51722  -1.47938
  12   27910.6    358.3   0.051224408   0.60420  -0.65624  -0.33643   0.24570
  13   28719.6    348.2   0.061106199   0.70046  -0.14972  -0.78841   0.23762
  14   29202.0    342.4   0.046816928   0.52780   0.26173  -0.01889   0.67745
  15   29648.5    337.3   0.153336180   1.70262  -0.43795  -0.21339   1.21049
  16   30130.5    331.9   0.001483023   0.01620  -0.02569   0.09799  -0.07708
  17   30859.6    324.0   0.063758956   0.68018  -0.39277  -0.61664  -0.38167
  18   31148.6    321.0   0.149951030   1.58485   0.96233   0.80913  -0.06376
  19   31358.6    318.9   0.021968603   0.23063  -0.12697   0.29527   0.35683
  20   31849.7    314.0   0.604755968   6.25101   0.52998  -1.32496  -2.05295
  21   32367.9    308.9   0.597442228   6.07654  -1.09289   0.35333   2.18112
  22   32834.5    304.6   0.127610995   1.27948   0.66981  -0.14506  -0.89989
  23   32911.2    303.8   0.035890601   0.35902   0.14312  -0.33425  -0.47625
  24   32982.0    303.2   0.008240544   0.08225  -0.08068   0.24703   0.12134
  25   33246.5    300.8   0.186396967   1.84573  -0.72504   0.39339   1.07949
  26   33476.0    298.7   0.149617866   1.47138  -0.74767  -0.91852  -0.26208
  27   34375.3    290.9   0.230081054   2.20348  -0.60687   0.18470   1.34204
  28   34543.1    289.5   0.002233225   0.02128   0.08399   0.11699  -0.02329
  29   34609.5    288.9   0.001540012   0.01465   0.06813   0.02428   0.09705
  30   34950.9    286.1   0.090850988   0.85575  -0.57439  -0.27023   0.67290
  31   35580.7    281.1   0.101466825   0.93883   0.52293  -0.07365  -0.81237
  32   35712.6    280.0   0.001320715   0.01217  -0.10410  -0.03461  -0.01182
  33   36140.5    276.7   0.011258359   0.10255   0.26534  -0.17930   0.00109
  34   36574.3    273.4   0.065329341   0.58804   0.04455  -0.42629  -0.63587
  35   36710.4    272.4   0.036888563   0.33081   0.49904   0.12655  -0.25643
  36   37008.3    270.2   0.032904498   0.29271   0.36744   0.21210  -0.33572
  37   37040.9    270.0   0.183841320   1.63395  -0.56403   0.37075   1.08552
  38   37441.3    267.1   0.081629352   0.71775   0.12199   0.40993  -0.73131
  39   37476.1    266.8   0.046317122   0.40688  -0.06712  -0.30529  -0.55603
  40   37575.3    266.1   0.137744846   1.20684  -0.69853  -0.83902   0.12220
  41   38134.2    262.2   0.118404130   1.02218   0.74689   0.33752  -0.59196
  42   38888.7    257.1   0.028519517   0.24143   0.02182   0.47378  -0.12841
  43   39031.7    256.2   0.066348297   0.55961  -0.16749  -0.09273   0.72316
  44   39375.8    254.0   0.089865332   0.75134  -0.02486   0.76786   0.40140
  45   39843.8    251.0   0.014483750   0.11967  -0.28278   0.13206   0.14924
  46   40053.1    249.7   0.014420612   0.11853   0.28473  -0.02335  -0.19213

FINAL SINGLE POINT ENERGY     -4964.174858397674

DIPOLE MOMENT
-------------
                                X             Y             Z
Electronic contribution:     68.57472      76.86407     -34.52462
Nuclear contribution   :    -69.05691     -81.55909      34.23589
                        -----------------------------------------
Total Dipole Moment    :     -0.48219      -4.69502      -0.28873
                        -----------------------------------------
Magnitude (a.u.)       :      4.72854
Magnitude (Debye)      :     12.01898

Rotational constants in cm-1:     0.001289     0.000329     0.000297
Rotational constants in MHz :    38.646946     9.849872     8.896876

                             ****ORCA TERMINATED NORMALLY****
TOTAL RUN TIME: 0 days 0 hours 12 minutes 14 seconds 399 msec
