                         Program Version 4.2.0 -  RELEASE  -
|  1> # ORCA input file
|  2> # SCF done       -168.117827168286          0.000931068576
|  3> ! CAM-B3LYP def2-SVP def2/J RIJCOSX Grid4 TightSCF
|  4> %maxcore 5000
|  5> %tddft
|  6>     Mode sTDDFT
|  7>     Ethresh 5.0
|  8>     maxcore 5000
|  9> end
| 10>
| 11> %pal
| 12>   nprocs 6
| 13>   end
| 14> * xyz 0 1
| 15>    C      -14.31953         6.76219         2.67507
| 16>    C      -15.60269         6.51451         2.25576
| 17>    C      -16.75446         7.03771         2.87840
| 18>    N      -17.72838         7.44183         3.33215
| 19>    C      -15.94870         5.71488         1.14882
| 20>    N      -16.28796         5.07441         0.25713
| 21>    C      -13.94748         7.55531         3.84022
| 22>    C      -12.53511         7.56837         3.95339
| 23>    C      -11.87569         8.23032         4.95955
| 24>    C      -12.64819         8.90819         5.90864
| 25>    C      -14.05846         8.89109         5.78900
| 26>    C      -14.72436         8.22546         4.76715
| 27>    S      -14.81825         9.79268         7.06489
| 28>    C      -13.25358        10.17305         7.73363
| 29>    C      -12.21389         9.65341         7.03815
| 30>   Br      -13.14009        11.22354         9.28245
| 31>    C      -11.95141         6.78262         2.85441
| 32>    O      -10.77045         6.67124         2.58332
| 33>    C      -13.09630         6.25634         2.08496
| 34>    C      -12.98987         5.55161         0.91683
| 35>    N      -11.88082         4.93289         0.45915
| 36>    C      -10.82508         4.43910         1.18372
| 37>    S      -11.04791         3.80282         2.78015
| 38>    C       -9.41558         3.22998         2.76207
| 39>    N       -8.93906         2.59154         3.91409
| 40>    O       -7.79224         2.18646         3.90542
| 41>    O       -9.71932         2.48938         4.84530
| 42>    C       -8.75579         3.49322         1.59224
| 43>    C       -9.55193         4.19671         0.66731
| 44>    C       -9.06591         4.60713        -0.62631
| 45>    C       -9.54498         5.61494        -1.37936
| 46>    C       -8.98715         5.94277        -2.65921
| 47>    C       -9.40043         6.90167        -3.50265
| 48>    C      -10.56455         7.81408        -3.28652
| 49>    C       -8.66802         7.11241        -4.80355
| 50>    N       -7.24810         6.88790        -4.64780
| 51>    C       -6.39252         6.98868        -5.74165
| 52>    C       -6.76412         6.96523        -7.02494
| 53>    N       -5.91557         6.86684        -8.13843
| 54>    C       -4.48361         6.94067        -7.88254
| 55>    C       -3.62145         6.73690        -9.11893
| 56>    C       -6.40584         7.49801        -9.29718
| 57>    C       -6.99321         8.72885        -9.30796
| 58>    S       -7.53073         9.19972       -10.86676
| 59>    C       -6.98101         7.71931       -11.53543
| 60>    C       -6.40604         6.90351       -10.60512
| 61>    N       -5.90770         5.62405       -10.86658
| 62>    C       -6.43827         4.51570       -10.08844
| 63>    C       -7.81148         4.07747       -10.58854
| 64>    C       -5.22302         5.35826       -12.01685
| 65>    S       -4.43636         6.62489       -12.93922
| 66>    C       -3.69787         5.52734       -14.05256
| 67>    C       -4.02022         4.24112       -13.72199
| 68>    C       -4.87655         4.15462       -12.57292
| 69>    O       -5.17161         2.84829       -12.29385
| 70>    C       -4.51854         2.13163       -13.24477
| 71>    N       -4.64370         0.72376       -13.19248
| 72>    O       -4.05453         0.09176       -14.04989
| 73>    O       -5.32356         0.24703       -12.30778
| 74>    C       -3.81088         2.89362       -14.13134
| 75>    H      -10.79873         8.21931         5.01788
| 76>    H      -15.80019         8.24330         4.72044
| 77>    H      -11.18301         9.78829         7.30988
| 78>    H      -13.84104         5.48003         0.25241
| 79>    H      -11.84334         4.72029        -0.53261
| 80>    H       -7.73284         3.20891         1.42440
| 81>    H       -8.20630         4.05458        -0.98207
| 82>    H      -10.33826         6.24134        -0.99964
| 83>    H       -8.14236         5.34027        -2.96701
| 84>    H      -11.15913         7.53330        -2.42371
| 85>    H      -11.20568         7.80883        -4.16765
| 86>    H      -10.21363         8.83673        -3.14322
| 87>    H       -8.88677         8.12036        -5.19347
| 88>    H       -9.04071         6.38932        -5.53969
| 89>    H       -6.87803         7.32669        -3.81549
| 90>    H       -5.35403         7.00506        -5.45211
| 91>    H       -7.80653         6.95610        -7.30460
| 92>    H       -4.25272         6.15666        -7.15544
| 93>    H       -4.23347         7.91381        -7.43010
| 94>    H       -3.77557         5.74848        -9.54048
| 95>    H       -2.57602         6.82981        -8.83546
| 96>    H       -3.83641         7.48413        -9.87921
| 97>    H       -7.13335         9.38654        -8.47325
| 98>    H       -7.12264         7.52956       -12.57995
| 99>    H       -6.50149         4.84824        -9.05072
|100>    H       -5.73760         3.68251       -10.15005
|101>    H       -8.51337         4.90798       -10.54885
|102>    H       -8.18737         3.26953        -9.96782
|103>    H       -7.74779         3.72147       -11.61358
|104>    H       -3.09831         5.90489       -14.85239
|105>    H       -3.22849         2.52711       -14.95084
|106> *
|107>
|108>                          ****END OF INPUT****

CARTESIAN COORDINATES (ANGSTROEM)
---------------------------------
  C    -14.319530    6.762190    2.675070
  C    -15.602690    6.514510    2.255760
  C    -16.754460    7.037710    2.878400
  N    -17.728380    7.441830    3.332150
  C    -15.948700    5.714880    1.148820
  N    -16.287960    5.074410    0.257130
  C    -13.947480    7.555310    3.840220
  C    -12.535110    7.568370    3.953390
  C    -11.875690    8.230320    4.959550
  C    -12.648190    8.908190    5.908640
  C    -14.058460    8.891090    5.789000
  C    -14.724360    8.225460    4.767150
  S    -14.818250    9.792680    7.064890
  C    -13.253580   10.173050    7.733630
  C    -12.213890    9.653410    7.038150
  Br   -13.140090   11.223540    9.282450
  C    -11.951410    6.782620    2.854410
  O    -10.770450    6.671240    2.583320
  C    -13.096300    6.256340    2.084960
  C    -12.989870    5.551610    0.916830
  N    -11.880820    4.932890    0.459150
  C    -10.825080    4.439100    1.183720
  S    -11.047910    3.802820    2.780150
  C     -9.415580    3.229980    2.762070
  N     -8.939060    2.591540    3.914090
  O     -7.792240    2.186460    3.905420
  O     -9.719320    2.489380    4.845300
  C     -8.755790    3.493220    1.592240
  C     -9.551930    4.196710    0.667310
  C     -9.065910    4.607130   -0.626310
  C     -9.544980    5.614940   -1.379360
  C     -8.987150    5.942770   -2.659210
  C     -9.400430    6.901670   -3.502650
  C    -10.564550    7.814080   -3.286520
  C     -8.668020    7.112410   -4.803550
  N     -7.248100    6.887900   -4.647800
  C     -6.392520    6.988680   -5.741650
  C     -6.764120    6.965230   -7.024940
  N     -5.915570    6.866840   -8.138430
  C     -4.483610    6.940670   -7.882540
  C     -3.621450    6.736900   -9.118930
  C     -6.405840    7.498010   -9.297180
  C     -6.993210    8.728850   -9.307960
  S     -7.530730    9.199720  -10.866760
  C     -6.981010    7.719310  -11.535430
  C     -6.406040    6.903510  -10.605120
  N     -5.907700    5.624050  -10.866580
  C     -6.438270    4.515700  -10.088440
  C     -7.811480    4.077470  -10.588540
  C     -5.223020    5.358260  -12.016850
  S     -4.436360    6.624890  -12.939220
  C     -3.697870    5.527340  -14.052560
  C     -4.020220    4.241120  -13.721990
  C     -4.876550    4.154620  -12.572920
  O     -5.171610    2.848290  -12.293850
  C     -4.518540    2.131630  -13.244770
  N     -4.643700    0.723760  -13.192480
  O     -4.054530    0.091760  -14.049890
  O     -5.323560    0.247030  -12.307780
  C     -3.810880    2.893620  -14.131340
  H    -10.798730    8.219310    5.017880
  H    -15.800190    8.243300    4.720440
  H    -11.183010    9.788290    7.309880
  H    -13.841040    5.480030    0.252410
  H    -11.843340    4.720290   -0.532610
  H     -7.732840    3.208910    1.424400
  H     -8.206300    4.054580   -0.982070
  H    -10.338260    6.241340   -0.999640
  H     -8.142360    5.340270   -2.967010
  H    -11.159130    7.533300   -2.423710
  H    -11.205680    7.808830   -4.167650
  H    -10.213630    8.836730   -3.143220
  H     -8.886770    8.120360   -5.193470
  H     -9.040710    6.389320   -5.539690
  H     -6.878030    7.326690   -3.815490
  H     -5.354030    7.005060   -5.452110
  H     -7.806530    6.956100   -7.304600
  H     -4.252720    6.156660   -7.155440
  H     -4.233470    7.913810   -7.430100
  H     -3.775570    5.748480   -9.540480
  H     -2.576020    6.829810   -8.835460
  H     -3.836410    7.484130   -9.879210
  H     -7.133350    9.386540   -8.473250
  H     -7.122640    7.529560  -12.579950
  H     -6.501490    4.848240   -9.050720
  H     -5.737600    3.682510  -10.150050
  H     -8.513370    4.907980  -10.548850
  H     -8.187370    3.269530   -9.967820
  H     -7.747790    3.721470  -11.613580
  H     -3.098310    5.904890  -14.852390
  H     -3.228490    2.527110  -14.950840

 Total Charge           Charge          ....    0
 Multiplicity           Mult            ....    1
 Number of Electrons    NEL             ....  480
 Basis Dimension        Dim             .... 1029

ORBITAL ENERGIES
----------------

  NO   OCC          E(Eh)            E(eV)
   0   2.0000    -482.887467    -13140.0360
   1   2.0000     -88.983495     -2421.3640
   2   2.0000     -88.977956     -2421.2133
   3   2.0000     -88.965998     -2420.8879
   4   2.0000     -88.958128     -2420.6737
   5   2.0000     -62.565170     -1702.4848
   6   2.0000     -56.399125     -1534.6982
   7   2.0000     -56.396401     -1534.6241
   8   2.0000     -56.396371     -1534.6233
   9   2.0000     -19.298033      -525.1262
  10   2.0000     -19.240086      -523.5494
  11   2.0000     -19.238190      -523.4978
  12   2.0000     -19.238108      -523.4955
  13   2.0000     -19.237726      -523.4851
  14   2.0000     -19.220845      -523.0258
  15   2.0000     -14.651072      -398.6759
  16   2.0000     -14.649486      -398.6328
  17   2.0000     -14.506307      -394.7367
  18   2.0000     -14.444118      -393.0444
  19   2.0000     -14.423356      -392.4795
  20   2.0000     -14.422689      -392.4613
  21   2.0000     -14.417120      -392.3098
  22   2.0000     -14.413910      -392.2224
  23   2.0000     -10.381409      -282.4925
  24   2.0000     -10.372541      -282.2512
  25   2.0000     -10.371803      -282.2311
  26   2.0000     -10.367800      -282.1222
  27   2.0000     -10.361280      -281.9448
  28   2.0000     -10.348753      -281.6039
  29   2.0000     -10.344947      -281.5003
  30   2.0000     -10.344465      -281.4872
  31   2.0000     -10.344074      -281.4766
  32   2.0000     -10.329534      -281.0809
  33   2.0000     -10.328004      -281.0393
  34   2.0000     -10.325723      -280.9772
  35   2.0000     -10.320451      -280.8338
  36   2.0000     -10.313460      -280.6435
  37   2.0000     -10.311298      -280.5847
  38   2.0000     -10.310347      -280.5588
  39   2.0000     -10.309009      -280.5224
  40   2.0000     -10.307715      -280.4872
  41   2.0000     -10.307364      -280.4776
  42   2.0000     -10.306374      -280.4507
  43   2.0000     -10.304878      -280.4100
  44   2.0000     -10.304029      -280.3869
  45   2.0000     -10.303568      -280.3743
  46   2.0000     -10.302581      -280.3475
  47   2.0000     -10.298879      -280.2468
  48   2.0000     -10.298444      -280.2349
  49   2.0000     -10.295996      -280.1683
  50   2.0000     -10.295875      -280.1650
  51   2.0000     -10.293245      -280.0934
  52   2.0000     -10.292880      -280.0835
  53   2.0000     -10.291884      -280.0564
  54   2.0000     -10.291632      -280.0496
  55   2.0000     -10.290864      -280.0286
  56   2.0000     -10.290264      -280.0123
  57   2.0000     -10.290066      -280.0069
  58   2.0000     -10.287329      -279.9325
  59   2.0000     -10.282491      -279.8008
  60   2.0000     -10.280143      -279.7369
  61   2.0000     -10.271875      -279.5119
  62   2.0000     -10.256345      -279.0893
  63   2.0000     -10.253054      -278.9998
  64   2.0000      -8.794590      -239.3130
  65   2.0000      -8.078792      -219.8351
  66   2.0000      -8.073939      -219.7031
  67   2.0000      -8.060614      -219.3404
  68   2.0000      -8.054110      -219.1635
  69   2.0000      -6.630912      -180.4363
  70   2.0000      -6.616311      -180.0390
  71   2.0000      -6.616112      -180.0336
  72   2.0000      -6.048360      -164.5842
  73   2.0000      -6.044017      -164.4661
  74   2.0000      -6.043609      -164.4550
  75   2.0000      -6.040345      -164.3661
  76   2.0000      -6.039354      -164.3392
  77   2.0000      -6.035180      -164.2256
  78   2.0000      -6.030331      -164.0936
  79   2.0000      -6.025715      -163.9680
  80   2.0000      -6.023362      -163.9040
  81   2.0000      -6.022475      -163.8799
  82   2.0000      -6.019172      -163.7900
  83   2.0000      -6.016399      -163.7145
  84   2.0000      -2.746786       -74.7439
  85   2.0000      -2.742688       -74.6323
  86   2.0000      -2.742522       -74.6278
  87   2.0000      -2.730935       -74.3125
  88   2.0000      -2.730914       -74.3119
  89   2.0000      -1.322400       -35.9843
  90   2.0000      -1.319189       -35.8970
  91   2.0000      -1.215337       -33.0710
  92   2.0000      -1.138679       -30.9850
  93   2.0000      -1.138345       -30.9759
  94   2.0000      -1.137887       -30.9635
  95   2.0000      -1.103162       -30.0186
  96   2.0000      -1.070782       -29.1375
  97   2.0000      -1.038817       -28.2677
  98   2.0000      -1.026702       -27.9380
  99   2.0000      -1.017429       -27.6857
 100   2.0000      -1.013564       -27.5805
 101   2.0000      -1.007669       -27.4201
 102   2.0000      -0.999022       -27.1848
 103   2.0000      -0.992511       -27.0076
 104   2.0000      -0.979205       -26.6455
 105   2.0000      -0.966891       -26.3104
 106   2.0000      -0.945514       -25.7287
 107   2.0000      -0.930757       -25.3272
 108   2.0000      -0.924965       -25.1696
 109   2.0000      -0.912162       -24.8212
 110   2.0000      -0.910732       -24.7823
 111   2.0000      -0.894028       -24.3277
 112   2.0000      -0.888920       -24.1888
 113   2.0000      -0.881664       -23.9913
 114   2.0000      -0.880843       -23.9690
 115   2.0000      -0.855605       -23.2822
 116   2.0000      -0.852359       -23.1939
 117   2.0000      -0.850115       -23.1328
 118   2.0000      -0.847756       -23.0686
 119   2.0000      -0.840032       -22.8584
 120   2.0000      -0.832268       -22.6472
 121   2.0000      -0.828055       -22.5325
 122   2.0000      -0.802307       -21.8319
 123   2.0000      -0.795058       -21.6346
 124   2.0000      -0.789941       -21.4954
 125   2.0000      -0.784009       -21.3340
 126   2.0000      -0.773416       -21.0457
 127   2.0000      -0.766498       -20.8575
 128   2.0000      -0.762646       -20.7526
 129   2.0000      -0.751877       -20.4596
 130   2.0000      -0.720342       -19.6015
 131   2.0000      -0.717540       -19.5253
 132   2.0000      -0.712888       -19.3987
 133   2.0000      -0.710735       -19.3401
 134   2.0000      -0.698534       -19.0081
 135   2.0000      -0.696692       -18.9580
 136   2.0000      -0.689981       -18.7753
 137   2.0000      -0.689025       -18.7493
 138   2.0000      -0.678603       -18.4657
 139   2.0000      -0.669645       -18.2220
 140   2.0000      -0.661644       -18.0042
 141   2.0000      -0.650058       -17.6890
 142   2.0000      -0.645799       -17.5731
 143   2.0000      -0.636948       -17.3322
 144   2.0000      -0.635934       -17.3047
 145   2.0000      -0.635552       -17.2942
 146   2.0000      -0.631716       -17.1899
 147   2.0000      -0.630863       -17.1666
 148   2.0000      -0.630375       -17.1534
 149   2.0000      -0.626429       -17.0460
 150   2.0000      -0.624684       -16.9985
 151   2.0000      -0.610949       -16.6248
 152   2.0000      -0.608945       -16.5702
 153   2.0000      -0.602653       -16.3990
 154   2.0000      -0.598119       -16.2756
 155   2.0000      -0.594768       -16.1845
 156   2.0000      -0.586067       -15.9477
 157   2.0000      -0.582946       -15.8628
 158   2.0000      -0.577667       -15.7191
 159   2.0000      -0.574177       -15.6242
 160   2.0000      -0.567910       -15.4536
 161   2.0000      -0.564756       -15.3678
 162   2.0000      -0.560588       -15.2544
 163   2.0000      -0.558659       -15.2019
 164   2.0000      -0.553307       -15.0562
 165   2.0000      -0.552383       -15.0311
 166   2.0000      -0.549408       -14.9501
 167   2.0000      -0.547334       -14.8937
 168   2.0000      -0.544793       -14.8246
 169   2.0000      -0.539344       -14.6763
 170   2.0000      -0.534142       -14.5347
 171   2.0000      -0.529677       -14.4132
 172   2.0000      -0.528711       -14.3870
 173   2.0000      -0.525954       -14.3119
 174   2.0000      -0.521229       -14.1834
 175   2.0000      -0.520238       -14.1564
 176   2.0000      -0.514325       -13.9955
 177   2.0000      -0.513087       -13.9618
 178   2.0000      -0.510498       -13.8914
 179   2.0000      -0.509334       -13.8597
 180   2.0000      -0.506642       -13.7864
 181   2.0000      -0.502026       -13.6608
 182   2.0000      -0.498060       -13.5529
 183   2.0000      -0.494779       -13.4636
 184   2.0000      -0.493805       -13.4371
 185   2.0000      -0.490858       -13.3569
 186   2.0000      -0.487243       -13.2586
 187   2.0000      -0.479699       -13.0533
 188   2.0000      -0.475303       -12.9336
 189   2.0000      -0.472738       -12.8639
 190   2.0000      -0.467764       -12.7285
 191   2.0000      -0.465901       -12.6778
 192   2.0000      -0.462032       -12.5725
 193   2.0000      -0.461574       -12.5601
 194   2.0000      -0.458656       -12.4807
 195   2.0000      -0.457838       -12.4584
 196   2.0000      -0.455296       -12.3892
 197   2.0000      -0.454804       -12.3759
 198   2.0000      -0.452569       -12.3150
 199   2.0000      -0.449915       -12.2428
 200   2.0000      -0.447464       -12.1761
 201   2.0000      -0.442847       -12.0505
 202   2.0000      -0.442136       -12.0311
 203   2.0000      -0.441197       -12.0056
 204   2.0000      -0.437398       -11.9022
 205   2.0000      -0.434917       -11.8347
 206   2.0000      -0.431873       -11.7519
 207   2.0000      -0.430159       -11.7052
 208   2.0000      -0.426362       -11.6019
 209   2.0000      -0.423341       -11.5197
 210   2.0000      -0.422131       -11.4868
 211   2.0000      -0.419050       -11.4029
 212   2.0000      -0.417541       -11.3619
 213   2.0000      -0.414447       -11.2777
 214   2.0000      -0.411748       -11.2042
 215   2.0000      -0.399132       -10.8609
 216   2.0000      -0.398160       -10.8345
 217   2.0000      -0.390421       -10.6239
 218   2.0000      -0.386284       -10.5113
 219   2.0000      -0.385305       -10.4847
 220   2.0000      -0.378086       -10.2883
 221   2.0000      -0.376944       -10.2572
 222   2.0000      -0.376814       -10.2536
 223   2.0000      -0.373294       -10.1578
 224   2.0000      -0.367569       -10.0021
 225   2.0000      -0.366247        -9.9661
 226   2.0000      -0.363927        -9.9030
 227   2.0000      -0.354083        -9.6351
 228   2.0000      -0.353309        -9.6140
 229   2.0000      -0.346663        -9.4332
 230   2.0000      -0.328897        -8.9497
 231   2.0000      -0.319828        -8.7030
 232   2.0000      -0.318512        -8.6672
 233   2.0000      -0.312535        -8.5045
 234   2.0000      -0.308610        -8.3977
 235   2.0000      -0.305083        -8.3017
 236   2.0000      -0.296188        -8.0597
 237   2.0000      -0.269552        -7.3349
 238   2.0000      -0.242108        -6.5881
 239   2.0000      -0.236043        -6.4231
 240   0.0000      -0.088993        -2.4216
 241   0.0000      -0.066346        -1.8054
 242   0.0000      -0.058345        -1.5876
 243   0.0000      -0.043247        -1.1768
 244   0.0000      -0.023254        -0.6328

MULLIKEN ATOMIC CHARGES
-----------------------
   0 C :    0.311412
   1 C :   -0.345606
   2 C :   -0.185526
   3 N :    0.154217
   4 C :   -0.207971
   5 N :    0.144569
   6 C :    0.012519
   7 C :   -0.000782
   8 C :   -0.071306
   9 C :    0.117570
  10 C :   -0.091963
  11 C :   -0.022238
  12 S :    0.188660
  13 C :   -0.122080
  14 C :    0.038347
  15 Br:    0.026174
  16 C :    0.138027
  17 O :   -0.154961
  18 C :   -0.151550
  19 C :    0.027245
  20 N :   -0.019081
  21 C :   -0.077779
  22 S :    0.195337
  23 C :   -0.002140
  24 N :    0.275267
  25 O :   -0.248232
  26 O :   -0.260759
  27 C :    0.008505
  28 C :    0.139612
  29 C :   -0.040860
  30 C :   -0.011490
  31 C :    0.008334
  32 C :   -0.237708
  33 C :    0.101454
  34 C :    0.225363
  35 N :   -0.194104
  36 C :   -0.008970
  37 C :    0.041932
  38 N :   -0.257027
  39 C :    0.090909
  40 C :    0.026470
  41 C :    0.105738
  42 C :   -0.150545
  43 S :    0.121511
  44 C :   -0.161260
  45 C :    0.121470
  46 N :   -0.204723
  47 C :    0.088200
  48 C :    0.016690
  49 C :   -0.147719
  50 S :    0.111739
  51 C :   -0.170065
  52 C :    0.146824
  53 C :    0.194212
  54 O :   -0.212429
  55 C :    0.245593
  56 N :    0.271615
  57 O :   -0.250664
  58 O :   -0.234714
  59 C :   -0.084068
  60 H :   -0.008066
  61 H :   -0.004656
  62 H :   -0.001899
  63 H :    0.043907
  64 H :    0.159415
  65 H :    0.008231
  66 H :   -0.006540
  67 H :   -0.003894
  68 H :   -0.013614
  69 H :   -0.001098
  70 H :    0.028467
  71 H :    0.032980
  72 H :   -0.010300
  73 H :    0.030229
  74 H :    0.115144
  75 H :   -0.005384
  76 H :    0.000308
  77 H :    0.017747
  78 H :   -0.006289
  79 H :    0.026894
  80 H :    0.013286
  81 H :    0.029927
  82 H :    0.011554
  83 H :    0.019034
  84 H :    0.038633
  85 H :    0.035356
  86 H :    0.017392
  87 H :    0.020575
  88 H :    0.016695
  89 H :    0.020156
  90 H :    0.008618
Sum of atomic charges:   -0.0000000

LOEWDIN ATOMIC CHARGES
----------------------
   0 C :    0.082475
   1 C :   -0.150924
   2 C :   -0.019859
   3 N :   -0.053992
   4 C :   -0.022205
   5 N :   -0.058750
   6 C :   -0.022820
   7 C :   -0.048991
   8 C :    0.022637
   9 C :   -0.031505
  10 C :   -0.144850
  11 C :   -0.007547
  12 S :    0.434683
  13 C :   -0.270774
  14 C :   -0.069837
  15 Br:    0.138918
  16 C :    0.068271
  17 O :   -0.156868
  18 C :   -0.152258
  19 C :    0.098471
  20 N :    0.073037
  21 C :   -0.105646
  22 S :    0.490149
  23 C :   -0.199361
  24 N :    0.274094
  25 O :   -0.213311
  26 O :   -0.227674
  27 C :   -0.001609
  28 C :   -0.078644
  29 C :   -0.028778
  30 C :   -0.028309
  31 C :   -0.054632
  32 C :   -0.026495
  33 C :   -0.046976
  34 C :    0.037607
  35 N :   -0.053197
  36 C :   -0.046072
  37 C :   -0.052759
  38 N :   -0.057379
  39 C :    0.040048
  40 C :   -0.059953
  41 C :   -0.034460
  42 C :   -0.201556
  43 S :    0.443296
  44 C :   -0.218668
  45 C :   -0.040730
  46 N :   -0.031387
  47 C :    0.038381
  48 C :   -0.063266
  49 C :   -0.138381
  50 S :    0.453670
  51 C :   -0.222887
  52 C :   -0.071936
  53 C :   -0.034482
  54 O :   -0.017684
  55 C :    0.025648
  56 N :    0.272133
  57 O :   -0.212067
  58 O :   -0.196243
  59 C :   -0.012866
  60 H :    0.041835
  61 H :    0.041556
  62 H :    0.039386
  63 H :    0.044164
  64 H :    0.104263
  65 H :    0.045487
  66 H :    0.032978
  67 H :    0.019920
  68 H :    0.027152
  69 H :    0.023885
  70 H :    0.037333
  71 H :    0.039809
  72 H :    0.007396
  73 H :    0.034509
  74 H :    0.068789
  75 H :    0.019677
  76 H :    0.017709
  77 H :    0.021206
  78 H :    0.004806
  79 H :    0.027313
  80 H :    0.029932
  81 H :    0.023659
  82 H :    0.023352
  83 H :    0.018909
  84 H :    0.027100
  85 H :    0.026153
  86 H :    0.023563
  87 H :    0.030442
  88 H :    0.023572
  89 H :    0.023781
  90 H :    0.045433

  Mayer bond orders larger than 0.100000
B(  0-C ,  1-C ) :   1.6252 B(  0-C ,  6-C ) :   1.0113 B(  0-C , 18-C ) :   1.1066
B(  1-C ,  2-C ) :   1.1428 B(  1-C ,  4-C ) :   1.1449 B(  2-C ,  3-N ) :   2.9707
B(  4-C ,  5-N ) :   2.9701 B(  6-C ,  7-C ) :   1.2743 B(  6-C , 11-C ) :   1.4108
B(  7-C ,  8-C ) :   1.4282 B(  7-C , 16-C ) :   0.9452 B(  8-C ,  9-C ) :   1.2413
B(  8-C , 60-H ) :   1.0179 B(  9-C , 10-C ) :   1.3068 B(  9-C , 14-C ) :   1.1650
B( 10-C , 11-C ) :   1.3292 B( 10-C , 12-S ) :   1.0870 B( 11-C , 61-H ) :   0.9798
B( 12-S , 13-C ) :   1.0882 B( 13-C , 14-C ) :   1.6146 B( 13-C , 15-Br) :   1.0201
B( 14-C , 62-H ) :   1.0008 B( 16-C , 17-O ) :   2.2086 B( 16-C , 18-C ) :   0.9499
B( 18-C , 19-C ) :   1.5146 B( 19-C , 20-N ) :   1.2978 B( 19-C , 63-H ) :   0.9337
B( 20-N , 21-C ) :   1.0985 B( 20-N , 64-H ) :   0.9025 B( 21-C , 22-S ) :   1.1426
B( 21-C , 28-C ) :   1.4332 B( 22-S , 23-C ) :   1.1128 B( 23-C , 24-N ) :   0.9624
B( 23-C , 27-C ) :   1.4884 B( 24-N , 25-O ) :   1.5385 B( 24-N , 26-O ) :   1.5165
B( 25-O , 26-O ) :   0.2618 B( 27-C , 28-C ) :   1.2176 B( 27-C , 65-H ) :   1.0056
B( 28-C , 29-C ) :   1.0520 B( 29-C , 30-C ) :   1.7169 B( 29-C , 66-H ) :   0.9761
B( 30-C , 31-C ) :   1.0847 B( 30-C , 67-H ) :   0.9699 B( 31-C , 32-C ) :   1.7844
B( 31-C , 68-H ) :   0.9719 B( 32-C , 33-C ) :   1.0859 B( 32-C , 34-C ) :   1.0049
B( 33-C , 69-H ) :   0.9533 B( 33-C , 70-H ) :   0.9490 B( 33-C , 71-H ) :   0.9445
B( 34-C , 35-N ) :   1.0382 B( 34-C , 72-H ) :   0.9356 B( 34-C , 73-H ) :   0.9111
B( 35-N , 36-C ) :   1.1173 B( 35-N , 74-H ) :   0.9324 B( 36-C , 37-C ) :   1.7593
B( 36-C , 75-H ) :   0.9596 B( 37-C , 38-N ) :   1.0405 B( 37-C , 76-H ) :   0.9590
B( 38-N , 39-C ) :   0.9865 B( 38-N , 41-C ) :   1.0491 B( 39-C , 40-C ) :   1.1096
B( 39-C , 77-H ) :   0.9423 B( 39-C , 78-H ) :   0.9418 B( 40-C , 79-H ) :   0.9633
B( 40-C , 80-H ) :   0.9560 B( 40-C , 81-H ) :   0.9570 B( 41-C , 42-C ) :   1.5461
B( 41-C , 45-C ) :   1.2866 B( 42-C , 43-S ) :   1.1650 B( 42-C , 82-H ) :   0.9636
B( 43-S , 44-C ) :   1.1613 B( 44-C , 45-C ) :   1.5285 B( 44-C , 83-H ) :   0.9662
B( 45-C , 46-N ) :   1.0281 B( 46-N , 47-C ) :   0.9611 B( 46-N , 49-C ) :   1.1161
B( 47-C , 48-C ) :   1.1144 B( 47-C , 84-H ) :   0.9360 B( 47-C , 85-H ) :   0.9384
B( 48-C , 86-H ) :   0.9656 B( 48-C , 87-H ) :   0.9644 B( 48-C , 88-H ) :   0.9640
B( 49-C , 50-S ) :   1.1452 B( 49-C , 51-C ) :   0.1064 B( 49-C , 53-C ) :   1.4645
B( 50-S , 51-C ) :   1.1176 B( 51-C , 52-C ) :   1.4704 B( 51-C , 89-H ) :   0.9805
B( 52-C , 53-C ) :   1.2053 B( 52-C , 59-C ) :   1.0524 B( 53-C , 54-O ) :   1.0351
B( 54-O , 55-C ) :   1.1317 B( 55-C , 56-N ) :   0.9145 B( 55-C , 59-C ) :   1.5789
B( 56-N , 57-O ) :   1.5328 B( 56-N , 58-O ) :   1.5130 B( 57-O , 58-O ) :   0.2793
B( 59-C , 90-H ) :   1.0271

-----------------------------------------------------------------------------
         ABSORPTION SPECTRUM VIA TRANSITION ELECTRIC DIPOLE MOMENTS
-----------------------------------------------------------------------------
State   Energy  Wavelength   fosc         T2         TX        TY        TZ
        (cm-1)    (nm)                  (au**2)     (au)      (au)      (au)
-----------------------------------------------------------------------------
   0   20837.8    479.9   0.068996526   1.09006  -0.64292  -0.32445   0.75594
   1   22031.4    453.9   0.193474209   2.89105   1.33042  -0.74477  -0.75257
   2   22396.2    446.5   0.304723187   4.47927   1.67608  -0.96726  -0.85699
   3   25827.0    387.2   0.026532207   0.33820  -0.28765   0.45557   0.21890
   4   26119.4    382.9   0.003687753   0.04648  -0.04965   0.16860   0.12486
   5   26719.1    374.3   0.000191878   0.00236  -0.03592   0.03277  -0.00032
   6   27151.7    368.3   0.000891275   0.01081   0.08671  -0.05573  -0.01347
   7   28612.2    349.5   0.322246346   3.70776  -0.73697  -0.90669  -1.53054
   8   29556.3    338.3   0.044907042   0.50020   0.08109   0.62082   0.32894
   9   29770.9    335.9   0.006878291   0.07606  -0.16011   0.22455   0.00141
  10   29828.4    335.3   0.178256938   1.96740   0.49668  -1.23995  -0.42804
  11   30744.0    325.3   0.045175044   0.48374   0.28470  -0.12618  -0.62191
  12   31408.4    318.4   0.338849492   3.55170  -0.29858   0.32297  -1.83255
  13   31676.7    315.7   0.000357385   0.00371  -0.00105  -0.03359   0.05084
  14   31815.8    314.3   0.073130374   0.75671  -0.55235  -0.57221  -0.35240
  15   32741.8    305.4   0.003844966   0.03866  -0.06959   0.04738  -0.17769
  16   32749.0    305.4   0.000051946   0.00052   0.00444  -0.02179  -0.00524
  17   33555.2    298.0   0.398100831   3.90579  -1.44286  -0.35981  -1.30172
  18   33641.3    297.3   0.126109854   1.23411  -0.56066  -0.88998  -0.35737
  19   34021.2    293.9   0.077071832   0.74580  -0.39307   0.74488  -0.19089
  20   34481.7    290.0   0.294515007   2.81187   0.64295  -1.44426  -0.55909
  21   36194.1    276.3   0.330220373   3.00360   0.02484   1.57657   0.71932
  22   36318.0    275.3   0.008418983   0.07632  -0.00345   0.16620   0.22064
  23   36443.1    274.4   0.744929000   6.72938   0.54343   1.71218  -1.87149
  24   37474.5    266.8   0.001007929   0.00885   0.02652  -0.08902   0.01506
  25   37550.9    266.3   0.026245941   0.23010   0.01182   0.47348  -0.07601
  26   38488.8    259.8   0.125968618   1.07747   0.85980  -0.31745  -0.48727
  27   38564.2    259.3   0.000279191   0.00238   0.00207   0.04786   0.00943
  28   38870.5    257.3   0.057835827   0.48984  -0.64114   0.22781  -0.16396
  29   38932.7    256.9   0.001854782   0.01568   0.11373   0.05196   0.00700
  30   39100.6    255.8   0.101842118   0.85747  -0.01093  -0.92400  -0.05972
  31   40096.5    249.4   0.117821074   0.96737   0.07460  -0.29745  -0.93452

FINAL SINGLE POINT ENERGY     -6633.221580117218

DIPOLE MOMENT
-------------
                                X             Y             Z
Electronic contribution:    -80.36693      50.23843     197.72119
Nuclear contribution   :     81.85288     -46.67970    -198.66338
                        -----------------------------------------
Total Dipole Moment    :      1.48595       3.55873      -0.94220
                        -----------------------------------------
Magnitude (a.u.)       :      3.96993
Magnitude (Debye)      :     10.09076

Rotational constants in cm-1:     0.002003     0.000233     0.000225
Rotational constants in MHz :    60.049509     6.987015     6.759494

                             ****ORCA TERMINATED NORMALLY****
TOTAL RUN TIME: 0 days 0 hours 7 minutes 2 seconds 803 msec
