                         Program Version 4.2.0 -  RELEASE  -
|  1> # ORCA input file
|  2> # SCF done       -191.941702344403          0.000651965526
|  3> ! CAM-B3LYP def2-SVP def2/J RIJCOSX Grid4 TightSCF
|  4> %maxcore 5000
|  5> %tddft
|  6>     Mode sTDDFT
|  7>     Ethresh 5.0
|  8>     maxcore 5000
|  9> end
| 10>
| 11> %pal
| 12>   nprocs 6
| 13>   end
| 14> * xyz 0 1
| 15>    C       -2.03556         5.95396        -2.29234
| 16>    C       -1.20932         4.86222        -2.19736
| 17>    C       -0.14144         4.59880        -3.07950
| 18>    N        0.74166         4.32781        -3.76170
| 19>    C       -1.30381         3.83892        -1.23178
| 20>    N       -1.30765         2.95688        -0.49594
| 21>    C       -1.94976         6.98412        -3.32447
| 22>    C       -2.99909         7.91378        -3.12574
| 23>    C       -3.19329         9.00220        -3.94098
| 24>    C       -2.30520         9.18501        -5.00575
| 25>    C       -1.25664         8.25455        -5.19508
| 26>    C       -1.06261         7.15235        -4.37081
| 27>    S       -0.27261         8.67239        -6.56505
| 28>    C       -1.27142        10.07128        -6.86015
| 29>    C       -2.28949        10.22027        -5.98031
| 30>   Br       -0.87312        11.20283        -8.30211
| 31>    C       -3.78443         7.51477        -1.94294
| 32>    O       -4.73948         8.11983        -1.49003
| 33>    C       -3.15343         6.28196        -1.43219
| 34>    C       -3.55386         5.60494        -0.30545
| 35>    C       -4.67662         5.94460         0.46611
| 36>    C       -4.99464         5.31769         1.63709
| 37>    C       -6.10428         5.69798         2.41364
| 38>    O       -6.93546         6.68362         1.98944
| 39>    C       -7.86253         6.91056         2.94762
| 40>    C       -7.64351         6.03961         4.01160
| 41>    C       -6.52630         5.25355         3.67094
| 42>    O       -5.96892         4.27441         4.39562
| 43>    O       -8.33019         5.90651         5.17681
| 44>    C       -8.84621         7.91778         2.75870
| 45>    C       -8.99722         8.60046         1.59772
| 46>    C       -9.95684         9.63452         1.43092
| 47>    C      -10.15174        10.32473         0.28826
| 48>    C      -11.13268        11.38525         0.19577
| 49>    N      -11.22898        12.05374        -0.95911
| 50>    C      -12.13934        13.00759        -1.02068
| 51>    C      -12.97640        13.32285         0.04087
| 52>    C      -12.79817        12.58249         1.21723
| 53>    N      -11.87174        11.62505         1.27000
| 54>    C      -13.57457        12.78812         2.42265
| 55>    C      -13.24274        12.08231         3.52885
| 56>    C      -13.82940        12.08528         4.81039
| 57>    C      -13.28142        11.33295         5.81647
| 58>    C      -13.69270        11.18058         7.16671
| 59>    C      -12.88483        10.37985         7.91526
| 60>    C      -11.77579         9.86467         7.20173
| 61>    S      -11.82352        10.38904         5.54004
| 62>    C      -10.69607         9.12626         7.64345
| 63>    C      -10.36009         8.62983         8.91990
| 64>    C       -9.10890         8.09102         8.98816
| 65>    C       -8.36666         8.16928         7.78290
| 66>    S       -9.38146         8.82412         6.52229
| 67>    C       -7.05851         7.77308         7.58721
| 68>    C       -6.24284         7.96949         6.46931
| 69>    C       -6.29407         8.86071         5.41482
| 70>    C       -6.95954        10.11082         5.18733
| 71>    C       -7.46001        10.97053         6.14226
| 72>    C       -8.17449        12.14961         5.86130
| 73>    N       -8.81359        13.09269         5.71143
| 74>    C       -7.26530        10.79488         7.52330
| 75>    N       -7.11641        10.69088         8.65768
| 76>    C       -6.86816        10.41576         3.76280
| 77>    C       -5.99107         9.48229         3.15710
| 78>    C       -5.54282         8.51768         4.17790
| 79>    O       -4.76630         7.59544         4.03690
| 80>    C       -5.69417         9.51338         1.81744
| 81>    C       -6.30614        10.50258         1.04058
| 82>    C       -7.16550        11.44170         1.65704
| 83>    C       -7.45824        11.41530         3.01539
| 84>    S       -7.80084        12.57666         0.50679
| 85>    C       -6.93463        11.76206        -0.77373
| 86>    C       -6.19535        10.70729        -0.36164
| 87>   Br       -7.09025        12.38691        -2.53090
| 88>    H       -4.00474         9.69228        -3.76877
| 89>    H       -0.24727         6.47428        -4.55844
| 90>    H       -3.00103        11.02506        -6.01378
| 91>    H       -2.97142         4.75594         0.02777
| 92>    H       -5.31279         6.74523         0.12012
| 93>    H       -4.38173         4.52313         2.03690
| 94>    H       -6.43250         4.21385         5.24183
| 95>    H       -9.02201         6.57703         5.22788
| 96>    H       -9.49052         8.13684         3.60067
| 97>    H       -8.36021         8.35356         0.76015
| 98>    H      -10.56439         9.88998         2.28904
| 99>    H       -9.58713        10.11730        -0.60881
|100>    H      -12.19887        13.53847        -1.96268
|101>    H      -13.71867        14.10097        -0.03215
|102>    H      -14.38387        13.50290         2.39931
|103>    H      -12.39254        11.42128         3.40356
|104>    H      -14.70760        12.68216         5.01271
|105>    H      -14.56959        11.67791         7.54229
|106>    H      -13.03821        10.16252         8.95722
|107>    H      -11.03661         8.70196         9.75226
|108>    H       -8.66861         7.69257         9.88426
|109>    H       -6.62922         7.19088         8.39290
|110>    H       -5.41712         7.26764         6.37543
|111>    H       -5.02237         8.79758         1.37195
|112>    H       -8.13321        12.13881         3.44129
|113>    H       -5.61351        10.07191        -1.00551
|114> *
|115>
|116>                          ****END OF INPUT****

CARTESIAN COORDINATES (ANGSTROEM)
---------------------------------
  C     -2.035560    5.953960   -2.292340
  C     -1.209320    4.862220   -2.197360
  C     -0.141440    4.598800   -3.079500
  N      0.741660    4.327810   -3.761700
  C     -1.303810    3.838920   -1.231780
  N     -1.307650    2.956880   -0.495940
  C     -1.949760    6.984120   -3.324470
  C     -2.999090    7.913780   -3.125740
  C     -3.193290    9.002200   -3.940980
  C     -2.305200    9.185010   -5.005750
  C     -1.256640    8.254550   -5.195080
  C     -1.062610    7.152350   -4.370810
  S     -0.272610    8.672390   -6.565050
  C     -1.271420   10.071280   -6.860150
  C     -2.289490   10.220270   -5.980310
  Br    -0.873120   11.202830   -8.302110
  C     -3.784430    7.514770   -1.942940
  O     -4.739480    8.119830   -1.490030
  C     -3.153430    6.281960   -1.432190
  C     -3.553860    5.604940   -0.305450
  C     -4.676620    5.944600    0.466110
  C     -4.994640    5.317690    1.637090
  C     -6.104280    5.697980    2.413640
  O     -6.935460    6.683620    1.989440
  C     -7.862530    6.910560    2.947620
  C     -7.643510    6.039610    4.011600
  C     -6.526300    5.253550    3.670940
  O     -5.968920    4.274410    4.395620
  O     -8.330190    5.906510    5.176810
  C     -8.846210    7.917780    2.758700
  C     -8.997220    8.600460    1.597720
  C     -9.956840    9.634520    1.430920
  C    -10.151740   10.324730    0.288260
  C    -11.132680   11.385250    0.195770
  N    -11.228980   12.053740   -0.959110
  C    -12.139340   13.007590   -1.020680
  C    -12.976400   13.322850    0.040870
  C    -12.798170   12.582490    1.217230
  N    -11.871740   11.625050    1.270000
  C    -13.574570   12.788120    2.422650
  C    -13.242740   12.082310    3.528850
  C    -13.829400   12.085280    4.810390
  C    -13.281420   11.332950    5.816470
  C    -13.692700   11.180580    7.166710
  C    -12.884830   10.379850    7.915260
  C    -11.775790    9.864670    7.201730
  S    -11.823520   10.389040    5.540040
  C    -10.696070    9.126260    7.643450
  C    -10.360090    8.629830    8.919900
  C     -9.108900    8.091020    8.988160
  C     -8.366660    8.169280    7.782900
  S     -9.381460    8.824120    6.522290
  C     -7.058510    7.773080    7.587210
  C     -6.242840    7.969490    6.469310
  C     -6.294070    8.860710    5.414820
  C     -6.959540   10.110820    5.187330
  C     -7.460010   10.970530    6.142260
  C     -8.174490   12.149610    5.861300
  N     -8.813590   13.092690    5.711430
  C     -7.265300   10.794880    7.523300
  N     -7.116410   10.690880    8.657680
  C     -6.868160   10.415760    3.762800
  C     -5.991070    9.482290    3.157100
  C     -5.542820    8.517680    4.177900
  O     -4.766300    7.595440    4.036900
  C     -5.694170    9.513380    1.817440
  C     -6.306140   10.502580    1.040580
  C     -7.165500   11.441700    1.657040
  C     -7.458240   11.415300    3.015390
  S     -7.800840   12.576660    0.506790
  C     -6.934630   11.762060   -0.773730
  C     -6.195350   10.707290   -0.361640
  Br    -7.090250   12.386910   -2.530900
  H     -4.004740    9.692280   -3.768770
  H     -0.247270    6.474280   -4.558440
  H     -3.001030   11.025060   -6.013780
  H     -2.971420    4.755940    0.027770
  H     -5.312790    6.745230    0.120120
  H     -4.381730    4.523130    2.036900
  H     -6.432500    4.213850    5.241830
  H     -9.022010    6.577030    5.227880
  H     -9.490520    8.136840    3.600670
  H     -8.360210    8.353560    0.760150
  H    -10.564390    9.889980    2.289040
  H     -9.587130   10.117300   -0.608810
  H    -12.198870   13.538470   -1.962680
  H    -13.718670   14.100970   -0.032150
  H    -14.383870   13.502900    2.399310
  H    -12.392540   11.421280    3.403560
  H    -14.707600   12.682160    5.012710
  H    -14.569590   11.677910    7.542290
  H    -13.038210   10.162520    8.957220
  H    -11.036610    8.701960    9.752260
  H     -8.668610    7.692570    9.884260
  H     -6.629220    7.190880    8.392900
  H     -5.417120    7.267640    6.375430
  H     -5.022370    8.797580    1.371950
  H     -8.133210   12.138810    3.441290
  H     -5.613510   10.071910   -1.005510

 Total Charge           Charge          ....    0
 Multiplicity           Mult            ....    1
 Number of Electrons    NEL             ....  578
 Basis Dimension        Dim             .... 1204

ORBITAL ENERGIES
----------------

  NO   OCC          E(Eh)            E(eV)
   0   2.0000    -482.879624    -13139.8226
   1   2.0000    -482.873219    -13139.6483
   2   2.0000     -88.979656     -2421.2595
   3   2.0000     -88.970077     -2420.9989
   4   2.0000     -88.968330     -2420.9513
   5   2.0000     -88.962177     -2420.7839
   6   2.0000     -62.557335     -1702.2716
   7   2.0000     -62.550895     -1702.0964
   8   2.0000     -56.391278     -1534.4847
   9   2.0000     -56.388574     -1534.4111
  10   2.0000     -56.388543     -1534.4103
  11   2.0000     -56.384810     -1534.3087
  12   2.0000     -56.382139     -1534.2360
  13   2.0000     -56.382132     -1534.2358
  14   2.0000     -19.293024      -524.9899
  15   2.0000     -19.270528      -524.3777
  16   2.0000     -19.269117      -524.3393
  17   2.0000     -19.210789      -522.7522
  18   2.0000     -19.208201      -522.6817
  19   2.0000     -14.408618      -392.0784
  20   2.0000     -14.408359      -392.0714
  21   2.0000     -14.407055      -392.0359
  22   2.0000     -14.406008      -392.0074
  23   2.0000     -14.403616      -391.9423
  24   2.0000     -14.402568      -391.9138
  25   2.0000     -10.359716      -281.9022
  26   2.0000     -10.355896      -281.7983
  27   2.0000     -10.351779      -281.6862
  28   2.0000     -10.350320      -281.6465
  29   2.0000     -10.345132      -281.5053
  30   2.0000     -10.344748      -281.4949
  31   2.0000     -10.344564      -281.4899
  32   2.0000     -10.342580      -281.4359
  33   2.0000     -10.341094      -281.3955
  34   2.0000     -10.337004      -281.2842
  35   2.0000     -10.333255      -281.1822
  36   2.0000     -10.333239      -281.1817
  37   2.0000     -10.333103      -281.1780
  38   2.0000     -10.332177      -281.1528
  39   2.0000     -10.331957      -281.1468
  40   2.0000     -10.328751      -281.0596
  41   2.0000     -10.327435      -281.0238
  42   2.0000     -10.327201      -281.0174
  43   2.0000     -10.321339      -280.8579
  44   2.0000     -10.317309      -280.7483
  45   2.0000     -10.315967      -280.7117
  46   2.0000     -10.314674      -280.6766
  47   2.0000     -10.312150      -280.6079
  48   2.0000     -10.310970      -280.5758
  49   2.0000     -10.310358      -280.5591
  50   2.0000     -10.309809      -280.5442
  51   2.0000     -10.308698      -280.5139
  52   2.0000     -10.307017      -280.4682
  53   2.0000     -10.306380      -280.4509
  54   2.0000     -10.306337      -280.4497
  55   2.0000     -10.301890      -280.3287
  56   2.0000     -10.301692      -280.3233
  57   2.0000     -10.300141      -280.2811
  58   2.0000     -10.299208      -280.2557
  59   2.0000     -10.298509      -280.2367
  60   2.0000     -10.296185      -280.1734
  61   2.0000     -10.295071      -280.1431
  62   2.0000     -10.294513      -280.1279
  63   2.0000     -10.293420      -280.0982
  64   2.0000     -10.293052      -280.0882
  65   2.0000     -10.292602      -280.0759
  66   2.0000     -10.292348      -280.0690
  67   2.0000     -10.290837      -280.0279
  68   2.0000     -10.290613      -280.0218
  69   2.0000     -10.289876      -280.0018
  70   2.0000     -10.289592      -279.9940
  71   2.0000     -10.287378      -279.9338
  72   2.0000     -10.285279      -279.8767
  73   2.0000     -10.282947      -279.8132
  74   2.0000     -10.282679      -279.8059
  75   2.0000     -10.280734      -279.7530
  76   2.0000     -10.277957      -279.6774
  77   2.0000     -10.277076      -279.6535
  78   2.0000     -10.275435      -279.6088
  79   2.0000     -10.270384      -279.4714
  80   2.0000     -10.268486      -279.4197
  81   2.0000      -8.786761      -239.0999
  82   2.0000      -8.780329      -238.9249
  83   2.0000      -8.073980      -219.7042
  84   2.0000      -8.066201      -219.4925
  85   2.0000      -8.064278      -219.4402
  86   2.0000      -8.057279      -219.2497
  87   2.0000      -6.623043      -180.2222
  88   2.0000      -6.616470      -180.0433
  89   2.0000      -6.608508      -179.8266
  90   2.0000      -6.608308      -179.8212
  91   2.0000      -6.602123      -179.6529
  92   2.0000      -6.601991      -179.6493
  93   2.0000      -6.043475      -164.4513
  94   2.0000      -6.039382      -164.3399
  95   2.0000      -6.035914      -164.2456
  96   2.0000      -6.035715      -164.2402
  97   2.0000      -6.033949      -164.1921
  98   2.0000      -6.031876      -164.1357
  99   2.0000      -6.029711      -164.0768
 100   2.0000      -6.027109      -164.0060
 101   2.0000      -6.027027      -164.0037
 102   2.0000      -6.025512      -163.9625
 103   2.0000      -6.022771      -163.8879
 104   2.0000      -6.018543      -163.7729
 105   2.0000      -2.738894       -74.5291
 106   2.0000      -2.734806       -74.4178
 107   2.0000      -2.734743       -74.4161
 108   2.0000      -2.732370       -74.3516
 109   2.0000      -2.728335       -74.2418
 110   2.0000      -2.728256       -74.2396
 111   2.0000      -2.723151       -74.1007
 112   2.0000      -2.723127       -74.1001
 113   2.0000      -2.716837       -73.9289
 114   2.0000      -2.716819       -73.9284
 115   2.0000      -1.216840       -33.1119
 116   2.0000      -1.169143       -31.8140
 117   2.0000      -1.152371       -31.3576
 118   2.0000      -1.123898       -30.5828
 119   2.0000      -1.121638       -30.5213
 120   2.0000      -1.082249       -29.4495
 121   2.0000      -1.024067       -27.8663
 122   2.0000      -1.013510       -27.5790
 123   2.0000      -1.012259       -27.5450
 124   2.0000      -1.002897       -27.2902
 125   2.0000      -1.002668       -27.2840
 126   2.0000      -0.997965       -27.1560
 127   2.0000      -0.986595       -26.8466
 128   2.0000      -0.982636       -26.7389
 129   2.0000      -0.982172       -26.7263
 130   2.0000      -0.978954       -26.6387
 131   2.0000      -0.978296       -26.6208
 132   2.0000      -0.935834       -25.4653
 133   2.0000      -0.934113       -25.4185
 134   2.0000      -0.929642       -25.2968
 135   2.0000      -0.926938       -25.2233
 136   2.0000      -0.916812       -24.9477
 137   2.0000      -0.908940       -24.7335
 138   2.0000      -0.901380       -24.5278
 139   2.0000      -0.899086       -24.4654
 140   2.0000      -0.897371       -24.4187
 141   2.0000      -0.896017       -24.3819
 142   2.0000      -0.883248       -24.0344
 143   2.0000      -0.879464       -23.9314
 144   2.0000      -0.877047       -23.8657
 145   2.0000      -0.872315       -23.7369
 146   2.0000      -0.869099       -23.6494
 147   2.0000      -0.862545       -23.4710
 148   2.0000      -0.854967       -23.2648
 149   2.0000      -0.846906       -23.0455
 150   2.0000      -0.837698       -22.7949
 151   2.0000      -0.832209       -22.6456
 152   2.0000      -0.820879       -22.3373
 153   2.0000      -0.814643       -22.1676
 154   2.0000      -0.802726       -21.8433
 155   2.0000      -0.802003       -21.8236
 156   2.0000      -0.775392       -21.0995
 157   2.0000      -0.772513       -21.0212
 158   2.0000      -0.754550       -20.5323
 159   2.0000      -0.751833       -20.4584
 160   2.0000      -0.746768       -20.3206
 161   2.0000      -0.742912       -20.2157
 162   2.0000      -0.731038       -19.8925
 163   2.0000      -0.719803       -19.5868
 164   2.0000      -0.715102       -19.4589
 165   2.0000      -0.708223       -19.2717
 166   2.0000      -0.699658       -19.0387
 167   2.0000      -0.694217       -18.8906
 168   2.0000      -0.686751       -18.6874
 169   2.0000      -0.682516       -18.5722
 170   2.0000      -0.677174       -18.4268
 171   2.0000      -0.675909       -18.3924
 172   2.0000      -0.671901       -18.2833
 173   2.0000      -0.668126       -18.1806
 174   2.0000      -0.656066       -17.8525
 175   2.0000      -0.653363       -17.7789
 176   2.0000      -0.649729       -17.6800
 177   2.0000      -0.647558       -17.6209
 178   2.0000      -0.643908       -17.5216
 179   2.0000      -0.642928       -17.4950
 180   2.0000      -0.633779       -17.2460
 181   2.0000      -0.626934       -17.0597
 182   2.0000      -0.621610       -16.9149
 183   2.0000      -0.616671       -16.7805
 184   2.0000      -0.610991       -16.6259
 185   2.0000      -0.610395       -16.6097
 186   2.0000      -0.602922       -16.4063
 187   2.0000      -0.594286       -16.1713
 188   2.0000      -0.593437       -16.1483
 189   2.0000      -0.589649       -16.0452
 190   2.0000      -0.586985       -15.9727
 191   2.0000      -0.584255       -15.8984
 192   2.0000      -0.580914       -15.8075
 193   2.0000      -0.572121       -15.5682
 194   2.0000      -0.571637       -15.5550
 195   2.0000      -0.560647       -15.2560
 196   2.0000      -0.559207       -15.2168
 197   2.0000      -0.551093       -14.9960
 198   2.0000      -0.547363       -14.8945
 199   2.0000      -0.543885       -14.7999
 200   2.0000      -0.542349       -14.7581
 201   2.0000      -0.539542       -14.6817
 202   2.0000      -0.534958       -14.5570
 203   2.0000      -0.532584       -14.4924
 204   2.0000      -0.531965       -14.4755
 205   2.0000      -0.530732       -14.4420
 206   2.0000      -0.528272       -14.3750
 207   2.0000      -0.526887       -14.3373
 208   2.0000      -0.524636       -14.2761
 209   2.0000      -0.518353       -14.1051
 210   2.0000      -0.517510       -14.0822
 211   2.0000      -0.516770       -14.0620
 212   2.0000      -0.514876       -14.0105
 213   2.0000      -0.512932       -13.9576
 214   2.0000      -0.509851       -13.8738
 215   2.0000      -0.506329       -13.7779
 216   2.0000      -0.502267       -13.6674
 217   2.0000      -0.500533       -13.6202
 218   2.0000      -0.500110       -13.6087
 219   2.0000      -0.497392       -13.5347
 220   2.0000      -0.496320       -13.5056
 221   2.0000      -0.492664       -13.4061
 222   2.0000      -0.489988       -13.3333
 223   2.0000      -0.487357       -13.2617
 224   2.0000      -0.487134       -13.2556
 225   2.0000      -0.484914       -13.1952
 226   2.0000      -0.484397       -13.1811
 227   2.0000      -0.482378       -13.1262
 228   2.0000      -0.481530       -13.1031
 229   2.0000      -0.478117       -13.0102
 230   2.0000      -0.476395       -12.9634
 231   2.0000      -0.474944       -12.9239
 232   2.0000      -0.472059       -12.8454
 233   2.0000      -0.470841       -12.8122
 234   2.0000      -0.463986       -12.6257
 235   2.0000      -0.458166       -12.4673
 236   2.0000      -0.456059       -12.4100
 237   2.0000      -0.451255       -12.2793
 238   2.0000      -0.449093       -12.2204
 239   2.0000      -0.447062       -12.1652
 240   2.0000      -0.446636       -12.1536
 241   2.0000      -0.444261       -12.0890
 242   2.0000      -0.441709       -12.0195
 243   2.0000      -0.441575       -12.0159
 244   2.0000      -0.438056       -11.9201
 245   2.0000      -0.437360       -11.9012
 246   2.0000      -0.436658       -11.8821
 247   2.0000      -0.433839       -11.8054
 248   2.0000      -0.433095       -11.7851
 249   2.0000      -0.432019       -11.7558
 250   2.0000      -0.430167       -11.7054
 251   2.0000      -0.429423       -11.6852
 252   2.0000      -0.424690       -11.5564
 253   2.0000      -0.422380       -11.4935
 254   2.0000      -0.420875       -11.4526
 255   2.0000      -0.418268       -11.3817
 256   2.0000      -0.415369       -11.3028
 257   2.0000      -0.413804       -11.2602
 258   2.0000      -0.412496       -11.2246
 259   2.0000      -0.408781       -11.1235
 260   2.0000      -0.400463       -10.8971
 261   2.0000      -0.398312       -10.8386
 262   2.0000      -0.396968       -10.8021
 263   2.0000      -0.395996       -10.7756
 264   2.0000      -0.385876       -10.5002
 265   2.0000      -0.379506       -10.3269
 266   2.0000      -0.378700       -10.3050
 267   2.0000      -0.376604       -10.2479
 268   2.0000      -0.369171       -10.0456
 269   2.0000      -0.367674       -10.0049
 270   2.0000      -0.364706        -9.9242
 271   2.0000      -0.362687        -9.8692
 272   2.0000      -0.360077        -9.7982
 273   2.0000      -0.356136        -9.6909
 274   2.0000      -0.344215        -9.3666
 275   2.0000      -0.335321        -9.1245
 276   2.0000      -0.330109        -8.9827
 277   2.0000      -0.328924        -8.9505
 278   2.0000      -0.323479        -8.8023
 279   2.0000      -0.322101        -8.7648
 280   2.0000      -0.320116        -8.7108
 281   2.0000      -0.308054        -8.3826
 282   2.0000      -0.301630        -8.2078
 283   2.0000      -0.298234        -8.1154
 284   2.0000      -0.287584        -7.8256
 285   2.0000      -0.282572        -7.6892
 286   2.0000      -0.277304        -7.5458
 287   2.0000      -0.245119        -6.6700
 288   2.0000      -0.238011        -6.4766
 289   0.0000      -0.114735        -3.1221
 290   0.0000      -0.088987        -2.4215
 291   0.0000      -0.067729        -1.8430
 292   0.0000      -0.057021        -1.5516
 293   0.0000      -0.053381        -1.4526

MULLIKEN ATOMIC CHARGES
-----------------------
   0 C :    0.330769
   1 C :   -0.360836
   2 C :   -0.189813
   3 N :    0.140316
   4 C :   -0.192957
   5 N :    0.147409
   6 C :    0.012840
   7 C :   -0.002663
   8 C :   -0.078803
   9 C :    0.114788
  10 C :   -0.092052
  11 C :   -0.023088
  12 S :    0.182796
  13 C :   -0.124340
  14 C :    0.037959
  15 Br:    0.018101
  16 C :    0.154220
  17 O :   -0.177083
  18 C :   -0.075783
  19 C :   -0.020230
  20 C :   -0.014544
  21 C :    0.014901
  22 C :    0.095977
  23 O :   -0.225805
  24 C :    0.118359
  25 C :    0.078113
  26 C :    0.121234
  27 O :   -0.152761
  28 O :   -0.201000
  29 C :   -0.050589
  30 C :    0.045667
  31 C :    0.047454
  32 C :    0.029921
  33 C :   -0.061873
  34 N :   -0.069931
  35 C :    0.078280
  36 C :   -0.043722
  37 C :    0.055115
  38 N :   -0.077886
  39 C :   -0.005835
  40 C :    0.022814
  41 C :    0.047079
  42 C :   -0.027240
  43 C :    0.057463
  44 C :    0.034044
  45 C :   -0.009304
  46 S :    0.068785
  47 C :   -0.060276
  48 C :    0.041195
  49 C :    0.079758
  50 C :   -0.061905
  51 S :    0.050026
  52 C :    0.021462
  53 C :    0.018140
  54 C :   -0.138378
  55 C :    0.282793
  56 C :   -0.347745
  57 C :   -0.177935
  58 N :    0.142497
  59 C :   -0.206804
  60 N :    0.159926
  61 C :    0.017730
  62 C :    0.029176
  63 C :    0.132621
  64 O :   -0.161352
  65 C :   -0.071129
  66 C :    0.095420
  67 C :   -0.083714
  68 C :   -0.037474
  69 S :    0.170077
  70 C :   -0.130629
  71 C :    0.052904
  72 Br:    0.010581
  73 H :   -0.015579
  74 H :   -0.008253
  75 H :   -0.003300
  76 H :    0.010459
  77 H :    0.031547
  78 H :    0.021810
  79 H :    0.197899
  80 H :    0.190565
  81 H :   -0.027181
  82 H :    0.015519
  83 H :   -0.000239
  84 H :   -0.003596
  85 H :    0.006758
  86 H :   -0.007096
  87 H :   -0.016819
  88 H :    0.043698
  89 H :   -0.005419
  90 H :    0.002484
  91 H :    0.000147
  92 H :   -0.004553
  93 H :   -0.001664
  94 H :   -0.000077
  95 H :    0.022177
  96 H :   -0.023800
  97 H :   -0.014450
  98 H :   -0.014271
Sum of atomic charges:   -0.0000000

LOEWDIN ATOMIC CHARGES
----------------------
   0 C :    0.075976
   1 C :   -0.149127
   2 C :   -0.017972
   3 N :   -0.062989
   4 C :   -0.021193
   5 N :   -0.058810
   6 C :   -0.018078
   7 C :   -0.050633
   8 C :    0.018402
   9 C :   -0.034945
  10 C :   -0.144497
  11 C :   -0.011292
  12 S :    0.430461
  13 C :   -0.273342
  14 C :   -0.070779
  15 Br:    0.132546
  16 C :    0.093740
  17 O :   -0.163672
  18 C :   -0.113609
  19 C :    0.072918
  20 C :   -0.050717
  21 C :    0.042409
  22 C :   -0.001935
  23 O :    0.017303
  24 C :    0.006379
  25 C :   -0.021146
  26 C :    0.024846
  27 O :   -0.024612
  28 O :   -0.055328
  29 C :   -0.049381
  30 C :    0.002107
  31 C :    0.001923
  32 C :   -0.036866
  33 C :    0.026891
  34 N :   -0.092334
  35 C :    0.052150
  36 C :   -0.068402
  37 C :    0.034407
  38 N :   -0.086143
  39 C :   -0.021267
  40 C :   -0.005204
  41 C :   -0.022576
  42 C :   -0.134247
  43 C :   -0.007635
  44 C :   -0.027124
  45 C :   -0.146102
  46 S :    0.396881
  47 C :   -0.190624
  48 C :   -0.017758
  49 C :   -0.023104
  50 C :   -0.116175
  51 S :    0.443440
  52 C :   -0.067561
  53 C :    0.034483
  54 C :   -0.106230
  55 C :    0.042075
  56 C :   -0.160555
  57 C :   -0.021977
  58 N :   -0.064947
  59 C :   -0.022855
  60 N :   -0.058052
  61 C :   -0.016266
  62 C :   -0.057529
  63 C :    0.081245
  64 O :   -0.147599
  65 C :    0.029374
  66 C :   -0.035393
  67 C :   -0.141624
  68 C :   -0.021150
  69 S :    0.435106
  70 C :   -0.278263
  71 C :   -0.065067
  72 Br:    0.127192
  73 H :    0.038287
  74 H :    0.040629
  75 H :    0.038435
  76 H :    0.041900
  77 H :    0.030013
  78 H :    0.048929
  79 H :    0.107879
  80 H :    0.070927
  81 H :    0.020537
  82 H :    0.035627
  83 H :    0.026672
  84 H :    0.032909
  85 H :    0.026707
  86 H :    0.032446
  87 H :    0.029213
  88 H :    0.022820
  89 H :    0.036838
  90 H :    0.040154
  91 H :    0.037711
  92 H :    0.037234
  93 H :    0.039648
  94 H :    0.041548
  95 H :    0.044044
  96 H :    0.039854
  97 H :    0.037638
  98 H :    0.033832

  Mayer bond orders larger than 0.100000
B(  0-C ,  1-C ) :   1.6104 B(  0-C ,  6-C ) :   0.9952 B(  0-C , 18-C ) :   1.0873
B(  1-C ,  2-C ) :   1.1472 B(  1-C ,  4-C ) :   1.1494 B(  2-C ,  3-N ) :   2.9648
B(  4-C ,  5-N ) :   2.9658 B(  6-C ,  7-C ) :   1.2763 B(  6-C , 11-C ) :   1.4186
B(  7-C ,  8-C ) :   1.4164 B(  7-C , 16-C ) :   0.9480 B(  8-C ,  9-C ) :   1.2513
B(  8-C , 73-H ) :   1.0178 B(  9-C , 10-C ) :   1.3092 B(  9-C , 14-C ) :   1.1624
B( 10-C , 11-C ) :   1.3246 B( 10-C , 12-S ) :   1.0850 B( 11-C , 74-H ) :   0.9797
B( 12-S , 13-C ) :   1.0862 B( 13-C , 14-C ) :   1.6179 B( 13-C , 15-Br) :   1.0152
B( 14-C , 75-H ) :   1.0004 B( 16-C , 17-O ) :   2.0802 B( 16-C , 18-C ) :   0.9899
B( 18-C , 19-C ) :   1.4611 B( 19-C , 20-C ) :   1.2149 B( 19-C , 76-H ) :   0.9610
B( 20-C , 21-C ) :   1.4610 B( 20-C , 77-H ) :   0.9847 B( 21-C , 22-C ) :   1.2181
B( 21-C , 78-H ) :   0.9797 B( 22-C , 23-O ) :   1.0954 B( 22-C , 24-C ) :   0.1099
B( 22-C , 26-C ) :   1.3256 B( 23-O , 24-C ) :   1.1251 B( 24-C , 25-C ) :   1.2958
B( 24-C , 29-C ) :   1.1314 B( 25-C , 26-C ) :   1.2499 B( 25-C , 28-O ) :   1.2401
B( 26-C , 27-O ) :   1.3082 B( 27-O , 79-H ) :   0.9490 B( 28-O , 80-H ) :   0.9342
B( 29-C , 30-C ) :   1.6392 B( 29-C , 81-H ) :   0.9678 B( 30-C , 31-C ) :   1.1022
B( 30-C , 82-H ) :   0.9891 B( 31-C , 32-C ) :   1.6589 B( 31-C , 83-H ) :   0.9788
B( 32-C , 33-C ) :   1.0208 B( 32-C , 84-H ) :   0.9840 B( 33-C , 34-N ) :   1.4944
B( 33-C , 38-N ) :   1.5585 B( 34-N , 35-C ) :   1.5554 B( 35-C , 36-C ) :   1.3702
B( 35-C , 85-H ) :   0.9791 B( 36-C , 37-C ) :   1.3266 B( 36-C , 86-H ) :   0.9766
B( 37-C , 38-N ) :   1.5007 B( 37-C , 39-C ) :   1.0572 B( 39-C , 40-C ) :   1.6898
B( 39-C , 87-H ) :   0.9890 B( 40-C , 41-C ) :   1.1167 B( 40-C , 88-H ) :   0.9433
B( 41-C , 42-C ) :   1.5862 B( 41-C , 89-H ) :   0.9861 B( 42-C , 43-C ) :   1.1313
B( 42-C , 46-S ) :   1.0340 B( 43-C , 44-C ) :   1.5999 B( 43-C , 90-H ) :   0.9983
B( 44-C , 45-C ) :   1.1822 B( 44-C , 91-H ) :   0.9951 B( 45-C , 46-S ) :   1.0813
B( 45-C , 47-C ) :   1.4859 B( 47-C , 48-C ) :   1.2016 B( 47-C , 51-S ) :   1.0231
B( 48-C , 49-C ) :   1.5736 B( 48-C , 92-H ) :   0.9917 B( 49-C , 50-C ) :   1.1614
B( 49-C , 93-H ) :   0.9947 B( 50-C , 51-S ) :   1.0866 B( 50-C , 52-C ) :   1.4757
B( 52-C , 53-C ) :   1.2897 B( 52-C , 94-H ) :   0.9540 B( 53-C , 54-C ) :   1.5088
B( 53-C , 95-H ) :   0.9258 B( 54-C , 55-C ) :   1.1020 B( 54-C , 63-C ) :   0.9578
B( 55-C , 56-C ) :   1.5629 B( 55-C , 61-C ) :   1.0174 B( 56-C , 57-C ) :   1.1389
B( 56-C , 59-C ) :   1.1774 B( 57-C , 58-N ) :   2.9684 B( 59-C , 60-N ) :   2.9879
B( 61-C , 62-C ) :   1.2658 B( 61-C , 68-C ) :   1.4198 B( 62-C , 63-C ) :   0.9228
B( 62-C , 65-C ) :   1.4001 B( 63-C , 64-O ) :   2.1870 B( 65-C , 66-C ) :   1.2504
B( 65-C , 96-H ) :   1.0205 B( 66-C , 67-C ) :   1.3052 B( 66-C , 71-C ) :   1.1680
B( 67-C , 68-C ) :   1.3044 B( 67-C , 69-S ) :   1.0914 B( 68-C , 97-H ) :   0.9855
B( 69-S , 70-C ) :   1.0774 B( 70-C , 71-C ) :   1.6027 B( 70-C , 72-Br) :   1.0124
B( 71-C , 98-H ) :   0.9845

-----------------------------------------------------------------------------
         ABSORPTION SPECTRUM VIA TRANSITION ELECTRIC DIPOLE MOMENTS
-----------------------------------------------------------------------------
State   Energy  Wavelength   fosc         T2         TX        TY        TZ
        (cm-1)    (nm)                  (au**2)     (au)      (au)      (au)
-----------------------------------------------------------------------------
   0   12360.3    809.0   0.243262661   6.47919   2.45544  -0.63892  -0.20439
   1   13493.0    741.1   0.193293107   4.71611   1.86730  -0.31757   1.06228
   2   17034.8    587.0   1.107219522  21.39801  -3.69890   1.17328   2.51785
   3   19712.4    507.3   0.033626757   0.56159  -0.35211   0.29471  -0.59225
   4   20656.6    484.1   0.056007275   0.89261  -0.53909   0.72813   0.26799
   5   21125.2    473.4   0.017395614   0.27109   0.49473   0.11935   0.10996
   6   21937.2    455.8   0.026120873   0.39200  -0.42118   0.24981  -0.39013
   7   22436.0    445.7   0.069504413   1.01986  -0.14998   0.62001  -0.78291
   8   23460.1    426.3   0.038132862   0.53511   0.00958   0.57578  -0.45111
   9   23736.7    421.3   0.001101166   0.01527  -0.05253  -0.08274   0.07529
  10   24458.5    408.9   0.064114348   0.86298  -0.52436   0.32441  -0.69482
  11   25016.3    399.7   0.027229750   0.35834   0.48980  -0.07216  -0.33649
  12   25586.2    390.8   0.001285536   0.01654   0.00540  -0.06964   0.10799
  13   26177.3    382.0   0.390022427   4.90502  -0.64070  -0.87679   1.93022
  14   26954.0    371.0   0.063696591   0.77798  -0.04960  -0.12335   0.87195
  15   27474.2    364.0   0.000998286   0.01196  -0.01090  -0.10148  -0.03929
  16   27717.0    360.8   0.044336959   0.52662   0.19014   0.42632  -0.55562
  17   27912.9    358.3   0.017976253   0.21202   0.20548   0.17602  -0.37257
  18   28761.4    347.7   0.172616733   1.97582   0.43086  -1.08214   0.78686
  19   28994.7    344.9   0.296407883   3.36547   0.26147  -1.60289   0.85314
  20   29319.4    341.1   0.310665348   3.48829   0.08258  -0.28611   1.84380
  21   29519.4    338.8   0.054287312   0.60543  -0.21039   0.56845  -0.48789
  22   29562.2    338.3   0.016560874   0.18443  -0.22955   0.14270   0.33372
  23   29642.7    337.4   0.192457624   2.13744   0.03864   0.58388  -1.33979
  24   29993.5    333.4   0.028806241   0.31618  -0.41820   0.37571   0.01133
  25   30178.6    331.4   0.293185056   3.19829  -0.86850  -0.75715   1.36774
  26   30313.2    329.9   0.019043209   0.20682  -0.30602   0.32680  -0.07979
  27   30632.0    326.5   0.044250686   0.47558   0.09246  -0.00102   0.68339
  28   31029.2    322.3   0.648329802   6.87861  -0.00812   1.21718  -2.32315
  29   31331.3    319.2   0.094868479   0.99683  -0.19742  -0.52156   0.82815
  30   31587.6    316.6   0.035634894   0.37139  -0.55001   0.20778  -0.16035
  31   32022.6    312.3   0.048644500   0.50009   0.14196   0.24593  -0.64766
  32   32565.1    307.1   0.023699385   0.23959  -0.00594   0.38148  -0.30663
  33   32897.2    304.0   0.025083253   0.25102   0.34920  -0.29811  -0.20051
  34   32936.8    303.6   0.057109114   0.57082  -0.33934   0.07767   0.67055
  35   33089.8    302.2   0.057742701   0.57449  -0.07961   0.57449  -0.48796
  36   33168.4    301.5   0.706220699   7.00957   0.32458  -2.03124   1.66682
  37   33471.2    298.8   0.004798413   0.04720   0.13390  -0.15749   0.06679
  38   33594.0    297.7   0.019005228   0.18625   0.29657  -0.20226  -0.23955
  39   33971.2    294.4   0.015485472   0.15007   0.07971   0.36871  -0.08811
  40   34103.5    293.2   0.018252869   0.17620  -0.30059   0.16903   0.23932
  41   34165.3    292.7   0.003152140   0.03037  -0.16736   0.01055   0.04748
  42   34199.1    292.4   0.002174841   0.02094  -0.02136  -0.14310  -0.00126
  43   34278.1    291.7   0.060061143   0.57684   0.18235  -0.67498   0.29663
  44   34443.8    290.3   0.110107620   1.05240  -0.19723  -0.42488   0.91267
  45   34552.8    289.4   0.135040111   1.28663  -0.77090   0.77010   0.31511
  46   34963.4    286.0   0.160803532   1.51411   0.06773  -0.25582   1.20170
  47   35368.8    282.7   0.256249307   2.38517   0.52768  -1.28480   0.67528
  48   35728.3    279.9   0.035525437   0.32734   0.16668  -0.43602   0.33084
  49   35934.3    278.3   0.010905193   0.09991   0.04014   0.00014   0.31352
  50   36347.0    275.1   0.249089284   2.25612  -0.68684   0.60268   1.19212
  51   36418.3    274.6   0.002325298   0.02102  -0.10363   0.10138   0.00171
  52   36590.6    273.3   0.357105986   3.21294  -1.31996   1.21214  -0.03715
  53   36754.0    272.1   0.077648329   0.69551  -0.53842   0.52424  -0.36165
  54   36833.6    271.5   0.105683130   0.94458   0.68856  -0.32062  -0.60635
  55   37345.8    267.8   0.060352959   0.53203   0.55875  -0.23003  -0.40855
  56   37628.8    265.8   0.015637291   0.13681  -0.12370  -0.04307   0.34591
  57   37862.2    264.1   0.015453076   0.13436  -0.31981   0.17758   0.02347
  58   37970.8    263.4   0.001221634   0.01059  -0.06346  -0.03396  -0.07356
  59   38007.4    263.1   0.018148808   0.15720  -0.37446   0.12566  -0.03450
  60   38452.7    260.1   0.118963426   1.01850  -0.55266   0.32041   0.78128
  61   38572.9    259.2   0.025033353   0.21365  -0.26178   0.30107   0.23341
  62   38815.9    257.6   0.052093865   0.44183  -0.56214   0.35225   0.04181
  63   39040.3    256.1   0.031425660   0.26500   0.50265  -0.06581  -0.08954
  64   39258.4    254.7   0.009488662   0.07957  -0.10020   0.21638  -0.15070
  65   39403.8    253.8   0.012932579   0.10805  -0.10811   0.00400   0.31039
  66   39460.1    253.4   0.072938691   0.60852  -0.18067   0.54345  -0.52966
  67   39664.0    252.1   0.181886181   1.50966   0.18054  -0.62492   1.04237
  68   39911.3    250.6   0.034587505   0.28530  -0.42861   0.31867  -0.00648

FINAL SINGLE POINT ENERGY     -9590.697173013701

DIPOLE MOMENT
-------------
                                X             Y             Z
Electronic contribution:     87.42471      50.94261    -157.10280
Nuclear contribution   :    -92.95057     -49.24090     159.15813
                        -----------------------------------------
Total Dipole Moment    :     -5.52586       1.70171       2.05533
                        -----------------------------------------
Magnitude (a.u.)       :      6.13639
Magnitude (Debye)      :     15.59748

Rotational constants in cm-1:     0.001239     0.000422     0.000341
Rotational constants in MHz :    37.131526    12.640340    10.215125

                             ****ORCA TERMINATED NORMALLY****
TOTAL RUN TIME: 0 days 0 hours 13 minutes 14 seconds 739 msec
