                         Program Version 4.2.0 -  RELEASE  -
|  1> # ORCA input file
|  2> # SCF done       -169.319034847680          0.000758799900
|  3> ! CAM-B3LYP def2-SVP def2/J RIJCOSX Grid4 TightSCF
|  4> %maxcore 5000
|  5> %tddft
|  6>     Mode sTDDFT
|  7>     Ethresh 5.0
|  8>     maxcore 5000
|  9> end
| 10>
| 11> %pal
| 12>   nprocs 6
| 13>   end
| 14> * xyz 0 1
| 15>    C       -9.05303         2.04286        -9.14534
| 16>    C       -8.98378         2.75590       -10.31250
| 17>    C       -8.92221         2.17004       -11.59454
| 18>    N       -8.87888         1.74964       -12.66142
| 19>    C       -8.91587         4.16236       -10.39185
| 20>    N       -8.81867         5.29903       -10.52684
| 21>    C       -8.98994         0.59480        -9.01939
| 22>    C       -8.90339         0.25771        -7.64540
| 23>    C       -8.81568        -1.04138        -7.20642
| 24>    C       -8.81265        -2.05668        -8.16795
| 25>    C       -8.90407        -1.71075        -9.53838
| 26>    C       -8.99300        -0.39800        -9.98263
| 27>    S       -8.88869        -3.11924       -10.55495
| 28>    C       -8.75856        -4.13936        -9.14668
| 29>    C       -8.72940        -3.46237        -7.97394
| 30>   Br       -8.67604        -6.00036        -9.35719
| 31>    C       -8.92826         1.48587        -6.82849
| 32>    O       -8.90404         1.55347        -5.62066
| 33>    C       -9.08137         2.60222        -7.80369
| 34>    C       -9.36469         3.88391        -7.46915
| 35>    C       -9.23215         4.45711        -6.15838
| 36>    C       -8.11893         4.22585        -5.33004
| 37>    N       -7.96047         4.83511        -4.18421
| 38>    C       -8.88194         5.72629        -3.79999
| 39>    N       -9.97607         6.00829        -4.50891
| 40>    C      -10.15012         5.38686        -5.65048
| 41>    C       -8.57356         6.42316        -2.57071
| 42>    C       -9.28389         7.36785        -1.93681
| 43>    C      -10.60993         7.89650        -2.35639
| 44>    C       -8.64931         8.08145        -0.76330
| 45>    N       -8.06431         9.30820        -1.26605
| 46>    C       -8.66859        10.50739        -1.19335
| 47>    C       -8.42636        11.53183        -2.05968
| 48>    C       -8.96834        12.81803        -1.92865
| 49>    C       -8.87155        13.78839        -2.89491
| 50>    C       -9.35807        15.11444        -2.84754
| 51>    C       -9.17436        15.82060        -3.99910
| 52>    C       -8.55432        15.07804        -5.02855
| 53>    S       -8.14787        13.48015        -4.47142
| 54>    C       -8.34494        15.45384        -6.34498
| 55>    C       -8.64805        16.67224        -6.98047
| 56>    C       -8.44852        16.64722        -8.33065
| 57>    C       -8.01838        15.39868        -8.83544
| 58>    S       -7.75791        14.29232        -7.51794
| 59>    C       -7.78829        15.12019       -10.17632
| 60>    C       -7.48385        13.92393       -10.80836
| 61>    C       -7.55878        12.59152       -10.42049
| 62>    C       -8.27503        11.88722        -9.40944
| 63>    C       -9.40760        12.31446        -8.73790
| 64>    C      -10.01435        11.61377        -7.68332
| 65>    N      -10.52194        11.10916        -6.78274
| 66>    C      -10.13025        13.46070        -9.11073
| 67>    N      -10.76562        14.37078        -9.40895
| 68>    C       -7.73330        10.52898        -9.33379
| 69>    C       -6.83467        10.34497       -10.41128
| 70>    C       -6.72622        11.61782       -11.16130
| 71>    O       -6.06641        11.82521       -12.15832
| 72>    C       -6.20664         9.15011       -10.65465
| 73>    C       -6.46217         8.08907        -9.77731
| 74>    C       -7.34147         8.29108        -8.69266
| 75>    C       -7.99327         9.49649        -8.45577
| 76>    S       -7.49660         6.85456        -7.72228
| 77>    C       -6.40015         6.01552        -8.78752
| 78>    C       -5.93600         6.76699        -9.80910
| 79>   Br       -5.96311         4.22323        -8.44527
| 80>    H       -8.74876        -1.26610        -6.15351
| 81>    H       -9.06570        -0.18428       -11.03599
| 82>    H       -8.65246        -3.93328        -7.01102
| 83>    H       -9.71531         4.56578        -8.23507
| 84>    H       -7.31833         3.56920        -5.64101
| 85>    H      -11.06372         5.62016        -6.18333
| 86>    H       -7.61880         6.11618        -2.16318
| 87>    H      -10.99155         7.34159        -3.20608
| 88>    H      -10.52282         8.94811        -2.63408
| 89>    H      -11.31301         7.83318        -1.52606
| 90>    H       -7.86017         7.47231        -0.31335
| 91>    H       -9.38759         8.33385        -0.00025
| 92>    H       -7.43981         9.17453        -2.05193
| 93>    H       -9.35507        10.63557        -0.36661
| 94>    H       -7.79511        11.34664        -2.91926
| 95>    H       -9.51224        13.06234        -1.02565
| 96>    H       -9.83444        15.50509        -1.96536
| 97>    H       -9.48977        16.83769        -4.14551
| 98>    H       -9.01654        17.52401        -6.43792
| 99>    H       -8.64557        17.47469        -8.98826
|100>    H       -7.80257        15.99565       -10.81482
|101>    H       -7.04868        14.03239       -11.79893
|102>    H       -5.54029         9.03213       -11.49464
|103>    H       -8.66231         9.60020        -7.61754
|104>    H       -5.25658         6.40779       -10.56048
|105> *
|106>
|107>                          ****END OF INPUT****

CARTESIAN COORDINATES (ANGSTROEM)
---------------------------------
  C     -9.053030    2.042860   -9.145340
  C     -8.983780    2.755900  -10.312500
  C     -8.922210    2.170040  -11.594540
  N     -8.878880    1.749640  -12.661420
  C     -8.915870    4.162360  -10.391850
  N     -8.818670    5.299030  -10.526840
  C     -8.989940    0.594800   -9.019390
  C     -8.903390    0.257710   -7.645400
  C     -8.815680   -1.041380   -7.206420
  C     -8.812650   -2.056680   -8.167950
  C     -8.904070   -1.710750   -9.538380
  C     -8.993000   -0.398000   -9.982630
  S     -8.888690   -3.119240  -10.554950
  C     -8.758560   -4.139360   -9.146680
  C     -8.729400   -3.462370   -7.973940
  Br    -8.676040   -6.000360   -9.357190
  C     -8.928260    1.485870   -6.828490
  O     -8.904040    1.553470   -5.620660
  C     -9.081370    2.602220   -7.803690
  C     -9.364690    3.883910   -7.469150
  C     -9.232150    4.457110   -6.158380
  C     -8.118930    4.225850   -5.330040
  N     -7.960470    4.835110   -4.184210
  C     -8.881940    5.726290   -3.799990
  N     -9.976070    6.008290   -4.508910
  C    -10.150120    5.386860   -5.650480
  C     -8.573560    6.423160   -2.570710
  C     -9.283890    7.367850   -1.936810
  C    -10.609930    7.896500   -2.356390
  C     -8.649310    8.081450   -0.763300
  N     -8.064310    9.308200   -1.266050
  C     -8.668590   10.507390   -1.193350
  C     -8.426360   11.531830   -2.059680
  C     -8.968340   12.818030   -1.928650
  C     -8.871550   13.788390   -2.894910
  C     -9.358070   15.114440   -2.847540
  C     -9.174360   15.820600   -3.999100
  C     -8.554320   15.078040   -5.028550
  S     -8.147870   13.480150   -4.471420
  C     -8.344940   15.453840   -6.344980
  C     -8.648050   16.672240   -6.980470
  C     -8.448520   16.647220   -8.330650
  C     -8.018380   15.398680   -8.835440
  S     -7.757910   14.292320   -7.517940
  C     -7.788290   15.120190  -10.176320
  C     -7.483850   13.923930  -10.808360
  C     -7.558780   12.591520  -10.420490
  C     -8.275030   11.887220   -9.409440
  C     -9.407600   12.314460   -8.737900
  C    -10.014350   11.613770   -7.683320
  N    -10.521940   11.109160   -6.782740
  C    -10.130250   13.460700   -9.110730
  N    -10.765620   14.370780   -9.408950
  C     -7.733300   10.528980   -9.333790
  C     -6.834670   10.344970  -10.411280
  C     -6.726220   11.617820  -11.161300
  O     -6.066410   11.825210  -12.158320
  C     -6.206640    9.150110  -10.654650
  C     -6.462170    8.089070   -9.777310
  C     -7.341470    8.291080   -8.692660
  C     -7.993270    9.496490   -8.455770
  S     -7.496600    6.854560   -7.722280
  C     -6.400150    6.015520   -8.787520
  C     -5.936000    6.766990   -9.809100
  Br    -5.963110    4.223230   -8.445270
  H     -8.748760   -1.266100   -6.153510
  H     -9.065700   -0.184280  -11.035990
  H     -8.652460   -3.933280   -7.011020
  H     -9.715310    4.565780   -8.235070
  H     -7.318330    3.569200   -5.641010
  H    -11.063720    5.620160   -6.183330
  H     -7.618800    6.116180   -2.163180
  H    -10.991550    7.341590   -3.206080
  H    -10.522820    8.948110   -2.634080
  H    -11.313010    7.833180   -1.526060
  H     -7.860170    7.472310   -0.313350
  H     -9.387590    8.333850   -0.000250
  H     -7.439810    9.174530   -2.051930
  H     -9.355070   10.635570   -0.366610
  H     -7.795110   11.346640   -2.919260
  H     -9.512240   13.062340   -1.025650
  H     -9.834440   15.505090   -1.965360
  H     -9.489770   16.837690   -4.145510
  H     -9.016540   17.524010   -6.437920
  H     -8.645570   17.474690   -8.988260
  H     -7.802570   15.995650  -10.814820
  H     -7.048680   14.032390  -11.798930
  H     -5.540290    9.032130  -11.494640
  H     -8.662310    9.600200   -7.617540
  H     -5.256580    6.407790  -10.560480

 Total Charge           Charge          ....    0
 Multiplicity           Mult            ....    1
 Number of Electrons    NEL             ....  524
 Basis Dimension        Dim             .... 1087

ORBITAL ENERGIES
----------------

  NO   OCC          E(Eh)            E(eV)
   0   2.0000    -482.890400    -13140.1158
   1   2.0000    -482.880208    -13139.8385
   2   2.0000     -88.981583     -2421.3120
   3   2.0000     -88.959428     -2420.7091
   4   2.0000     -88.952452     -2420.5193
   5   2.0000     -88.949662     -2420.4433
   6   2.0000     -62.568128     -1702.5653
   7   2.0000     -62.557260     -1702.2696
   8   2.0000     -56.402085     -1534.7788
   9   2.0000     -56.399354     -1534.7044
  10   2.0000     -56.399326     -1534.7037
  11   2.0000     -56.391175     -1534.4819
  12   2.0000     -56.388590     -1534.4115
  13   2.0000     -56.388531     -1534.4099
  14   2.0000     -19.225460      -523.1514
  15   2.0000     -19.182928      -521.9940
  16   2.0000     -14.463062      -393.5599
  17   2.0000     -14.421503      -392.4290
  18   2.0000     -14.420364      -392.3981
  19   2.0000     -14.418844      -392.3567
  20   2.0000     -14.413764      -392.2184
  21   2.0000     -14.386132      -391.4666
  22   2.0000     -14.380090      -391.3021
  23   2.0000     -10.376956      -282.3713
  24   2.0000     -10.364836      -282.0415
  25   2.0000     -10.353928      -281.7447
  26   2.0000     -10.350220      -281.6438
  27   2.0000     -10.346811      -281.5510
  28   2.0000     -10.345053      -281.5032
  29   2.0000     -10.340377      -281.3760
  30   2.0000     -10.333417      -281.1866
  31   2.0000     -10.332703      -281.1671
  32   2.0000     -10.332246      -281.1547
  33   2.0000     -10.330066      -281.0954
  34   2.0000     -10.329965      -281.0926
  35   2.0000     -10.326750      -281.0051
  36   2.0000     -10.325120      -280.9608
  37   2.0000     -10.323611      -280.9197
  38   2.0000     -10.322114      -280.8790
  39   2.0000     -10.315534      -280.7000
  40   2.0000     -10.314426      -280.6698
  41   2.0000     -10.312376      -280.6140
  42   2.0000     -10.308776      -280.5161
  43   2.0000     -10.308255      -280.5019
  44   2.0000     -10.307877      -280.4916
  45   2.0000     -10.306647      -280.4581
  46   2.0000     -10.305161      -280.4177
  47   2.0000     -10.304762      -280.4068
  48   2.0000     -10.302858      -280.3550
  49   2.0000     -10.302306      -280.3400
  50   2.0000     -10.301991      -280.3314
  51   2.0000     -10.301693      -280.3233
  52   2.0000     -10.300890      -280.3015
  53   2.0000     -10.300041      -280.2784
  54   2.0000     -10.298634      -280.2401
  55   2.0000     -10.298112      -280.2259
  56   2.0000     -10.291890      -280.0566
  57   2.0000     -10.286618      -279.9131
  58   2.0000     -10.283683      -279.8332
  59   2.0000     -10.282023      -279.7881
  60   2.0000     -10.281952      -279.7861
  61   2.0000     -10.280403      -279.7440
  62   2.0000     -10.279302      -279.7140
  63   2.0000     -10.278257      -279.6856
  64   2.0000     -10.278150      -279.6827
  65   2.0000     -10.277346      -279.6608
  66   2.0000     -10.275670      -279.6152
  67   2.0000     -10.275159      -279.6013
  68   2.0000     -10.268953      -279.4324
  69   2.0000     -10.263158      -279.2747
  70   2.0000     -10.262571      -279.2588
  71   2.0000     -10.260493      -279.2022
  72   2.0000     -10.256877      -279.1038
  73   2.0000      -8.797573      -239.3941
  74   2.0000      -8.786424      -239.0908
  75   2.0000      -8.077536      -219.8009
  76   2.0000      -8.054599      -219.1768
  77   2.0000      -8.048639      -219.0146
  78   2.0000      -8.044491      -218.9017
  79   2.0000      -6.633908      -180.5178
  80   2.0000      -6.622286      -180.2016
  81   2.0000      -6.619301      -180.1203
  82   2.0000      -6.619077      -180.1142
  83   2.0000      -6.608314      -179.8214
  84   2.0000      -6.608288      -179.8207
  85   2.0000      -6.047218      -164.5532
  86   2.0000      -6.042940      -164.4368
  87   2.0000      -6.038775      -164.3234
  88   2.0000      -6.024389      -163.9320
  89   2.0000      -6.020084      -163.8148
  90   2.0000      -6.018230      -163.7644
  91   2.0000      -6.015877      -163.7003
  92   2.0000      -6.014245      -163.6559
  93   2.0000      -6.013886      -163.6462
  94   2.0000      -6.009780      -163.5344
  95   2.0000      -6.009724      -163.5329
  96   2.0000      -6.006364      -163.4415
  97   2.0000      -2.749764       -74.8249
  98   2.0000      -2.745691       -74.7140
  99   2.0000      -2.745505       -74.7090
 100   2.0000      -2.738296       -74.5128
 101   2.0000      -2.734293       -74.4039
 102   2.0000      -2.734263       -74.4031
 103   2.0000      -2.733903       -74.3933
 104   2.0000      -2.733883       -74.3927
 105   2.0000      -2.723161       -74.1010
 106   2.0000      -2.723158       -74.1009
 107   2.0000      -1.141346       -31.0576
 108   2.0000      -1.096621       -29.8406
 109   2.0000      -1.092409       -29.7260
 110   2.0000      -1.064050       -28.9543
 111   2.0000      -1.029496       -28.0140
 112   2.0000      -1.019133       -27.7320
 113   2.0000      -1.000365       -27.2213
 114   2.0000      -0.998898       -27.1814
 115   2.0000      -0.997627       -27.1468
 116   2.0000      -0.996154       -27.1067
 117   2.0000      -0.986509       -26.8443
 118   2.0000      -0.984931       -26.8013
 119   2.0000      -0.972750       -26.4699
 120   2.0000      -0.961989       -26.1770
 121   2.0000      -0.959551       -26.1107
 122   2.0000      -0.952422       -25.9167
 123   2.0000      -0.936452       -25.4822
 124   2.0000      -0.922743       -25.1091
 125   2.0000      -0.920196       -25.0398
 126   2.0000      -0.914656       -24.8891
 127   2.0000      -0.906269       -24.6608
 128   2.0000      -0.892598       -24.2888
 129   2.0000      -0.889930       -24.2162
 130   2.0000      -0.886096       -24.1119
 131   2.0000      -0.880857       -23.9693
 132   2.0000      -0.863534       -23.4979
 133   2.0000      -0.860996       -23.4289
 134   2.0000      -0.853199       -23.2167
 135   2.0000      -0.848407       -23.0863
 136   2.0000      -0.840073       -22.8596
 137   2.0000      -0.835476       -22.7345
 138   2.0000      -0.822113       -22.3708
 139   2.0000      -0.816935       -22.2299
 140   2.0000      -0.806805       -21.9543
 141   2.0000      -0.805754       -21.9257
 142   2.0000      -0.792702       -21.5705
 143   2.0000      -0.774494       -21.0751
 144   2.0000      -0.769394       -20.9363
 145   2.0000      -0.764110       -20.7925
 146   2.0000      -0.753878       -20.5141
 147   2.0000      -0.746143       -20.3036
 148   2.0000      -0.734936       -19.9986
 149   2.0000      -0.729705       -19.8563
 150   2.0000      -0.720056       -19.5937
 151   2.0000      -0.705529       -19.1984
 152   2.0000      -0.700101       -19.0507
 153   2.0000      -0.697302       -18.9745
 154   2.0000      -0.681684       -18.5496
 155   2.0000      -0.677666       -18.4402
 156   2.0000      -0.674646       -18.3581
 157   2.0000      -0.663616       -18.0579
 158   2.0000      -0.659986       -17.9591
 159   2.0000      -0.655919       -17.8485
 160   2.0000      -0.649052       -17.6616
 161   2.0000      -0.635707       -17.2985
 162   2.0000      -0.633200       -17.2303
 163   2.0000      -0.631132       -17.1740
 164   2.0000      -0.629836       -17.1387
 165   2.0000      -0.627862       -17.0850
 166   2.0000      -0.612994       -16.6804
 167   2.0000      -0.606767       -16.5110
 168   2.0000      -0.604753       -16.4562
 169   2.0000      -0.603983       -16.4352
 170   2.0000      -0.596385       -16.2285
 171   2.0000      -0.594336       -16.1727
 172   2.0000      -0.590822       -16.0771
 173   2.0000      -0.587352       -15.9827
 174   2.0000      -0.579777       -15.7765
 175   2.0000      -0.569612       -15.4999
 176   2.0000      -0.563868       -15.3436
 177   2.0000      -0.558995       -15.2110
 178   2.0000      -0.554653       -15.0929
 179   2.0000      -0.554013       -15.0755
 180   2.0000      -0.548283       -14.9195
 181   2.0000      -0.545090       -14.8326
 182   2.0000      -0.537073       -14.6145
 183   2.0000      -0.535707       -14.5773
 184   2.0000      -0.532460       -14.4890
 185   2.0000      -0.526507       -14.3270
 186   2.0000      -0.525788       -14.3074
 187   2.0000      -0.523605       -14.2480
 188   2.0000      -0.520419       -14.1613
 189   2.0000      -0.517301       -14.0765
 190   2.0000      -0.516228       -14.0473
 191   2.0000      -0.515209       -14.0196
 192   2.0000      -0.512474       -13.9451
 193   2.0000      -0.506851       -13.7921
 194   2.0000      -0.506000       -13.7690
 195   2.0000      -0.502580       -13.6759
 196   2.0000      -0.500737       -13.6258
 197   2.0000      -0.499287       -13.5863
 198   2.0000      -0.498383       -13.5617
 199   2.0000      -0.495131       -13.4732
 200   2.0000      -0.493410       -13.4264
 201   2.0000      -0.486851       -13.2479
 202   2.0000      -0.485670       -13.2157
 203   2.0000      -0.482880       -13.1398
 204   2.0000      -0.481007       -13.0889
 205   2.0000      -0.478432       -13.0188
 206   2.0000      -0.477615       -12.9966
 207   2.0000      -0.474433       -12.9100
 208   2.0000      -0.472351       -12.8533
 209   2.0000      -0.465722       -12.6729
 210   2.0000      -0.464312       -12.6346
 211   2.0000      -0.462514       -12.5856
 212   2.0000      -0.458697       -12.4818
 213   2.0000      -0.456375       -12.4186
 214   2.0000      -0.454022       -12.3546
 215   2.0000      -0.453168       -12.3313
 216   2.0000      -0.451481       -12.2854
 217   2.0000      -0.447917       -12.1885
 218   2.0000      -0.444756       -12.1024
 219   2.0000      -0.442748       -12.0478
 220   2.0000      -0.438335       -11.9277
 221   2.0000      -0.434919       -11.8348
 222   2.0000      -0.431965       -11.7544
 223   2.0000      -0.430253       -11.7078
 224   2.0000      -0.428352       -11.6560
 225   2.0000      -0.425591       -11.5809
 226   2.0000      -0.423436       -11.5223
 227   2.0000      -0.421347       -11.4654
 228   2.0000      -0.419904       -11.4262
 229   2.0000      -0.418572       -11.3899
 230   2.0000      -0.413284       -11.2460
 231   2.0000      -0.412946       -11.2368
 232   2.0000      -0.408398       -11.1131
 233   2.0000      -0.402382       -10.9494
 234   2.0000      -0.401849       -10.9349
 235   2.0000      -0.400670       -10.9028
 236   2.0000      -0.396565       -10.7911
 237   2.0000      -0.393275       -10.7016
 238   2.0000      -0.389577       -10.6009
 239   2.0000      -0.383235       -10.4284
 240   2.0000      -0.381842       -10.3905
 241   2.0000      -0.379644       -10.3306
 242   2.0000      -0.376874       -10.2553
 243   2.0000      -0.374999       -10.2042
 244   2.0000      -0.368723       -10.0335
 245   2.0000      -0.367171        -9.9912
 246   2.0000      -0.357572        -9.7300
 247   2.0000      -0.347515        -9.4564
 248   2.0000      -0.343177        -9.3383
 249   2.0000      -0.340094        -9.2544
 250   2.0000      -0.335164        -9.1203
 251   2.0000      -0.323012        -8.7896
 252   2.0000      -0.321572        -8.7504
 253   2.0000      -0.320261        -8.7147
 254   2.0000      -0.312052        -8.4914
 255   2.0000      -0.305041        -8.3006
 256   2.0000      -0.299063        -8.1379
 257   2.0000      -0.296734        -8.0745
 258   2.0000      -0.291328        -7.9274
 259   2.0000      -0.269881        -7.3438
 260   2.0000      -0.264080        -7.1860
 261   2.0000      -0.213376        -5.8062
 262   0.0000      -0.097153        -2.6437
 263   0.0000      -0.086142        -2.3440
 264   0.0000      -0.067360        -1.8330
 265   0.0000      -0.039484        -1.0744
 266   0.0000      -0.028666        -0.7800

MULLIKEN ATOMIC CHARGES
-----------------------
   0 C :    0.301425
   1 C :   -0.330517
   2 C :   -0.186881
   3 N :    0.158120
   4 C :   -0.200351
   5 N :    0.170870
   6 C :    0.017346
   7 C :   -0.026300
   8 C :   -0.063953
   9 C :    0.114287
  10 C :   -0.089155
  11 C :   -0.016558
  12 S :    0.190705
  13 C :   -0.124367
  14 C :    0.041971
  15 Br:    0.029289
  16 C :    0.138162
  17 O :   -0.138511
  18 C :   -0.077155
  19 C :   -0.029151
  20 C :   -0.014728
  21 C :    0.101630
  22 N :   -0.066797
  23 C :   -0.063324
  24 N :   -0.060585
  25 C :    0.059575
  26 C :    0.052740
  27 C :   -0.194833
  28 C :    0.104597
  29 C :    0.199599
  30 N :   -0.127235
  31 C :    0.062528
  32 C :   -0.029862
  33 C :    0.026064
  34 C :   -0.056082
  35 C :    0.061697
  36 C :    0.009492
  37 C :   -0.011840
  38 S :    0.103685
  39 C :   -0.075861
  40 C :    0.039766
  41 C :    0.055117
  42 C :   -0.046661
  43 S :    0.128255
  44 C :   -0.006883
  45 C :    0.026310
  46 C :   -0.149337
  47 C :    0.288957
  48 C :   -0.384903
  49 C :   -0.170567
  50 N :    0.120001
  51 C :   -0.211910
  52 N :    0.149932
  53 C :    0.014416
  54 C :    0.006369
  55 C :    0.129194
  56 O :   -0.160472
  57 C :   -0.083264
  58 C :    0.117027
  59 C :   -0.059370
  60 C :   -0.045668
  61 S :    0.123048
  62 C :   -0.115236
  63 C :    0.060456
  64 Br:   -0.007764
  65 H :   -0.007257
  66 H :   -0.002948
  67 H :   -0.001890
  68 H :    0.047823
  69 H :    0.008149
  70 H :    0.011111
  71 H :   -0.018548
  72 H :    0.040340
  73 H :    0.039597
  74 H :    0.011240
  75 H :    0.024357
  76 H :    0.018591
  77 H :    0.129916
  78 H :    0.013508
  79 H :    0.002112
  80 H :   -0.007511
  81 H :   -0.008202
  82 H :   -0.010373
  83 H :   -0.015547
  84 H :   -0.013171
  85 H :   -0.008195
  86 H :    0.015819
  87 H :   -0.017243
  88 H :   -0.019878
  89 H :   -0.008346
Sum of atomic charges:   -0.0000000

LOEWDIN ATOMIC CHARGES
----------------------
   0 C :    0.071162
   1 C :   -0.129650
   2 C :   -0.018185
   3 N :   -0.046054
   4 C :   -0.026217
   5 N :   -0.040890
   6 C :   -0.020672
   7 C :   -0.053156
   8 C :    0.024412
   9 C :   -0.031525
  10 C :   -0.141994
  11 C :   -0.008757
  12 S :    0.436369
  13 C :   -0.269971
  14 C :   -0.069887
  15 Br:    0.141109
  16 C :    0.082721
  17 O :   -0.132428
  18 C :   -0.083119
  19 C :    0.070441
  20 C :   -0.091596
  21 C :    0.081087
  22 N :   -0.080220
  23 C :    0.044886
  24 N :   -0.072020
  25 C :    0.068342
  26 C :   -0.066693
  27 C :    0.000027
  28 C :   -0.058417
  29 C :    0.052455
  30 N :    0.024078
  31 C :    0.069282
  32 C :   -0.123244
  33 C :    0.006975
  34 C :   -0.184297
  35 C :   -0.000995
  36 C :   -0.056414
  37 C :   -0.128209
  38 S :    0.400154
  39 C :   -0.215767
  40 C :   -0.017430
  41 C :   -0.045013
  42 C :   -0.112129
  43 S :    0.470490
  44 C :   -0.082740
  45 C :    0.033274
  46 C :   -0.124797
  47 C :    0.036408
  48 C :   -0.181809
  49 C :   -0.020400
  50 N :   -0.090587
  51 C :   -0.028688
  52 N :   -0.072632
  53 C :   -0.006666
  54 C :   -0.051447
  55 C :    0.081378
  56 O :   -0.158912
  57 C :    0.019380
  58 C :   -0.038274
  59 C :   -0.139700
  60 C :   -0.028332
  61 S :    0.413922
  62 C :   -0.279867
  63 C :   -0.056149
  64 Br:    0.131111
  65 H :    0.042147
  66 H :    0.041998
  67 H :    0.039547
  68 H :    0.046171
  69 H :    0.021703
  70 H :    0.029544
  71 H :    0.031928
  72 H :    0.033723
  73 H :    0.041570
  74 H :    0.032699
  75 H :    0.029802
  76 H :    0.030919
  77 H :    0.086149
  78 H :    0.031949
  79 H :    0.023128
  80 H :    0.036523
  81 H :    0.035835
  82 H :    0.033122
  83 H :    0.031982
  84 H :    0.034048
  85 H :    0.037877
  86 H :    0.042924
  87 H :    0.038168
  88 H :    0.035590
  89 H :    0.037441

  Mayer bond orders larger than 0.100000
B(  0-C ,  1-C ) :   1.6606 B(  0-C ,  6-C ) :   1.0173 B(  0-C , 18-C ) :   1.0342
B(  1-C ,  2-C ) :   1.1339 B(  1-C ,  4-C ) :   1.1493 B(  2-C ,  3-N ) :   2.9761
B(  4-C ,  5-N ) :   2.9611 B(  6-C ,  7-C ) :   1.2695 B(  6-C , 11-C ) :   1.4011
B(  7-C ,  8-C ) :   1.4228 B(  7-C , 16-C ) :   0.9412 B(  8-C ,  9-C ) :   1.2480
B(  8-C , 65-H ) :   1.0173 B(  9-C , 10-C ) :   1.3004 B(  9-C , 14-C ) :   1.1644
B( 10-C , 11-C ) :   1.3356 B( 10-C , 12-S ) :   1.0874 B( 11-C , 66-H ) :   0.9812
B( 12-S , 13-C ) :   1.0869 B( 13-C , 14-C ) :   1.6164 B( 13-C , 15-Br) :   1.0218
B( 14-C , 67-H ) :   1.0010 B( 16-C , 17-O ) :   2.2365 B( 16-C , 18-C ) :   0.9279
B( 18-C , 19-C ) :   1.7017 B( 19-C , 20-C ) :   1.0455 B( 19-C , 68-H ) :   0.9468
B( 20-C , 21-C ) :   1.3054 B( 20-C , 25-C ) :   1.3120 B( 21-C , 22-N ) :   1.5919
B( 21-C , 69-H ) :   0.9786 B( 22-N , 23-C ) :   1.5064 B( 23-C , 24-N ) :   1.4903
B( 23-C , 26-C ) :   1.0502 B( 24-N , 25-C ) :   1.5630 B( 25-C , 70-H ) :   0.9920
B( 26-C , 27-C ) :   1.7486 B( 26-C , 71-H ) :   0.9573 B( 27-C , 28-C ) :   1.0798
B( 27-C , 29-C ) :   1.0294 B( 28-C , 72-H ) :   0.9205 B( 28-C , 73-H ) :   0.9362
B( 28-C , 74-H ) :   0.9386 B( 29-C , 30-N ) :   1.0008 B( 29-C , 75-H ) :   0.9401
B( 29-C , 76-H ) :   0.9340 B( 30-N , 31-C ) :   1.2777 B( 30-N , 77-H ) :   0.9320
B( 31-C , 32-C ) :   1.5340 B( 31-C , 78-H ) :   0.9704 B( 32-C , 33-C ) :   1.2182
B( 32-C , 79-H ) :   0.9605 B( 33-C , 34-C ) :   1.5374 B( 33-C , 80-H ) :   0.9792
B( 34-C , 35-C ) :   1.1785 B( 34-C , 38-S ) :   1.0187 B( 35-C , 36-C ) :   1.5501
B( 35-C , 81-H ) :   0.9971 B( 36-C , 37-C ) :   1.2222 B( 36-C , 82-H ) :   0.9944
B( 37-C , 38-S ) :   1.1143 B( 37-C , 39-C ) :   1.4203 B( 39-C , 40-C ) :   1.2385
B( 39-C , 43-S ) :   1.0392 B( 40-C , 41-C ) :   1.5283 B( 40-C , 83-H ) :   0.9905
B( 41-C , 42-C ) :   1.2068 B( 41-C , 84-H ) :   0.9960 B( 42-C , 43-S ) :   1.1364
B( 42-C , 44-C ) :   1.3794 B( 44-C , 45-C ) :   1.3982 B( 44-C , 85-H ) :   0.9538
B( 45-C , 46-C ) :   1.4025 B( 45-C , 86-H ) :   0.9290 B( 46-C , 47-C ) :   1.1767
B( 46-C , 55-C ) :   0.9757 B( 47-C , 48-C ) :   1.5062 B( 47-C , 53-C ) :   0.9999
B( 48-C , 49-C ) :   1.1529 B( 48-C , 51-C ) :   1.1727 B( 49-C , 50-N ) :   2.9595
B( 51-C , 52-N ) :   3.0035 B( 53-C , 54-C ) :   1.2846 B( 53-C , 60-C ) :   1.4317
B( 54-C , 55-C ) :   0.9115 B( 54-C , 57-C ) :   1.4367 B( 55-C , 56-O ) :   2.2421
B( 57-C , 58-C ) :   1.2358 B( 57-C , 87-H ) :   1.0164 B( 58-C , 59-C ) :   1.3408
B( 58-C , 63-C ) :   1.1550 B( 59-C , 60-C ) :   1.3029 B( 59-C , 61-S ) :   1.0666
B( 60-C , 88-H ) :   0.9823 B( 61-S , 62-C ) :   1.0733 B( 62-C , 63-C ) :   1.6342
B( 62-C , 64-Br) :   1.0020 B( 63-C , 89-H ) :   0.9982

-----------------------------------------------------------------------------
         ABSORPTION SPECTRUM VIA TRANSITION ELECTRIC DIPOLE MOMENTS
-----------------------------------------------------------------------------
State   Energy  Wavelength   fosc         T2         TX        TY        TZ
        (cm-1)    (nm)                  (au**2)     (au)      (au)      (au)
-----------------------------------------------------------------------------
   0   12407.4    806.0   0.522817383  13.87214  -0.10037  -0.24555   3.71507
   1   15505.7    644.9   0.067082166   1.42426  -0.10255  -0.85549  -0.82576
   2   21044.6    475.2   0.069583349   1.08853   0.36410   0.63490  -0.74355
   3   22196.9    450.5   0.060777135   0.90141   0.32708   0.61955  -0.64077
   4   22615.0    442.2   0.061069684   0.88900   0.16373   0.87731   0.30419
   5   23071.8    433.4   0.123899271   1.76792   0.52946   1.05167  -0.61772
   6   24316.1    411.3   0.162357734   2.19814   0.25530  -1.41973  -0.34252
   7   25217.9    396.5   0.646070657   8.43427  -0.04954   2.24946   1.83623
   8   26571.0    376.3   0.766548937   9.49745  -0.19663  -2.66657   1.53238
   9   26859.0    372.3   0.216432710   2.65282   0.03729   1.59542  -0.32568
  10   27372.9    365.3   0.030538342   0.36728   0.19541   0.51069  -0.26132
  11   27475.6    364.0   0.006341967   0.07599  -0.01338  -0.10430   0.25482
  12   27835.0    359.3   0.275761443   3.26151   0.03503  -1.78787  -0.25259
  13   29202.8    342.4   0.067722299   0.76345   0.06573  -0.63180   0.59997
  14   29404.8    340.1   0.030775291   0.34456  -0.16037   0.31119   0.47116
  15   29705.8    336.6   0.045458805   0.50379  -0.06659   0.33783  -0.62067
  16   29905.2    334.4   0.011673457   0.12851  -0.04946  -0.09924  -0.34090
  17   30206.6    331.1   0.014499003   0.15802  -0.04014  -0.32416   0.22656
  18   30417.0    328.8   0.019369027   0.20964   0.07198   0.21547  -0.39753
  19   31457.7    317.9   0.373868698   3.91261   0.39812  -1.88824  -0.43434
  20   31588.8    316.6   0.099672650   1.03877  -0.29130   0.58408   0.78279
  21   32037.3    312.1   0.066491975   0.68326  -0.41601  -0.59449  -0.39595
  22   32127.8    311.3   0.379818087   3.89197   0.85414  -1.77817   0.02268
  23   32341.1    309.2   0.548544096   5.58383   0.78719  -2.21136  -0.27215
  24   33006.4    303.0   0.060954465   0.60797   0.18070   0.20630   0.72990
  25   33194.2    301.3   0.311191582   3.08632  -0.22403   1.74196   0.04110
  26   33369.1    299.7   0.002612297   0.02577   0.05903   0.04048   0.14370
  27   33421.8    299.2   0.316371709   3.11633   0.12111   1.37907  -1.09537
  28   33801.3    295.8   0.030044489   0.29262   0.33977  -0.35117   0.23209
  29   33977.8    294.3   0.027081361   0.26239  -0.10347  -0.13198   0.48401
  30   34347.9    291.1   0.024254636   0.23247  -0.00413  -0.08714   0.47419
  31   34558.6    289.4   0.082894913   0.78967  -0.30445   0.80062   0.23663
  32   34852.1    286.9   0.044951132   0.42461   0.42667  -0.02859  -0.49167
  33   35245.1    283.7   0.003178250   0.02969  -0.13803  -0.03007   0.09864
  34   35466.2    282.0   0.011036751   0.10245  -0.05906   0.29904   0.09763
  35   35875.2    278.7   0.001984792   0.01821   0.05507  -0.09731  -0.07558
  36   36402.6    274.7   0.000428072   0.00387   0.04390  -0.04236   0.01221
  37   37059.9    269.8   0.120866370   1.07368  -0.06737   0.76288   0.69797
  38   37195.6    268.8   0.166795173   1.47627   0.66975  -0.19718  -0.99440
  39   37339.5    267.8   0.080003053   0.70537  -0.19312  -0.02310   0.81703
  40   37416.5    267.3   0.016834565   0.14812   0.09854  -0.14513  -0.34256
  41   37635.7    265.7   0.050877476   0.44504  -0.57779   0.31007   0.12271
  42   38124.1    262.3   0.032176292   0.27785  -0.16924  -0.17954  -0.46581
  43   38424.6    260.2   0.082364755   0.70568   0.35240  -0.20843  -0.73352
  44   38648.1    258.7   0.077793258   0.66266   0.40764  -0.39038  -0.58659
  45   38872.5    257.3   0.075961887   0.64332  -0.06693   0.51853   0.60825
  46   39007.9    256.4   0.008634702   0.07287   0.15410   0.08016   0.20664
  47   39279.2    254.6   0.017618119   0.14766  -0.05119  -0.32943  -0.19111
  48   39505.4    253.1   0.098544036   0.82120  -0.38260  -0.04228   0.82039
  49   39585.1    252.6   0.001668516   0.01388   0.07546  -0.05120   0.07458
  50   40034.2    249.8   0.012308774   0.10122  -0.09589   0.22516   0.20329

FINAL SINGLE POINT ENERGY     -9191.028145101594

DIPOLE MOMENT
-------------
                                X             Y             Z
Electronic contribution:     27.89805    -194.40842     -70.99517
Nuclear contribution   :    -27.68287     192.46550      76.17973
                        -----------------------------------------
Total Dipole Moment    :      0.21518      -1.94292       5.18456
                        -----------------------------------------
Magnitude (a.u.)       :      5.54084
Magnitude (Debye)      :     14.08369

Rotational constants in cm-1:     0.001833     0.000364     0.000319
Rotational constants in MHz :    54.963178    10.921560     9.549265

                             ****ORCA TERMINATED NORMALLY****
TOTAL RUN TIME: 0 days 0 hours 10 minutes 30 seconds 673 msec
