                         Program Version 4.2.0 -  RELEASE  -
|  1> # ORCA input file
|  2> # SCF done       -215.565026988443          0.000870102698
|  3> ! CAM-B3LYP def2-SVP def2/J RIJCOSX Grid4 TightSCF
|  4> %maxcore 5000
|  5> %tddft
|  6>     Mode sTDDFT
|  7>     Ethresh 5.0
|  8>     maxcore 5000
|  9> end
| 10>
| 11> %pal
| 12>   nprocs 6
| 13>   end
| 14> * xyz 0 1
| 15>    C       -2.75455         9.27270        -6.68565
| 16>    C       -2.04608         8.28264        -7.32280
| 17>    C       -1.01819         8.52013        -8.25738
| 18>    N       -0.17584         8.64138        -9.02931
| 19>    C       -2.23208         6.89549        -7.15597
| 20>    N       -2.31311         5.75110        -7.08941
| 21>    C       -2.55314        10.70592        -6.88584
| 22>    C       -3.48384        11.41151        -6.08626
| 23>    C       -3.54612        12.78270        -6.05594
| 24>    C       -2.64455        13.49538        -6.85391
| 25>    C       -1.71717        12.78246        -7.64837
| 26>    C       -1.65466        11.39457        -7.67896
| 27>    S       -0.69455        13.85604        -8.55634
| 28>    C       -1.51762        15.22868        -7.86487
| 29>    C       -2.50601        14.90343        -6.99897
| 30>   Br       -0.99370        16.96342        -8.35148
| 31>    C       -4.31692        10.44547        -5.33750
| 32>    O       -5.21412        10.72489        -4.56757
| 33>    C       -3.82306         9.10789        -5.72610
| 34>    C       -4.30319         7.91916        -5.23145
| 35>    C       -5.34584         7.78866        -4.30178
| 36>    C       -5.74298         6.56122        -3.84844
| 37>    C       -6.77251         6.34804        -2.91890
| 38>    O       -7.49949         7.36887        -2.38964
| 39>    C       -8.40022         6.85015        -1.52248
| 40>    C       -8.25767         5.46131        -1.48809
| 41>    C       -7.22369         5.13689        -2.37827
| 42>    O       -6.74316         3.91648        -2.66979
| 43>    O       -8.94970         4.53804        -0.76694
| 44>    C       -9.30836         7.67165        -0.81386
| 45>    C       -9.41941         9.01657        -0.99260
| 46>    C      -10.31821         9.87353        -0.30671
| 47>    C      -11.03424         9.54098         0.80395
| 48>    C      -11.96804        10.35756         1.49046
| 49>    C      -12.47029        11.54794         1.06295
| 50>    C      -13.42906        12.28577         1.79375
| 51>    O      -13.95752        13.41803         1.26121
| 52>    C      -14.88153        13.92505         2.12334
| 53>    C      -14.91973        13.11305         3.25694
| 54>    C      -14.00467        12.06757         3.04646
| 55>    O      -13.74404        11.05782         3.90410
| 56>    O      -15.63279        13.22732         4.40913
| 57>    C      -15.58766        15.09139         1.74310
| 58>    C      -16.69395        15.58892         2.36266
| 59>    C      -17.40854        16.75692         1.99668
| 60>    C      -17.09375        17.65202         1.01812
| 61>    C      -17.90005        18.77806         0.74864
| 62>    C      -17.63129        19.71262        -0.20440
| 63>    C      -18.46225        20.82874        -0.44356
| 64>    O      -19.60774        21.01433         0.25707
| 65>    C      -20.19460        22.16594        -0.16641
| 66>    C      -19.40108        22.73235        -1.16947
| 67>    C      -18.30051        21.88094        -1.34913
| 68>    O      -17.27773        22.03054        -2.21587
| 69>    O      -19.59347        23.87522        -1.87600
| 70>    C      -21.40779        22.60426         0.39723
| 71>    C      -22.07999        21.91634         1.36776
| 72>    C      -23.28192        22.35078         1.94828
| 73>    C      -23.93278        21.65059         2.92844
| 74>    C      -25.12948        22.08943         3.51095
| 75>    C      -25.83806        21.50593         4.53126
| 76>    C      -25.51650        20.43759         5.44315
| 77>    C      -24.26962        20.06823         5.88848
| 78>    C      -24.03813        19.01911         6.79946
| 79>    N      -23.78141        18.15854         7.51599
| 80>    C      -23.07283        20.74830         5.58616
| 81>    N      -22.06765        21.28168         5.42977
| 82>    C      -26.77688        19.94490         5.99806
| 83>    C      -27.81816        20.82342         5.60797
| 84>    C      -27.26035        21.87103         4.72592
| 85>    O      -27.84847        22.80649         4.22774
| 86>    C      -29.11941        20.65050         6.01016
| 87>    C      -29.41019        19.55189         6.82700
| 88>    C      -28.36659        18.67279         7.19818
| 89>    C      -27.04739        18.85237         6.79842
| 90>    S      -28.94826        17.37606         8.19869
| 91>    C      -30.56316        18.02797         8.11031
| 92>    C      -30.66433        19.15586         7.36866
| 93>   Br      -31.96314        17.15452         9.00321
| 94>    H       -4.26751        13.29070        -5.43522
| 95>    H       -0.92801        10.90000        -8.30124
| 96>    H       -3.11352        15.62429        -6.48288
| 97>    H       -3.84713         6.99864        -5.57269
| 98>    H       -5.83824         8.67706        -3.93696
| 99>    H       -5.25282         5.66303        -4.19971
|100>    H       -7.23521         3.26094        -2.15740
|101>    H       -9.62267         4.97637        -0.23552
|102>    H       -9.95204         7.16053        -0.11095
|103>    H       -8.78577         9.46829        -1.74334
|104>    H      -10.40448        10.87646        -0.69978
|105>    H      -10.87312         8.56570         1.24355
|106>    H      -12.33443         9.97579         2.43236
|107>    H      -12.17924        11.97745         0.11591
|108>    H      -14.28626        11.19504         4.69331
|109>    H      -16.04545        14.09647         4.45708
|110>    H      -15.20379        15.57456         0.85672
|111>    H      -17.12111        15.04022         3.19226
|112>    H      -18.30526        16.95195         2.57200
|113>    H      -16.20445        17.52046         0.41865
|114>    H      -18.79241        18.90584         1.34701
|115>    H      -16.75162        19.64520        -0.82676
|116>    H      -17.41719        22.84806        -2.71153
|117>    H      -20.39970        24.31294        -1.58249
|118>    H      -21.81139        23.53842         0.02757
|119>    H      -21.65517        20.98689         1.71887
|120>    H      -23.69536        23.29595         1.61838
|121>    H      -23.51071        20.70817         3.24544
|122>    H      -25.61491        22.94922         3.05987
|123>    H      -29.89072        21.34030         5.70544
|124>    H      -26.28742        18.15242         7.10369
|125>    H      -31.58397        19.68833         7.20819
|126> *
|127>
|128>                          ****END OF INPUT****

CARTESIAN COORDINATES (ANGSTROEM)
---------------------------------
  C     -2.754550    9.272700   -6.685650
  C     -2.046080    8.282640   -7.322800
  C     -1.018190    8.520130   -8.257380
  N     -0.175840    8.641380   -9.029310
  C     -2.232080    6.895490   -7.155970
  N     -2.313110    5.751100   -7.089410
  C     -2.553140   10.705920   -6.885840
  C     -3.483840   11.411510   -6.086260
  C     -3.546120   12.782700   -6.055940
  C     -2.644550   13.495380   -6.853910
  C     -1.717170   12.782460   -7.648370
  C     -1.654660   11.394570   -7.678960
  S     -0.694550   13.856040   -8.556340
  C     -1.517620   15.228680   -7.864870
  C     -2.506010   14.903430   -6.998970
  Br    -0.993700   16.963420   -8.351480
  C     -4.316920   10.445470   -5.337500
  O     -5.214120   10.724890   -4.567570
  C     -3.823060    9.107890   -5.726100
  C     -4.303190    7.919160   -5.231450
  C     -5.345840    7.788660   -4.301780
  C     -5.742980    6.561220   -3.848440
  C     -6.772510    6.348040   -2.918900
  O     -7.499490    7.368870   -2.389640
  C     -8.400220    6.850150   -1.522480
  C     -8.257670    5.461310   -1.488090
  C     -7.223690    5.136890   -2.378270
  O     -6.743160    3.916480   -2.669790
  O     -8.949700    4.538040   -0.766940
  C     -9.308360    7.671650   -0.813860
  C     -9.419410    9.016570   -0.992600
  C    -10.318210    9.873530   -0.306710
  C    -11.034240    9.540980    0.803950
  C    -11.968040   10.357560    1.490460
  C    -12.470290   11.547940    1.062950
  C    -13.429060   12.285770    1.793750
  O    -13.957520   13.418030    1.261210
  C    -14.881530   13.925050    2.123340
  C    -14.919730   13.113050    3.256940
  C    -14.004670   12.067570    3.046460
  O    -13.744040   11.057820    3.904100
  O    -15.632790   13.227320    4.409130
  C    -15.587660   15.091390    1.743100
  C    -16.693950   15.588920    2.362660
  C    -17.408540   16.756920    1.996680
  C    -17.093750   17.652020    1.018120
  C    -17.900050   18.778060    0.748640
  C    -17.631290   19.712620   -0.204400
  C    -18.462250   20.828740   -0.443560
  O    -19.607740   21.014330    0.257070
  C    -20.194600   22.165940   -0.166410
  C    -19.401080   22.732350   -1.169470
  C    -18.300510   21.880940   -1.349130
  O    -17.277730   22.030540   -2.215870
  O    -19.593470   23.875220   -1.876000
  C    -21.407790   22.604260    0.397230
  C    -22.079990   21.916340    1.367760
  C    -23.281920   22.350780    1.948280
  C    -23.932780   21.650590    2.928440
  C    -25.129480   22.089430    3.510950
  C    -25.838060   21.505930    4.531260
  C    -25.516500   20.437590    5.443150
  C    -24.269620   20.068230    5.888480
  C    -24.038130   19.019110    6.799460
  N    -23.781410   18.158540    7.515990
  C    -23.072830   20.748300    5.586160
  N    -22.067650   21.281680    5.429770
  C    -26.776880   19.944900    5.998060
  C    -27.818160   20.823420    5.607970
  C    -27.260350   21.871030    4.725920
  O    -27.848470   22.806490    4.227740
  C    -29.119410   20.650500    6.010160
  C    -29.410190   19.551890    6.827000
  C    -28.366590   18.672790    7.198180
  C    -27.047390   18.852370    6.798420
  S    -28.948260   17.376060    8.198690
  C    -30.563160   18.027970    8.110310
  C    -30.664330   19.155860    7.368660
  Br   -31.963140   17.154520    9.003210
  H     -4.267510   13.290700   -5.435220
  H     -0.928010   10.900000   -8.301240
  H     -3.113520   15.624290   -6.482880
  H     -3.847130    6.998640   -5.572690
  H     -5.838240    8.677060   -3.936960
  H     -5.252820    5.663030   -4.199710
  H     -7.235210    3.260940   -2.157400
  H     -9.622670    4.976370   -0.235520
  H     -9.952040    7.160530   -0.110950
  H     -8.785770    9.468290   -1.743340
  H    -10.404480   10.876460   -0.699780
  H    -10.873120    8.565700    1.243550
  H    -12.334430    9.975790    2.432360
  H    -12.179240   11.977450    0.115910
  H    -14.286260   11.195040    4.693310
  H    -16.045450   14.096470    4.457080
  H    -15.203790   15.574560    0.856720
  H    -17.121110   15.040220    3.192260
  H    -18.305260   16.951950    2.572000
  H    -16.204450   17.520460    0.418650
  H    -18.792410   18.905840    1.347010
  H    -16.751620   19.645200   -0.826760
  H    -17.417190   22.848060   -2.711530
  H    -20.399700   24.312940   -1.582490
  H    -21.811390   23.538420    0.027570
  H    -21.655170   20.986890    1.718870
  H    -23.695360   23.295950    1.618380
  H    -23.510710   20.708170    3.245440
  H    -25.614910   22.949220    3.059870
  H    -29.890720   21.340300    5.705440
  H    -26.287420   18.152420    7.103690
  H    -31.583970   19.688330    7.208190

 Total Charge           Charge          ....    0
 Multiplicity           Mult            ....    1
 Number of Electrons    NEL             ....  610
 Basis Dimension        Dim             .... 1310

ORBITAL ENERGIES
----------------

  NO   OCC          E(Eh)            E(eV)
   0   2.0000    -482.882024    -13139.8879
   1   2.0000    -482.877757    -13139.7718
   2   2.0000     -88.970499     -2421.0104
   3   2.0000     -88.965334     -2420.8698
   4   2.0000     -62.559713     -1702.3363
   5   2.0000     -62.555452     -1702.2204
   6   2.0000     -56.393660     -1534.5495
   7   2.0000     -56.390954     -1534.4759
   8   2.0000     -56.390921     -1534.4750
   9   2.0000     -56.389389     -1534.4333
  10   2.0000     -56.386699     -1534.3601
  11   2.0000     -56.386662     -1534.3591
  12   2.0000     -19.297100      -525.1008
  13   2.0000     -19.294045      -525.0177
  14   2.0000     -19.290075      -524.9096
  15   2.0000     -19.284151      -524.7484
  16   2.0000     -19.274675      -524.4906
  17   2.0000     -19.273675      -524.4634
  18   2.0000     -19.271190      -524.3957
  19   2.0000     -19.265557      -524.2425
  20   2.0000     -19.265430      -524.2390
  21   2.0000     -19.204701      -522.5865
  22   2.0000     -19.199297      -522.4394
  23   2.0000     -14.408894      -392.0859
  24   2.0000     -14.405580      -391.9958
  25   2.0000     -14.400493      -391.8573
  26   2.0000     -14.398917      -391.8144
  27   2.0000     -10.356631      -281.8183
  28   2.0000     -10.355584      -281.7898
  29   2.0000     -10.353937      -281.7449
  30   2.0000     -10.352639      -281.7096
  31   2.0000     -10.349961      -281.6368
  32   2.0000     -10.349149      -281.6147
  33   2.0000     -10.347349      -281.5657
  34   2.0000     -10.345504      -281.5155
  35   2.0000     -10.345467      -281.5145
  36   2.0000     -10.343900      -281.4718
  37   2.0000     -10.343355      -281.4570
  38   2.0000     -10.342993      -281.4471
  39   2.0000     -10.339950      -281.3643
  40   2.0000     -10.336422      -281.2684
  41   2.0000     -10.333735      -281.1952
  42   2.0000     -10.333700      -281.1943
  43   2.0000     -10.333340      -281.1845
  44   2.0000     -10.333144      -281.1791
  45   2.0000     -10.324631      -280.9475
  46   2.0000     -10.322865      -280.8994
  47   2.0000     -10.319823      -280.8167
  48   2.0000     -10.313521      -280.6452
  49   2.0000     -10.312325      -280.6126
  50   2.0000     -10.310751      -280.5698
  51   2.0000     -10.308925      -280.5201
  52   2.0000     -10.305108      -280.4162
  53   2.0000     -10.304285      -280.3938
  54   2.0000     -10.303046      -280.3601
  55   2.0000     -10.301632      -280.3217
  56   2.0000     -10.301384      -280.3149
  57   2.0000     -10.301145      -280.3084
  58   2.0000     -10.298942      -280.2484
  59   2.0000     -10.298131      -280.2264
  60   2.0000     -10.296509      -280.1822
  61   2.0000     -10.295635      -280.1585
  62   2.0000     -10.294900      -280.1385
  63   2.0000     -10.294731      -280.1339
  64   2.0000     -10.293935      -280.1122
  65   2.0000     -10.292168      -280.0641
  66   2.0000     -10.292090      -280.0620
  67   2.0000     -10.290961      -280.0313
  68   2.0000     -10.288067      -279.9525
  69   2.0000     -10.287414      -279.9348
  70   2.0000     -10.287241      -279.9300
  71   2.0000     -10.285934      -279.8945
  72   2.0000     -10.285670      -279.8873
  73   2.0000     -10.285261      -279.8762
  74   2.0000     -10.284733      -279.8618
  75   2.0000     -10.284542      -279.8566
  76   2.0000     -10.283405      -279.8257
  77   2.0000     -10.282418      -279.7988
  78   2.0000     -10.282118      -279.7907
  79   2.0000     -10.281012      -279.7606
  80   2.0000     -10.280839      -279.7559
  81   2.0000     -10.278518      -279.6927
  82   2.0000     -10.277803      -279.6732
  83   2.0000     -10.275612      -279.6136
  84   2.0000     -10.275223      -279.6030
  85   2.0000     -10.273601      -279.5589
  86   2.0000     -10.266464      -279.3647
  87   2.0000      -8.789112      -239.1639
  88   2.0000      -8.784872      -239.0485
  89   2.0000      -8.066572      -219.5026
  90   2.0000      -8.061228      -219.3572
  91   2.0000      -6.625388      -180.2860
  92   2.0000      -6.621087      -180.1689
  93   2.0000      -6.610861      -179.8907
  94   2.0000      -6.610655      -179.8851
  95   2.0000      -6.606636      -179.7757
  96   2.0000      -6.606467      -179.7711
  97   2.0000      -6.036274      -164.2554
  98   2.0000      -6.031999      -164.1390
  99   2.0000      -6.030931      -164.1100
 100   2.0000      -6.027755      -164.0235
 101   2.0000      -6.026655      -163.9936
 102   2.0000      -6.022468      -163.8797
 103   2.0000      -2.741281       -74.5941
 104   2.0000      -2.737140       -74.4814
 105   2.0000      -2.737071       -74.4795
 106   2.0000      -2.737011       -74.4778
 107   2.0000      -2.732874       -74.3653
 108   2.0000      -2.732793       -74.3631
 109   2.0000      -2.725495       -74.1645
 110   2.0000      -2.725483       -74.1642
 111   2.0000      -2.721283       -74.0499
 112   2.0000      -2.721267       -74.0494
 113   2.0000      -1.218849       -33.1666
 114   2.0000      -1.215964       -33.0881
 115   2.0000      -1.210030       -32.9266
 116   2.0000      -1.175649       -31.9910
 117   2.0000      -1.171206       -31.8701
 118   2.0000      -1.167637       -31.7730
 119   2.0000      -1.155286       -31.4369
 120   2.0000      -1.154585       -31.4178
 121   2.0000      -1.149769       -31.2868
 122   2.0000      -1.119059       -30.4511
 123   2.0000      -1.113198       -30.2916
 124   2.0000      -1.016268       -27.6541
 125   2.0000      -1.009821       -27.4786
 126   2.0000      -1.006203       -27.3802
 127   2.0000      -0.999269       -27.1915
 128   2.0000      -0.985981       -26.8299
 129   2.0000      -0.981836       -26.7171
 130   2.0000      -0.978764       -26.6335
 131   2.0000      -0.974583       -26.5197
 132   2.0000      -0.940678       -25.5972
 133   2.0000      -0.934744       -25.4357
 134   2.0000      -0.933098       -25.3909
 135   2.0000      -0.930147       -25.3106
 136   2.0000      -0.927524       -25.2392
 137   2.0000      -0.918341       -24.9893
 138   2.0000      -0.912784       -24.8381
 139   2.0000      -0.904808       -24.6211
 140   2.0000      -0.902293       -24.5526
 141   2.0000      -0.901815       -24.5396
 142   2.0000      -0.898578       -24.4515
 143   2.0000      -0.896433       -24.3932
 144   2.0000      -0.895354       -24.3638
 145   2.0000      -0.888651       -24.1814
 146   2.0000      -0.881194       -23.9785
 147   2.0000      -0.879650       -23.9365
 148   2.0000      -0.874412       -23.7940
 149   2.0000      -0.873116       -23.7587
 150   2.0000      -0.865754       -23.5584
 151   2.0000      -0.854752       -23.2590
 152   2.0000      -0.842718       -22.9315
 153   2.0000      -0.831910       -22.6374
 154   2.0000      -0.823214       -22.4008
 155   2.0000      -0.817750       -22.2521
 156   2.0000      -0.815629       -22.1944
 157   2.0000      -0.800266       -21.7764
 158   2.0000      -0.786664       -21.4062
 159   2.0000      -0.774467       -21.0743
 160   2.0000      -0.761540       -20.7225
 161   2.0000      -0.753882       -20.5142
 162   2.0000      -0.748426       -20.3657
 163   2.0000      -0.742295       -20.1989
 164   2.0000      -0.738665       -20.1001
 165   2.0000      -0.734442       -19.9852
 166   2.0000      -0.725552       -19.7433
 167   2.0000      -0.719064       -19.5667
 168   2.0000      -0.713751       -19.4222
 169   2.0000      -0.706611       -19.2279
 170   2.0000      -0.706062       -19.2129
 171   2.0000      -0.700151       -19.0521
 172   2.0000      -0.698888       -19.0177
 173   2.0000      -0.693913       -18.8823
 174   2.0000      -0.682691       -18.5770
 175   2.0000      -0.678870       -18.4730
 176   2.0000      -0.677737       -18.4421
 177   2.0000      -0.673103       -18.3161
 178   2.0000      -0.668165       -18.1817
 179   2.0000      -0.664543       -18.0831
 180   2.0000      -0.657988       -17.9048
 181   2.0000      -0.652356       -17.7515
 182   2.0000      -0.649729       -17.6800
 183   2.0000      -0.644497       -17.5377
 184   2.0000      -0.643774       -17.5180
 185   2.0000      -0.637538       -17.3483
 186   2.0000      -0.633961       -17.2510
 187   2.0000      -0.630309       -17.1516
 188   2.0000      -0.616605       -16.7787
 189   2.0000      -0.616039       -16.7633
 190   2.0000      -0.611618       -16.6430
 191   2.0000      -0.606341       -16.4994
 192   2.0000      -0.602603       -16.3977
 193   2.0000      -0.601228       -16.3602
 194   2.0000      -0.596855       -16.2412
 195   2.0000      -0.594462       -16.1761
 196   2.0000      -0.592242       -16.1157
 197   2.0000      -0.587811       -15.9952
 198   2.0000      -0.583665       -15.8823
 199   2.0000      -0.580884       -15.8067
 200   2.0000      -0.578741       -15.7483
 201   2.0000      -0.575970       -15.6730
 202   2.0000      -0.573639       -15.6095
 203   2.0000      -0.571762       -15.5584
 204   2.0000      -0.566415       -15.4129
 205   2.0000      -0.560596       -15.2546
 206   2.0000      -0.557640       -15.1741
 207   2.0000      -0.555538       -15.1170
 208   2.0000      -0.545272       -14.8376
 209   2.0000      -0.543933       -14.8012
 210   2.0000      -0.541142       -14.7252
 211   2.0000      -0.536397       -14.5961
 212   2.0000      -0.534326       -14.5397
 213   2.0000      -0.532963       -14.5027
 214   2.0000      -0.530695       -14.4409
 215   2.0000      -0.525905       -14.3106
 216   2.0000      -0.525030       -14.2868
 217   2.0000      -0.524245       -14.2654
 218   2.0000      -0.523666       -14.2497
 219   2.0000      -0.517908       -14.0930
 220   2.0000      -0.514584       -14.0025
 221   2.0000      -0.512444       -13.9443
 222   2.0000      -0.509112       -13.8536
 223   2.0000      -0.507827       -13.8187
 224   2.0000      -0.506165       -13.7735
 225   2.0000      -0.502885       -13.6842
 226   2.0000      -0.502121       -13.6634
 227   2.0000      -0.501077       -13.6350
 228   2.0000      -0.498256       -13.5582
 229   2.0000      -0.496597       -13.5131
 230   2.0000      -0.494903       -13.4670
 231   2.0000      -0.494309       -13.4508
 232   2.0000      -0.494174       -13.4472
 233   2.0000      -0.494045       -13.4437
 234   2.0000      -0.491809       -13.3828
 235   2.0000      -0.491026       -13.3615
 236   2.0000      -0.487759       -13.2726
 237   2.0000      -0.486150       -13.2288
 238   2.0000      -0.484942       -13.1959
 239   2.0000      -0.480265       -13.0687
 240   2.0000      -0.479457       -13.0467
 241   2.0000      -0.478980       -13.0337
 242   2.0000      -0.477994       -13.0069
 243   2.0000      -0.475611       -12.9420
 244   2.0000      -0.475065       -12.9272
 245   2.0000      -0.473435       -12.8828
 246   2.0000      -0.468509       -12.7488
 247   2.0000      -0.461525       -12.5587
 248   2.0000      -0.460824       -12.5397
 249   2.0000      -0.459303       -12.4983
 250   2.0000      -0.453870       -12.3504
 251   2.0000      -0.453823       -12.3491
 252   2.0000      -0.449927       -12.2431
 253   2.0000      -0.449834       -12.2406
 254   2.0000      -0.445194       -12.1143
 255   2.0000      -0.445101       -12.1118
 256   2.0000      -0.441247       -12.0069
 257   2.0000      -0.440759       -11.9937
 258   2.0000      -0.439727       -11.9656
 259   2.0000      -0.438720       -11.9382
 260   2.0000      -0.436976       -11.8907
 261   2.0000      -0.436558       -11.8793
 262   2.0000      -0.436386       -11.8747
 263   2.0000      -0.434530       -11.8242
 264   2.0000      -0.434498       -11.8233
 265   2.0000      -0.433157       -11.7868
 266   2.0000      -0.431956       -11.7541
 267   2.0000      -0.429408       -11.6848
 268   2.0000      -0.427362       -11.6291
 269   2.0000      -0.426362       -11.6019
 270   2.0000      -0.419285       -11.4093
 271   2.0000      -0.418860       -11.3978
 272   2.0000      -0.417037       -11.3481
 273   2.0000      -0.415210       -11.2984
 274   2.0000      -0.411959       -11.2100
 275   2.0000      -0.411128       -11.1874
 276   2.0000      -0.408614       -11.1190
 277   2.0000      -0.402306       -10.9473
 278   2.0000      -0.401643       -10.9293
 279   2.0000      -0.395697       -10.7675
 280   2.0000      -0.392357       -10.6766
 281   2.0000      -0.388229       -10.5643
 282   2.0000      -0.383736       -10.4420
 283   2.0000      -0.377375       -10.2689
 284   2.0000      -0.375397       -10.2151
 285   2.0000      -0.371537       -10.1100
 286   2.0000      -0.367215        -9.9924
 287   2.0000      -0.358570        -9.7572
 288   2.0000      -0.353994        -9.6327
 289   2.0000      -0.344109        -9.3637
 290   2.0000      -0.332523        -9.0484
 291   2.0000      -0.329440        -8.9645
 292   2.0000      -0.322770        -8.7830
 293   2.0000      -0.319951        -8.7063
 294   2.0000      -0.319376        -8.6907
 295   2.0000      -0.309740        -8.4284
 296   2.0000      -0.309338        -8.4175
 297   2.0000      -0.303669        -8.2632
 298   2.0000      -0.299985        -8.1630
 299   2.0000      -0.288693        -7.8557
 300   2.0000      -0.283624        -7.7178
 301   2.0000      -0.279326        -7.6008
 302   2.0000      -0.258140        -7.0244
 303   2.0000      -0.235956        -6.4207
 304   2.0000      -0.214886        -5.8474
 305   0.0000      -0.099021        -2.6945
 306   0.0000      -0.088683        -2.4132
 307   0.0000      -0.066269        -1.8033
 308   0.0000      -0.055521        -1.5108
 309   0.0000      -0.046947        -1.2775

MULLIKEN ATOMIC CHARGES
-----------------------
   0 C :    0.331778
   1 C :   -0.364468
   2 C :   -0.186155
   3 N :    0.137435
   4 C :   -0.193165
   5 N :    0.137726
   6 C :    0.012088
   7 C :   -0.012731
   8 C :   -0.075610
   9 C :    0.118468
  10 C :   -0.096278
  11 C :   -0.022554
  12 S :    0.180209
  13 C :   -0.124145
  14 C :    0.039409
  15 Br:    0.014455
  16 C :    0.137725
  17 O :   -0.162081
  18 C :   -0.072608
  19 C :   -0.033846
  20 C :   -0.008543
  21 C :    0.000323
  22 C :    0.078789
  23 O :   -0.213349
  24 C :    0.122346
  25 C :    0.068073
  26 C :    0.109457
  27 O :   -0.157233
  28 O :   -0.196887
  29 C :   -0.057800
  30 C :    0.032945
  31 C :    0.008605
  32 C :    0.027164
  33 C :   -0.011322
  34 C :    0.011937
  35 C :    0.102692
  36 O :   -0.212188
  37 C :    0.094929
  38 C :    0.066126
  39 C :    0.064442
  40 O :   -0.170922
  41 O :   -0.202069
  42 C :    0.031196
  43 C :   -0.039913
  44 C :    0.014632
  45 C :    0.028766
  46 C :    0.032348
  47 C :   -0.046019
  48 C :    0.098679
  49 O :   -0.221478
  50 C :    0.099644
  51 C :    0.098066
  52 C :    0.081149
  53 O :   -0.173737
  54 O :   -0.188697
  55 C :   -0.042162
  56 C :    0.015102
  57 C :    0.043762
  58 C :    0.004247
  59 C :    0.033852
  60 C :   -0.123185
  61 C :    0.290090
  62 C :   -0.345462
  63 C :   -0.178773
  64 N :    0.136227
  65 C :   -0.222742
  66 N :    0.165263
  67 C :    0.003951
  68 C :   -0.001325
  69 C :    0.136521
  70 O :   -0.152953
  71 C :   -0.074214
  72 C :    0.113809
  73 C :   -0.089498
  74 C :   -0.023675
  75 S :    0.179791
  76 C :   -0.123585
  77 C :    0.038595
  78 Br:    0.017620
  79 H :   -0.015861
  80 H :   -0.008038
  81 H :   -0.006881
  82 H :    0.006511
  83 H :    0.026277
  84 H :    0.023870
  85 H :    0.199543
  86 H :    0.192838
  87 H :   -0.036278
  88 H :    0.013294
  89 H :   -0.007694
  90 H :   -0.019014
  91 H :    0.001644
  92 H :   -0.012816
  93 H :    0.194639
  94 H :    0.194450
  95 H :   -0.003513
  96 H :   -0.037181
  97 H :   -0.010201
  98 H :   -0.011535
  99 H :    0.002650
 100 H :    0.002518
 101 H :    0.195222
 102 H :    0.195675
 103 H :   -0.023269
 104 H :    0.011532
 105 H :   -0.004275
 106 H :    0.012303
 107 H :    0.009067
 108 H :   -0.012325
 109 H :   -0.007181
 110 H :   -0.005028
Sum of atomic charges:   -0.0000000

LOEWDIN ATOMIC CHARGES
----------------------
   0 C :    0.076291
   1 C :   -0.153437
   2 C :   -0.018049
   3 N :   -0.066751
   4 C :   -0.020455
   5 N :   -0.063816
   6 C :   -0.019075
   7 C :   -0.048422
   8 C :    0.016966
   9 C :   -0.035278
  10 C :   -0.145686
  11 C :   -0.012600
  12 S :    0.427496
  13 C :   -0.274381
  14 C :   -0.071354
  15 Br:    0.129751
  16 C :    0.082025
  17 O :   -0.155544
  18 C :   -0.113207
  19 C :    0.067146
  20 C :   -0.045466
  21 C :    0.024681
  22 C :   -0.010942
  23 O :    0.009251
  24 C :    0.017521
  25 C :   -0.029153
  26 C :    0.020282
  27 O :   -0.030397
  28 O :   -0.061047
  29 C :   -0.061212
  30 C :    0.000045
  31 C :   -0.034747
  32 C :   -0.011722
  33 C :   -0.036718
  34 C :   -0.016905
  35 C :    0.003198
  36 O :    0.002274
  37 C :   -0.013554
  38 C :   -0.011730
  39 C :   -0.001148
  40 O :   -0.040546
  41 O :   -0.055687
  42 C :   -0.016724
  43 C :   -0.058866
  44 C :   -0.024225
  45 C :   -0.021232
  46 C :   -0.004463
  47 C :   -0.047330
  48 C :    0.025548
  49 O :    0.005550
  50 C :   -0.020301
  51 C :   -0.001184
  52 C :   -0.012405
  53 O :   -0.046121
  54 O :   -0.051514
  55 C :   -0.016128
  56 C :   -0.035651
  57 C :    0.034034
  58 C :   -0.042981
  59 C :    0.065168
  60 C :   -0.106983
  61 C :    0.071091
  62 C :   -0.150124
  63 C :   -0.019088
  64 N :   -0.063501
  65 C :   -0.025466
  66 N :   -0.057921
  67 C :   -0.016833
  68 C :   -0.051053
  69 C :    0.080121
  70 O :   -0.153575
  71 C :    0.019736
  72 C :   -0.035470
  73 C :   -0.144396
  74 C :   -0.015403
  75 S :    0.427595
  76 C :   -0.273700
  77 C :   -0.070384
  78 Br:    0.132217
  79 H :    0.038499
  80 H :    0.040294
  81 H :    0.037266
  82 H :    0.040347
  83 H :    0.033848
  84 H :    0.048403
  85 H :    0.108918
  86 H :    0.099322
  87 H :    0.021724
  88 H :    0.038946
  89 H :    0.028497
  90 H :    0.024243
  91 H :    0.030555
  92 H :    0.034626
  93 H :    0.104500
  94 H :    0.092591
  95 H :    0.038700
  96 H :    0.017436
  97 H :    0.031060
  98 H :    0.025523
  99 H :    0.031855
 100 H :    0.040173
 101 H :    0.105021
 102 H :    0.102059
 103 H :    0.028828
 104 H :    0.036934
 105 H :    0.031206
 106 H :    0.032561
 107 H :    0.041941
 108 H :    0.040194
 109 H :    0.039842
 110 H :    0.038153

  Mayer bond orders larger than 0.100000
B(  0-C ,  1-C ) :   1.5955 B(  0-C ,  6-C ) :   0.9939 B(  0-C , 18-C ) :   1.1007
B(  1-C ,  2-C ) :   1.1470 B(  1-C ,  4-C ) :   1.1529 B(  2-C ,  3-N ) :   2.9623
B(  4-C ,  5-N ) :   2.9593 B(  6-C ,  7-C ) :   1.2801 B(  6-C , 11-C ) :   1.4158
B(  7-C ,  8-C ) :   1.4313 B(  7-C , 16-C ) :   0.9363 B(  8-C ,  9-C ) :   1.2419
B(  8-C , 79-H ) :   1.0152 B(  9-C , 10-C ) :   1.3143 B(  9-C , 14-C ) :   1.1608
B( 10-C , 11-C ) :   1.3279 B( 10-C , 12-S ) :   1.0815 B( 11-C , 80-H ) :   0.9776
B( 12-S , 13-C ) :   1.0856 B( 13-C , 14-C ) :   1.6197 B( 13-C , 15-Br) :   1.0138
B( 14-C , 81-H ) :   0.9997 B( 16-C , 17-O ) :   2.1961 B( 16-C , 18-C ) :   0.9628
B( 18-C , 19-C ) :   1.4602 B( 19-C , 20-C ) :   1.2130 B( 19-C , 82-H ) :   0.9608
B( 20-C , 21-C ) :   1.4481 B( 20-C , 83-H ) :   0.9965 B( 21-C , 22-C ) :   1.2175
B( 21-C , 84-H ) :   0.9762 B( 22-C , 23-O ) :   1.1026 B( 22-C , 24-C ) :   0.1046
B( 22-C , 26-C ) :   1.3192 B( 23-O , 24-C ) :   1.1447 B( 24-C , 25-C ) :   1.2810
B( 24-C , 29-C ) :   1.1749 B( 25-C , 26-C ) :   1.2623 B( 25-C , 28-O ) :   1.2280
B( 26-C , 27-O ) :   1.2989 B( 27-O , 85-H ) :   0.9492 B( 28-O , 86-H ) :   0.9578
B( 29-C , 30-C ) :   1.6437 B( 29-C , 87-H ) :   0.9470 B( 30-C , 31-C ) :   1.1503
B( 30-C , 88-H ) :   0.9818 B( 31-C , 32-C ) :   1.6503 B( 31-C , 89-H ) :   0.9687
B( 32-C , 33-C ) :   1.1701 B( 32-C , 90-H ) :   0.9641 B( 33-C , 34-C ) :   1.6216
B( 33-C , 91-H ) :   0.9667 B( 34-C , 35-C ) :   1.1866 B( 34-C , 92-H ) :   0.9553
B( 35-C , 36-O ) :   1.1156 B( 35-C , 37-C ) :   0.1037 B( 35-C , 39-C ) :   1.3853
B( 36-O , 37-C ) :   1.1046 B( 37-C , 38-C ) :   1.3152 B( 37-C , 42-C ) :   1.1916
B( 38-C , 39-C ) :   1.2708 B( 38-C , 41-O ) :   1.2262 B( 39-C , 40-O ) :   1.2370
B( 40-O , 93-H ) :   0.9467 B( 41-O , 94-H ) :   0.9515 B( 42-C , 43-C ) :   1.6096
B( 42-C , 95-H ) :   0.9485 B( 43-C , 44-C ) :   1.1691 B( 43-C , 96-H ) :   0.9639
B( 44-C , 45-C ) :   1.6266 B( 44-C , 97-H ) :   0.9741 B( 45-C , 46-C ) :   1.1664
B( 45-C , 98-H ) :   0.9749 B( 46-C , 47-C ) :   1.5660 B( 46-C , 99-H ) :   0.9928
B( 47-C , 48-C ) :   1.1828 B( 47-C ,100-H ) :   0.9738 B( 48-C , 49-O ) :   1.1313
B( 48-C , 50-C ) :   0.1047 B( 48-C , 52-C ) :   1.3529 B( 49-O , 50-C ) :   1.1077
B( 50-C , 51-C ) :   1.2551 B( 50-C , 55-C ) :   1.1949 B( 51-C , 52-C ) :   1.2601
B( 51-C , 54-O ) :   1.2484 B( 52-C , 53-O ) :   1.2765 B( 53-O ,101-H ) :   0.9527
B( 54-O ,102-H ) :   0.9552 B( 55-C , 56-C ) :   1.5507 B( 55-C ,103-H ) :   0.9641
B( 56-C , 57-C ) :   1.1764 B( 56-C ,104-H ) :   0.9940 B( 57-C , 58-C ) :   1.5496
B( 57-C ,105-H ) :   0.9897 B( 58-C , 59-C ) :   1.1800 B( 58-C ,106-H ) :   0.9684
B( 59-C , 60-C ) :   1.5442 B( 59-C ,107-H ) :   0.9536 B( 60-C , 61-C ) :   1.0684
B( 60-C , 69-C ) :   0.9568 B( 61-C , 62-C ) :   1.6119 B( 61-C , 67-C ) :   1.0099
B( 62-C , 63-C ) :   1.1317 B( 62-C , 65-C ) :   1.1639 B( 63-C , 64-N ) :   2.9767
B( 65-C , 66-N ) :   3.0152 B( 67-C , 68-C ) :   1.2768 B( 67-C , 74-C ) :   1.4195
B( 68-C , 69-C ) :   0.9187 B( 68-C , 71-C ) :   1.4316 B( 69-C , 70-O ) :   2.2546
B( 71-C , 72-C ) :   1.2475 B( 71-C ,108-H ) :   1.0156 B( 72-C , 73-C ) :   1.3149
B( 72-C , 77-C ) :   1.1596 B( 73-C , 74-C ) :   1.3226 B( 73-C , 75-S ) :   1.0820
B( 74-C ,109-H ) :   0.9808 B( 75-S , 76-C ) :   1.0852 B( 76-C , 77-C ) :   1.6220
B( 76-C , 78-Br) :   1.0152 B( 77-C ,110-H ) :   1.0003

-----------------------------------------------------------------------------
         ABSORPTION SPECTRUM VIA TRANSITION ELECTRIC DIPOLE MOMENTS
-----------------------------------------------------------------------------
State   Energy  Wavelength   fosc         T2         TX        TY        TZ
        (cm-1)    (nm)                  (au**2)     (au)      (au)      (au)
-----------------------------------------------------------------------------
   0   12488.2    800.8   2.359362829  62.19727  -6.43243   3.30806   3.14290
   1   15184.7    658.6   0.239719146   5.19723  -1.68068   0.46018   1.46996
   2   19684.0    508.0   0.126840080   2.12138  -0.55350  -0.84512   1.04918
   3   20346.7    491.5   1.469878803  23.78280  -0.23311  -4.12154   2.59641
   4   22112.4    452.2   0.281407576   4.18963  -1.59100  -0.30252   1.25173
   5   23286.0    429.4   0.041278239   0.58358   0.42383  -0.14154   0.61961
   6   24324.3    411.1   0.038874930   0.52615  -0.32493  -0.54933   0.34467
   7   25144.0    397.7   0.261943084   3.42964   0.08371   1.63486  -0.86596
   8   25788.1    387.8   0.109630993   1.39956   0.06382  -0.44240   1.09534
   9   26485.9    377.6   0.104358676   1.29715   0.08435  -0.01958  -1.13563
  10   26927.7    371.4   0.127756044   1.56191  -1.10111  -0.51090   0.29741
  11   27503.1    363.6   0.279350664   3.34382   1.17897   1.00597  -0.97051
  12   28049.9    356.5   0.224477832   2.63462   0.32748  -1.50028  -0.52586
  13   28627.0    349.3   0.000794681   0.00914  -0.00688  -0.09242   0.02344
  14   29110.5    343.5   0.176609260   1.99728  -0.29297  -1.15533   0.75939
  15   29275.8    341.6   0.061818376   0.69516  -0.58157   0.59451   0.05912
  16   29722.1    336.4   0.221309467   2.45130   0.74303   0.61650  -1.23253
  17   30222.2    330.9   0.008743010   0.09524  -0.12047   0.24206  -0.14877
  18   30399.0    329.0   0.021344704   0.23116   0.16480   0.45143  -0.01463
  19   30828.6    324.4   0.050362551   0.53781  -0.14079   0.65834   0.29082
  20   31025.6    322.3   0.141911257   1.50582   0.87126   0.65404  -0.56477
  21   31884.0    313.6   0.082354220   0.85033  -0.00893  -0.90805   0.16032
  22   32425.4    308.4   0.054187063   0.55016  -0.28390   0.68250  -0.06127
  23   32503.7    307.7   0.035338984   0.35793  -0.41166   0.07270   0.42799
  24   32735.4    305.5   0.001145893   0.01152   0.02108   0.10525   0.00105
  25   32751.7    305.3   0.177295939   1.78214  -1.27806  -0.27617   0.26913
  26   33481.5    298.7   0.302582840   2.97519   1.20687   1.06925  -0.61267
  27   33560.8    298.0   0.323187474   3.17029   1.60181  -0.36724  -0.68529
  28   33801.3    295.8   0.703776921   6.85452   0.69307   2.52012  -0.15231
  29   34106.8    293.2   0.117791367   1.13697   0.19851  -0.94512   0.45201
  30   34295.5    291.6   0.059774861   0.57380   0.59999  -0.40469   0.22368
  31   34656.5    288.5   0.017596043   0.16715  -0.36234  -0.04108   0.18485
  32   35227.8    283.9   0.014603528   0.13647   0.04695   0.25440  -0.26372
  33   35502.5    281.7   0.026728331   0.24785   0.21673  -0.42497   0.14239
  34   35766.5    279.6   0.132474159   1.21936  -0.17853   1.08025  -0.14335
  35   36219.1    276.1   0.017097054   0.15540   0.38299   0.08647   0.03532
  36   36710.4    272.4   0.019746920   0.17709   0.11344  -0.38371  -0.13032
  37   36808.7    271.7   0.011555095   0.10335  -0.20638   0.03488   0.24400
  38   37561.1    266.2   0.048514080   0.42521  -0.36934   0.48108  -0.23950
  39   37834.3    264.3   0.019366939   0.16852  -0.05963   0.35741  -0.19293
  40   37870.0    264.1   0.008994335   0.07819   0.12299  -0.17935  -0.17578
  41   38268.6    261.3   0.011353959   0.09767   0.16248  -0.22206   0.14820
  42   38421.4    260.3   0.074677067   0.63987   0.33417  -0.15652  -0.70972
  43   38770.2    257.9   0.179184635   1.52152   0.77996  -0.88350   0.36416
  44   39161.2    255.4   0.015180971   0.12762  -0.08122  -0.13442   0.32087
  45   39440.0    253.5   0.163928284   1.36834   0.37361   0.56236  -0.95525
  46   39597.9    252.5   0.005799060   0.04821  -0.15952  -0.01595   0.15004
  47   39713.4    251.8   0.035176417   0.29160   0.19400  -0.50194  -0.04502
  48   40129.5    249.2   0.010175076   0.08347  -0.13629   0.23407  -0.10056
  49   40297.1    248.2   0.088236981   0.72086  -0.79214   0.07679   0.29578

FINAL SINGLE POINT ENERGY     -9291.802075834219

DIPOLE MOMENT
-------------
                                X             Y             Z
Electronic contribution:    -29.17329      45.68095       0.20879
Nuclear contribution   :     25.04803     -43.95769       1.15379
                        -----------------------------------------
Total Dipole Moment    :     -4.12526       1.72326       1.36258
                        -----------------------------------------
Magnitude (a.u.)       :      4.67376
Magnitude (Debye)      :     11.87976

Rotational constants in cm-1:     0.000730     0.000091     0.000082
Rotational constants in MHz :    21.871902     2.732882     2.461704

                             ****ORCA TERMINATED NORMALLY****
TOTAL RUN TIME: 0 days 0 hours 12 minutes 27 seconds 446 msec
