                         Program Version 4.2.0 -  RELEASE  -
|  1> # ORCA input file
|  2> # SCF done       -187.350842437300          0.000985944165
|  3> ! CAM-B3LYP def2-SVP def2/J RIJCOSX Grid4 TightSCF
|  4> %maxcore 5000
|  5> %tddft
|  6>     Mode sTDDFT
|  7>     Ethresh 5.0
|  8>     maxcore 5000
|  9> end
| 10>
| 11> %pal
| 12>   nprocs 6
| 13>   end
| 14> * xyz 0 1
| 15>    C        1.33758         0.31047         5.49950
| 16>    C        2.01459        -0.87980         5.58626
| 17>    C        2.53944        -1.57443         4.47752
| 18>    N        2.98340        -2.18196         3.61058
| 19>    C        2.21532        -1.59114         6.78711
| 20>    N        2.36786        -2.23814         7.72336
| 21>    C        0.96895         0.99663         4.26736
| 22>    C        0.13469         2.09400         4.59329
| 23>    C       -0.38597         2.93338         3.64023
| 24>    C       -0.07950         2.67111         2.29978
| 25>    C        0.75574         1.57319         1.98430
| 26>    C        1.29057         0.72923         2.95032
| 27>    S        1.01391         1.43706         0.27163
| 28>    C        0.00863         2.83592         0.00493
| 29>    C       -0.49569         3.37847         1.13979
| 30>   Br       -0.28475         3.44663        -1.74410
| 31>    C       -0.03045         2.16700         6.05880
| 32>    O       -0.57577         3.06266         6.67894
| 33>    C        0.74253         1.03086         6.60212
| 34>    C        0.96289         0.81671         7.94010
| 35>    C        0.15934         1.35089         8.96696
| 36>    O        0.72259         1.59921        10.19309
| 37>    C       -0.16461         2.19939        10.95613
| 38>    C       -1.36574         2.33805        10.29483
| 39>    N       -2.54371         2.93630        10.78164
| 40>    O       -2.54870         3.33684        11.92397
| 41>    O       -3.48871         3.00389        10.01038
| 42>    C       -1.18787         1.75129         8.99809
| 43>    N       -2.16616         1.56023         8.09868
| 44>    C       -2.10402         0.68429         7.03568
| 45>    C       -2.74397         0.89720         5.87807
| 46>    C       -3.53334         2.14819         5.65483
| 47>    C       -2.71678        -0.13595         4.78158
| 48>    N       -3.88456        -0.98740         4.83146
| 49>    C       -3.88773        -2.18262         5.47648
| 50>    C       -5.00281        -2.83369         5.87207
| 51>    C       -5.01940        -4.14155         6.43100
| 52>    C       -3.97619        -5.03796         6.61552
| 53>    C       -4.39674        -6.23154         7.18348
| 54>    C       -5.76831        -6.25972         7.44503
| 55>    S       -6.54705        -4.79933         6.97858
| 56>    C       -6.10526        -7.50185         8.01359
| 57>    C       -4.94452        -8.28292         8.12494
| 58>    C       -3.74766        -7.53443         7.58664
| 59>    C       -3.15256        -8.25332         6.37225
| 60>    C       -2.68441        -7.32128         8.66721
| 61>    C       -5.18356        -9.51353         8.69567
| 62>    C       -6.53083        -9.71787         9.00351
| 63>    S       -7.49781        -8.30036         8.59945
| 64>    C       -7.04240       -10.84400         9.66340
| 65>    C       -8.33741       -11.22366         9.89704
| 66>    C       -8.63276       -12.11373        11.04470
| 67>    O       -7.83603       -12.75338        11.69709
| 68>    C      -10.09080       -11.99891        11.25738
| 69>    C      -10.85760       -12.51729        12.25931
| 70>    C      -12.24427       -12.24320        12.27828
| 71>    C      -12.80958       -11.43085        11.25304
| 72>    C      -14.19038       -11.15564        11.28402
| 73>    C      -14.95607       -11.67369        12.29098
| 74>    C      -14.41982       -12.47563        13.30679
| 75>    C      -13.08077       -12.75195        13.29234
| 76>    F      -16.27717       -11.41128        12.32152
| 77>    C      -11.99116       -10.91512        10.22003
| 78>    C      -10.65360       -11.19923        10.22133
| 79>    C       -9.58643       -10.84441         9.28778
| 80>    C       -9.77178       -10.49494         7.97221
| 81>    C       -8.72593       -10.49241         7.02860
| 82>    N       -7.90456       -10.54007         6.22705
| 83>    C      -11.02882       -10.21816         7.40434
| 84>    N      -12.03010        -9.96227         6.90356
| 85>    H       -1.00934         3.76932         3.91555
| 86>    H        1.93339        -0.08598         2.66296
| 87>    H       -1.13130         4.24481         1.15799
| 88>    H        1.83219         0.26158         8.26654
| 89>    H        0.11943         2.50370        11.94568
| 90>    H       -2.99129         2.14279         8.22274
| 91>    H       -1.49812        -0.19569         7.20226
| 92>    H       -2.90151         3.01221         5.86714
| 93>    H       -4.39564         2.20069         6.32056
| 94>    H       -3.88518         2.21225         4.62892
| 95>    H       -1.83237        -0.77091         4.87173
| 96>    H       -2.68801         0.36195         3.80606
| 97>    H       -4.77362        -0.51068         4.77335
| 98>    H       -2.91119        -2.62689         5.60308
| 99>    H       -5.96449        -2.35384         5.75268
|100>    H       -2.96226        -4.82241         6.33339
|101>    H       -3.91913        -8.41660         5.61849
|102>    H       -2.74861        -9.21706         6.67134
|103>    H       -2.35446        -7.65622         5.93792
|104>    H       -3.11413        -6.80899         9.52519
|105>    H       -1.86757        -6.72059         8.27486
|106>    H       -2.28900        -8.27915         8.99518
|107>    H       -4.44181       -10.27032         8.87774
|108>    H       -6.29745       -11.46358        10.15540
|109>    H      -10.41358       -13.12925        13.03018
|110>    H      -14.63842       -10.54477        10.51591
|111>    H      -15.07282       -12.85654        14.07598
|112>    H      -12.64366       -13.36743        14.06434
|113>    H      -12.44179       -10.29833         9.45834
|114> *
|115>
|116>                          ****END OF INPUT****

CARTESIAN COORDINATES (ANGSTROEM)
---------------------------------
  C      1.337580    0.310470    5.499500
  C      2.014590   -0.879800    5.586260
  C      2.539440   -1.574430    4.477520
  N      2.983400   -2.181960    3.610580
  C      2.215320   -1.591140    6.787110
  N      2.367860   -2.238140    7.723360
  C      0.968950    0.996630    4.267360
  C      0.134690    2.094000    4.593290
  C     -0.385970    2.933380    3.640230
  C     -0.079500    2.671110    2.299780
  C      0.755740    1.573190    1.984300
  C      1.290570    0.729230    2.950320
  S      1.013910    1.437060    0.271630
  C      0.008630    2.835920    0.004930
  C     -0.495690    3.378470    1.139790
  Br    -0.284750    3.446630   -1.744100
  C     -0.030450    2.167000    6.058800
  O     -0.575770    3.062660    6.678940
  C      0.742530    1.030860    6.602120
  C      0.962890    0.816710    7.940100
  C      0.159340    1.350890    8.966960
  O      0.722590    1.599210   10.193090
  C     -0.164610    2.199390   10.956130
  C     -1.365740    2.338050   10.294830
  N     -2.543710    2.936300   10.781640
  O     -2.548700    3.336840   11.923970
  O     -3.488710    3.003890   10.010380
  C     -1.187870    1.751290    8.998090
  N     -2.166160    1.560230    8.098680
  C     -2.104020    0.684290    7.035680
  C     -2.743970    0.897200    5.878070
  C     -3.533340    2.148190    5.654830
  C     -2.716780   -0.135950    4.781580
  N     -3.884560   -0.987400    4.831460
  C     -3.887730   -2.182620    5.476480
  C     -5.002810   -2.833690    5.872070
  C     -5.019400   -4.141550    6.431000
  C     -3.976190   -5.037960    6.615520
  C     -4.396740   -6.231540    7.183480
  C     -5.768310   -6.259720    7.445030
  S     -6.547050   -4.799330    6.978580
  C     -6.105260   -7.501850    8.013590
  C     -4.944520   -8.282920    8.124940
  C     -3.747660   -7.534430    7.586640
  C     -3.152560   -8.253320    6.372250
  C     -2.684410   -7.321280    8.667210
  C     -5.183560   -9.513530    8.695670
  C     -6.530830   -9.717870    9.003510
  S     -7.497810   -8.300360    8.599450
  C     -7.042400  -10.844000    9.663400
  C     -8.337410  -11.223660    9.897040
  C     -8.632760  -12.113730   11.044700
  O     -7.836030  -12.753380   11.697090
  C    -10.090800  -11.998910   11.257380
  C    -10.857600  -12.517290   12.259310
  C    -12.244270  -12.243200   12.278280
  C    -12.809580  -11.430850   11.253040
  C    -14.190380  -11.155640   11.284020
  C    -14.956070  -11.673690   12.290980
  C    -14.419820  -12.475630   13.306790
  C    -13.080770  -12.751950   13.292340
  F    -16.277170  -11.411280   12.321520
  C    -11.991160  -10.915120   10.220030
  C    -10.653600  -11.199230   10.221330
  C     -9.586430  -10.844410    9.287780
  C     -9.771780  -10.494940    7.972210
  C     -8.725930  -10.492410    7.028600
  N     -7.904560  -10.540070    6.227050
  C    -11.028820  -10.218160    7.404340
  N    -12.030100   -9.962270    6.903560
  H     -1.009340    3.769320    3.915550
  H      1.933390   -0.085980    2.662960
  H     -1.131300    4.244810    1.157990
  H      1.832190    0.261580    8.266540
  H      0.119430    2.503700   11.945680
  H     -2.991290    2.142790    8.222740
  H     -1.498120   -0.195690    7.202260
  H     -2.901510    3.012210    5.867140
  H     -4.395640    2.200690    6.320560
  H     -3.885180    2.212250    4.628920
  H     -1.832370   -0.770910    4.871730
  H     -2.688010    0.361950    3.806060
  H     -4.773620   -0.510680    4.773350
  H     -2.911190   -2.626890    5.603080
  H     -5.964490   -2.353840    5.752680
  H     -2.962260   -4.822410    6.333390
  H     -3.919130   -8.416600    5.618490
  H     -2.748610   -9.217060    6.671340
  H     -2.354460   -7.656220    5.937920
  H     -3.114130   -6.808990    9.525190
  H     -1.867570   -6.720590    8.274860
  H     -2.289000   -8.279150    8.995180
  H     -4.441810  -10.270320    8.877740
  H     -6.297450  -11.463580   10.155400
  H    -10.413580  -13.129250   13.030180
  H    -14.638420  -10.544770   10.515910
  H    -15.072820  -12.856540   14.075980
  H    -12.643660  -13.367430   14.064340
  H    -12.441790  -10.298330    9.458340

 Total Charge           Charge          ....    0
 Multiplicity           Mult            ....    1
 Number of Electrons    NEL             ....  528
 Basis Dimension        Dim             .... 1155

ORBITAL ENERGIES
----------------

  NO   OCC          E(Eh)            E(eV)
   0   2.0000    -482.894263    -13140.2209
   1   2.0000     -88.985210     -2421.4107
   2   2.0000     -88.961756     -2420.7724
   3   2.0000     -88.959913     -2420.7223
   4   2.0000     -62.571968     -1702.6698
   5   2.0000     -56.405932     -1534.8834
   6   2.0000     -56.403192     -1534.8089
   7   2.0000     -56.403167     -1534.8082
   8   2.0000     -24.774048      -674.1361
   9   2.0000     -19.341349      -526.3049
  10   2.0000     -19.269950      -524.3620
  11   2.0000     -19.268244      -524.3156
  12   2.0000     -19.222401      -523.0681
  13   2.0000     -19.192559      -522.2561
  14   2.0000     -14.680303      -399.4714
  15   2.0000     -14.482054      -394.0767
  16   2.0000     -14.448523      -393.1643
  17   2.0000     -14.425609      -392.5408
  18   2.0000     -14.425195      -392.5295
  19   2.0000     -14.397009      -391.7625
  20   2.0000     -14.393858      -391.6768
  21   2.0000     -10.396527      -282.9039
  22   2.0000     -10.375239      -282.3246
  23   2.0000     -10.375201      -282.3236
  24   2.0000     -10.368762      -282.1484
  25   2.0000     -10.365563      -282.0613
  26   2.0000     -10.356547      -281.8160
  27   2.0000     -10.354790      -281.7682
  28   2.0000     -10.352625      -281.7092
  29   2.0000     -10.351642      -281.6825
  30   2.0000     -10.345141      -281.5056
  31   2.0000     -10.334894      -281.2268
  32   2.0000     -10.334373      -281.2126
  33   2.0000     -10.333050      -281.1766
  34   2.0000     -10.329739      -281.0865
  35   2.0000     -10.328586      -281.0551
  36   2.0000     -10.328110      -281.0422
  37   2.0000     -10.327962      -281.0381
  38   2.0000     -10.321758      -280.8693
  39   2.0000     -10.320368      -280.8315
  40   2.0000     -10.318214      -280.7729
  41   2.0000     -10.317735      -280.7598
  42   2.0000     -10.316621      -280.7295
  43   2.0000     -10.314119      -280.6614
  44   2.0000     -10.312337      -280.6129
  45   2.0000     -10.311195      -280.5819
  46   2.0000     -10.308037      -280.4959
  47   2.0000     -10.306475      -280.4534
  48   2.0000     -10.303979      -280.3855
  49   2.0000     -10.303761      -280.3796
  50   2.0000     -10.302796      -280.3533
  51   2.0000     -10.300677      -280.2957
  52   2.0000     -10.299650      -280.2677
  53   2.0000     -10.296761      -280.1891
  54   2.0000     -10.295679      -280.1597
  55   2.0000     -10.294146      -280.1180
  56   2.0000     -10.291659      -280.0503
  57   2.0000     -10.290569      -280.0206
  58   2.0000     -10.289310      -279.9864
  59   2.0000     -10.287699      -279.9425
  60   2.0000     -10.286569      -279.9118
  61   2.0000     -10.284936      -279.8673
  62   2.0000     -10.283866      -279.8382
  63   2.0000     -10.282146      -279.7914
  64   2.0000     -10.281768      -279.7811
  65   2.0000     -10.279704      -279.7250
  66   2.0000     -10.276252      -279.6310
  67   2.0000     -10.273324      -279.5514
  68   2.0000     -10.271974      -279.5146
  69   2.0000     -10.271463      -279.5007
  70   2.0000     -10.271460      -279.5006
  71   2.0000     -10.271337      -279.4973
  72   2.0000     -10.264871      -279.3213
  73   2.0000     -10.262050      -279.2446
  74   2.0000      -8.801390      -239.4980
  75   2.0000      -8.081197      -219.9006
  76   2.0000      -8.056366      -219.2249
  77   2.0000      -8.055068      -219.1895
  78   2.0000      -6.637727      -180.6217
  79   2.0000      -6.623115      -180.2241
  80   2.0000      -6.622891      -180.2180
  81   2.0000      -6.050863      -164.6524
  82   2.0000      -6.046602      -164.5364
  83   2.0000      -6.042439      -164.4231
  84   2.0000      -6.025728      -163.9684
  85   2.0000      -6.024443      -163.9334
  86   2.0000      -6.021655      -163.8576
  87   2.0000      -6.020421      -163.8240
  88   2.0000      -6.018343      -163.7674
  89   2.0000      -6.016994      -163.7307
  90   2.0000      -2.753595       -74.9291
  91   2.0000      -2.749487       -74.8174
  92   2.0000      -2.749331       -74.8131
  93   2.0000      -2.737708       -74.4968
  94   2.0000      -2.737697       -74.4965
  95   2.0000      -1.349957       -36.7342
  96   2.0000      -1.288395       -35.0590
  97   2.0000      -1.263938       -34.3935
  98   2.0000      -1.169372       -31.8202
  99   2.0000      -1.139001       -30.9938
 100   2.0000      -1.107536       -30.1376
 101   2.0000      -1.086534       -29.5661
 102   2.0000      -1.050486       -28.5852
 103   2.0000      -1.033188       -28.1145
 104   2.0000      -1.023412       -27.8485
 105   2.0000      -1.013046       -27.5664
 106   2.0000      -1.004288       -27.3281
 107   2.0000      -1.000059       -27.2130
 108   2.0000      -0.999772       -27.2052
 109   2.0000      -0.983424       -26.7603
 110   2.0000      -0.976934       -26.5837
 111   2.0000      -0.972969       -26.4758
 112   2.0000      -0.971900       -26.4468
 113   2.0000      -0.959475       -26.1086
 114   2.0000      -0.955800       -26.0086
 115   2.0000      -0.935569       -25.4581
 116   2.0000      -0.928817       -25.2744
 117   2.0000      -0.919683       -25.0259
 118   2.0000      -0.917031       -24.9537
 119   2.0000      -0.909677       -24.7536
 120   2.0000      -0.896305       -24.3897
 121   2.0000      -0.889903       -24.2155
 122   2.0000      -0.886135       -24.1130
 123   2.0000      -0.878751       -23.9120
 124   2.0000      -0.872145       -23.7323
 125   2.0000      -0.863525       -23.4977
 126   2.0000      -0.855181       -23.2707
 127   2.0000      -0.841466       -22.8974
 128   2.0000      -0.839098       -22.8330
 129   2.0000      -0.837707       -22.7952
 130   2.0000      -0.829262       -22.5654
 131   2.0000      -0.822467       -22.3805
 132   2.0000      -0.819724       -22.3058
 133   2.0000      -0.810375       -22.0514
 134   2.0000      -0.804701       -21.8970
 135   2.0000      -0.788893       -21.4669
 136   2.0000      -0.784233       -21.3401
 137   2.0000      -0.775216       -21.0947
 138   2.0000      -0.768791       -20.9199
 139   2.0000      -0.752124       -20.4663
 140   2.0000      -0.741999       -20.1908
 141   2.0000      -0.731029       -19.8923
 142   2.0000      -0.728177       -19.8147
 143   2.0000      -0.724086       -19.7034
 144   2.0000      -0.708250       -19.2725
 145   2.0000      -0.704407       -19.1679
 146   2.0000      -0.700491       -19.0613
 147   2.0000      -0.699749       -19.0411
 148   2.0000      -0.693662       -18.8755
 149   2.0000      -0.691642       -18.8205
 150   2.0000      -0.684668       -18.6308
 151   2.0000      -0.671438       -18.2708
 152   2.0000      -0.663754       -18.0617
 153   2.0000      -0.662416       -18.0253
 154   2.0000      -0.662365       -18.0239
 155   2.0000      -0.656911       -17.8755
 156   2.0000      -0.652620       -17.7587
 157   2.0000      -0.643633       -17.5142
 158   2.0000      -0.634487       -17.2653
 159   2.0000      -0.633619       -17.2416
 160   2.0000      -0.630035       -17.1441
 161   2.0000      -0.625619       -17.0239
 162   2.0000      -0.619444       -16.8559
 163   2.0000      -0.618905       -16.8413
 164   2.0000      -0.615141       -16.7388
 165   2.0000      -0.610493       -16.6124
 166   2.0000      -0.604880       -16.4596
 167   2.0000      -0.603800       -16.4302
 168   2.0000      -0.600217       -16.3327
 169   2.0000      -0.594969       -16.1899
 170   2.0000      -0.589644       -16.0450
 171   2.0000      -0.588666       -16.0184
 172   2.0000      -0.583745       -15.8845
 173   2.0000      -0.578475       -15.7411
 174   2.0000      -0.573075       -15.5942
 175   2.0000      -0.572133       -15.5685
 176   2.0000      -0.560479       -15.2514
 177   2.0000      -0.559101       -15.2139
 178   2.0000      -0.556179       -15.1344
 179   2.0000      -0.549519       -14.9532
 180   2.0000      -0.548900       -14.9363
 181   2.0000      -0.546204       -14.8630
 182   2.0000      -0.544651       -14.8207
 183   2.0000      -0.540921       -14.7192
 184   2.0000      -0.536253       -14.5922
 185   2.0000      -0.532893       -14.5007
 186   2.0000      -0.531674       -14.4676
 187   2.0000      -0.530249       -14.4288
 188   2.0000      -0.527598       -14.3567
 189   2.0000      -0.525821       -14.3083
 190   2.0000      -0.523475       -14.2445
 191   2.0000      -0.519841       -14.1456
 192   2.0000      -0.515948       -14.0397
 193   2.0000      -0.514417       -13.9980
 194   2.0000      -0.513965       -13.9857
 195   2.0000      -0.509771       -13.8716
 196   2.0000      -0.506451       -13.7812
 197   2.0000      -0.505963       -13.7680
 198   2.0000      -0.503158       -13.6916
 199   2.0000      -0.501578       -13.6486
 200   2.0000      -0.495896       -13.4940
 201   2.0000      -0.492501       -13.4016
 202   2.0000      -0.490444       -13.3457
 203   2.0000      -0.488256       -13.2861
 204   2.0000      -0.485599       -13.2138
 205   2.0000      -0.484752       -13.1908
 206   2.0000      -0.478132       -13.0106
 207   2.0000      -0.476773       -12.9736
 208   2.0000      -0.475146       -12.9294
 209   2.0000      -0.474705       -12.9174
 210   2.0000      -0.472995       -12.8709
 211   2.0000      -0.468855       -12.7582
 212   2.0000      -0.467832       -12.7303
 213   2.0000      -0.465592       -12.6694
 214   2.0000      -0.460840       -12.5401
 215   2.0000      -0.458713       -12.4822
 216   2.0000      -0.457527       -12.4499
 217   2.0000      -0.454668       -12.3722
 218   2.0000      -0.454016       -12.3544
 219   2.0000      -0.452853       -12.3228
 220   2.0000      -0.449072       -12.2199
 221   2.0000      -0.445184       -12.1141
 222   2.0000      -0.442093       -12.0300
 223   2.0000      -0.437880       -11.9153
 224   2.0000      -0.435336       -11.8461
 225   2.0000      -0.433861       -11.8060
 226   2.0000      -0.431837       -11.7509
 227   2.0000      -0.430020       -11.7015
 228   2.0000      -0.428155       -11.6507
 229   2.0000      -0.426115       -11.5952
 230   2.0000      -0.423436       -11.5223
 231   2.0000      -0.422612       -11.4998
 232   2.0000      -0.421680       -11.4745
 233   2.0000      -0.419431       -11.4133
 234   2.0000      -0.414469       -11.2783
 235   2.0000      -0.411883       -11.2079
 236   2.0000      -0.410016       -11.1571
 237   2.0000      -0.407901       -11.0995
 238   2.0000      -0.404120       -10.9967
 239   2.0000      -0.403231       -10.9725
 240   2.0000      -0.402771       -10.9600
 241   2.0000      -0.400283       -10.8922
 242   2.0000      -0.399145       -10.8613
 243   2.0000      -0.396783       -10.7970
 244   2.0000      -0.394995       -10.7484
 245   2.0000      -0.389492       -10.5986
 246   2.0000      -0.384889       -10.4734
 247   2.0000      -0.383465       -10.4346
 248   2.0000      -0.368653       -10.0316
 249   2.0000      -0.365752        -9.9526
 250   2.0000      -0.361452        -9.8356
 251   2.0000      -0.350937        -9.5495
 252   2.0000      -0.335243        -9.1224
 253   2.0000      -0.329020        -8.9531
 254   2.0000      -0.324086        -8.8188
 255   2.0000      -0.319296        -8.6885
 256   2.0000      -0.317190        -8.6312
 257   2.0000      -0.315715        -8.5910
 258   2.0000      -0.304231        -8.2786
 259   2.0000      -0.298663        -8.1270
 260   2.0000      -0.290111        -7.8943
 261   2.0000      -0.286268        -7.7898
 262   2.0000      -0.275453        -7.4955
 263   2.0000      -0.225178        -6.1274
 264   0.0000      -0.101992        -2.7753
 265   0.0000      -0.080633        -2.1941
 266   0.0000      -0.070468        -1.9175
 267   0.0000      -0.063841        -1.7372
 268   0.0000      -0.039838        -1.0841

MULLIKEN ATOMIC CHARGES
-----------------------
   0 C :    0.310714
   1 C :   -0.355693
   2 C :   -0.183683
   3 N :    0.155796
   4 C :   -0.212749
   5 N :    0.164934
   6 C :    0.008275
   7 C :   -0.003301
   8 C :   -0.095205
   9 C :    0.118841
  10 C :   -0.091964
  11 C :   -0.028924
  12 S :    0.190600
  13 C :   -0.123528
  14 C :    0.034293
  15 Br:    0.029804
  16 C :    0.149374
  17 O :   -0.172719
  18 C :   -0.153472
  19 C :   -0.016903
  20 C :    0.023210
  21 O :   -0.152518
  22 C :    0.104698
  23 C :    0.113362
  24 N :    0.284242
  25 O :   -0.229491
  26 O :   -0.261820
  27 C :    0.063289
  28 N :    0.018094
  29 C :    0.060555
  30 C :   -0.223653
  31 C :    0.057362
  32 C :    0.211180
  33 N :   -0.146918
  34 C :    0.062474
  35 C :    0.007689
  36 C :   -0.062272
  37 C :   -0.058731
  38 C :    0.018671
  39 C :   -0.103981
  40 S :    0.145664
  41 C :   -0.055878
  42 C :    0.016676
  43 C :   -0.112164
  44 C :    0.109118
  45 C :    0.104672
  46 C :   -0.011103
  47 C :   -0.081419
  48 S :    0.168107
  49 C :    0.034768
  50 C :   -0.154124
  51 C :    0.139658
  52 O :   -0.157637
  53 C :    0.013148
  54 C :   -0.088654
  55 C :    0.102297
  56 C :    0.102086
  57 C :   -0.101153
  58 C :    0.302897
  59 C :   -0.031849
  60 C :   -0.011808
  61 F :   -0.195556
  62 C :   -0.091592
  63 C :    0.042038
  64 C :    0.253498
  65 C :   -0.330983
  66 C :   -0.216963
  67 N :    0.163363
  68 C :   -0.175172
  69 N :    0.137665
  70 H :   -0.016105
  71 H :   -0.004358
  72 H :   -0.003825
  73 H :    0.038480
  74 H :    0.042261
  75 H :    0.148736
  76 H :    0.014856
  77 H :    0.052729
  78 H :    0.042834
  79 H :    0.009659
  80 H :    0.014428
  81 H :    0.018218
  82 H :    0.115902
  83 H :    0.001015
  84 H :   -0.030866
  85 H :   -0.034558
  86 H :    0.032035
  87 H :    0.012172
  88 H :    0.009755
  89 H :    0.020105
  90 H :    0.011627
  91 H :    0.012187
  92 H :   -0.011811
  93 H :    0.018974
  94 H :   -0.016512
  95 H :   -0.006105
  96 H :   -0.001463
  97 H :   -0.012847
  98 H :   -0.007053
Sum of atomic charges:   -0.0000000

LOEWDIN ATOMIC CHARGES
----------------------
   0 C :    0.072441
   1 C :   -0.145252
   2 C :   -0.021256
   3 N :   -0.051202
   4 C :   -0.027025
   5 N :   -0.052175
   6 C :   -0.027151
   7 C :   -0.045956
   8 C :    0.010068
   9 C :   -0.033607
  10 C :   -0.148953
  11 C :   -0.008996
  12 S :    0.435788
  13 C :   -0.270577
  14 C :   -0.073080
  15 Br:    0.140957
  16 C :    0.069554
  17 O :   -0.166174
  18 C :   -0.107679
  19 C :    0.043859
  20 C :   -0.021383
  21 O :    0.048855
  22 C :    0.120728
  23 C :   -0.102684
  24 N :    0.293214
  25 O :   -0.191472
  26 O :   -0.215406
  27 C :    0.043324
  28 N :    0.070810
  29 C :    0.009541
  30 C :   -0.057088
  31 C :   -0.059311
  32 C :    0.046305
  33 N :   -0.005137
  34 C :    0.050743
  35 C :   -0.140247
  36 C :   -0.128487
  37 C :   -0.087302
  38 C :   -0.008910
  39 C :   -0.222929
  40 S :    0.432796
  41 C :   -0.147859
  42 C :   -0.052231
  43 C :   -0.035165
  44 C :   -0.022303
  45 C :   -0.024327
  46 C :   -0.002290
  47 C :   -0.187948
  48 S :    0.471624
  49 C :    0.051437
  50 C :   -0.124980
  51 C :    0.079509
  52 O :   -0.160908
  53 C :   -0.055946
  54 C :    0.028154
  55 C :   -0.020559
  56 C :    0.001939
  57 C :   -0.043888
  58 C :    0.090351
  59 C :   -0.042008
  60 C :    0.002628
  61 F :   -0.069661
  62 C :    0.005583
  63 C :   -0.013900
  64 C :    0.061622
  65 C :   -0.157984
  66 C :   -0.036900
  67 N :   -0.060311
  68 C :   -0.019692
  69 N :   -0.066553
  70 H :    0.038223
  71 H :    0.041628
  72 H :    0.038466
  73 H :    0.052392
  74 H :    0.045769
  75 H :    0.085210
  76 H :    0.026853
  77 H :    0.040137
  78 H :    0.038685
  79 H :    0.028954
  80 H :    0.031496
  81 H :    0.028458
  82 H :    0.077476
  83 H :    0.026110
  84 H :    0.021851
  85 H :    0.023990
  86 H :    0.034509
  87 H :    0.024960
  88 H :    0.023060
  89 H :    0.029562
  90 H :    0.024148
  91 H :    0.024578
  92 H :    0.035996
  93 H :    0.049273
  94 H :    0.037604
  95 H :    0.041714
  96 H :    0.039804
  97 H :    0.034173
  98 H :    0.037945

  Mayer bond orders larger than 0.100000
B(  0-C ,  1-C ) :   1.6277 B(  0-C ,  6-C ) :   1.0003 B(  0-C , 18-C ) :   1.0916
B(  1-C ,  2-C ) :   1.1374 B(  1-C ,  4-C ) :   1.1484 B(  2-C ,  3-N ) :   2.9749
B(  4-C ,  5-N ) :   2.9971 B(  6-C ,  7-C ) :   1.2782 B(  6-C , 11-C ) :   1.4061
B(  7-C ,  8-C ) :   1.4304 B(  7-C , 16-C ) :   0.9326 B(  8-C ,  9-C ) :   1.2335
B(  8-C , 70-H ) :   1.0196 B(  9-C , 10-C ) :   1.3099 B(  9-C , 14-C ) :   1.1649
B( 10-C , 11-C ) :   1.3235 B( 10-C , 12-S ) :   1.0848 B( 11-C , 71-H ) :   0.9817
B( 12-S , 13-C ) :   1.0908 B( 13-C , 14-C ) :   1.6111 B( 13-C , 15-Br) :   1.0226
B( 14-C , 72-H ) :   1.0016 B( 16-C , 17-O ) :   2.1421 B( 16-C , 18-C ) :   0.9720
B( 18-C , 19-C ) :   1.5149 B( 19-C , 20-C ) :   1.2585 B( 19-C , 73-H ) :   0.9348
B( 20-C , 21-O ) :   1.0569 B( 20-C , 27-C ) :   1.3078 B( 21-O , 22-C ) :   1.2552
B( 22-C , 23-C ) :   1.4144 B( 22-C , 74-H ) :   1.0119 B( 23-C , 24-N ) :   0.9454
B( 23-C , 27-C ) :   1.2363 B( 24-N , 25-O ) :   1.5564 B( 24-N , 26-O ) :   1.4811
B( 25-O , 26-O ) :   0.2621 B( 27-C , 28-N ) :   1.3219 B( 28-N , 29-C ) :   1.1174
B( 28-N , 75-H ) :   0.8512 B( 29-C , 30-C ) :   1.7812 B( 29-C , 76-H ) :   0.9494
B( 30-C , 31-C ) :   1.0793 B( 30-C , 32-C ) :   1.0538 B( 31-C , 77-H ) :   0.9319
B( 31-C , 78-H ) :   0.9499 B( 31-C , 79-H ) :   0.9486 B( 32-C , 33-N ) :   1.0310
B( 32-C , 80-H ) :   0.9367 B( 32-C , 81-H ) :   0.9297 B( 33-N , 34-C ) :   1.2143
B( 33-N , 82-H ) :   0.9410 B( 34-C , 35-C ) :   1.6447 B( 34-C , 83-H ) :   0.9620
B( 35-C , 36-C ) :   1.1445 B( 35-C , 84-H ) :   0.9517 B( 36-C , 37-C ) :   1.4454
B( 36-C , 40-S ) :   1.1314 B( 37-C , 38-C ) :   1.3358 B( 37-C , 85-H ) :   0.9959
B( 38-C , 39-C ) :   1.4982 B( 38-C , 43-C ) :   0.9468 B( 39-C , 40-S ) :   1.0466
B( 39-C , 41-C ) :   1.2293 B( 41-C , 42-C ) :   1.4418 B( 41-C , 48-S ) :   1.1315
B( 42-C , 43-C ) :   0.9303 B( 42-C , 46-C ) :   1.3783 B( 43-C , 44-C ) :   1.0353
B( 43-C , 45-C ) :   1.0357 B( 44-C , 86-H ) :   0.9636 B( 44-C , 87-H ) :   0.9639
B( 44-C , 88-H ) :   0.9639 B( 45-C , 89-H ) :   0.9647 B( 45-C , 90-H ) :   0.9649
B( 45-C , 91-H ) :   0.9644 B( 46-C , 47-C ) :   1.3262 B( 46-C , 92-H ) :   1.0109
B( 47-C , 48-S ) :   1.0646 B( 47-C , 49-C ) :   1.2433 B( 49-C , 50-C ) :   1.5195
B( 49-C , 93-H ) :   0.9467 B( 50-C , 51-C ) :   0.9646 B( 50-C , 64-C ) :   1.0788
B( 51-C , 52-O ) :   2.2559 B( 51-C , 53-C ) :   0.9170 B( 53-C , 54-C ) :   1.4788
B( 53-C , 63-C ) :   1.2214 B( 54-C , 55-C ) :   1.1822 B( 54-C , 94-H ) :   1.0158
B( 55-C , 56-C ) :   1.2626 B( 55-C , 60-C ) :   1.2378 B( 56-C , 57-C ) :   1.2024
B( 56-C , 62-C ) :   1.1960 B( 57-C , 58-C ) :   1.4403 B( 57-C , 95-H ) :   1.0071
B( 58-C , 59-C ) :   1.2583 B( 58-C , 61-F ) :   1.0830 B( 59-C , 60-C ) :   1.4562
B( 59-C , 96-H ) :   0.9926 B( 60-C , 97-H ) :   0.9968 B( 62-C , 63-C ) :   1.4684
B( 62-C , 98-H ) :   0.9955 B( 63-C , 64-C ) :   0.9935 B( 64-C , 65-C ) :   1.6194
B( 65-C , 66-C ) :   1.1560 B( 65-C , 68-C ) :   1.1420 B( 66-C , 67-N ) :   3.0261
B( 68-C , 69-N ) :   2.9826

-----------------------------------------------------------------------------
         ABSORPTION SPECTRUM VIA TRANSITION ELECTRIC DIPOLE MOMENTS
-----------------------------------------------------------------------------
State   Energy  Wavelength   fosc         T2         TX        TY        TZ
        (cm-1)    (nm)                  (au**2)     (au)      (au)      (au)
-----------------------------------------------------------------------------
   0   14814.1    675.0   0.152362647   3.38593  -1.24504  -1.27322   0.46338
   1   15941.3    627.3   0.966568156  19.96107  -2.73008  -3.29416   1.28695
   2   21674.9    461.4   0.341010909   5.17950  -1.37847   0.60342   1.70740
   3   22301.2    448.4   0.010715601   0.15818   0.27094   0.23668  -0.16958
   4   23476.0    426.0   0.021332255   0.29915  -0.14713  -0.52471  -0.04665
   5   25046.5    399.3   0.329057645   4.32514  -0.47142  -1.69186   1.11378
   6   26622.8    375.6   0.109496478   1.35401   0.37581  -1.07276  -0.24894
   7   26948.9    371.1   0.092436267   1.12921   0.55038   0.47177  -0.77700
   8   27168.6    368.1   0.115044393   1.39404  -0.21268   0.67824  -0.94276
   9   27761.8    360.2   0.312690500   3.70803   0.04583  -0.57736   1.83646
  10   28132.9    355.5   0.095883229   1.12203  -0.18578   0.38174  -0.97046
  11   28530.1    350.5   0.024015397   0.27712   0.45932  -0.17009   0.19291
  12   29310.6    341.2   0.142325900   1.59858  -0.11176  -1.21525   0.33053
  13   29425.5    339.8   0.103815997   1.16149  -0.61769  -0.58152   0.66467
  14   30244.8    330.6   0.072601043   0.79026   0.14920   0.84065  -0.24761
  15   30537.5    327.5   0.101801568   1.09748   0.72936  -0.63919  -0.39618
  16   30655.5    326.2   0.105887111   1.13713   0.38628   0.70854  -0.69706
  17   31450.2    318.0   0.189096937   1.97941  -0.76284   0.25391   1.15456
  18   31932.6    313.2   0.003563111   0.03673  -0.03865   0.00211  -0.18771
  19   32925.5    303.7   0.223543119   2.23514  -0.15868  -0.07179  -1.48486
  20   33291.3    300.4   0.062268042   0.61576   0.22859  -0.23789   0.71198
  21   33565.6    297.9   0.239184751   2.34593   1.02174   0.39156  -1.07175
  22   33730.0    296.5   0.262751127   2.56450  -0.95943   1.11052  -0.64089
  23   33831.8    295.6   0.150305540   1.46260  -0.36670   0.66859  -0.93868
  24   34437.4    290.4   0.005225053   0.04995  -0.19980  -0.01066  -0.09958
  25   34826.5    287.1   0.399721311   3.77854  -1.45001   0.18914   1.28071
  26   35201.7    284.1   0.096295365   0.90057   0.89369   0.30172  -0.10419
  27   35586.3    281.0   0.156540665   1.44817   0.30811   0.70313  -0.92674
  28   35888.4    278.6   0.053156076   0.48761  -0.21717  -0.36963   0.55120
  29   36232.8    276.0   0.001840614   0.01672  -0.06765   0.06983   0.08527
  30   36332.0    275.2   0.009327160   0.08452   0.07878  -0.12964   0.24800
  31   36379.7    274.9   0.017740752   0.16054   0.38349  -0.09356  -0.06875
  32   36468.3    274.2   0.084864005   0.76610  -0.70544   0.33279  -0.39712
  33   37220.3    268.7   0.004610753   0.04078  -0.19216   0.03831   0.04886
  34   37308.2    268.0   0.041672720   0.36772  -0.41480   0.12262  -0.42500
  35   37789.3    264.6   0.033392003   0.29090  -0.20289   0.07905  -0.49345
  36   38851.4    257.4   0.006587470   0.05582   0.01033   0.04458  -0.23179
  37   38932.7    256.9   0.099852230   0.84434  -0.14951  -0.22534   0.87818
  38   39428.3    253.6   0.015880385   0.13260   0.07162  -0.26407  -0.24027
  39   39602.9    252.5   0.002423134   0.02014  -0.07006   0.11369  -0.04805
  40   39752.4    251.6   0.074933875   0.62057  -0.30719   0.58815   0.42460
  41   40126.1    249.2   0.247452533   2.03021   0.76772  -0.63505   1.01858
  42   40298.3    248.1   0.074300784   0.60699   0.60828  -0.21501   0.43675

FINAL SINGLE POINT ENERGY     -6660.671356429517

DIPOLE MOMENT
-------------
                                X             Y             Z
Electronic contribution:     31.09307      76.51473     -91.82893
Nuclear contribution   :    -29.06416     -71.67772      91.65422
                        -----------------------------------------
Total Dipole Moment    :      2.02891       4.83702      -0.17471
                        -----------------------------------------
Magnitude (a.u.)       :      5.24821
Magnitude (Debye)      :     13.33990

Rotational constants in cm-1:     0.001370     0.000242     0.000230
Rotational constants in MHz :    41.074522     7.257189     6.891991

                             ****ORCA TERMINATED NORMALLY****
TOTAL RUN TIME: 0 days 0 hours 10 minutes 0 seconds 745 msec
