                         Program Version 4.2.0 -  RELEASE  -
|  1> # ORCA input file
|  2> # SCF done       -167.334397523575          0.005567914458
|  3> ! CAM-B3LYP def2-SVP def2/J RIJCOSX Grid4 TightSCF
|  4> %maxcore 5000
|  5> %tddft
|  6>     Mode sTDDFT
|  7>     Ethresh 5.0
|  8>     maxcore 5000
|  9> end
| 10>
| 11> %pal
| 12>   nprocs 6
| 13>   end
| 14> * xyz 0 1
| 15>    C       -7.39782        -0.69325         1.32843
| 16>    C       -6.87086        -1.94922         1.17185
| 17>    C       -7.62709        -3.13158         1.30337
| 18>    N       -8.20414        -4.11643         1.43402
| 19>    C       -5.49697        -2.20176         0.98820
| 20>    N       -4.38684        -2.47252         0.87173
| 21>    C       -8.78001        -0.38106         1.67034
| 22>    C       -8.85393         0.98750         2.02795
| 23>    C      -10.02350         1.59248         2.41653
| 24>    C      -11.18216         0.80942         2.44395
| 25>    C      -11.10047        -0.55642         2.08611
| 26>    C       -9.91397        -1.17167         1.70273
| 27>    S      -12.65396        -1.33387         2.17679
| 28>    C      -13.38177         0.17230         2.67009
| 29>    C      -12.50799         1.19999         2.77904
| 30>   Br      -15.23429         0.25130         2.95271
| 31>    C       -7.51497         1.59650         1.91570
| 32>    O       -7.21250         2.74731         2.15884
| 33>    C       -6.63383         0.53479         1.38666
| 34>    C       -5.37514         0.76134         0.89408
| 35>    C       -4.57255         1.89148         1.18590
| 36>    O       -3.67098         2.29611         0.24952
| 37>    C       -3.04500         3.37734         0.72365
| 38>    C       -3.46835         3.68785         1.97969
| 39>    C       -4.44853         2.72145         2.30709
| 40>    S       -5.19267         2.52193         3.86891
| 41>    C       -5.19826         0.78226         3.89904
| 42>    C       -6.17236        -0.03912         4.35438
| 43>    C       -6.11329        -1.46552         4.27810
| 44>    C       -7.28001        -2.08239         4.58030
| 45>    C       -8.32645        -1.19690         4.94872
| 46>    S       -7.74000         0.46060         4.98074
| 47>    C       -9.63777        -1.52630         5.19312
| 48>    C      -10.21996        -2.81781         5.11684
| 49>    C      -11.55126        -2.83588         5.37619
| 50>    C      -12.10479        -1.56040         5.67000
| 51>    S      -10.85160        -0.33069         5.60573
| 52>    C      -13.41338        -1.28778         5.95071
| 53>    C      -13.91698         0.00700         6.18673
| 54>    O      -13.10903         1.08910         6.12520
| 55>    C      -13.86272         2.17573         6.35670
| 56>    C      -15.16421         1.83953         6.56453
| 57>    C      -15.21362         0.42965         6.46789
| 58>    S      -16.62466        -0.59651         6.49474
| 59>    C      -17.68058         0.13780         7.62869
| 60>    C      -17.35091         0.84962         8.74116
| 61>    C      -18.26381         1.61290         9.56954
| 62>    C      -19.53140         2.00649         9.23076
| 63>    C      -20.36385         2.78481        10.06104
| 64>    N      -21.08444         3.41616        10.69506
| 65>    C      -20.15350         1.72778         7.99566
| 66>    N      -20.70629         1.56208         7.00297
| 67>    C      -17.55008         1.98164        10.78591
| 68>    C      -16.21412         1.51951        10.68942
| 69>    C      -16.03567         0.79666         9.41595
| 70>    O      -15.04653         0.19216         9.05365
| 71>    C      -15.28898         1.71785        11.68514
| 72>    C      -15.70209         2.40595        12.83116
| 73>    C      -17.04022         2.85908        12.92019
| 74>    C      -17.97587         2.65938        11.91324
| 75>    S      -17.34132         3.67316        14.42605
| 76>    C      -15.68721         3.40025        14.90776
| 77>    C      -14.94684         2.73329        13.99006
| 78>   Br      -15.09651         4.01586        16.57726
| 79>    H      -10.04123         2.63430         2.69437
| 80>    H       -9.90604        -2.21560         1.43446
| 81>    H      -12.78535         2.19481         3.07481
| 82>    H       -4.95220         0.07598         0.16986
| 83>    H       -2.31415         3.83767         0.08794
| 84>    H       -3.13136         4.48785         2.60540
| 85>    H       -4.31519         0.33466         3.46555
| 86>    H       -5.21472        -1.96434         3.95964
| 87>    H       -7.43047        -3.14559         4.53110
| 88>    H       -9.64194        -3.68755         4.86257
| 89>    H      -12.16657        -3.71757         5.36054
| 90>    H      -14.12367        -2.09921         5.99135
| 91>    H      -13.36724         3.12592         6.34464
| 92>    H      -15.98324         2.50118         6.75847
| 93>    H      -18.71577        -0.04836         7.37983
| 94>    H      -14.27871         1.35326        11.58298
| 95>    H      -18.98539         3.01694        12.02975
| 96>    H      -13.91088         2.47997        14.12466
| 97> *
| 98>
| 99>                          ****END OF INPUT****

CARTESIAN COORDINATES (ANGSTROEM)
---------------------------------
  C     -7.397820   -0.693250    1.328430
  C     -6.870860   -1.949220    1.171850
  C     -7.627090   -3.131580    1.303370
  N     -8.204140   -4.116430    1.434020
  C     -5.496970   -2.201760    0.988200
  N     -4.386840   -2.472520    0.871730
  C     -8.780010   -0.381060    1.670340
  C     -8.853930    0.987500    2.027950
  C    -10.023500    1.592480    2.416530
  C    -11.182160    0.809420    2.443950
  C    -11.100470   -0.556420    2.086110
  C     -9.913970   -1.171670    1.702730
  S    -12.653960   -1.333870    2.176790
  C    -13.381770    0.172300    2.670090
  C    -12.507990    1.199990    2.779040
  Br   -15.234290    0.251300    2.952710
  C     -7.514970    1.596500    1.915700
  O     -7.212500    2.747310    2.158840
  C     -6.633830    0.534790    1.386660
  C     -5.375140    0.761340    0.894080
  C     -4.572550    1.891480    1.185900
  O     -3.670980    2.296110    0.249520
  C     -3.045000    3.377340    0.723650
  C     -3.468350    3.687850    1.979690
  C     -4.448530    2.721450    2.307090
  S     -5.192670    2.521930    3.868910
  C     -5.198260    0.782260    3.899040
  C     -6.172360   -0.039120    4.354380
  C     -6.113290   -1.465520    4.278100
  C     -7.280010   -2.082390    4.580300
  C     -8.326450   -1.196900    4.948720
  S     -7.740000    0.460600    4.980740
  C     -9.637770   -1.526300    5.193120
  C    -10.219960   -2.817810    5.116840
  C    -11.551260   -2.835880    5.376190
  C    -12.104790   -1.560400    5.670000
  S    -10.851600   -0.330690    5.605730
  C    -13.413380   -1.287780    5.950710
  C    -13.916980    0.007000    6.186730
  O    -13.109030    1.089100    6.125200
  C    -13.862720    2.175730    6.356700
  C    -15.164210    1.839530    6.564530
  C    -15.213620    0.429650    6.467890
  S    -16.624660   -0.596510    6.494740
  C    -17.680580    0.137800    7.628690
  C    -17.350910    0.849620    8.741160
  C    -18.263810    1.612900    9.569540
  C    -19.531400    2.006490    9.230760
  C    -20.363850    2.784810   10.061040
  N    -21.084440    3.416160   10.695060
  C    -20.153500    1.727780    7.995660
  N    -20.706290    1.562080    7.002970
  C    -17.550080    1.981640   10.785910
  C    -16.214120    1.519510   10.689420
  C    -16.035670    0.796660    9.415950
  O    -15.046530    0.192160    9.053650
  C    -15.288980    1.717850   11.685140
  C    -15.702090    2.405950   12.831160
  C    -17.040220    2.859080   12.920190
  C    -17.975870    2.659380   11.913240
  S    -17.341320    3.673160   14.426050
  C    -15.687210    3.400250   14.907760
  C    -14.946840    2.733290   13.990060
  Br   -15.096510    4.015860   16.577260
  H    -10.041230    2.634300    2.694370
  H     -9.906040   -2.215600    1.434460
  H    -12.785350    2.194810    3.074810
  H     -4.952200    0.075980    0.169860
  H     -2.314150    3.837670    0.087940
  H     -3.131360    4.487850    2.605400
  H     -4.315190    0.334660    3.465550
  H     -5.214720   -1.964340    3.959640
  H     -7.430470   -3.145590    4.531100
  H     -9.641940   -3.687550    4.862570
  H    -12.166570   -3.717570    5.360540
  H    -14.123670   -2.099210    5.991350
  H    -13.367240    3.125920    6.344640
  H    -15.983240    2.501180    6.758470
  H    -18.715770   -0.048360    7.379830
  H    -14.278710    1.353260   11.582980
  H    -18.985390    3.016940   12.029750
  H    -13.910880    2.479970   14.124660

 Total Charge           Charge          ....    0
 Multiplicity           Mult            ....    1
 Number of Electrons    NEL             ....  532
 Basis Dimension        Dim             .... 1046

ORBITAL ENERGIES
----------------

  NO   OCC          E(Eh)            E(eV)
   0   2.0000    -482.888010    -13140.0508
   1   2.0000    -482.882371    -13139.8973
   2   2.0000     -88.978021     -2421.2150
   3   2.0000     -88.974282     -2421.1133
   4   2.0000     -88.970576     -2421.0125
   5   2.0000     -88.955894     -2420.6129
   6   2.0000     -88.949730     -2420.4452
   7   2.0000     -88.945321     -2420.3252
   8   2.0000     -62.565699     -1702.4992
   9   2.0000     -62.559601     -1702.3333
  10   2.0000     -56.399651     -1534.7125
  11   2.0000     -56.396930     -1534.6385
  12   2.0000     -56.396902     -1534.6377
  13   2.0000     -56.393569     -1534.5470
  14   2.0000     -56.390918     -1534.4749
  15   2.0000     -56.390760     -1534.4706
  16   2.0000     -19.302928      -525.2594
  17   2.0000     -19.299644      -525.1700
  18   2.0000     -19.217962      -522.9473
  19   2.0000     -19.212205      -522.7907
  20   2.0000     -14.419504      -392.3747
  21   2.0000     -14.418793      -392.3553
  22   2.0000     -14.417423      -392.3180
  23   2.0000     -14.415904      -392.2767
  24   2.0000     -10.368883      -282.1516
  25   2.0000     -10.361696      -281.9561
  26   2.0000     -10.357730      -281.8482
  27   2.0000     -10.354051      -281.7481
  28   2.0000     -10.346421      -281.5404
  29   2.0000     -10.345857      -281.5251
  30   2.0000     -10.345694      -281.5206
  31   2.0000     -10.344897      -281.4990
  32   2.0000     -10.343575      -281.4630
  33   2.0000     -10.339540      -281.3532
  34   2.0000     -10.338710      -281.3306
  35   2.0000     -10.338618      -281.3281
  36   2.0000     -10.332566      -281.1634
  37   2.0000     -10.328141      -281.0430
  38   2.0000     -10.322169      -280.8805
  39   2.0000     -10.321460      -280.8612
  40   2.0000     -10.320691      -280.8403
  41   2.0000     -10.318904      -280.7917
  42   2.0000     -10.318778      -280.7882
  43   2.0000     -10.318460      -280.7796
  44   2.0000     -10.317417      -280.7512
  45   2.0000     -10.314281      -280.6659
  46   2.0000     -10.314071      -280.6601
  47   2.0000     -10.312216      -280.6097
  48   2.0000     -10.311253      -280.5835
  49   2.0000     -10.310613      -280.5661
  50   2.0000     -10.309152      -280.5263
  51   2.0000     -10.308927      -280.5202
  52   2.0000     -10.305258      -280.4203
  53   2.0000     -10.304628      -280.4032
  54   2.0000     -10.304043      -280.3873
  55   2.0000     -10.303569      -280.3744
  56   2.0000     -10.301765      -280.3253
  57   2.0000     -10.301322      -280.3132
  58   2.0000     -10.301230      -280.3107
  59   2.0000     -10.299179      -280.2549
  60   2.0000     -10.296870      -280.1921
  61   2.0000     -10.295719      -280.1607
  62   2.0000     -10.291812      -280.0545
  63   2.0000     -10.291144      -280.0363
  64   2.0000     -10.290745      -280.0254
  65   2.0000     -10.288947      -279.9765
  66   2.0000     -10.288410      -279.9619
  67   2.0000     -10.286817      -279.9185
  68   2.0000     -10.286337      -279.9055
  69   2.0000     -10.286062      -279.8980
  70   2.0000     -10.285802      -279.8909
  71   2.0000     -10.280867      -279.7566
  72   2.0000      -8.795124      -239.3275
  73   2.0000      -8.788854      -239.1569
  74   2.0000      -8.074036      -219.7057
  75   2.0000      -8.068996      -219.5685
  76   2.0000      -8.066041      -219.4881
  77   2.0000      -8.050235      -219.0580
  78   2.0000      -8.045177      -218.9204
  79   2.0000      -8.040482      -218.7926
  80   2.0000      -6.631409      -180.4498
  81   2.0000      -6.625103      -180.2782
  82   2.0000      -6.616873      -180.0543
  83   2.0000      -6.616654      -180.0483
  84   2.0000      -6.610612      -179.8839
  85   2.0000      -6.610413      -179.8785
  86   2.0000      -6.043723      -164.4581
  87   2.0000      -6.039461      -164.3421
  88   2.0000      -6.038845      -164.3253
  89   2.0000      -6.035769      -164.2416
  90   2.0000      -6.035237      -164.2271
  91   2.0000      -6.034362      -164.2033
  92   2.0000      -6.031546      -164.1267
  93   2.0000      -6.030364      -164.0945
  94   2.0000      -6.027247      -164.0097
  95   2.0000      -6.020349      -163.8220
  96   2.0000      -6.016280      -163.7113
  97   2.0000      -6.015102      -163.6792
  98   2.0000      -6.011099      -163.5703
  99   2.0000      -6.010703      -163.5595
 100   2.0000      -6.010359      -163.5502
 101   2.0000      -6.006201      -163.4370
 102   2.0000      -6.005779      -163.4256
 103   2.0000      -6.001305      -163.3038
 104   2.0000      -2.747323       -74.7585
 105   2.0000      -2.743191       -74.6460
 106   2.0000      -2.743020       -74.6414
 107   2.0000      -2.740984       -74.5860
 108   2.0000      -2.736917       -74.4753
 109   2.0000      -2.736790       -74.4719
 110   2.0000      -2.731475       -74.3272
 111   2.0000      -2.731458       -74.3267
 112   2.0000      -2.725260       -74.1581
 113   2.0000      -2.725251       -74.1579
 114   2.0000      -1.223479       -33.2926
 115   2.0000      -1.219497       -33.1842
 116   2.0000      -1.132569       -30.8188
 117   2.0000      -1.126662       -30.6580
 118   2.0000      -1.026303       -27.9271
 119   2.0000      -1.019992       -27.7554
 120   2.0000      -1.016572       -27.6623
 121   2.0000      -1.010503       -27.4972
 122   2.0000      -0.997590       -27.1458
 123   2.0000      -0.997503       -27.1434
 124   2.0000      -0.995393       -27.0860
 125   2.0000      -0.993866       -27.0445
 126   2.0000      -0.986636       -26.8477
 127   2.0000      -0.976239       -26.5648
 128   2.0000      -0.960320       -26.1316
 129   2.0000      -0.950286       -25.8586
 130   2.0000      -0.941109       -25.6089
 131   2.0000      -0.937667       -25.5152
 132   2.0000      -0.911769       -24.8105
 133   2.0000      -0.907449       -24.6930
 134   2.0000      -0.906922       -24.6786
 135   2.0000      -0.904305       -24.6074
 136   2.0000      -0.899610       -24.4796
 137   2.0000      -0.888852       -24.1869
 138   2.0000      -0.888753       -24.1842
 139   2.0000      -0.880076       -23.9481
 140   2.0000      -0.874777       -23.8039
 141   2.0000      -0.872167       -23.7329
 142   2.0000      -0.857401       -23.3311
 143   2.0000      -0.841302       -22.8930
 144   2.0000      -0.833197       -22.6724
 145   2.0000      -0.830650       -22.6031
 146   2.0000      -0.826815       -22.4988
 147   2.0000      -0.823078       -22.3971
 148   2.0000      -0.820890       -22.3376
 149   2.0000      -0.809932       -22.0394
 150   2.0000      -0.775787       -21.1102
 151   2.0000      -0.766418       -20.8553
 152   2.0000      -0.764941       -20.8151
 153   2.0000      -0.757737       -20.6191
 154   2.0000      -0.752610       -20.4796
 155   2.0000      -0.724484       -19.7142
 156   2.0000      -0.711844       -19.3703
 157   2.0000      -0.708709       -19.2850
 158   2.0000      -0.700762       -19.0687
 159   2.0000      -0.696878       -18.9630
 160   2.0000      -0.693979       -18.8841
 161   2.0000      -0.688712       -18.7408
 162   2.0000      -0.682353       -18.5678
 163   2.0000      -0.677631       -18.4393
 164   2.0000      -0.674743       -18.3607
 165   2.0000      -0.662723       -18.0336
 166   2.0000      -0.657390       -17.8885
 167   2.0000      -0.653913       -17.7939
 168   2.0000      -0.644404       -17.5351
 169   2.0000      -0.635788       -17.3007
 170   2.0000      -0.631549       -17.1853
 171   2.0000      -0.625354       -17.0167
 172   2.0000      -0.620742       -16.8912
 173   2.0000      -0.615759       -16.7557
 174   2.0000      -0.615001       -16.7350
 175   2.0000      -0.608627       -16.5616
 176   2.0000      -0.603882       -16.4325
 177   2.0000      -0.599251       -16.3064
 178   2.0000      -0.597348       -16.2547
 179   2.0000      -0.590242       -16.0613
 180   2.0000      -0.585259       -15.9257
 181   2.0000      -0.572975       -15.5914
 182   2.0000      -0.569417       -15.4946
 183   2.0000      -0.567229       -15.4351
 184   2.0000      -0.564574       -15.3628
 185   2.0000      -0.552257       -15.0277
 186   2.0000      -0.551267       -15.0007
 187   2.0000      -0.549025       -14.9397
 188   2.0000      -0.544315       -14.8116
 189   2.0000      -0.542511       -14.7625
 190   2.0000      -0.539416       -14.6783
 191   2.0000      -0.537665       -14.6306
 192   2.0000      -0.534343       -14.5402
 193   2.0000      -0.533044       -14.5049
 194   2.0000      -0.526382       -14.3236
 195   2.0000      -0.522476       -14.2173
 196   2.0000      -0.518238       -14.1020
 197   2.0000      -0.517939       -14.0938
 198   2.0000      -0.515744       -14.0341
 199   2.0000      -0.512622       -13.9491
 200   2.0000      -0.509943       -13.8763
 201   2.0000      -0.509726       -13.8704
 202   2.0000      -0.506685       -13.7876
 203   2.0000      -0.503773       -13.7083
 204   2.0000      -0.502443       -13.6722
 205   2.0000      -0.497460       -13.5366
 206   2.0000      -0.495144       -13.4735
 207   2.0000      -0.494658       -13.4603
 208   2.0000      -0.491289       -13.3687
 209   2.0000      -0.488526       -13.2935
 210   2.0000      -0.486623       -13.2417
 211   2.0000      -0.483912       -13.1679
 212   2.0000      -0.478840       -13.0299
 213   2.0000      -0.477742       -13.0000
 214   2.0000      -0.472924       -12.8689
 215   2.0000      -0.470969       -12.8157
 216   2.0000      -0.465422       -12.6648
 217   2.0000      -0.460828       -12.5398
 218   2.0000      -0.459113       -12.4931
 219   2.0000      -0.454381       -12.3643
 220   2.0000      -0.452254       -12.3064
 221   2.0000      -0.451198       -12.2777
 222   2.0000      -0.450777       -12.2663
 223   2.0000      -0.448382       -12.2011
 224   2.0000      -0.447515       -12.1775
 225   2.0000      -0.445572       -12.1246
 226   2.0000      -0.442670       -12.0457
 227   2.0000      -0.442490       -12.0408
 228   2.0000      -0.439238       -11.9523
 229   2.0000      -0.435381       -11.8473
 230   2.0000      -0.433186       -11.7876
 231   2.0000      -0.432000       -11.7553
 232   2.0000      -0.429751       -11.6941
 233   2.0000      -0.428360       -11.6563
 234   2.0000      -0.425912       -11.5896
 235   2.0000      -0.424677       -11.5561
 236   2.0000      -0.418773       -11.3954
 237   2.0000      -0.415750       -11.3131
 238   2.0000      -0.413916       -11.2632
 239   2.0000      -0.410563       -11.1720
 240   2.0000      -0.405950       -11.0465
 241   2.0000      -0.401866       -10.9353
 242   2.0000      -0.397627       -10.8200
 243   2.0000      -0.391753       -10.6601
 244   2.0000      -0.389097       -10.5879
 245   2.0000      -0.387566       -10.5462
 246   2.0000      -0.377721       -10.2783
 247   2.0000      -0.377153       -10.2629
 248   2.0000      -0.374646       -10.1946
 249   2.0000      -0.369946       -10.0667
 250   2.0000      -0.354846        -9.6559
 251   2.0000      -0.353794        -9.6272
 252   2.0000      -0.349532        -9.5113
 253   2.0000      -0.340604        -9.2683
 254   2.0000      -0.337502        -9.1839
 255   2.0000      -0.336271        -9.1504
 256   2.0000      -0.332928        -9.0594
 257   2.0000      -0.318257        -8.6602
 258   2.0000      -0.316222        -8.6048
 259   2.0000      -0.303337        -8.2542
 260   2.0000      -0.298377        -8.1193
 261   2.0000      -0.295671        -8.0456
 262   2.0000      -0.290138        -7.8951
 263   2.0000      -0.281684        -7.6650
 264   2.0000      -0.274234        -7.4623
 265   2.0000      -0.217337        -5.9141
 266   0.0000      -0.091455        -2.4886
 267   0.0000      -0.087481        -2.3805
 268   0.0000      -0.070424        -1.9163
 269   0.0000      -0.055765        -1.5174
 270   0.0000      -0.052512        -1.4289

MULLIKEN ATOMIC CHARGES
-----------------------
   0 C :    0.290403
   1 C :   -0.333188
   2 C :   -0.197605
   3 N :    0.147956
   4 C :   -0.214363
   5 N :    0.161389
   6 C :    0.015093
   7 C :    0.025397
   8 C :   -0.089807
   9 C :    0.153120
  10 C :   -0.100946
  11 C :   -0.020104
  12 S :    0.175748
  13 C :   -0.128215
  14 C :    0.046919
  15 Br:    0.022353
  16 C :    0.121844
  17 O :   -0.141606
  18 C :   -0.083761
  19 C :   -0.051336
  20 C :    0.133332
  21 O :   -0.185517
  22 C :    0.163136
  23 C :   -0.032165
  24 C :   -0.041500
  25 S :    0.149255
  26 C :   -0.150557
  27 C :   -0.014816
  28 C :    0.051253
  29 C :    0.019080
  30 C :   -0.071402
  31 S :    0.091034
  32 C :   -0.045323
  33 C :    0.028378
  34 C :    0.035764
  35 C :   -0.011727
  36 S :    0.097355
  37 C :   -0.058904
  38 C :    0.139982
  39 O :   -0.207916
  40 C :    0.150459
  41 C :   -0.030137
  42 C :   -0.045278
  43 S :    0.160360
  44 C :   -0.112451
  45 C :   -0.083133
  46 C :    0.299996
  47 C :   -0.333951
  48 C :   -0.181648
  49 N :    0.150454
  50 C :   -0.222992
  51 N :    0.166110
  52 C :    0.008384
  53 C :   -0.007955
  54 C :    0.147371
  55 O :   -0.139900
  56 C :   -0.072648
  57 C :    0.116894
  58 C :   -0.090798
  59 C :   -0.020833
  60 S :    0.187666
  61 C :   -0.123634
  62 C :    0.039123
  63 Br:    0.026161
  64 H :   -0.018792
  65 H :   -0.011854
  66 H :   -0.011043
  67 H :    0.036723
  68 H :    0.025171
  69 H :    0.000105
  70 H :    0.047248
  71 H :    0.005386
  72 H :    0.002682
  73 H :   -0.005574
  74 H :   -0.010025
  75 H :   -0.008146
  76 H :    0.012702
  77 H :    0.000112
  78 H :    0.077007
  79 H :   -0.010074
  80 H :   -0.005038
  81 H :   -0.002244
Sum of atomic charges:   -0.0000000

LOEWDIN ATOMIC CHARGES
----------------------
   0 C :    0.081132
   1 C :   -0.145911
   2 C :   -0.015682
   3 N :   -0.063972
   4 C :   -0.025038
   5 N :   -0.058767
   6 C :   -0.026948
   7 C :   -0.047645
   8 C :    0.014767
   9 C :   -0.030626
  10 C :   -0.147410
  11 C :   -0.007613
  12 S :    0.431626
  13 C :   -0.270351
  14 C :   -0.069845
  15 Br:    0.145168
  16 C :    0.062455
  17 O :   -0.143855
  18 C :   -0.086225
  19 C :    0.033030
  20 C :   -0.001072
  21 O :    0.021592
  22 C :    0.068705
  23 C :   -0.079472
  24 C :   -0.165533
  25 S :    0.422388
  26 C :   -0.202394
  27 C :   -0.172400
  28 C :   -0.028347
  29 C :   -0.027091
  30 C :   -0.175120
  31 S :    0.377161
  32 C :   -0.182285
  33 C :   -0.027650
  34 C :   -0.032953
  35 C :   -0.136576
  36 S :    0.393603
  37 C :   -0.081530
  38 C :    0.018276
  39 O :    0.017572
  40 C :    0.043185
  41 C :   -0.077276
  42 C :   -0.215795
  43 S :    0.451242
  44 C :   -0.096484
  45 C :   -0.125073
  46 C :    0.075434
  47 C :   -0.141514
  48 C :   -0.018367
  49 N :   -0.051861
  50 C :   -0.026259
  51 N :   -0.049382
  52 C :   -0.023618
  53 C :   -0.048718
  54 C :    0.075344
  55 O :   -0.134091
  56 C :    0.021205
  57 C :   -0.031772
  58 C :   -0.144793
  59 C :   -0.009008
  60 S :    0.432851
  61 C :   -0.270881
  62 C :   -0.070432
  63 Br:    0.138689
  64 H :    0.038182
  65 H :    0.038328
  66 H :    0.035510
  67 H :    0.049772
  68 H :    0.029922
  69 H :    0.036462
  70 H :    0.030451
  71 H :    0.037950
  72 H :    0.036845
  73 H :    0.034992
  74 H :    0.034750
  75 H :    0.037762
  76 H :    0.024617
  77 H :    0.032951
  78 H :    0.041573
  79 H :    0.041542
  80 H :    0.041312
  81 H :    0.039288

  Mayer bond orders larger than 0.100000
B(  0-C ,  1-C ) :   1.6423 B(  0-C ,  6-C ) :   1.0064 B(  0-C , 18-C ) :   1.0713
B(  1-C ,  2-C ) :   1.1501 B(  1-C ,  4-C ) :   1.1461 B(  2-C ,  3-N ) :   2.9721
B(  4-C ,  5-N ) :   2.9874 B(  6-C ,  7-C ) :   1.2773 B(  6-C , 11-C ) :   1.4002
B(  7-C ,  8-C ) :   1.4253 B(  7-C , 16-C ) :   0.9313 B(  8-C ,  9-C ) :   1.2357
B(  8-C , 64-H ) :   1.0184 B(  9-C , 10-C ) :   1.3076 B(  9-C , 14-C ) :   1.1565
B( 10-C , 11-C ) :   1.3257 B( 10-C , 12-S ) :   1.0830 B( 11-C , 65-H ) :   0.9850
B( 12-S , 13-C ) :   1.0858 B( 13-C , 14-C ) :   1.6159 B( 13-C , 15-Br) :   1.0178
B( 14-C , 66-H ) :   0.9998 B( 16-C , 17-O ) :   2.2002 B( 16-C , 18-C ) :   0.9617
B( 18-C , 19-C ) :   1.5420 B( 19-C , 20-C ) :   1.2000 B( 19-C , 67-H ) :   0.9465
B( 20-C , 21-O ) :   1.1177 B( 20-C , 24-C ) :   1.4222 B( 21-O , 22-C ) :   1.1670
B( 22-C , 23-C ) :   1.5217 B( 22-C , 68-H ) :   1.0042 B( 23-C , 24-C ) :   1.2588
B( 23-C , 69-H ) :   1.0091 B( 24-C , 25-S ) :   1.0356 B( 25-S , 26-C ) :   1.0949
B( 26-C , 27-C ) :   1.6793 B( 26-C , 70-H ) :   0.9233 B( 27-C , 28-C ) :   1.1151
B( 27-C , 31-S ) :   1.0359 B( 28-C , 29-C ) :   1.6283 B( 28-C , 71-H ) :   0.9919
B( 29-C , 30-C ) :   1.1626 B( 29-C , 72-H ) :   0.9920 B( 30-C , 31-S ) :   1.0321
B( 30-C , 32-C ) :   1.5580 B( 32-C , 33-C ) :   1.1647 B( 32-C , 36-S ) :   1.0235
B( 33-C , 34-C ) :   1.6079 B( 33-C , 73-H ) :   0.9954 B( 34-C , 35-C ) :   1.1190
B( 34-C , 74-H ) :   1.0023 B( 35-C , 36-S ) :   1.0481 B( 35-C , 37-C ) :   1.5945
B( 37-C , 38-C ) :   1.1842 B( 37-C , 75-H ) :   0.9586 B( 38-C , 39-O ) :   1.1408
B( 38-C , 42-C ) :   1.4615 B( 39-O , 40-C ) :   1.1153 B( 40-C , 41-C ) :   1.5571
B( 40-C , 76-H ) :   1.0062 B( 41-C , 42-C ) :   1.2445 B( 41-C , 77-H ) :   1.0055
B( 42-C , 43-S ) :   0.9845 B( 43-S , 44-C ) :   1.1988 B( 44-C , 45-C ) :   1.5968
B( 44-C , 78-H ) :   0.9199 B( 45-C , 46-C ) :   1.0724 B( 45-C , 54-C ) :   0.9494
B( 46-C , 47-C ) :   1.6451 B( 46-C , 52-C ) :   1.0111 B( 47-C , 48-C ) :   1.1377
B( 47-C , 50-C ) :   1.1419 B( 48-C , 49-N ) :   2.9723 B( 50-C , 51-N ) :   3.0008
B( 52-C , 53-C ) :   1.2730 B( 52-C , 59-C ) :   1.4100 B( 53-C , 54-C ) :   0.9376
B( 53-C , 56-C ) :   1.4266 B( 54-C , 55-O ) :   2.2248 B( 56-C , 57-C ) :   1.2436
B( 56-C , 79-H ) :   1.0173 B( 57-C , 58-C ) :   1.3077 B( 57-C , 62-C ) :   1.1632
B( 58-C , 59-C ) :   1.3300 B( 58-C , 60-S ) :   1.0851 B( 59-C , 80-H ) :   0.9796
B( 60-S , 61-C ) :   1.0875 B( 61-C , 62-C ) :   1.6169 B( 61-C , 63-Br) :   1.0209
B( 62-C , 81-H ) :   0.9999

-----------------------------------------------------------------------------
         ABSORPTION SPECTRUM VIA TRANSITION ELECTRIC DIPOLE MOMENTS
-----------------------------------------------------------------------------
State   Energy  Wavelength   fosc         T2         TX        TY        TZ
        (cm-1)    (nm)                  (au**2)     (au)      (au)      (au)
-----------------------------------------------------------------------------
   0   10830.1    923.4   0.055694741   1.69300   1.00487   0.09865  -0.82067
   1   14484.6    690.4   0.511611587  11.62809  -2.95185   0.50692   1.63024
   2   17320.1    577.4   0.187589544   3.56561  -1.59929  -0.11179   0.99770
   3   18214.0    549.0   0.262577543   4.74601  -2.07467   0.02898   0.66402
   4   20587.4    485.7   0.081286618   1.29985   1.13292   0.11131  -0.06278
   5   23506.1    425.4   0.398654566   5.58332  -2.00024  -1.22041   0.30491
   6   23821.7    419.8   0.070910282   0.97997  -0.83389  -0.26989  -0.46017
   7   26058.0    383.8   0.282269798   3.56614  -1.21636   0.89858   1.13100
   8   26620.0    375.7   0.111729310   1.38176  -0.13159  -1.09146  -0.41613
   9   26782.7    373.4   0.147382806   1.81163  -1.27831   0.38302   0.17564
  10   27697.8    361.0   0.109625701   1.30300   0.70139  -0.60109  -0.67062
  11   28187.6    354.8   0.071858836   0.83926   0.88089   0.04770   0.24703
  12   28279.8    353.6   0.141247410   1.64429   0.84808   0.00873   0.96176
  13   28373.1    352.4   0.130184018   1.51052  -0.85222   0.04336   0.88451
  14   28660.3    348.9   0.094274298   1.08290   0.46110   0.31013   0.87983
  15   29060.1    344.1   0.126008653   1.42751   0.02917   1.07261   0.52551
  16   29583.6    338.0   0.029018647   0.32293   0.19355  -0.43191  -0.31451
  17   29872.8    334.8   0.242839997   2.67620  -1.44020   0.77133   0.08418
  18   30192.2    331.2   0.135220187   1.47442   1.10303  -0.31380   0.39909
  19   30708.5    325.6   0.107135975   1.14856  -1.05363   0.11936  -0.15546
  20   30895.0    323.7   0.032737716   0.34885   0.51399  -0.24144   0.16237
  21   31360.2    318.9   0.213675109   2.24311  -1.05497  -0.93244  -0.51059
  22   31530.6    317.2   0.233255658   2.43543   0.82857   0.34415   1.27689
  23   32291.9    309.7   0.114549344   1.16781  -0.10910  -0.15226   1.06430
  24   32443.7    308.2   0.086256688   0.87526   0.07553   0.08831  -0.92831
  25   32842.1    304.5   0.295258841   2.95970   1.57737   0.67407  -0.13130
  26   32994.4    303.1   0.207976256   2.07515  -0.26673  -1.40728  -0.15353
  27   33362.4    299.7   0.074300284   0.73318  -0.04044  -0.70243   0.48799
  28   33391.0    299.5   0.078534821   0.77430   0.61249  -0.10831   0.62243
  29   33503.0    298.5   0.007419421   0.07291   0.14540  -0.20856  -0.09093
  30   34131.5    293.0   0.236043940   2.27673   1.38521   0.12140   0.58583
  31   34278.1    291.7   0.120897194   1.16111   0.86332  -0.19003   0.61619
  32   34603.8    289.0   0.028637736   0.27245  -0.10291  -0.35518   0.36838
  33   34695.5    288.2   0.056967712   0.54054  -0.00718  -0.68475   0.26760
  34   35098.7    284.9   0.042199048   0.39581  -0.61117  -0.14419   0.03867
  35   35585.9    281.0   0.109660197   1.01449  -0.84339   0.49290   0.24542
  36   35871.8    278.8   0.068167498   0.62561  -0.24220  -0.57845  -0.48201
  37   36243.4    275.9   0.002857305   0.02595   0.13000   0.06787   0.06669
  38   36345.3    275.1   0.085844938   0.77758  -0.56252   0.14658   0.66307
  39   36488.0    274.1   0.016298888   0.14706  -0.09636   0.13435   0.34601
  40   37023.8    270.1   0.061051395   0.54286   0.23196  -0.59156  -0.37298
  41   37698.0    265.3   0.115096302   1.00512   0.04954  -0.79884  -0.60376
  42   37965.3    263.4   0.005869051   0.05089  -0.06447   0.08413   0.19914
  43   38208.9    261.7   0.070026029   0.60335  -0.69394   0.29909   0.17984
  44   38263.1    261.3   0.000078586   0.00068   0.01368  -0.02186  -0.00338
  45   38598.9    259.1   0.045333758   0.38665  -0.57040  -0.19217   0.15610
  46   38723.4    258.2   0.002567575   0.02183  -0.09711  -0.06018  -0.09368
  47   38987.8    256.5   0.038953276   0.32892   0.48525   0.29519   0.07948
  48   39267.2    254.7   0.247676935   2.07650  -1.11632   0.40281   0.81735
  49   39658.3    252.2   0.010087037   0.08373  -0.16118   0.23534   0.04872
  50   39872.4    250.8   0.012036936   0.09938   0.25875  -0.16250  -0.07764
  51   40070.1    249.6   0.009356763   0.07687  -0.06587   0.23763   0.12676
  52   40112.5    249.3   0.023054883   0.18922   0.31780  -0.29687  -0.00922

FINAL SINGLE POINT ENERGY     -9893.048057156777

DIPOLE MOMENT
-------------
                                X             Y             Z
Electronic contribution:    -80.06418      30.58496      81.32011
Nuclear contribution   :     81.81066     -29.54048     -80.45928
                        -----------------------------------------
Total Dipole Moment    :      1.74649       1.04448       0.86083
                        -----------------------------------------
Magnitude (a.u.)       :      2.20957
Magnitude (Debye)      :      5.61627

Rotational constants in cm-1:     0.001484     0.000386     0.000333
Rotational constants in MHz :    44.493711    11.557641     9.985066

                             ****ORCA TERMINATED NORMALLY****
TOTAL RUN TIME: 0 days 0 hours 9 minutes 24 seconds 905 msec
