                         Program Version 4.2.0 -  RELEASE  -
|  1> # ORCA input file
|  2> # SCF done       -135.338992536690          0.000565645690
|  3> ! CAM-B3LYP def2-SVP def2/J RIJCOSX Grid4 TightSCF
|  4> %maxcore 5000
|  5> %tddft
|  6>     Mode sTDDFT
|  7>     Ethresh 5.0
|  8>     maxcore 5000
|  9> end
| 10>
| 11> %pal
| 12>   nprocs 6
| 13>   end
| 14> * xyz 0 1
| 15>    C        4.64211        -7.94886        10.57321
| 16>    C        5.36649        -7.66452         9.48339
| 17>    C        6.75365        -7.29404         9.42683
| 18>    C        7.21919        -7.06918         8.18096
| 19>    C        6.24972        -7.23935         7.14759
| 20>    S        4.70701        -7.69954         7.83904
| 21>    C        6.42664        -7.08423         5.79802
| 22>    C        7.62480        -6.72127         5.12587
| 23>    C        7.48850        -6.64952         3.78036
| 24>    C        6.17613        -6.94857         3.31042
| 25>    S        5.11140        -7.32962         4.64078
| 26>    C        5.74366        -6.95178         2.01871
| 27>    C        4.38686        -7.26765         1.71639
| 28>    N        3.60046        -7.55874         2.76479
| 29>    C        2.34074        -7.85752         2.52369
| 30>    C        1.82062        -7.86701         1.24180
| 31>    C        2.70409        -7.54234         0.19694
| 32>    N        3.97913        -7.25551         0.44715
| 33>    C        2.33342        -7.50101        -1.20151
| 34>    C        1.06967        -7.55311        -1.66593
| 35>    C        0.65407        -7.50923        -3.02705
| 36>    S       -0.97291        -6.99752        -3.34839
| 37>    C       -0.77696        -7.07358        -5.06474
| 38>    C        0.48826        -7.56724        -5.38392
| 39>    C        1.31092        -7.80518        -4.22604
| 40>    C        2.59373        -8.35981        -4.39642
| 41>    C        3.05414        -8.65077        -5.65779
| 42>    C        4.34680        -9.19455        -5.83113
| 43>    N        5.40048        -9.62857        -5.95466
| 44>    C        2.22512        -8.43851        -6.80455
| 45>    C        2.70734        -8.78048        -8.08767
| 46>    N        3.08247        -9.03787        -9.13990
| 47>    C        0.95964        -7.92608        -6.66202
| 48>    C       -1.87422        -6.64351        -5.88711
| 49>    C       -1.84017        -5.90625        -7.00795
| 50>    C       -0.61775        -5.33573        -7.64864
| 51>    C       -3.13403        -5.61777        -7.73486
| 52>    N       -3.35227        -6.57726        -8.79244
| 53>    C       -2.85696        -6.43126       -10.04653
| 54>    C       -2.81555        -7.42768       -10.96597
| 55>    C       -2.39559        -7.24502       -12.29903
| 56>    C       -2.43831        -8.21408       -13.26170
| 57>    C       -2.04116        -8.09637       -14.61891
| 58>    C       -2.23266        -9.21652       -15.36188
| 59>    C       -2.79693       -10.30055       -14.64157
| 60>    S       -3.05929        -9.83978       -12.97095
| 61>    C       -3.12993       -11.54539       -15.11591
| 62>    C       -2.98063       -12.03603       -16.44197
| 63>    C       -3.41204       -13.30425       -16.62199
| 64>    C       -3.94145       -13.92529       -15.44215
| 65>    S       -3.84653       -12.78155       -14.09376
| 66>    C       -4.44142       -15.16265       -15.31920
| 67>    H        5.08552        -7.91500        11.55286
| 68>    H        3.60394        -8.21781        10.50700
| 69>    H        7.33659        -7.21464        10.32754
| 70>    H        8.23115        -6.78395         7.95362
| 71>    H        8.54369        -6.52672         5.65101
| 72>    H        8.27672        -6.39248         3.09439
| 73>    H        6.40766        -6.71526         1.20378
| 74>    H        1.73517        -8.09689         3.38888
| 75>    H        0.79079        -8.12501         1.06280
| 76>    H        3.17216        -7.36318        -1.86627
| 77>    H        0.25087        -7.57337        -0.95713
| 78>    H        3.20888        -8.58816        -3.54155
| 79>    H        0.31754        -7.82790        -7.52246
| 80>    H       -2.84854        -6.88610        -5.47577
| 81>    H       -0.43075        -5.80542        -8.61581
| 82>    H        0.26131        -5.45507        -7.02300
| 83>    H       -0.77116        -4.27166        -7.83059
| 84>    H       -3.10760        -4.62118        -8.18184
| 85>    H       -3.98202        -5.67145        -7.04581
| 86>    H       -3.53708        -7.52511        -8.49545
| 87>    H       -2.55323        -5.42683       -10.30894
| 88>    H       -3.14516        -8.41946       -10.68481
| 89>    H       -2.02491        -6.27010       -12.58824
| 90>    H       -1.62788        -7.17790       -14.99838
| 91>    H       -1.99029        -9.29886       -16.40632
| 92>    H       -2.55646       -11.42488       -17.21923
| 93>    H       -3.37981       -13.83905       -17.55480
| 94>    H       -4.48062       -15.82495       -16.16588
| 95>    H       -4.81523       -15.53134       -14.38183
| 96> *
| 97>
| 98>                          ****END OF INPUT****

CARTESIAN COORDINATES (ANGSTROEM)
---------------------------------
  C      4.642110   -7.948860   10.573210
  C      5.366490   -7.664520    9.483390
  C      6.753650   -7.294040    9.426830
  C      7.219190   -7.069180    8.180960
  C      6.249720   -7.239350    7.147590
  S      4.707010   -7.699540    7.839040
  C      6.426640   -7.084230    5.798020
  C      7.624800   -6.721270    5.125870
  C      7.488500   -6.649520    3.780360
  C      6.176130   -6.948570    3.310420
  S      5.111400   -7.329620    4.640780
  C      5.743660   -6.951780    2.018710
  C      4.386860   -7.267650    1.716390
  N      3.600460   -7.558740    2.764790
  C      2.340740   -7.857520    2.523690
  C      1.820620   -7.867010    1.241800
  C      2.704090   -7.542340    0.196940
  N      3.979130   -7.255510    0.447150
  C      2.333420   -7.501010   -1.201510
  C      1.069670   -7.553110   -1.665930
  C      0.654070   -7.509230   -3.027050
  S     -0.972910   -6.997520   -3.348390
  C     -0.776960   -7.073580   -5.064740
  C      0.488260   -7.567240   -5.383920
  C      1.310920   -7.805180   -4.226040
  C      2.593730   -8.359810   -4.396420
  C      3.054140   -8.650770   -5.657790
  C      4.346800   -9.194550   -5.831130
  N      5.400480   -9.628570   -5.954660
  C      2.225120   -8.438510   -6.804550
  C      2.707340   -8.780480   -8.087670
  N      3.082470   -9.037870   -9.139900
  C      0.959640   -7.926080   -6.662020
  C     -1.874220   -6.643510   -5.887110
  C     -1.840170   -5.906250   -7.007950
  C     -0.617750   -5.335730   -7.648640
  C     -3.134030   -5.617770   -7.734860
  N     -3.352270   -6.577260   -8.792440
  C     -2.856960   -6.431260  -10.046530
  C     -2.815550   -7.427680  -10.965970
  C     -2.395590   -7.245020  -12.299030
  C     -2.438310   -8.214080  -13.261700
  C     -2.041160   -8.096370  -14.618910
  C     -2.232660   -9.216520  -15.361880
  C     -2.796930  -10.300550  -14.641570
  S     -3.059290   -9.839780  -12.970950
  C     -3.129930  -11.545390  -15.115910
  C     -2.980630  -12.036030  -16.441970
  C     -3.412040  -13.304250  -16.621990
  C     -3.941450  -13.925290  -15.442150
  S     -3.846530  -12.781550  -14.093760
  C     -4.441420  -15.162650  -15.319200
  H      5.085520   -7.915000   11.552860
  H      3.603940   -8.217810   10.507000
  H      7.336590   -7.214640   10.327540
  H      8.231150   -6.783950    7.953620
  H      8.543690   -6.526720    5.651010
  H      8.276720   -6.392480    3.094390
  H      6.407660   -6.715260    1.203780
  H      1.735170   -8.096890    3.388880
  H      0.790790   -8.125010    1.062800
  H      3.172160   -7.363180   -1.866270
  H      0.250870   -7.573370   -0.957130
  H      3.208880   -8.588160   -3.541550
  H      0.317540   -7.827900   -7.522460
  H     -2.848540   -6.886100   -5.475770
  H     -0.430750   -5.805420   -8.615810
  H      0.261310   -5.455070   -7.023000
  H     -0.771160   -4.271660   -7.830590
  H     -3.107600   -4.621180   -8.181840
  H     -3.982020   -5.671450   -7.045810
  H     -3.537080   -7.525110   -8.495450
  H     -2.553230   -5.426830  -10.308940
  H     -3.145160   -8.419460  -10.684810
  H     -2.024910   -6.270100  -12.588240
  H     -1.627880   -7.177900  -14.998380
  H     -1.990290   -9.298860  -16.406320
  H     -2.556460  -11.424880  -17.219230
  H     -3.379810  -13.839050  -17.554800
  H     -4.480620  -15.824950  -16.165880
  H     -4.815230  -15.531340  -14.381830

 Total Charge           Charge          ....    0
 Multiplicity           Mult            ....    1
 Number of Electrons    NEL             ....  396
 Basis Dimension        Dim             ....  893

ORBITAL ENERGIES
----------------

  NO   OCC          E(Eh)            E(eV)
   0   2.0000     -88.990220     -2421.5470
   1   2.0000     -88.934886     -2420.0413
   2   2.0000     -88.931636     -2419.9528
   3   2.0000     -88.921736     -2419.6835
   4   2.0000     -88.917065     -2419.5563
   5   2.0000     -14.440405      -392.9434
   6   2.0000     -14.407708      -392.0537
   7   2.0000     -14.407587      -392.0504
   8   2.0000     -14.404146      -391.9567
   9   2.0000     -14.401369      -391.8812
  10   2.0000     -10.334111      -281.2055
  11   2.0000     -10.331507      -281.1346
  12   2.0000     -10.331452      -281.1331
  13   2.0000     -10.331170      -281.1254
  14   2.0000     -10.329264      -281.0736
  15   2.0000     -10.327079      -281.0141
  16   2.0000     -10.325602      -280.9739
  17   2.0000     -10.319353      -280.8039
  18   2.0000     -10.315418      -280.6968
  19   2.0000     -10.315111      -280.6884
  20   2.0000     -10.314023      -280.6588
  21   2.0000     -10.311374      -280.5868
  22   2.0000     -10.310770      -280.5703
  23   2.0000     -10.308014      -280.4953
  24   2.0000     -10.306828      -280.4631
  25   2.0000     -10.306065      -280.4423
  26   2.0000     -10.305857      -280.4366
  27   2.0000     -10.305747      -280.4336
  28   2.0000     -10.304627      -280.4032
  29   2.0000     -10.301726      -280.3242
  30   2.0000     -10.299207      -280.2557
  31   2.0000     -10.290138      -280.0089
  32   2.0000     -10.289680      -279.9964
  33   2.0000     -10.287736      -279.9435
  34   2.0000     -10.287382      -279.9339
  35   2.0000     -10.286759      -279.9169
  36   2.0000     -10.284602      -279.8582
  37   2.0000     -10.284421      -279.8533
  38   2.0000     -10.284177      -279.8467
  39   2.0000     -10.282100      -279.7902
  40   2.0000     -10.281184      -279.7652
  41   2.0000     -10.279788      -279.7272
  42   2.0000     -10.275259      -279.6040
  43   2.0000     -10.270238      -279.4674
  44   2.0000     -10.269874      -279.4575
  45   2.0000     -10.268205      -279.4121
  46   2.0000     -10.267444      -279.3913
  47   2.0000     -10.265765      -279.3457
  48   2.0000     -10.262627      -279.2603
  49   2.0000     -10.257801      -279.1290
  50   2.0000     -10.255261      -279.0598
  51   2.0000     -10.247870      -278.8587
  52   2.0000      -8.085707      -220.0233
  53   2.0000      -8.031594      -218.5508
  54   2.0000      -8.025103      -218.3741
  55   2.0000      -8.018048      -218.1822
  56   2.0000      -8.013710      -218.0641
  57   2.0000      -6.054544      -164.7525
  58   2.0000      -6.050389      -164.6394
  59   2.0000      -6.048788      -164.5959
  60   2.0000      -6.001402      -163.3065
  61   2.0000      -5.997468      -163.1994
  62   2.0000      -5.995277      -163.1398
  63   2.0000      -5.992155      -163.0548
  64   2.0000      -5.990536      -163.0108
  65   2.0000      -5.987812      -162.9367
  66   2.0000      -5.986052      -162.8888
  67   2.0000      -5.983965      -162.8320
  68   2.0000      -5.983577      -162.8214
  69   2.0000      -5.979692      -162.7157
  70   2.0000      -5.978756      -162.6902
  71   2.0000      -5.974174      -162.5655
  72   2.0000      -1.077674       -29.3250
  73   2.0000      -1.042911       -28.3790
  74   2.0000      -1.026002       -27.9189
  75   2.0000      -1.001347       -27.2480
  76   2.0000      -0.987872       -26.8814
  77   2.0000      -0.986093       -26.8330
  78   2.0000      -0.978914       -26.6376
  79   2.0000      -0.970841       -26.4179
  80   2.0000      -0.962373       -26.1875
  81   2.0000      -0.961017       -26.1506
  82   2.0000      -0.948158       -25.8007
  83   2.0000      -0.937220       -25.5030
  84   2.0000      -0.915410       -24.9096
  85   2.0000      -0.900055       -24.4918
  86   2.0000      -0.884509       -24.0687
  87   2.0000      -0.882418       -24.0118
  88   2.0000      -0.875590       -23.8260
  89   2.0000      -0.868701       -23.6386
  90   2.0000      -0.853463       -23.2239
  91   2.0000      -0.844817       -22.9886
  92   2.0000      -0.840032       -22.8584
  93   2.0000      -0.830755       -22.6060
  94   2.0000      -0.824091       -22.4247
  95   2.0000      -0.820960       -22.3395
  96   2.0000      -0.810798       -22.0629
  97   2.0000      -0.799722       -21.7615
  98   2.0000      -0.796008       -21.6605
  99   2.0000      -0.785055       -21.3624
 100   2.0000      -0.781486       -21.2653
 101   2.0000      -0.765165       -20.8212
 102   2.0000      -0.760052       -20.6821
 103   2.0000      -0.747609       -20.3435
 104   2.0000      -0.738690       -20.1008
 105   2.0000      -0.724855       -19.7243
 106   2.0000      -0.709084       -19.2952
 107   2.0000      -0.707128       -19.2419
 108   2.0000      -0.693226       -18.8636
 109   2.0000      -0.681674       -18.5493
 110   2.0000      -0.678440       -18.4613
 111   2.0000      -0.669085       -18.2067
 112   2.0000      -0.658607       -17.9216
 113   2.0000      -0.653455       -17.7814
 114   2.0000      -0.632809       -17.2196
 115   2.0000      -0.627496       -17.0750
 116   2.0000      -0.622073       -16.9275
 117   2.0000      -0.619742       -16.8640
 118   2.0000      -0.614885       -16.7319
 119   2.0000      -0.608209       -16.5502
 120   2.0000      -0.607247       -16.5240
 121   2.0000      -0.602203       -16.3868
 122   2.0000      -0.599421       -16.3111
 123   2.0000      -0.593981       -16.1630
 124   2.0000      -0.589953       -16.0534
 125   2.0000      -0.584426       -15.9031
 126   2.0000      -0.579792       -15.7769
 127   2.0000      -0.575866       -15.6701
 128   2.0000      -0.570088       -15.5129
 129   2.0000      -0.567496       -15.4424
 130   2.0000      -0.555886       -15.1264
 131   2.0000      -0.552119       -15.0239
 132   2.0000      -0.548001       -14.9119
 133   2.0000      -0.538152       -14.6439
 134   2.0000      -0.535255       -14.5650
 135   2.0000      -0.532088       -14.4789
 136   2.0000      -0.526795       -14.3348
 137   2.0000      -0.524195       -14.2641
 138   2.0000      -0.521057       -14.1787
 139   2.0000      -0.515448       -14.0261
 140   2.0000      -0.512300       -13.9404
 141   2.0000      -0.504014       -13.7149
 142   2.0000      -0.500277       -13.6132
 143   2.0000      -0.496332       -13.5059
 144   2.0000      -0.494531       -13.4569
 145   2.0000      -0.492679       -13.4065
 146   2.0000      -0.489149       -13.3104
 147   2.0000      -0.487134       -13.2556
 148   2.0000      -0.486249       -13.2315
 149   2.0000      -0.483118       -13.1463
 150   2.0000      -0.478952       -13.0329
 151   2.0000      -0.475413       -12.9366
 152   2.0000      -0.473820       -12.8933
 153   2.0000      -0.472315       -12.8524
 154   2.0000      -0.470546       -12.8042
 155   2.0000      -0.467939       -12.7333
 156   2.0000      -0.464988       -12.6530
 157   2.0000      -0.458082       -12.4650
 158   2.0000      -0.454617       -12.3708
 159   2.0000      -0.454041       -12.3551
 160   2.0000      -0.451792       -12.2939
 161   2.0000      -0.449476       -12.2309
 162   2.0000      -0.445632       -12.1263
 163   2.0000      -0.444061       -12.0835
 164   2.0000      -0.442240       -12.0340
 165   2.0000      -0.435369       -11.8470
 166   2.0000      -0.434350       -11.8193
 167   2.0000      -0.434087       -11.8121
 168   2.0000      -0.427592       -11.6354
 169   2.0000      -0.426538       -11.6067
 170   2.0000      -0.420286       -11.4366
 171   2.0000      -0.419997       -11.4287
 172   2.0000      -0.414313       -11.2740
 173   2.0000      -0.409404       -11.1405
 174   2.0000      -0.407284       -11.0828
 175   2.0000      -0.405699       -11.0396
 176   2.0000      -0.404054       -10.9949
 177   2.0000      -0.399938       -10.8829
 178   2.0000      -0.397862       -10.8264
 179   2.0000      -0.390988       -10.6393
 180   2.0000      -0.376695       -10.2504
 181   2.0000      -0.373771       -10.1708
 182   2.0000      -0.364406        -9.9160
 183   2.0000      -0.355903        -9.6846
 184   2.0000      -0.352451        -9.5907
 185   2.0000      -0.342375        -9.3165
 186   2.0000      -0.334129        -9.0921
 187   2.0000      -0.332761        -9.0549
 188   2.0000      -0.328373        -8.9355
 189   2.0000      -0.317773        -8.6470
 190   2.0000      -0.315021        -8.5722
 191   2.0000      -0.306521        -8.3409
 192   2.0000      -0.302021        -8.2184
 193   2.0000      -0.298452        -8.1213
 194   2.0000      -0.268890        -7.3169
 195   2.0000      -0.259843        -7.0707
 196   2.0000      -0.223993        -6.0952
 197   2.0000      -0.193597        -5.2680
 198   0.0000      -0.083885        -2.2826
 199   0.0000      -0.063076        -1.7164
 200   0.0000      -0.040777        -1.1096
 201   0.0000      -0.034602        -0.9416
 202   0.0000      -0.014823        -0.4034

MULLIKEN ATOMIC CHARGES
-----------------------
   0 C :   -0.028118
   1 C :   -0.064572
   2 C :    0.053279
   3 C :    0.033078
   4 C :   -0.072218
   5 S :    0.084825
   6 C :   -0.046155
   7 C :    0.037450
   8 C :    0.034321
   9 C :    0.022089
  10 S :    0.118684
  11 C :   -0.033312
  12 C :    0.013570
  13 N :   -0.159918
  14 C :    0.106778
  15 C :   -0.074640
  16 C :    0.032032
  17 N :   -0.059936
  18 C :    0.016501
  19 C :    0.076438
  20 C :   -0.140285
  21 S :    0.187628
  22 C :   -0.152470
  23 C :    0.132683
  24 C :    0.113800
  25 C :   -0.052000
  26 C :   -0.068986
  27 C :   -0.178086
  28 N :    0.175147
  29 C :   -0.076006
  30 C :   -0.175307
  31 N :    0.181460
  32 C :   -0.058726
  33 C :   -0.002200
  34 C :   -0.185966
  35 C :    0.080329
  36 C :    0.191328
  37 N :   -0.148416
  38 C :    0.044550
  39 C :   -0.024064
  40 C :   -0.013313
  41 C :   -0.033779
  42 C :    0.042486
  43 C :    0.013740
  44 C :   -0.041255
  45 S :    0.047450
  46 C :   -0.074494
  47 C :    0.031733
  48 C :    0.040740
  49 C :   -0.057086
  50 S :    0.060663
  51 C :   -0.042632
  52 H :    0.020323
  53 H :    0.021665
  54 H :   -0.010740
  55 H :   -0.011203
  56 H :   -0.019148
  57 H :   -0.014135
  58 H :   -0.022929
  59 H :    0.001814
  60 H :   -0.010552
  61 H :   -0.001683
  62 H :   -0.010291
  63 H :   -0.001047
  64 H :   -0.002215
  65 H :   -0.009162
  66 H :    0.049247
  67 H :    0.038982
  68 H :    0.025104
  69 H :    0.014057
  70 H :    0.016552
  71 H :    0.117014
  72 H :   -0.001723
  73 H :   -0.013569
  74 H :   -0.026993
  75 H :   -0.022337
  76 H :   -0.021812
  77 H :   -0.018094
  78 H :   -0.020082
  79 H :    0.011391
  80 H :    0.012724
Sum of atomic charges:   -0.0000000

LOEWDIN ATOMIC CHARGES
----------------------
   0 C :   -0.073127
   1 C :   -0.140439
   2 C :   -0.026633
   3 C :   -0.026463
   4 C :   -0.163345
   5 S :    0.354259
   6 C :   -0.200731
   7 C :   -0.019518
   8 C :   -0.040503
   9 C :   -0.111401
  10 S :    0.413595
  11 C :   -0.095393
  12 C :    0.031078
  13 N :   -0.113779
  14 C :    0.057730
  15 C :   -0.082031
  16 C :    0.031519
  17 N :   -0.095020
  18 C :   -0.019690
  19 C :   -0.031639
  20 C :   -0.171017
  21 S :    0.503792
  22 C :   -0.167545
  23 C :   -0.051644
  24 C :   -0.042113
  25 C :    0.033718
  26 C :   -0.053638
  27 C :   -0.032483
  28 N :   -0.034744
  29 C :   -0.056473
  30 C :   -0.033453
  31 N :   -0.034438
  32 C :    0.033904
  33 C :   -0.082090
  34 C :   -0.020286
  35 C :   -0.052403
  36 C :    0.046595
  37 N :   -0.005176
  38 C :    0.031321
  39 C :   -0.116681
  40 C :   -0.045007
  41 C :   -0.168931
  42 C :   -0.030632
  43 C :   -0.047377
  44 C :   -0.172858
  45 S :    0.345607
  46 C :   -0.193471
  47 C :   -0.025674
  48 C :   -0.045563
  49 C :   -0.136858
  50 S :    0.335643
  51 C :   -0.097289
  52 H :    0.028773
  53 H :    0.026414
  54 H :    0.033666
  55 H :    0.032467
  56 H :    0.027906
  57 H :    0.032598
  58 H :    0.034017
  59 H :    0.026663
  60 H :    0.027456
  61 H :    0.034847
  62 H :    0.029229
  63 H :    0.044635
  64 H :    0.045363
  65 H :    0.027788
  66 H :    0.041765
  67 H :    0.035592
  68 H :    0.037933
  69 H :    0.029654
  70 H :    0.028684
  71 H :    0.077942
  72 H :    0.024628
  73 H :    0.018399
  74 H :    0.028268
  75 H :    0.029788
  76 H :    0.028052
  77 H :    0.029901
  78 H :    0.029618
  79 H :    0.024628
  80 H :    0.022120

  Mayer bond orders larger than 0.100000
B(  0-C ,  1-C ) :   1.8692 B(  0-C , 52-H ) :   0.9511 B(  0-C , 53-H ) :   0.9415
B(  1-C ,  2-C ) :   1.0731 B(  1-C ,  5-S ) :   1.0058 B(  2-C ,  3-C ) :   1.6703
B(  2-C , 54-H ) :   0.9936 B(  3-C ,  4-C ) :   1.1407 B(  3-C , 55-H ) :   0.9911
B(  4-C ,  5-S ) :   1.0495 B(  4-C ,  6-C ) :   1.5899 B(  6-C ,  7-C ) :   1.1583
B(  6-C , 10-S ) :   0.9629 B(  7-C ,  8-C ) :   1.6228 B(  7-C , 56-H ) :   0.9929
B(  8-C ,  9-C ) :   1.1180 B(  8-C , 57-H ) :   1.0005 B(  9-C , 10-S ) :   1.0734
B(  9-C , 11-C ) :   1.5574 B( 10-S , 13-N ) :   0.1117 B( 11-C , 12-C ) :   1.1132
B( 11-C , 58-H ) :   0.9814 B( 12-C , 13-N ) :   1.4046 B( 12-C , 17-N ) :   1.4880
B( 13-N , 14-C ) :   1.5177 B( 14-C , 15-C ) :   1.4036 B( 14-C , 59-H ) :   0.9762
B( 15-C , 16-C ) :   1.3226 B( 15-C , 60-H ) :   0.9651 B( 16-C , 17-N ) :   1.5320
B( 16-C , 18-C ) :   1.0682 B( 18-C , 19-C ) :   1.6822 B( 18-C , 61-H ) :   0.9748
B( 19-C , 20-C ) :   1.1223 B( 19-C , 62-H ) :   0.9405 B( 20-C , 21-S ) :   1.1660
B( 20-C , 22-C ) :   0.1122 B( 20-C , 24-C ) :   1.3538 B( 21-S , 22-C ) :   1.1874
B( 22-C , 23-C ) :   1.3691 B( 22-C , 33-C ) :   1.0377 B( 23-C , 24-C ) :   1.1848
B( 23-C , 32-C ) :   1.1844 B( 24-C , 25-C ) :   1.1866 B( 25-C , 26-C ) :   1.5683
B( 25-C , 63-H ) :   0.9972 B( 26-C , 27-C ) :   1.0793 B( 26-C , 29-C ) :   1.2340
B( 27-C , 28-N ) :   3.0422 B( 29-C , 30-C ) :   1.0791 B( 29-C , 32-C ) :   1.5707
B( 30-C , 31-N ) :   3.0467 B( 32-C , 64-H ) :   0.9983 B( 33-C , 34-C ) :   1.8330
B( 33-C , 65-H ) :   0.9435 B( 34-C , 35-C ) :   1.0934 B( 34-C , 36-C ) :   1.0218
B( 35-C , 66-H ) :   0.9390 B( 35-C , 67-H ) :   0.9449 B( 35-C , 68-H ) :   0.9407
B( 36-C , 37-N ) :   1.0337 B( 36-C , 69-H ) :   0.9342 B( 36-C , 70-H ) :   0.9437
B( 37-N , 38-C ) :   1.1946 B( 37-N , 71-H ) :   0.9377 B( 38-C , 39-C ) :   1.6220
B( 38-C , 72-H ) :   0.9657 B( 39-C , 40-C ) :   1.1554 B( 39-C , 73-H ) :   0.9630
B( 40-C , 41-C ) :   1.6141 B( 40-C , 74-H ) :   0.9769 B( 41-C , 42-C ) :   1.1322
B( 41-C , 45-S ) :   1.0086 B( 42-C , 43-C ) :   1.6141 B( 42-C , 75-H ) :   0.9966
B( 43-C , 44-C ) :   1.1691 B( 43-C , 76-H ) :   0.9918 B( 44-C , 45-S ) :   1.0408
B( 44-C , 46-C ) :   1.5619 B( 46-C , 47-C ) :   1.1593 B( 46-C , 50-S ) :   1.0278
B( 47-C , 48-C ) :   1.6561 B( 47-C , 77-H ) :   0.9906 B( 48-C , 49-C ) :   1.0831
B( 48-C , 78-H ) :   0.9925 B( 49-C , 50-S ) :   1.0110 B( 49-C , 51-C ) :   1.8607
B( 51-C , 79-H ) :   0.9501 B( 51-C , 80-H ) :   0.9411

-----------------------------------------------------------------------------
         ABSORPTION SPECTRUM VIA TRANSITION ELECTRIC DIPOLE MOMENTS
-----------------------------------------------------------------------------
State   Energy  Wavelength   fosc         T2         TX        TY        TZ
        (cm-1)    (nm)                  (au**2)     (au)      (au)      (au)
-----------------------------------------------------------------------------
   0   12986.0    770.1   0.156653179   3.97137  -0.72707  -0.60988  -1.75236
   1   18503.3    540.4   0.483595658   8.60419   0.86235   0.20447   2.79620
   2   20160.5    496.0   1.570569886  25.64674  -1.01891  -3.30218  -3.70191
   3   21046.9    475.1   0.915222465  14.31573   0.46362  -1.14682   3.57569
   4   22368.4    447.1   0.032480805   0.47804  -0.03970   0.64675   0.24120
   5   23399.7    427.4   0.169608653   2.38623   0.98284  -0.76827   0.91106
   6   24283.4    411.8   0.024300767   0.32945  -0.05310  -0.46793  -0.32813
   7   27387.8    365.1   0.022029293   0.26480  -0.09656   0.43726  -0.25354
   8   27789.9    359.8   0.015180117   0.17983   0.21495   0.03406   0.36396
   9   28869.5    346.4   0.015358888   0.17514   0.22508   0.13993  -0.32389
  10   29160.3    342.9   0.001724506   0.01947  -0.00329  -0.13676   0.02749
  11   30253.0    330.5   0.009445792   0.10279  -0.00169   0.32055  -0.00606
  12   30329.6    329.7   0.120020888   1.30277  -0.02096  -0.20280  -1.12303
  13   31029.2    322.3   0.005029059   0.05336  -0.19209   0.02211   0.12637
  14   32026.9    312.2   0.001033686   0.01063   0.01344  -0.06393   0.07973
  15   32151.4    311.0   0.013438715   0.13760   0.15122  -0.10438  -0.32224
  16   32931.1    303.7   0.095855176   0.95826  -0.75063  -0.35497   0.51847
  17   33185.6    301.3   0.000985005   0.00977  -0.06247   0.04122  -0.06457
  18   34039.8    293.8   0.392769549   3.79862   0.38526  -0.31397   1.88457
  19   34270.1    291.8   0.018324336   0.17603   0.07076   0.23398  -0.34099
  20   34408.2    290.6   0.070001847   0.66977   0.43115   0.52742   0.45355
  21   34837.1    287.0   0.096811650   0.91487   0.89542   0.07112  -0.32869
  22   35488.2    281.8   0.009157581   0.08495  -0.28301   0.05135  -0.04715
  23   35585.6    281.0   0.002900401   0.02683   0.15429  -0.02380  -0.04961
  24   36224.9    276.1   0.041185918   0.37430  -0.10330   0.58289   0.15447
  25   36660.7    272.8   0.090033570   0.80850   0.88411   0.14801   0.07024
  26   37203.3    268.8   0.248746747   2.20116   0.57448  -0.59393  -1.23223
  27   37543.6    266.4   0.064215655   0.56309   0.29032  -0.35745  -0.59249
  28   37751.6    264.9   0.003975397   0.03467   0.17909  -0.03468  -0.03731
  29   37887.1    263.9   0.043739393   0.38006  -0.58551   0.07227  -0.17896
  30   38391.0    260.5   0.209363840   1.79534  -1.16980   0.49771   0.42332
  31   38971.9    256.6   0.115949946   0.97948   0.82500  -0.51898   0.17178
  32   39074.6    255.9   0.157470472   1.32672   1.01102  -0.07747  -0.54641
  33   39617.0    252.4   0.000170058   0.00141   0.01987  -0.03096   0.00774
  34   39710.6    251.8   0.179565345   1.48865  -1.06824   0.56743   0.15979
  35   40057.8    249.6   0.057048759   0.46885  -0.26695   0.28394  -0.56300

FINAL SINGLE POINT ENERGY     -3879.433704211259

DIPOLE MOMENT
-------------
                                X             Y             Z
Electronic contribution:     14.79850      -7.76602      20.80042
Nuclear contribution   :    -16.64478      10.31785     -18.02820
                        -----------------------------------------
Total Dipole Moment    :     -1.84628       2.55183       2.77222
                        -----------------------------------------
Magnitude (a.u.)       :      4.19592
Magnitude (Debye)      :     10.66518

Rotational constants in cm-1:     0.003915     0.000280     0.000276
Rotational constants in MHz :   117.375725     8.395247     8.287793

                             ****ORCA TERMINATED NORMALLY****
TOTAL RUN TIME: 0 days 0 hours 5 minutes 13 seconds 64 msec
