                         Program Version 4.2.0 -  RELEASE  -
|  1> # ORCA input file
|  2> # SCF done       -165.441082482811          0.000692110900
|  3> ! CAM-B3LYP def2-SVP def2/J RIJCOSX Grid4 TightSCF
|  4> %maxcore 5000
|  5> %tddft
|  6>     Mode sTDDFT
|  7>     Ethresh 5.0
|  8>     maxcore 5000
|  9> end
| 10>
| 11> %pal
| 12>   nprocs 6
| 13>   end
| 14> * xyz 0 1
| 15>    C       -8.40620         0.43731        -7.65356
| 16>    C       -8.41241         1.68784        -8.21830
| 17>    C       -7.91804         1.97729        -9.50628
| 18>    N       -7.53321         2.27395       -10.54660
| 19>    C       -8.92143         2.84650        -7.59905
| 20>    N       -9.32782         3.82649        -7.15823
| 21>    C       -7.90223        -0.78233        -8.28152
| 22>    C       -8.07626        -1.86838        -7.38436
| 23>    C       -7.70420        -3.15325        -7.69586
| 24>    C       -7.13219        -3.38112        -8.95235
| 25>    C       -6.96182        -2.29268        -9.84008
| 26>    C       -7.33830        -0.99184        -9.52472
| 27>    S       -6.24155        -2.79641       -11.33798
| 28>    C       -6.17989        -4.44031       -10.76038
| 29>    C       -6.67224        -4.60534        -9.50932
| 30>   Br       -5.47253        -5.78287       -11.86220
| 31>    C       -8.69933        -1.36862        -6.15033
| 32>    O       -9.02590        -2.01781        -5.16262
| 33>    C       -8.88617         0.07079        -6.34371
| 34>    C       -9.45775         0.87095        -5.38518
| 35>    N       -9.82561         0.36013        -4.20506
| 36>    C      -10.42077         1.00216        -3.16696
| 37>    S      -11.17503         0.02121        -1.94621
| 38>    C      -11.76598         1.45732        -1.17520
| 39>    N      -12.45248         1.34013         0.03640
| 40>    O      -12.86291         2.36536         0.55304
| 41>    O      -12.57402         0.22033         0.50111
| 42>    C      -11.40092         2.60651        -1.82254
| 43>    C      -10.58967         2.37793        -2.95227
| 44>    C       -9.86249         3.41984        -3.62288
| 45>    C      -10.16320         4.73244        -3.52958
| 46>    C       -9.31232         5.75042        -4.06032
| 47>    O       -8.30857         5.39734        -4.90689
| 48>    C       -7.70377         6.47945        -5.34393
| 49>    C       -8.27504         7.60286        -4.78623
| 50>    N       -7.91862         8.93699        -5.03056
| 51>    O       -6.91202         9.15595        -5.66971
| 52>    O       -8.65765         9.80536        -4.57737
| 53>    C       -9.31899         7.13754        -3.91198
| 54>    N      -10.09616         7.98921        -3.17834
| 55>    C      -10.72767         7.82111        -1.98470
| 56>    C      -10.54850         6.87279        -1.02333
| 57>    C      -11.36203         6.73170         0.14057
| 58>    C      -11.06939         5.65063         0.90669
| 59>    C      -10.01136         4.85806         0.39659
| 60>    S       -9.30143         5.62562        -1.01193
| 61>    C       -9.62662         3.59183         0.77192
| 62>    C      -10.06055         2.81218         1.86828
| 63>    C       -9.61694         1.52867         1.83197
| 64>    C       -8.82673         1.20056         0.69092
| 65>    S       -8.55794         2.64926        -0.25603
| 66>    C       -8.47487        -0.08086         0.36421
| 67>    C       -7.92244        -0.64579        -0.80690
| 68>    C       -7.38895        -0.14758        -1.99250
| 69>    C       -6.94799         1.21120        -2.31255
| 70>    O       -7.12153         1.74318        -3.38648
| 71>    O       -6.24869         1.78581        -1.32538
| 72>    C       -7.16693        -1.15766        -2.96223
| 73>    C       -7.48716        -2.40274        -2.53389
| 74>    S       -8.10121        -2.38639        -0.93314
| 75>    H       -7.85111        -3.95967        -6.99459
| 76>    H       -7.18922        -0.19730       -10.23655
| 77>    H       -6.71110        -5.55101        -9.00024
| 78>    H       -9.65593         1.91543        -5.56737
| 79>    H       -9.65819        -0.65569        -4.12447
| 80>    H      -11.67382         3.57673        -1.45123
| 81>    H       -8.93435         3.13751        -4.09635
| 82>    H      -11.08336         5.07243        -3.08092
| 83>    H       -6.90500         6.38435        -6.05325
| 84>    H      -10.03809         8.94817        -3.52651
| 85>    H      -11.46102         8.59129        -1.78056
| 86>    H      -12.16396         7.41951         0.34120
| 87>    H      -11.61758         5.35762         1.78284
| 88>    H      -10.70414         3.21185         2.63031
| 89>    H       -9.87305         0.77788         2.55812
| 90>    H       -8.77779        -0.82124         1.09603
| 91>    H       -5.96115         2.67516        -1.58667
| 92>    H       -6.74758        -0.93867        -3.92785
| 93>    H       -7.40428        -3.32763        -3.06673
| 94> *
| 95>
| 96>                          ****END OF INPUT****

CARTESIAN COORDINATES (ANGSTROEM)
---------------------------------
  C     -8.406200    0.437310   -7.653560
  C     -8.412410    1.687840   -8.218300
  C     -7.918040    1.977290   -9.506280
  N     -7.533210    2.273950  -10.546600
  C     -8.921430    2.846500   -7.599050
  N     -9.327820    3.826490   -7.158230
  C     -7.902230   -0.782330   -8.281520
  C     -8.076260   -1.868380   -7.384360
  C     -7.704200   -3.153250   -7.695860
  C     -7.132190   -3.381120   -8.952350
  C     -6.961820   -2.292680   -9.840080
  C     -7.338300   -0.991840   -9.524720
  S     -6.241550   -2.796410  -11.337980
  C     -6.179890   -4.440310  -10.760380
  C     -6.672240   -4.605340   -9.509320
  Br    -5.472530   -5.782870  -11.862200
  C     -8.699330   -1.368620   -6.150330
  O     -9.025900   -2.017810   -5.162620
  C     -8.886170    0.070790   -6.343710
  C     -9.457750    0.870950   -5.385180
  N     -9.825610    0.360130   -4.205060
  C    -10.420770    1.002160   -3.166960
  S    -11.175030    0.021210   -1.946210
  C    -11.765980    1.457320   -1.175200
  N    -12.452480    1.340130    0.036400
  O    -12.862910    2.365360    0.553040
  O    -12.574020    0.220330    0.501110
  C    -11.400920    2.606510   -1.822540
  C    -10.589670    2.377930   -2.952270
  C     -9.862490    3.419840   -3.622880
  C    -10.163200    4.732440   -3.529580
  C     -9.312320    5.750420   -4.060320
  O     -8.308570    5.397340   -4.906890
  C     -7.703770    6.479450   -5.343930
  C     -8.275040    7.602860   -4.786230
  N     -7.918620    8.936990   -5.030560
  O     -6.912020    9.155950   -5.669710
  O     -8.657650    9.805360   -4.577370
  C     -9.318990    7.137540   -3.911980
  N    -10.096160    7.989210   -3.178340
  C    -10.727670    7.821110   -1.984700
  C    -10.548500    6.872790   -1.023330
  C    -11.362030    6.731700    0.140570
  C    -11.069390    5.650630    0.906690
  C    -10.011360    4.858060    0.396590
  S     -9.301430    5.625620   -1.011930
  C     -9.626620    3.591830    0.771920
  C    -10.060550    2.812180    1.868280
  C     -9.616940    1.528670    1.831970
  C     -8.826730    1.200560    0.690920
  S     -8.557940    2.649260   -0.256030
  C     -8.474870   -0.080860    0.364210
  C     -7.922440   -0.645790   -0.806900
  C     -7.388950   -0.147580   -1.992500
  C     -6.947990    1.211200   -2.312550
  O     -7.121530    1.743180   -3.386480
  O     -6.248690    1.785810   -1.325380
  C     -7.166930   -1.157660   -2.962230
  C     -7.487160   -2.402740   -2.533890
  S     -8.101210   -2.386390   -0.933140
  H     -7.851110   -3.959670   -6.994590
  H     -7.189220   -0.197300  -10.236550
  H     -6.711100   -5.551010   -9.000240
  H     -9.655930    1.915430   -5.567370
  H     -9.658190   -0.655690   -4.124470
  H    -11.673820    3.576730   -1.451230
  H     -8.934350    3.137510   -4.096350
  H    -11.083360    5.072430   -3.080920
  H     -6.905000    6.384350   -6.053250
  H    -10.038090    8.948170   -3.526510
  H    -11.461020    8.591290   -1.780560
  H    -12.163960    7.419510    0.341200
  H    -11.617580    5.357620    1.782840
  H    -10.704140    3.211850    2.630310
  H     -9.873050    0.777880    2.558120
  H     -8.777790   -0.821240    1.096030
  H     -5.961150    2.675160   -1.586670
  H     -6.747580   -0.938670   -3.927850
  H     -7.404280   -3.327630   -3.066730

 Total Charge           Charge          ....    0
 Multiplicity           Mult            ....    1
 Number of Electrons    NEL             ....  480
 Basis Dimension        Dim             ....  973

ORBITAL ENERGIES
----------------

  NO   OCC          E(Eh)            E(eV)
   0   2.0000    -482.886941    -13140.0217
   1   2.0000     -88.980396     -2421.2797
   2   2.0000     -88.977297     -2421.1953
   3   2.0000     -88.955045     -2420.5898
   4   2.0000     -88.950561     -2420.4678
   5   2.0000     -88.944817     -2420.3115
   6   2.0000     -62.564644     -1702.4705
   7   2.0000     -56.398600     -1534.6839
   8   2.0000     -56.395878     -1534.6099
   9   2.0000     -56.395843     -1534.6089
  10   2.0000     -19.317411      -525.6535
  11   2.0000     -19.264559      -524.2153
  12   2.0000     -19.253958      -523.9268
  13   2.0000     -19.252630      -523.8907
  14   2.0000     -19.237571      -523.4809
  15   2.0000     -19.236208      -523.4438
  16   2.0000     -19.226712      -523.1854
  17   2.0000     -19.206589      -522.6379
  18   2.0000     -14.663390      -399.0111
  19   2.0000     -14.647530      -398.5796
  20   2.0000     -14.488826      -394.2610
  21   2.0000     -14.467554      -393.6822
  22   2.0000     -14.417399      -392.3174
  23   2.0000     -14.412042      -392.1716
  24   2.0000     -10.407295      -283.1969
  25   2.0000     -10.373247      -282.2704
  26   2.0000     -10.365519      -282.0601
  27   2.0000     -10.362767      -281.9852
  28   2.0000     -10.360218      -281.9159
  29   2.0000     -10.360140      -281.9137
  30   2.0000     -10.344693      -281.4934
  31   2.0000     -10.343648      -281.4650
  32   2.0000     -10.342594      -281.4363
  33   2.0000     -10.338830      -281.3339
  34   2.0000     -10.337419      -281.2955
  35   2.0000     -10.336076      -281.2589
  36   2.0000     -10.332883      -281.1721
  37   2.0000     -10.326827      -281.0072
  38   2.0000     -10.320440      -280.8335
  39   2.0000     -10.315952      -280.7113
  40   2.0000     -10.313493      -280.6444
  41   2.0000     -10.313299      -280.6391
  42   2.0000     -10.310144      -280.5533
  43   2.0000     -10.309551      -280.5372
  44   2.0000     -10.309071      -280.5241
  45   2.0000     -10.306877      -280.4644
  46   2.0000     -10.306874      -280.4643
  47   2.0000     -10.304517      -280.4002
  48   2.0000     -10.302773      -280.3527
  49   2.0000     -10.301666      -280.3226
  50   2.0000     -10.298505      -280.2366
  51   2.0000     -10.297212      -280.2014
  52   2.0000     -10.295710      -280.1605
  53   2.0000     -10.291320      -280.0410
  54   2.0000     -10.291281      -280.0400
  55   2.0000     -10.289879      -280.0019
  56   2.0000     -10.289561      -279.9932
  57   2.0000     -10.283362      -279.8245
  58   2.0000     -10.283145      -279.8186
  59   2.0000     -10.282105      -279.7903
  60   2.0000     -10.281107      -279.7632
  61   2.0000     -10.277635      -279.6687
  62   2.0000     -10.275498      -279.6105
  63   2.0000     -10.275293      -279.6049
  64   2.0000      -8.794065      -239.2987
  65   2.0000      -8.075405      -219.7429
  66   2.0000      -8.073285      -219.6852
  67   2.0000      -8.051238      -219.0853
  68   2.0000      -8.045645      -218.9331
  69   2.0000      -8.039496      -218.7658
  70   2.0000      -6.630390      -180.4221
  71   2.0000      -6.615781      -180.0245
  72   2.0000      -6.615594      -180.0195
  73   2.0000      -6.045065      -164.4946
  74   2.0000      -6.042964      -164.4374
  75   2.0000      -6.040766      -164.3776
  76   2.0000      -6.038679      -164.3208
  77   2.0000      -6.036844      -164.2709
  78   2.0000      -6.034538      -164.2081
  79   2.0000      -6.020500      -163.8261
  80   2.0000      -6.016212      -163.7094
  81   2.0000      -6.015501      -163.6901
  82   2.0000      -6.013454      -163.6344
  83   2.0000      -6.011329      -163.5766
  84   2.0000      -6.009318      -163.5219
  85   2.0000      -6.006560      -163.4468
  86   2.0000      -6.005153      -163.4085
  87   2.0000      -6.000551      -163.2833
  88   2.0000      -2.746229       -74.7287
  89   2.0000      -2.742166       -74.6181
  90   2.0000      -2.742026       -74.6143
  91   2.0000      -2.730415       -74.2984
  92   2.0000      -2.730396       -74.2978
  93   2.0000      -1.331847       -36.2414
  94   2.0000      -1.316683       -35.8288
  95   2.0000      -1.241717       -33.7888
  96   2.0000      -1.191603       -32.4252
  97   2.0000      -1.151123       -31.3236
  98   2.0000      -1.141231       -31.0545
  99   2.0000      -1.135464       -30.8975
 100   2.0000      -1.096066       -29.8255
 101   2.0000      -1.092660       -29.7328
 102   2.0000      -1.068810       -29.0838
 103   2.0000      -1.023907       -27.8619
 104   2.0000      -1.013757       -27.5857
 105   2.0000      -1.002860       -27.2892
 106   2.0000      -0.994272       -27.0555
 107   2.0000      -0.993713       -27.0403
 108   2.0000      -0.989231       -26.9183
 109   2.0000      -0.984211       -26.7817
 110   2.0000      -0.969303       -26.3761
 111   2.0000      -0.950534       -25.8653
 112   2.0000      -0.942437       -25.6450
 113   2.0000      -0.923139       -25.1199
 114   2.0000      -0.909560       -24.7504
 115   2.0000      -0.904650       -24.6168
 116   2.0000      -0.891446       -24.2575
 117   2.0000      -0.887644       -24.1540
 118   2.0000      -0.886619       -24.1261
 119   2.0000      -0.875003       -23.8100
 120   2.0000      -0.863188       -23.4885
 121   2.0000      -0.850898       -23.1541
 122   2.0000      -0.847419       -23.0594
 123   2.0000      -0.841900       -22.9093
 124   2.0000      -0.835540       -22.7362
 125   2.0000      -0.830697       -22.6044
 126   2.0000      -0.823587       -22.4109
 127   2.0000      -0.815778       -22.1985
 128   2.0000      -0.809689       -22.0327
 129   2.0000      -0.786033       -21.3890
 130   2.0000      -0.780121       -21.2282
 131   2.0000      -0.768570       -20.9138
 132   2.0000      -0.761486       -20.7211
 133   2.0000      -0.747205       -20.3325
 134   2.0000      -0.729364       -19.8470
 135   2.0000      -0.725262       -19.7354
 136   2.0000      -0.717869       -19.5342
 137   2.0000      -0.707108       -19.2414
 138   2.0000      -0.698087       -18.9959
 139   2.0000      -0.690936       -18.8013
 140   2.0000      -0.688734       -18.7414
 141   2.0000      -0.671618       -18.2757
 142   2.0000      -0.665778       -18.1168
 143   2.0000      -0.659760       -17.9530
 144   2.0000      -0.654610       -17.8128
 145   2.0000      -0.650714       -17.7068
 146   2.0000      -0.648045       -17.6342
 147   2.0000      -0.644648       -17.5418
 148   2.0000      -0.642016       -17.4701
 149   2.0000      -0.634525       -17.2663
 150   2.0000      -0.632840       -17.2205
 151   2.0000      -0.630432       -17.1549
 152   2.0000      -0.628805       -17.1107
 153   2.0000      -0.624739       -17.0000
 154   2.0000      -0.621568       -16.9137
 155   2.0000      -0.616645       -16.7798
 156   2.0000      -0.611365       -16.6361
 157   2.0000      -0.601804       -16.3759
 158   2.0000      -0.601111       -16.3571
 159   2.0000      -0.599206       -16.3052
 160   2.0000      -0.588309       -16.0087
 161   2.0000      -0.585779       -15.9399
 162   2.0000      -0.579414       -15.7667
 163   2.0000      -0.577802       -15.7228
 164   2.0000      -0.573494       -15.6056
 165   2.0000      -0.569087       -15.4856
 166   2.0000      -0.561354       -15.2752
 167   2.0000      -0.556175       -15.1343
 168   2.0000      -0.553094       -15.0505
 169   2.0000      -0.550045       -14.9675
 170   2.0000      -0.545683       -14.8488
 171   2.0000      -0.543857       -14.7991
 172   2.0000      -0.542121       -14.7519
 173   2.0000      -0.536351       -14.5949
 174   2.0000      -0.534057       -14.5324
 175   2.0000      -0.529590       -14.4109
 176   2.0000      -0.526208       -14.3188
 177   2.0000      -0.522325       -14.2132
 178   2.0000      -0.519665       -14.1408
 179   2.0000      -0.518172       -14.1002
 180   2.0000      -0.514315       -13.9952
 181   2.0000      -0.510105       -13.8807
 182   2.0000      -0.508161       -13.8278
 183   2.0000      -0.500068       -13.6075
 184   2.0000      -0.498147       -13.5553
 185   2.0000      -0.496238       -13.5033
 186   2.0000      -0.490698       -13.3526
 187   2.0000      -0.488885       -13.3032
 188   2.0000      -0.484674       -13.1886
 189   2.0000      -0.484579       -13.1861
 190   2.0000      -0.477654       -12.9976
 191   2.0000      -0.476461       -12.9652
 192   2.0000      -0.472901       -12.8683
 193   2.0000      -0.469495       -12.7756
 194   2.0000      -0.460979       -12.5439
 195   2.0000      -0.460856       -12.5405
 196   2.0000      -0.459816       -12.5122
 197   2.0000      -0.455231       -12.3875
 198   2.0000      -0.451317       -12.2809
 199   2.0000      -0.450391       -12.2558
 200   2.0000      -0.447862       -12.1869
 201   2.0000      -0.446468       -12.1490
 202   2.0000      -0.442755       -12.0480
 203   2.0000      -0.441779       -12.0214
 204   2.0000      -0.440353       -11.9826
 205   2.0000      -0.433199       -11.7879
 206   2.0000      -0.429800       -11.6954
 207   2.0000      -0.427250       -11.6261
 208   2.0000      -0.426120       -11.5953
 209   2.0000      -0.422853       -11.5064
 210   2.0000      -0.413901       -11.2628
 211   2.0000      -0.411290       -11.1918
 212   2.0000      -0.409556       -11.1446
 213   2.0000      -0.400507       -10.8984
 214   2.0000      -0.397317       -10.8115
 215   2.0000      -0.394736       -10.7413
 216   2.0000      -0.391983       -10.6664
 217   2.0000      -0.389830       -10.6078
 218   2.0000      -0.386417       -10.5149
 219   2.0000      -0.384609       -10.4657
 220   2.0000      -0.383242       -10.4285
 221   2.0000      -0.377471       -10.2715
 222   2.0000      -0.376439       -10.2434
 223   2.0000      -0.370628       -10.0853
 224   2.0000      -0.368973       -10.0403
 225   2.0000      -0.364734        -9.9249
 226   2.0000      -0.360731        -9.8160
 227   2.0000      -0.350602        -9.5404
 228   2.0000      -0.345456        -9.4003
 229   2.0000      -0.339122        -9.2280
 230   2.0000      -0.337771        -9.1912
 231   2.0000      -0.326104        -8.8737
 232   2.0000      -0.318535        -8.6678
 233   2.0000      -0.318254        -8.6601
 234   2.0000      -0.313610        -8.5338
 235   2.0000      -0.297878        -8.1057
 236   2.0000      -0.294056        -8.0017
 237   2.0000      -0.281958        -7.6725
 238   2.0000      -0.251357        -6.8398
 239   2.0000      -0.211966        -5.7679
 240   0.0000      -0.082895        -2.2557
 241   0.0000      -0.071164        -1.9365
 242   0.0000      -0.064347        -1.7510
 243   0.0000      -0.051126        -1.3912
 244   0.0000      -0.039023        -1.0619

MULLIKEN ATOMIC CHARGES
-----------------------
   0 C :    0.335180
   1 C :   -0.358359
   2 C :   -0.195558
   3 N :    0.149199
   4 C :   -0.196834
   5 N :    0.143140
   6 C :    0.008941
   7 C :   -0.004806
   8 C :   -0.074491
   9 C :    0.117206
  10 C :   -0.091038
  11 C :   -0.023735
  12 S :    0.189033
  13 C :   -0.122144
  14 C :    0.035323
  15 Br:    0.023482
  16 C :    0.156480
  17 O :   -0.211644
  18 C :   -0.125576
  19 C :    0.038697
  20 N :    0.024704
  21 C :   -0.123361
  22 S :    0.193244
  23 C :   -0.017582
  24 N :    0.280822
  25 O :   -0.254188
  26 O :   -0.265015
  27 C :    0.012284
  28 C :    0.139736
  29 C :   -0.059040
  30 C :    0.001267
  31 C :    0.008519
  32 O :   -0.137296
  33 C :    0.095956
  34 C :    0.105634
  35 N :    0.292245
  36 O :   -0.231973
  37 O :   -0.278654
  38 C :    0.048264
  39 N :    0.001016
  40 C :    0.025843
  41 C :   -0.085877
  42 C :    0.043169
  43 C :    0.037941
  44 C :   -0.074902
  45 S :    0.068666
  46 C :   -0.051144
  47 C :    0.056954
  48 C :    0.013768
  49 C :   -0.017259
  50 S :    0.036398
  51 C :    0.015917
  52 C :   -0.124301
  53 C :    0.013227
  54 C :    0.119443
  55 O :   -0.220096
  56 O :   -0.169154
  57 C :    0.004327
  58 C :   -0.043991
  59 S :    0.111632
  60 H :   -0.013850
  61 H :   -0.006063
  62 H :   -0.003738
  63 H :    0.035991
  64 H :    0.178648
  65 H :    0.010513
  66 H :    0.025037
  67 H :    0.013294
  68 H :    0.033050
  69 H :    0.153069
  70 H :    0.016789
  71 H :   -0.009809
  72 H :   -0.007313
  73 H :   -0.007914
  74 H :   -0.007367
  75 H :   -0.014777
  76 H :    0.191066
  77 H :   -0.006017
  78 H :    0.029748
Sum of atomic charges:   -0.0000000

LOEWDIN ATOMIC CHARGES
----------------------
   0 C :    0.082732
   1 C :   -0.155952
   2 C :   -0.020551
   3 N :   -0.061444
   4 C :   -0.018405
   5 N :   -0.063720
   6 C :   -0.017764
   7 C :   -0.050796
   8 C :    0.019830
   9 C :   -0.034758
  10 C :   -0.144978
  11 C :   -0.008394
  12 S :    0.435255
  13 C :   -0.272304
  14 C :   -0.070794
  15 Br:    0.136930
  16 C :    0.090352
  17 O :   -0.171108
  18 C :   -0.152103
  19 C :    0.132742
  20 N :    0.093278
  21 C :   -0.110764
  22 S :    0.477721
  23 C :   -0.208799
  24 N :    0.279328
  25 O :   -0.221498
  26 O :   -0.228325
  27 C :    0.004951
  28 C :   -0.085271
  29 C :   -0.042037
  30 C :   -0.044920
  31 C :   -0.004159
  32 O :    0.072191
  33 C :    0.100156
  34 C :   -0.102656
  35 N :    0.296194
  36 O :   -0.193658
  37 O :   -0.224399
  38 C :   -0.020473
  39 N :    0.039775
  40 C :    0.004823
  41 C :   -0.210152
  42 C :   -0.020953
  43 C :   -0.047120
  44 C :   -0.169906
  45 S :    0.408455
  46 C :   -0.199952
  47 C :   -0.024803
  48 C :   -0.043209
  49 C :   -0.138872
  50 S :    0.402240
  51 C :   -0.102666
  52 C :   -0.147024
  53 C :   -0.130016
  54 C :    0.066837
  55 O :   -0.200890
  56 O :   -0.027249
  57 C :   -0.050908
  58 C :   -0.181379
  59 S :    0.441513
  60 H :    0.039503
  61 H :    0.041603
  62 H :    0.038564
  63 H :    0.043807
  64 H :    0.085605
  65 H :    0.041864
  66 H :    0.030446
  67 H :    0.032854
  68 H :    0.041632
  69 H :    0.084020
  70 H :    0.037502
  71 H :    0.033748
  72 H :    0.035763
  73 H :    0.034811
  74 H :    0.034650
  75 H :    0.033234
  76 H :    0.094835
  77 H :    0.030374
  78 H :    0.025009

  Mayer bond orders larger than 0.100000
B(  0-C ,  1-C ) :   1.6106 B(  0-C ,  6-C ) :   0.9980 B(  0-C , 18-C ) :   1.1181
B(  1-C ,  2-C ) :   1.1489 B(  1-C ,  4-C ) :   1.1520 B(  2-C ,  3-N ) :   2.9694
B(  4-C ,  5-N ) :   2.9563 B(  6-C ,  7-C ) :   1.2769 B(  6-C , 11-C ) :   1.4244
B(  7-C ,  8-C ) :   1.4240 B(  7-C , 16-C ) :   0.9734 B(  8-C ,  9-C ) :   1.2400
B(  8-C , 60-H ) :   1.0179 B(  9-C , 10-C ) :   1.3147 B(  9-C , 14-C ) :   1.1615
B( 10-C , 11-C ) :   1.3161 B( 10-C , 12-S ) :   1.0887 B( 11-C , 61-H ) :   0.9803
B( 12-S , 13-C ) :   1.0885 B( 13-C , 14-C ) :   1.6171 B( 13-C , 15-Br) :   1.0182
B( 14-C , 62-H ) :   1.0005 B( 16-C , 17-O ) :   2.0427 B( 16-C , 18-C ) :   1.0013
B( 17-O , 64-H ) :   0.1308 B( 18-C , 19-C ) :   1.4239 B( 19-C , 20-N ) :   1.3698
B( 19-C , 63-H ) :   0.9264 B( 20-N , 21-C ) :   1.1618 B( 20-N , 64-H ) :   0.8299
B( 21-C , 22-S ) :   1.1472 B( 21-C , 28-C ) :   1.3742 B( 22-S , 23-C ) :   1.0919
B( 23-C , 24-N ) :   0.9755 B( 23-C , 27-C ) :   1.4806 B( 24-N , 25-O ) :   1.5242
B( 24-N , 26-O ) :   1.5081 B( 25-O , 26-O ) :   0.2488 B( 27-C , 28-C ) :   1.2306
B( 27-C , 65-H ) :   0.9966 B( 28-C , 29-C ) :   1.0639 B( 29-C , 30-C ) :   1.6763
B( 29-C , 66-H ) :   0.9621 B( 30-C , 31-C ) :   1.1517 B( 30-C , 67-H ) :   0.9597
B( 31-C , 32-O ) :   1.1102 B( 31-C , 38-C ) :   1.3803 B( 32-O , 33-C ) :   1.2325
B( 33-C , 34-C ) :   1.4196 B( 33-C , 68-H ) :   1.0180 B( 34-C , 35-N ) :   0.9564
B( 34-C , 38-C ) :   1.2462 B( 35-N , 36-O ) :   1.5588 B( 35-N , 37-O ) :   1.4566
B( 36-O , 37-O ) :   0.2552 B( 37-O , 69-H ) :   0.1003 B( 38-C , 39-N ) :   1.1905
B( 39-N , 40-C ) :   1.1892 B( 39-N , 69-H ) :   0.8604 B( 40-C , 41-C ) :   1.6093
B( 40-C , 70-H ) :   0.9586 B( 41-C , 42-C ) :   1.1285 B( 41-C , 45-S ) :   1.0134
B( 42-C , 43-C ) :   1.6181 B( 42-C , 71-H ) :   0.9975 B( 43-C , 44-C ) :   1.1738
B( 43-C , 72-H ) :   0.9927 B( 44-C , 45-S ) :   1.0551 B( 44-C , 46-C ) :   1.5091
B( 46-C , 47-C ) :   1.1762 B( 46-C , 50-S ) :   1.0303 B( 47-C , 48-C ) :   1.5919
B( 47-C , 73-H ) :   0.9937 B( 48-C , 49-C ) :   1.1307 B( 48-C , 74-H ) :   1.0010
B( 49-C , 50-S ) :   1.0520 B( 49-C , 51-C ) :   1.6150 B( 51-C , 52-C ) :   1.1739
B( 51-C , 75-H ) :   0.9362 B( 52-C , 53-C ) :   1.4223 B( 52-C , 59-S ) :   1.1555
B( 53-C , 54-C ) :   0.9502 B( 53-C , 57-C ) :   1.2753 B( 54-C , 55-O ) :   2.0576
B( 54-C , 56-O ) :   1.2527 B( 56-O , 76-H ) :   0.9393 B( 57-C , 58-C ) :   1.5667
B( 57-C , 77-H ) :   0.9992 B( 58-C , 59-S ) :   1.1424 B( 58-C , 78-H ) :   0.9704

-----------------------------------------------------------------------------
         ABSORPTION SPECTRUM VIA TRANSITION ELECTRIC DIPOLE MOMENTS
-----------------------------------------------------------------------------
State   Energy  Wavelength   fosc         T2         TX        TY        TZ
        (cm-1)    (nm)                  (au**2)     (au)      (au)      (au)
-----------------------------------------------------------------------------
   0   12413.4    805.6   0.066184515   1.75525   0.15295  -1.03624  -0.81121
   1   14864.3    672.8   0.347946680   7.70627   0.85240  -2.30238   1.29566
   2   17754.5    563.2   0.080736285   1.49705   0.36898  -1.13755   0.25861
   3   18995.0    526.5   0.019879928   0.34455  -0.54625  -0.07582  -0.20103
   4   20200.4    495.0   0.197173575   3.21339   0.76190  -0.65755  -1.48342
   5   20325.4    492.0   0.207323861   3.35805   0.70638  -1.24264  -1.14670
   6   22401.2    446.4   0.359571216   5.28433   0.61110  -1.89563  -1.14781
   7   24254.8    412.3   0.196230072   2.66345  -0.55248   1.49903   0.33337
   8   25663.6    389.7   0.418323249   5.36623  -0.51288   1.97284   1.10050
   9   26600.4    375.9   0.159980079   1.97994   0.55933   0.12258  -1.28533
  10   27041.3    369.8   0.110246976   1.34219   0.61911   0.31063  -0.92865
  11   28109.5    355.8   0.071404529   0.83627   0.10695   0.87935  -0.22711
  12   29264.4    341.7   0.129138233   1.45275   0.65403  -0.45615  -0.90384
  13   29824.6    335.3   0.211164006   2.33088   0.57132  -0.82670  -1.14936
  14   29997.2    333.4   0.189271954   2.07721   0.29991  -1.31452  -0.50921
  15   30206.6    331.1   0.274326461   2.98980   0.49792  -1.64579  -0.18235
  16   30401.5    328.9   0.118551640   1.28377   0.50919   0.18671  -0.99480
  17   31875.8    313.7   0.020212110   0.20875   0.20084  -0.36128   0.19464
  18   32477.8    307.9   0.345422225   3.50138  -0.83437   0.70394   1.51976
  19   33016.9    302.9   0.001245805   0.01242   0.02521   0.02597  -0.10541
  20   33472.6    298.8   0.027531714   0.27078  -0.14179  -0.09297   0.49197
  21   33587.4    297.7   0.111348290   1.09140  -0.00210   0.98842   0.33827
  22   34028.5    293.9   0.006827862   0.06606   0.19127   0.17089   0.01646
  23   34379.3    290.9   0.531871088   5.09313   0.39685   1.83710  -1.24928
  24   34705.5    288.1   0.093882762   0.89056   0.20486  -0.91147   0.13349
  25   34786.2    287.5   0.190671689   1.80449  -0.39918   1.24275   0.31735
  26   34972.9    285.9   0.015786110   0.14860  -0.19183   0.24961   0.22248
  27   35152.7    284.5   0.063834914   0.59783  -0.27996  -0.14700   0.70558
  28   35216.9    284.0   0.145403760   1.35925   0.49835   0.63356  -0.84232
  29   35414.7    282.4   0.059151357   0.54987   0.17302   0.51109  -0.50864
  30   35658.4    280.4   0.025248569   0.23310  -0.14526  -0.45670   0.05857
  31   36042.6    277.4   0.009364340   0.08553   0.09509   0.11624  -0.25096
  32   36323.4    275.3   0.078696958   0.71326  -0.13560  -0.21270   0.80600
  33   36615.3    273.1   0.139262858   1.25213  -0.35773  -0.75733   0.74203
  34   37757.8    264.8   0.041093145   0.35829   0.03394  -0.52383  -0.28764
  35   37947.6    263.5   0.028133073   0.24407  -0.03643   0.40236   0.28433
  36   38196.3    261.8   0.069521790   0.59921  -0.20535   0.54823   0.50644
  37   38288.4    261.2   0.015540833   0.13362   0.06681   0.06580   0.35331
  38   38526.2    259.6   0.028326973   0.24206  -0.01041   0.29153   0.39619
  39   38745.8    258.1   0.048606689   0.41300  -0.37900   0.28472   0.43392
  40   38871.8    257.3   0.041233117   0.34921  -0.24976  -0.38337   0.37398
  41   38990.1    256.5   0.207188344   1.74939   0.58439   0.23786  -1.16246
  42   39435.9    253.6   0.060117979   0.50187  -0.00900  -0.70837  -0.00165
  43   39606.4    252.5   0.017393437   0.14458  -0.09999   0.33362  -0.15256
  44   39822.3    251.1   0.010124928   0.08370  -0.14114   0.19535  -0.16006
  45   40110.7    249.3   0.008056758   0.06613   0.15474  -0.08626   0.18639
  46   40256.1    248.4   0.150998619   1.23486   0.21655   0.83261  -0.70336

FINAL SINGLE POINT ENERGY     -7027.010892363296

DIPOLE MOMENT
-------------
                                X             Y             Z
Electronic contribution:     39.20932     -83.01594     -95.18213
Nuclear contribution   :    -39.19395      81.82717      95.82414
                        -----------------------------------------
Total Dipole Moment    :      0.01538      -1.18877       0.64201
                        -----------------------------------------
Magnitude (a.u.)       :      1.35114
Magnitude (Debye)      :      3.43433

Rotational constants in cm-1:     0.001791     0.000617     0.000497
Rotational constants in MHz :    53.707556    18.496913    14.914408

                             ****ORCA TERMINATED NORMALLY****
TOTAL RUN TIME: 0 days 0 hours 8 minutes 45 seconds 506 msec
