                         Program Version 4.2.0 -  RELEASE  -
|  1> # ORCA input file
|  2> # SCF done       -177.899287225296          0.000409654760
|  3> ! CAM-B3LYP def2-SVP def2/J RIJCOSX Grid4 TightSCF
|  4> %maxcore 5000
|  5> %tddft
|  6>     Mode sTDDFT
|  7>     Ethresh 5.0
|  8>     maxcore 5000
|  9> end
| 10>
| 11> %pal
| 12>   nprocs 6
| 13>   end
| 14> * xyz 0 1
| 15>    C       -6.01423         3.44570         4.17544
| 16>    C       -6.58183         2.67099         5.15518
| 17>    C       -5.95315         2.36496         6.38037
| 18>    N       -5.50058         2.08219         7.39698
| 19>    C       -7.83864         2.03404         5.08871
| 20>    N       -8.83827         1.46832         5.11767
| 21>    C       -4.67695         4.02385         4.24087
| 22>    C       -4.37979         4.61139         2.98877
| 23>    C       -3.18901         5.24412         2.72820
| 24>    C       -2.24763         5.31134         3.76060
| 25>    C       -2.55527         4.72710         5.01195
| 26>    C       -3.75662         4.07877         5.27113
| 27>    S       -1.25879         4.93555         6.15041
| 28>    C       -0.33463         5.79318         4.94616
| 29>    C       -0.96128         5.91710         3.75228
| 30>   Br        1.36968         6.44661         5.37917
| 31>    C       -5.53058         4.44349         2.07876
| 32>    O       -5.55622         4.78166         0.91256
| 33>    C       -6.58699         3.79631         2.88574
| 34>    C       -7.91490         3.63779         2.58614
| 35>    C       -8.65436         3.97193         1.43665
| 36>    S      -10.40749         3.78911         1.56604
| 37>    C      -10.62223         4.40268        -0.02540
| 38>    O      -11.82465         4.55125        -0.58542
| 39>    C       -9.41481         4.71182        -0.65616
| 40>    C       -8.32035         4.45123         0.19013
| 41>    C       -9.37208         5.25896        -1.97862
| 42>    C       -8.24804         5.41681        -2.72151
| 43>    C       -8.25029         6.02339        -3.99347
| 44>    C       -7.15884         6.13044        -4.81270
| 45>    C       -7.10214         6.80111        -6.06236
| 46>    C       -5.88935         6.74831        -6.67273
| 47>    C       -4.91732         6.00813        -5.95695
| 48>    S       -5.59231         5.41535        -4.45402
| 49>    C       -3.62701         5.72572        -6.35089
| 50>    C       -2.95791         6.18607        -7.50996
| 51>    C       -1.69633         5.70297        -7.64812
| 52>    C       -1.29286         4.81027        -6.61793
| 53>    S       -2.58108         4.65776        -5.43293
| 54>    C       -0.10075         4.14307        -6.57517
| 55>    C        0.32792         3.17472        -5.64532
| 56>    S       -0.65139         2.65077        -4.28146
| 57>    C        0.54626         1.49717        -3.82127
| 58>    O        0.39428         0.68957        -2.76501
| 59>    C        1.65614         1.50724        -4.65939
| 60>    C        1.50854         2.47397        -5.68169
| 61>    C        2.72122         0.57125        -4.49891
| 62>    C        3.85066         0.52912        -5.24623
| 63>    C        4.88612        -0.42604        -5.09738
| 64>    C        4.86131        -1.68238        -4.56423
| 65>    C        3.79861        -2.59348        -4.19866
| 66>    C        2.54247        -2.67007        -4.74592
| 67>    C        2.06953        -1.83599        -5.77746
| 68>    N        1.63352        -1.22050        -6.64312
| 69>    C        1.58892        -3.64684        -4.39698
| 70>    N        0.76494        -4.40387        -4.13853
| 71>    C        4.37994        -3.60945        -3.32356
| 72>    C        5.79008        -3.47250        -3.34009
| 73>    C        6.15188        -2.31096        -4.17735
| 74>    O        7.26257        -1.92107        -4.46038
| 75>    C        6.62248        -4.31812        -2.64849
| 76>    C        6.03486        -5.33935        -1.89420
| 77>    C        4.62499        -5.45537        -1.86826
| 78>    C        3.78286        -4.60554        -2.57517
| 79>    S        4.11080        -6.77606        -0.86268
| 80>    C        5.77461        -7.15352        -0.50151
| 81>    C        6.67012        -6.33271        -1.09896
| 82>   Br        6.17083        -8.59434         0.63222
| 83>    H       -2.99325         5.67945         1.76083
| 84>    H       -3.94321         3.65390         6.24287
| 85>    H       -0.53711         6.41707         2.90082
| 86>    H       -8.53008         3.23012         3.37965
| 87>    H      -12.53362         4.26871         0.00559
| 88>    H       -7.29840         4.63040        -0.08818
| 89>    H      -10.32807         5.55393        -2.38956
| 90>    H       -7.29494         5.07410        -2.34183
| 91>    H       -9.17908         6.45031        -4.34977
| 92>    H       -7.96420         7.30549        -6.46221
| 93>    H       -5.66934         7.20230        -7.62214
| 94>    H       -3.42530         6.86186        -8.20324
| 95>    H       -1.03820         5.93962        -8.46532
| 96>    H        0.59961         4.34687        -7.37494
| 97>    H       -0.47177         0.80695        -2.35548
| 98>    H        2.24079         2.63549        -6.44999
| 99>    H        2.58898        -0.13261        -3.68783
|100>    H        4.03170         1.31072        -5.97040
|101>    H        5.87663        -0.10388        -5.40713
|102>    H        7.69359        -4.19715        -2.68809
|103>    H        2.71408        -4.72969        -2.52058
|104>    H        7.73506        -6.42168        -0.98544
|105> *
|106>
|107>                          ****END OF INPUT****

CARTESIAN COORDINATES (ANGSTROEM)
---------------------------------
  C     -6.014230    3.445700    4.175440
  C     -6.581830    2.670990    5.155180
  C     -5.953150    2.364960    6.380370
  N     -5.500580    2.082190    7.396980
  C     -7.838640    2.034040    5.088710
  N     -8.838270    1.468320    5.117670
  C     -4.676950    4.023850    4.240870
  C     -4.379790    4.611390    2.988770
  C     -3.189010    5.244120    2.728200
  C     -2.247630    5.311340    3.760600
  C     -2.555270    4.727100    5.011950
  C     -3.756620    4.078770    5.271130
  S     -1.258790    4.935550    6.150410
  C     -0.334630    5.793180    4.946160
  C     -0.961280    5.917100    3.752280
  Br     1.369680    6.446610    5.379170
  C     -5.530580    4.443490    2.078760
  O     -5.556220    4.781660    0.912560
  C     -6.586990    3.796310    2.885740
  C     -7.914900    3.637790    2.586140
  C     -8.654360    3.971930    1.436650
  S    -10.407490    3.789110    1.566040
  C    -10.622230    4.402680   -0.025400
  O    -11.824650    4.551250   -0.585420
  C     -9.414810    4.711820   -0.656160
  C     -8.320350    4.451230    0.190130
  C     -9.372080    5.258960   -1.978620
  C     -8.248040    5.416810   -2.721510
  C     -8.250290    6.023390   -3.993470
  C     -7.158840    6.130440   -4.812700
  C     -7.102140    6.801110   -6.062360
  C     -5.889350    6.748310   -6.672730
  C     -4.917320    6.008130   -5.956950
  S     -5.592310    5.415350   -4.454020
  C     -3.627010    5.725720   -6.350890
  C     -2.957910    6.186070   -7.509960
  C     -1.696330    5.702970   -7.648120
  C     -1.292860    4.810270   -6.617930
  S     -2.581080    4.657760   -5.432930
  C     -0.100750    4.143070   -6.575170
  C      0.327920    3.174720   -5.645320
  S     -0.651390    2.650770   -4.281460
  C      0.546260    1.497170   -3.821270
  O      0.394280    0.689570   -2.765010
  C      1.656140    1.507240   -4.659390
  C      1.508540    2.473970   -5.681690
  C      2.721220    0.571250   -4.498910
  C      3.850660    0.529120   -5.246230
  C      4.886120   -0.426040   -5.097380
  C      4.861310   -1.682380   -4.564230
  C      3.798610   -2.593480   -4.198660
  C      2.542470   -2.670070   -4.745920
  C      2.069530   -1.835990   -5.777460
  N      1.633520   -1.220500   -6.643120
  C      1.588920   -3.646840   -4.396980
  N      0.764940   -4.403870   -4.138530
  C      4.379940   -3.609450   -3.323560
  C      5.790080   -3.472500   -3.340090
  C      6.151880   -2.310960   -4.177350
  O      7.262570   -1.921070   -4.460380
  C      6.622480   -4.318120   -2.648490
  C      6.034860   -5.339350   -1.894200
  C      4.624990   -5.455370   -1.868260
  C      3.782860   -4.605540   -2.575170
  S      4.110800   -6.776060   -0.862680
  C      5.774610   -7.153520   -0.501510
  C      6.670120   -6.332710   -1.098960
  Br     6.170830   -8.594340    0.632220
  H     -2.993250    5.679450    1.760830
  H     -3.943210    3.653900    6.242870
  H     -0.537110    6.417070    2.900820
  H     -8.530080    3.230120    3.379650
  H    -12.533620    4.268710    0.005590
  H     -7.298400    4.630400   -0.088180
  H    -10.328070    5.553930   -2.389560
  H     -7.294940    5.074100   -2.341830
  H     -9.179080    6.450310   -4.349770
  H     -7.964200    7.305490   -6.462210
  H     -5.669340    7.202300   -7.622140
  H     -3.425300    6.861860   -8.203240
  H     -1.038200    5.939620   -8.465320
  H      0.599610    4.346870   -7.374940
  H     -0.471770    0.806950   -2.355480
  H      2.240790    2.635490   -6.449990
  H      2.588980   -0.132610   -3.687830
  H      4.031700    1.310720   -5.970400
  H      5.876630   -0.103880   -5.407130
  H      7.693590   -4.197150   -2.688090
  H      2.714080   -4.729690   -2.520580
  H      7.735060   -6.421680   -0.985440

 Total Charge           Charge          ....    0
 Multiplicity           Mult            ....    1
 Number of Electrons    NEL             ....  560
 Basis Dimension        Dim             .... 1122

ORBITAL ENERGIES
----------------

  NO   OCC          E(Eh)            E(eV)
   0   2.0000    -482.885457    -13139.9813
   1   2.0000    -482.881242    -13139.8666
   2   2.0000     -88.977485     -2421.2005
   3   2.0000     -88.975088     -2421.1352
   4   2.0000     -88.970319     -2421.0055
   5   2.0000     -88.968385     -2420.9528
   6   2.0000     -88.945570     -2420.3320
   7   2.0000     -88.942060     -2420.2365
   8   2.0000     -62.563154     -1702.4300
   9   2.0000     -62.558949     -1702.3155
  10   2.0000     -56.397103     -1534.6432
  11   2.0000     -56.394388     -1534.5693
  12   2.0000     -56.394356     -1534.5684
  13   2.0000     -56.392897     -1534.5287
  14   2.0000     -56.390188     -1534.4550
  15   2.0000     -56.390153     -1534.4541
  16   2.0000     -19.295530      -525.0581
  17   2.0000     -19.284369      -524.7543
  18   2.0000     -19.217952      -522.9471
  19   2.0000     -19.204955      -522.5934
  20   2.0000     -14.414464      -392.2375
  21   2.0000     -14.411641      -392.1607
  22   2.0000     -14.407894      -392.0587
  23   2.0000     -14.406426      -392.0188
  24   2.0000     -10.387839      -282.6675
  25   2.0000     -10.374491      -282.3042
  26   2.0000     -10.368774      -282.1487
  27   2.0000     -10.358605      -281.8720
  28   2.0000     -10.355866      -281.7974
  29   2.0000     -10.353648      -281.7371
  30   2.0000     -10.339797      -281.3602
  31   2.0000     -10.338196      -281.3166
  32   2.0000     -10.334335      -281.2115
  33   2.0000     -10.332698      -281.1670
  34   2.0000     -10.324642      -280.9478
  35   2.0000     -10.324256      -280.9373
  36   2.0000     -10.319865      -280.8178
  37   2.0000     -10.317749      -280.7602
  38   2.0000     -10.317291      -280.7478
  39   2.0000     -10.315169      -280.6900
  40   2.0000     -10.311368      -280.5866
  41   2.0000     -10.309263      -280.5293
  42   2.0000     -10.308833      -280.5176
  43   2.0000     -10.308047      -280.4962
  44   2.0000     -10.307563      -280.4831
  45   2.0000     -10.307414      -280.4790
  46   2.0000     -10.306827      -280.4630
  47   2.0000     -10.306430      -280.4522
  48   2.0000     -10.305110      -280.4163
  49   2.0000     -10.304634      -280.4033
  50   2.0000     -10.304321      -280.3948
  51   2.0000     -10.301804      -280.3263
  52   2.0000     -10.301463      -280.3171
  53   2.0000     -10.300041      -280.2784
  54   2.0000     -10.299244      -280.2567
  55   2.0000     -10.298024      -280.2235
  56   2.0000     -10.296422      -280.1799
  57   2.0000     -10.296167      -280.1729
  58   2.0000     -10.294856      -280.1373
  59   2.0000     -10.291760      -280.0530
  60   2.0000     -10.291639      -280.0497
  61   2.0000     -10.290898      -280.0296
  62   2.0000     -10.289957      -280.0040
  63   2.0000     -10.287205      -279.9291
  64   2.0000     -10.286717      -279.9158
  65   2.0000     -10.285818      -279.8913
  66   2.0000     -10.285343      -279.8784
  67   2.0000     -10.284312      -279.8503
  68   2.0000     -10.283994      -279.8417
  69   2.0000     -10.283611      -279.8313
  70   2.0000     -10.281414      -279.7715
  71   2.0000     -10.280105      -279.7359
  72   2.0000     -10.279505      -279.7196
  73   2.0000     -10.277018      -279.6519
  74   2.0000     -10.276597      -279.6404
  75   2.0000     -10.276011      -279.6245
  76   2.0000      -8.792579      -239.2582
  77   2.0000      -8.788366      -239.1436
  78   2.0000      -8.074336      -219.7138
  79   2.0000      -8.071017      -219.6235
  80   2.0000      -8.066302      -219.4952
  81   2.0000      -8.064818      -219.4549
  82   2.0000      -8.041661      -218.8247
  83   2.0000      -8.038309      -218.7335
  84   2.0000      -6.628855      -180.3803
  85   2.0000      -6.624659      -180.2661
  86   2.0000      -6.614326      -179.9850
  87   2.0000      -6.614124      -179.9795
  88   2.0000      -6.610101      -179.8700
  89   2.0000      -6.609911      -179.8648
  90   2.0000      -6.043556      -164.4535
  91   2.0000      -6.040705      -164.3759
  92   2.0000      -6.039695      -164.3485
  93   2.0000      -6.036431      -164.2597
  94   2.0000      -6.036021      -164.2485
  95   2.0000      -6.036009      -164.2481
  96   2.0000      -6.034206      -164.1991
  97   2.0000      -6.032262      -164.1462
  98   2.0000      -6.031718      -164.1314
  99   2.0000      -6.030125      -164.0880
 100   2.0000      -6.027517      -164.0171
 101   2.0000      -6.026419      -163.9872
 102   2.0000      -6.011482      -163.5807
 103   2.0000      -6.008036      -163.4870
 104   2.0000      -6.007433      -163.4706
 105   2.0000      -6.004137      -163.3809
 106   2.0000      -6.002456      -163.3351
 107   2.0000      -5.999121      -163.2444
 108   2.0000      -2.744752       -74.6885
 109   2.0000      -2.740639       -74.5766
 110   2.0000      -2.740512       -74.5731
 111   2.0000      -2.740497       -74.5727
 112   2.0000      -2.736453       -74.4627
 113   2.0000      -2.736311       -74.4588
 114   2.0000      -2.728934       -74.2581
 115   2.0000      -2.728929       -74.2579
 116   2.0000      -2.724746       -74.1441
 117   2.0000      -2.724721       -74.1434
 118   2.0000      -1.193266       -32.4704
 119   2.0000      -1.181496       -32.1501
 120   2.0000      -1.132575       -30.8189
 121   2.0000      -1.120023       -30.4774
 122   2.0000      -1.021942       -27.8085
 123   2.0000      -1.016275       -27.6543
 124   2.0000      -1.012222       -27.5440
 125   2.0000      -1.006043       -27.3758
 126   2.0000      -0.998658       -27.1749
 127   2.0000      -0.995583       -27.0912
 128   2.0000      -0.992089       -26.9961
 129   2.0000      -0.987561       -26.8729
 130   2.0000      -0.987387       -26.8682
 131   2.0000      -0.985314       -26.8117
 132   2.0000      -0.981764       -26.7152
 133   2.0000      -0.970066       -26.3968
 134   2.0000      -0.941999       -25.6331
 135   2.0000      -0.937366       -25.5070
 136   2.0000      -0.916542       -24.9404
 137   2.0000      -0.914300       -24.8794
 138   2.0000      -0.907244       -24.6874
 139   2.0000      -0.901699       -24.5365
 140   2.0000      -0.899701       -24.4821
 141   2.0000      -0.890565       -24.2335
 142   2.0000      -0.884866       -24.0784
 143   2.0000      -0.879742       -23.9390
 144   2.0000      -0.879193       -23.9241
 145   2.0000      -0.870683       -23.6925
 146   2.0000      -0.861045       -23.4302
 147   2.0000      -0.852966       -23.2104
 148   2.0000      -0.845968       -23.0200
 149   2.0000      -0.833955       -22.6931
 150   2.0000      -0.828589       -22.5471
 151   2.0000      -0.825138       -22.4531
 152   2.0000      -0.823232       -22.4013
 153   2.0000      -0.818395       -22.2697
 154   2.0000      -0.811218       -22.0744
 155   2.0000      -0.804758       -21.8986
 156   2.0000      -0.779717       -21.2172
 157   2.0000      -0.771103       -20.9828
 158   2.0000      -0.764158       -20.7938
 159   2.0000      -0.758793       -20.6478
 160   2.0000      -0.748405       -20.3651
 161   2.0000      -0.737885       -20.0789
 162   2.0000      -0.724118       -19.7043
 163   2.0000      -0.713784       -19.4230
 164   2.0000      -0.708386       -19.2762
 165   2.0000      -0.693068       -18.8593
 166   2.0000      -0.691562       -18.8184
 167   2.0000      -0.688304       -18.7297
 168   2.0000      -0.681792       -18.5525
 169   2.0000      -0.680073       -18.5057
 170   2.0000      -0.673294       -18.3213
 171   2.0000      -0.660643       -17.9770
 172   2.0000      -0.658255       -17.9120
 173   2.0000      -0.653903       -17.7936
 174   2.0000      -0.649582       -17.6760
 175   2.0000      -0.645476       -17.5643
 176   2.0000      -0.632570       -17.2131
 177   2.0000      -0.627657       -17.0794
 178   2.0000      -0.625780       -17.0283
 179   2.0000      -0.624399       -16.9908
 180   2.0000      -0.620324       -16.8799
 181   2.0000      -0.616339       -16.7714
 182   2.0000      -0.612515       -16.6674
 183   2.0000      -0.606023       -16.4907
 184   2.0000      -0.603912       -16.4333
 185   2.0000      -0.595158       -16.1951
 186   2.0000      -0.592327       -16.1180
 187   2.0000      -0.589740       -16.0476
 188   2.0000      -0.581061       -15.8115
 189   2.0000      -0.579230       -15.7617
 190   2.0000      -0.569644       -15.5008
 191   2.0000      -0.564017       -15.3477
 192   2.0000      -0.558416       -15.1953
 193   2.0000      -0.546155       -14.8616
 194   2.0000      -0.544533       -14.8175
 195   2.0000      -0.543073       -14.7778
 196   2.0000      -0.542491       -14.7619
 197   2.0000      -0.539474       -14.6798
 198   2.0000      -0.538316       -14.6483
 199   2.0000      -0.534687       -14.5496
 200   2.0000      -0.533214       -14.5095
 201   2.0000      -0.532149       -14.4805
 202   2.0000      -0.529160       -14.3992
 203   2.0000      -0.527236       -14.3468
 204   2.0000      -0.523635       -14.2488
 205   2.0000      -0.522201       -14.2098
 206   2.0000      -0.519457       -14.1351
 207   2.0000      -0.512042       -13.9334
 208   2.0000      -0.508321       -13.8321
 209   2.0000      -0.508068       -13.8252
 210   2.0000      -0.505507       -13.7556
 211   2.0000      -0.501183       -13.6379
 212   2.0000      -0.499113       -13.5816
 213   2.0000      -0.497988       -13.5509
 214   2.0000      -0.495986       -13.4965
 215   2.0000      -0.493657       -13.4331
 216   2.0000      -0.493138       -13.4190
 217   2.0000      -0.491443       -13.3729
 218   2.0000      -0.488161       -13.2835
 219   2.0000      -0.483429       -13.1548
 220   2.0000      -0.479705       -13.0534
 221   2.0000      -0.478235       -13.0134
 222   2.0000      -0.472419       -12.8552
 223   2.0000      -0.470927       -12.8146
 224   2.0000      -0.466637       -12.6978
 225   2.0000      -0.465206       -12.6589
 226   2.0000      -0.463134       -12.6025
 227   2.0000      -0.458003       -12.4629
 228   2.0000      -0.455960       -12.4073
 229   2.0000      -0.451790       -12.2938
 230   2.0000      -0.450502       -12.2588
 231   2.0000      -0.448580       -12.2065
 232   2.0000      -0.446648       -12.1539
 233   2.0000      -0.446496       -12.1498
 234   2.0000      -0.446215       -12.1421
 235   2.0000      -0.445815       -12.1312
 236   2.0000      -0.442725       -12.0472
 237   2.0000      -0.441582       -12.0161
 238   2.0000      -0.439903       -11.9704
 239   2.0000      -0.439503       -11.9595
 240   2.0000      -0.437636       -11.9087
 241   2.0000      -0.436787       -11.8856
 242   2.0000      -0.435425       -11.8485
 243   2.0000      -0.434289       -11.8176
 244   2.0000      -0.429657       -11.6916
 245   2.0000      -0.426143       -11.5959
 246   2.0000      -0.425070       -11.5668
 247   2.0000      -0.420788       -11.4502
 248   2.0000      -0.419683       -11.4201
 249   2.0000      -0.418641       -11.3918
 250   2.0000      -0.413242       -11.2449
 251   2.0000      -0.412457       -11.2235
 252   2.0000      -0.409470       -11.1422
 253   2.0000      -0.405405       -11.0316
 254   2.0000      -0.402273       -10.9464
 255   2.0000      -0.392629       -10.6840
 256   2.0000      -0.389982       -10.6119
 257   2.0000      -0.387287       -10.5386
 258   2.0000      -0.383630       -10.4391
 259   2.0000      -0.379313       -10.3216
 260   2.0000      -0.374800       -10.1988
 261   2.0000      -0.373073       -10.1518
 262   2.0000      -0.370764       -10.0890
 263   2.0000      -0.360267        -9.8034
 264   2.0000      -0.348797        -9.4913
 265   2.0000      -0.345858        -9.4113
 266   2.0000      -0.342371        -9.3164
 267   2.0000      -0.338991        -9.2244
 268   2.0000      -0.335325        -9.1246
 269   2.0000      -0.326877        -8.8948
 270   2.0000      -0.322798        -8.7838
 271   2.0000      -0.317117        -8.6292
 272   2.0000      -0.314992        -8.5714
 273   2.0000      -0.309242        -8.4149
 274   2.0000      -0.295020        -8.0279
 275   2.0000      -0.290217        -7.8972
 276   2.0000      -0.287678        -7.8281
 277   2.0000      -0.273652        -7.4464
 278   2.0000      -0.256872        -6.9899
 279   2.0000      -0.206621        -5.6224
 280   0.0000      -0.088163        -2.3990
 281   0.0000      -0.082334        -2.2404
 282   0.0000      -0.071719        -1.9516
 283   0.0000      -0.057492        -1.5644
 284   0.0000      -0.049293        -1.3413

MULLIKEN ATOMIC CHARGES
-----------------------
   0 C :    0.310497
   1 C :   -0.361065
   2 C :   -0.185679
   3 N :    0.146072
   4 C :   -0.194255
   5 N :    0.150275
   6 C :    0.013032
   7 C :   -0.007669
   8 C :   -0.077716
   9 C :    0.118823
  10 C :   -0.093546
  11 C :   -0.018574
  12 S :    0.185761
  13 C :   -0.124962
  14 C :    0.040599
  15 Br:    0.022892
  16 C :    0.152333
  17 O :   -0.159994
  18 C :   -0.093957
  19 C :    0.057862
  20 C :   -0.122993
  21 S :    0.102899
  22 C :   -0.003162
  23 O :   -0.145679
  24 C :    0.077880
  25 C :    0.011430
  26 C :   -0.018990
  27 C :    0.015615
  28 C :   -0.018861
  29 C :   -0.017726
  30 C :    0.039156
  31 C :    0.025365
  32 C :   -0.048184
  33 S :    0.073159
  34 C :   -0.039213
  35 C :    0.028521
  36 C :    0.035191
  37 C :   -0.035309
  38 S :    0.053504
  39 C :   -0.003137
  40 C :   -0.060658
  41 S :    0.080309
  42 C :   -0.002632
  43 O :   -0.153468
  44 C :    0.067611
  45 C :    0.004600
  46 C :    0.037784
  47 C :    0.000106
  48 C :    0.051758
  49 C :   -0.129351
  50 C :    0.274461
  51 C :   -0.341733
  52 C :   -0.204324
  53 N :    0.171839
  54 C :   -0.179756
  55 N :    0.145409
  56 C :   -0.005545
  57 C :    0.008605
  58 C :    0.129228
  59 O :   -0.150278
  60 C :   -0.075395
  61 C :    0.112145
  62 C :   -0.088202
  63 C :   -0.022583
  64 S :    0.181237
  65 C :   -0.125398
  66 C :    0.040468
  67 Br:    0.019372
  68 H :   -0.011912
  69 H :   -0.006565
  70 H :   -0.004141
  71 H :    0.004771
  72 H :    0.204639
  73 H :    0.020522
  74 H :   -0.011329
  75 H :    0.009759
  76 H :   -0.017752
  77 H :   -0.014461
  78 H :   -0.014687
  79 H :   -0.014309
  80 H :   -0.012927
  81 H :   -0.010949
  82 H :    0.203553
  83 H :   -0.013997
  84 H :    0.014703
  85 H :   -0.005055
  86 H :    0.022421
  87 H :   -0.009978
  88 H :   -0.004496
  89 H :   -0.003612
Sum of atomic charges:   -0.0000000

LOEWDIN ATOMIC CHARGES
----------------------
   0 C :    0.078732
   1 C :   -0.148847
   2 C :   -0.018339
   3 N :   -0.058086
   4 C :   -0.024840
   5 N :   -0.056372
   6 C :   -0.021418
   7 C :   -0.049777
   8 C :    0.019664
   9 C :   -0.033594
  10 C :   -0.144653
  11 C :   -0.009838
  12 S :    0.432078
  13 C :   -0.272027
  14 C :   -0.070911
  15 Br:    0.135932
  16 C :    0.087905
  17 O :   -0.147747
  18 C :   -0.107500
  19 C :    0.047917
  20 C :   -0.187558
  21 S :    0.411971
  22 C :   -0.074052
  23 O :   -0.020928
  24 C :   -0.106309
  25 C :    0.017315
  26 C :   -0.020708
  27 C :   -0.026632
  28 C :   -0.055347
  29 C :   -0.145308
  30 C :   -0.032938
  31 C :   -0.032265
  32 C :   -0.177791
  33 S :    0.364972
  34 C :   -0.179150
  35 C :   -0.035898
  36 C :   -0.032081
  37 C :   -0.156204
  38 S :    0.353050
  39 C :   -0.070381
  40 C :   -0.169353
  41 S :    0.400480
  42 C :   -0.077977
  43 O :   -0.028756
  44 C :   -0.113879
  45 C :   -0.028307
  46 C :    0.055215
  47 C :   -0.059770
  48 C :    0.072852
  49 C :   -0.105370
  50 C :    0.067566
  51 C :   -0.146630
  52 C :   -0.016679
  53 N :   -0.045695
  54 C :   -0.019795
  55 N :   -0.061024
  56 C :   -0.017466
  57 C :   -0.051847
  58 C :    0.082086
  59 O :   -0.149355
  60 C :    0.020765
  61 C :   -0.034884
  62 C :   -0.143913
  63 C :   -0.014304
  64 S :    0.428919
  65 C :   -0.273264
  66 C :   -0.070331
  67 Br:    0.133580
  68 H :    0.040180
  69 H :    0.040977
  70 H :    0.038500
  71 H :    0.042451
  72 H :    0.107710
  73 H :    0.035094
  74 H :    0.030204
  75 H :    0.025641
  76 H :    0.032179
  77 H :    0.032945
  78 H :    0.031362
  79 H :    0.031720
  80 H :    0.033272
  81 H :    0.042043
  82 H :    0.106565
  83 H :    0.032235
  84 H :    0.036036
  85 H :    0.031168
  86 H :    0.045279
  87 H :    0.040789
  88 H :    0.040229
  89 H :    0.038520

  Mayer bond orders larger than 0.100000
B(  0-C ,  1-C ) :   1.6120 B(  0-C ,  6-C ) :   0.9962 B(  0-C , 18-C ) :   1.0864
B(  1-C ,  2-C ) :   1.1463 B(  1-C ,  4-C ) :   1.1434 B(  2-C ,  3-N ) :   2.9689
B(  4-C ,  5-N ) :   2.9752 B(  6-C ,  7-C ) :   1.2786 B(  6-C , 11-C ) :   1.4108
B(  7-C ,  8-C ) :   1.4243 B(  7-C , 16-C ) :   0.9511 B(  8-C ,  9-C ) :   1.2419
B(  8-C , 68-H ) :   1.0171 B(  9-C , 10-C ) :   1.3089 B(  9-C , 14-C ) :   1.1633
B( 10-C , 11-C ) :   1.3295 B( 10-C , 12-S ) :   1.0850 B( 11-C , 69-H ) :   0.9795
B( 12-S , 13-C ) :   1.0872 B( 13-C , 14-C ) :   1.6179 B( 13-C , 15-Br) :   1.0186
B( 14-C , 70-H ) :   1.0002 B( 16-C , 17-O ) :   2.1548 B( 16-C , 18-C ) :   0.9480
B( 17-O , 73-H ) :   0.1034 B( 18-C , 19-C ) :   1.5689 B( 19-C , 20-C ) :   1.2484
B( 19-C , 71-H ) :   0.9107 B( 20-C , 21-S ) :   1.0526 B( 20-C , 25-C ) :   1.4494
B( 21-S , 22-C ) :   1.1583 B( 22-C , 23-O ) :   1.2564 B( 22-C , 24-C ) :   1.3468
B( 23-O , 72-H ) :   0.9459 B( 24-C , 25-C ) :   1.2586 B( 24-C , 26-C ) :   1.0746
B( 25-C , 73-H ) :   0.9737 B( 26-C , 27-C ) :   1.6615 B( 26-C , 74-H ) :   0.9877
B( 27-C , 28-C ) :   1.1455 B( 27-C , 75-H ) :   0.9678 B( 28-C , 29-C ) :   1.5789
B( 28-C , 76-H ) :   0.9826 B( 29-C , 30-C ) :   1.1324 B( 29-C , 33-S ) :   1.0273
B( 30-C , 31-C ) :   1.6009 B( 30-C , 77-H ) :   0.9991 B( 31-C , 32-C ) :   1.1790
B( 31-C , 78-H ) :   0.9933 B( 32-C , 33-S ) :   1.0420 B( 32-C , 34-C ) :   1.5277
B( 34-C , 35-C ) :   1.1778 B( 34-C , 38-S ) :   1.0359 B( 35-C , 36-C ) :   1.6040
B( 35-C , 79-H ) :   0.9927 B( 36-C , 37-C ) :   1.1338 B( 36-C , 80-H ) :   0.9999
B( 37-C , 38-S ) :   1.0224 B( 37-C , 39-C ) :   1.5859 B( 39-C , 40-C ) :   1.1739
B( 39-C , 81-H ) :   0.9686 B( 40-C , 41-S ) :   1.0422 B( 40-C , 45-C ) :   1.5175
B( 41-S , 42-C ) :   1.1386 B( 42-C , 43-O ) :   1.2424 B( 42-C , 44-C ) :   1.3871
B( 43-O , 82-H ) :   0.9462 B( 44-C , 45-C ) :   1.2094 B( 44-C , 46-C ) :   1.1534
B( 45-C , 83-H ) :   1.0008 B( 46-C , 47-C ) :   1.6120 B( 46-C , 84-H ) :   0.9664
B( 47-C , 48-C ) :   1.1760 B( 47-C , 85-H ) :   0.9564 B( 48-C , 49-C ) :   1.6339
B( 48-C , 86-H ) :   0.9291 B( 49-C , 50-C ) :   1.0456 B( 49-C , 58-C ) :   0.9542
B( 50-C , 51-C ) :   1.6320 B( 50-C , 56-C ) :   1.0091 B( 51-C , 52-C ) :   1.1723
B( 51-C , 54-C ) :   1.1299 B( 52-C , 53-N ) :   2.9959 B( 54-C , 55-N ) :   2.9844
B( 56-C , 57-C ) :   1.2793 B( 56-C , 63-C ) :   1.4169 B( 57-C , 58-C ) :   0.9174
B( 57-C , 60-C ) :   1.4256 B( 58-C , 59-O ) :   2.2574 B( 60-C , 61-C ) :   1.2513
B( 60-C , 87-H ) :   1.0161 B( 61-C , 62-C ) :   1.3110 B( 61-C , 66-C ) :   1.1615
B( 62-C , 63-C ) :   1.3267 B( 62-C , 64-S ) :   1.0815 B( 63-C , 88-H ) :   0.9824
B( 64-S , 65-C ) :   1.0861 B( 65-C , 66-C ) :   1.6206 B( 65-C , 67-Br) :   1.0159
B( 66-C , 89-H ) :   1.0002

-----------------------------------------------------------------------------
         ABSORPTION SPECTRUM VIA TRANSITION ELECTRIC DIPOLE MOMENTS
-----------------------------------------------------------------------------
State   Energy  Wavelength   fosc         T2         TX        TY        TZ
        (cm-1)    (nm)                  (au**2)     (au)      (au)      (au)
-----------------------------------------------------------------------------
   0   13395.2    746.5   0.483150869  11.87437   2.31944  -1.03154  -2.33034
   1   14919.3    670.3   0.381655102   8.42168  -2.27650   1.76892  -0.33186
   2   16744.6    597.2   0.776038460  15.25755  -3.61242   0.88790   1.19149
   3   20085.2    497.9   0.039045329   0.63998   0.77809  -0.17994  -0.04666
   4   21924.2    456.1   0.380780988   5.71779  -0.44676   2.06817  -1.11393
   5   23278.5    429.6   0.702051816   9.92864   2.18655  -0.82547   2.11335
   6   23777.4    420.6   0.086570388   1.19862  -0.57201  -0.37909  -0.85306
   7   24971.1    400.5   0.154640047   2.03873   1.20193  -0.46603   0.61392
   8   27776.5    360.0   0.175177987   2.07624  -0.16904  -0.92175   1.09455
   9   27955.1    357.7   0.136501678   1.60751   0.36728  -0.70361   0.98871
  10   28129.4    355.5   0.039901302   0.46698  -0.05535   0.29833  -0.61231
  11   28384.9    352.3   0.414895041   4.81200  -0.78570   0.82085  -1.87640
  12   29263.1    341.7   0.512008346   5.76013   2.27875   0.74416   0.11681
  13   29516.8    338.8   0.040731741   0.45430   0.47528   0.36432  -0.30931
  14   29592.0    337.9   0.019502623   0.21697   0.43065   0.06235  -0.16619
  15   30014.6    333.2   0.155242525   1.70276   0.50908  -1.09782   0.48826
  16   30238.2    330.7   0.016060178   0.17485   0.02094   0.33872  -0.24430
  17   30619.9    326.6   0.039368561   0.42327  -0.34709  -0.43320   0.33932
  18   30672.9    326.0   0.202611868   2.17463   0.85318  -1.16756   0.28900
  19   30888.2    323.7   0.121060800   1.29029  -1.05476  -0.40428   0.11972
  20   31115.1    321.4   0.100748837   1.06597   0.69687  -0.64440   0.40631
  21   31263.1    319.9   0.079964940   0.84206   0.86250   0.28425  -0.13172
  22   32511.8    307.6   0.034186118   0.34617   0.46446   0.34758  -0.09818
  23   32931.9    303.7   0.154175925   1.54126   0.99651  -0.46804   0.57373
  24   33169.2    301.5   0.030848250   0.30618  -0.37754  -0.27736   0.29447
  25   33311.8    300.2   0.087086458   0.86065  -0.79198  -0.20840  -0.43588
  26   33643.1    297.2   0.224995342   2.20167   1.47643  -0.13860   0.05116
  27   33819.7    295.7   0.032178667   0.31324  -0.30842  -0.46496  -0.04390
  28   33867.0    295.3   0.421455657   4.09686   1.32092   1.24009  -0.90233
  29   34316.1    291.4   0.012744719   0.12227  -0.25666   0.13631  -0.19445
  30   34466.2    290.1   0.430649580   4.11345   1.24896  -1.04413   1.20969
  31   35139.3    284.6   0.010844706   0.10160   0.10903  -0.27140   0.12673
  32   35478.4    281.9   0.033661920   0.31236  -0.34899  -0.28115   0.33394
  33   36096.2    277.0   0.149598601   1.36440   0.27295   0.64180  -0.93701
  34   36380.4    274.9   0.003127350   0.02830  -0.08932   0.09356  -0.10756
  35   37042.5    270.0   0.026467949   0.23523   0.31192  -0.32003   0.18847
  36   37126.5    269.3   0.005287478   0.04689  -0.12111   0.16072  -0.07992
  37   37408.5    267.3   0.022770874   0.20039   0.40263  -0.16612   0.10337
  38   37484.4    266.8   0.007023377   0.06168  -0.18181   0.16878  -0.01198
  39   37679.2    265.4   0.028022179   0.24484  -0.30638  -0.04517   0.38591
  40   38157.3    262.1   0.028299800   0.24416  -0.47427  -0.09075  -0.10488
  41   38579.9    259.2   0.001725897   0.01473   0.05347   0.10218   0.03779
  42   38691.7    258.5   0.005940780   0.05055   0.01411   0.02509   0.22298
  43   38849.8    257.4   0.029015334   0.24588   0.45165  -0.02210   0.20348
  44   38966.2    256.6   0.038542566   0.32563   0.02442  -0.20105   0.53349
  45   39240.0    254.8   0.022229236   0.18650   0.33379  -0.07915  -0.26233
  46   39367.9    254.0   0.194513301   1.62661   0.41460  -0.34468   1.15581
  47   39977.8    250.1   0.009695410   0.07984   0.20860  -0.08293   0.17161
  48   40196.9    248.8   0.168473112   1.37979   1.12974   0.15067  -0.28420

FINAL SINGLE POINT ENERGY    -10047.699529986554

DIPOLE MOMENT
-------------
                                X             Y             Z
Electronic contribution:    111.26871     -75.34080     112.30851
Nuclear contribution   :   -112.18124      78.33378    -113.24231
                        -----------------------------------------
Total Dipole Moment    :     -0.91252       2.99297      -0.93380
                        -----------------------------------------
Magnitude (a.u.)       :      3.26536
Magnitude (Debye)      :      8.29989

Rotational constants in cm-1:     0.000618     0.000292     0.000244
Rotational constants in MHz :    18.529397     8.758822     7.306755

                             ****ORCA TERMINATED NORMALLY****
TOTAL RUN TIME: 0 days 0 hours 8 minutes 45 seconds 514 msec
