                         Program Version 4.2.0 -  RELEASE  -
|  1> # ORCA input file
|  2> # SCF done       -210.500581270494          0.000347550925
|  3> ! CAM-B3LYP def2-SVP def2/J RIJCOSX Grid4 TightSCF
|  4> %maxcore 5000
|  5> %tddft
|  6>     Mode sTDDFT
|  7>     Ethresh 5.0
|  8>     maxcore 5000
|  9> end
| 10>
| 11> %pal
| 12>   nprocs 6
| 13>   end
| 14> * xyz 0 1
| 15>    C       14.17638        -3.95737        12.88329
| 16>    C       14.92205        -3.58451        13.96665
| 17>    F       15.67020        -4.50353        14.60359
| 18>    C       14.94166        -2.26852        14.44889
| 19>    C       14.18820        -1.32053        13.81455
| 20>    C       13.40005        -1.64956        12.69244
| 21>    C       13.39267        -2.99420        12.21848
| 22>    C       12.60167        -3.35128        11.10179
| 23>    C       11.84620        -2.39408        10.48052
| 24>    C       11.86900        -1.04768        10.94927
| 25>    C       12.61952        -0.67727        12.02822
| 26>    C       10.99842        -0.21573        10.09535
| 27>    O       10.73960         0.95927        10.21573
| 28>    C       10.54889        -1.12465         9.00283
| 29>    C       10.91006        -2.47871         9.36357
| 30>    C       10.31541        -3.62076         8.90389
| 31>    C        9.16351        -3.63514         8.08458
| 32>    N        8.15520        -3.73876         7.54493
| 33>    C       10.71499        -4.91894         9.27604
| 34>    N       11.02718        -5.99859         9.51251
| 35>    C       10.05478        -0.61482         7.84062
| 36>    C        9.94861        -1.27221         6.59365
| 37>    C        9.27838        -0.80652         5.44187
| 38>    C        9.44312        -1.79544         4.44814
| 39>    C       10.22059        -2.81951         5.07524
| 40>    N       10.52419        -2.48466         6.32943
| 41>    O       10.57213        -3.95321         4.52126
| 42>    C       11.29313        -4.86341         5.33429
| 43>    C        8.62873        -1.40242         3.35671
| 44>    N        7.99843        -0.22811         3.64575
| 45>    C        8.37252         0.14581         4.86568
| 46>    O        7.95898         1.24105         5.45538
| 47>    C        7.04073         2.03694         4.72105
| 48>    C        8.42398        -2.13366         2.16601
| 49>    C        9.31395        -3.07126         1.57538
| 50>    C        8.61282        -3.66225         0.50440
| 51>    C        7.35544        -2.98058         0.46812
| 52>    N        7.26751        -2.08463         1.45353
| 53>    O        6.41301        -3.16082        -0.42500
| 54>    C        5.25971        -2.34631        -0.28329
| 55>    C        9.52338        -4.55162        -0.12773
| 56>    N       10.74308        -4.45893         0.46412
| 57>    C       10.64314        -3.59152         1.47409
| 58>    O       11.65796        -3.25018         2.23014
| 59>    C       12.89605        -3.87334         1.92599
| 60>    C        9.22810        -5.46643        -1.16253
| 61>    C        7.96699        -6.06433        -1.40878
| 62>    C        8.15472        -6.95755        -2.48560
| 63>    C        9.54050        -6.82490        -2.83470
| 64>    N       10.15224        -5.95144        -2.04021
| 65>    O       10.13587        -7.47502        -3.80474
| 66>    C       11.52370        -7.22241        -3.96621
| 67>    C        6.95069        -7.68042        -2.62816
| 68>    N        6.04456        -7.24851        -1.69877
| 69>    C        6.63181        -6.30900        -0.95748
| 70>    O        6.05553        -5.72361         0.06280
| 71>    C        4.74503        -6.15470         0.38855
| 72>    C        6.66796        -8.68701        -3.57976
| 73>    C        5.58486        -9.51212        -3.61003
| 74>    C        5.19979       -10.20796        -4.87072
| 75>    O        5.88400       -10.35664        -5.85659
| 76>    C        3.79473       -10.61339        -4.66899
| 77>    C        2.93422       -11.19663        -5.55447
| 78>    C        1.61389       -11.48709        -5.14440
| 79>    C        1.20618       -11.15891        -3.81820
| 80>    C       -0.11270       -11.44827        -3.41733
| 81>    C       -0.96959       -12.03842        -4.30401
| 82>    C       -0.58774       -12.37016        -5.61126
| 83>    C        0.68814       -12.09474        -6.01754
| 84>    F       -2.22930       -12.31676        -3.92234
| 85>    C        2.11974       -10.55968        -2.92019
| 86>    C        3.39661       -10.29707        -3.33693
| 87>    C        4.54906        -9.74935        -2.62773
| 88>    C        4.69726        -9.69192        -1.26981
| 89>    C        5.93750        -9.50393        -0.61811
| 90>    N        6.91278        -9.50134        -0.01187
| 91>    C        3.65054        -9.91625        -0.35460
| 92>    N        2.82711       -10.04448         0.43563
| 93>    H       14.18259        -4.98070        12.54178
| 94>    H       15.54923        -2.03346        15.30832
| 95>    H       14.18672        -0.30032        14.16769
| 96>    H       12.61706        -4.37437        10.76053
| 97>    H       12.61661         0.34601        12.37281
| 98>    H        9.78240         0.43487         7.84894
| 99>    H       11.60416        -5.67530         4.68048
|100>    H       10.65160        -5.24927         6.12988
|101>    H       12.15875        -4.37412         5.78455
|102>    H        7.50054         2.38622         3.79491
|103>    H        6.78426         2.87529         5.36480
|104>    H        6.15358         1.45387         4.46897
|105>    H        4.80053        -2.50610         0.69354
|106>    H        4.58173        -2.63687        -1.08294
|107>    H        5.52848        -1.29169        -0.36861
|108>    H       13.21208        -3.61306         0.91397
|109>    H       12.79963        -4.95843         1.98750
|110>    H       13.61056        -3.50480         2.65892
|111>    H       12.06364        -7.48933        -3.05641
|112>    H       11.69371        -6.16438        -4.17231
|113>    H       11.84794        -7.83670        -4.80310
|114>    H        4.38647        -5.48047         1.16331
|115>    H        4.76748        -7.17947         0.76645
|116>    H        4.09826        -6.11615        -0.48983
|117>    H        7.35330        -8.75566        -4.41745
|118>    H        3.25760       -11.43628        -6.55640
|119>    H       -0.43989       -11.21006        -2.41729
|120>    H       -1.30743       -12.83492        -6.26629
|121>    H        1.00562       -12.34148        -7.01948
|122>    H        1.78509       -10.31755        -1.92380
|123> *
|124>
|125>                          ****END OF INPUT****

CARTESIAN COORDINATES (ANGSTROEM)
---------------------------------
  C     14.176380   -3.957370   12.883290
  C     14.922050   -3.584510   13.966650
  F     15.670200   -4.503530   14.603590
  C     14.941660   -2.268520   14.448890
  C     14.188200   -1.320530   13.814550
  C     13.400050   -1.649560   12.692440
  C     13.392670   -2.994200   12.218480
  C     12.601670   -3.351280   11.101790
  C     11.846200   -2.394080   10.480520
  C     11.869000   -1.047680   10.949270
  C     12.619520   -0.677270   12.028220
  C     10.998420   -0.215730   10.095350
  O     10.739600    0.959270   10.215730
  C     10.548890   -1.124650    9.002830
  C     10.910060   -2.478710    9.363570
  C     10.315410   -3.620760    8.903890
  C      9.163510   -3.635140    8.084580
  N      8.155200   -3.738760    7.544930
  C     10.714990   -4.918940    9.276040
  N     11.027180   -5.998590    9.512510
  C     10.054780   -0.614820    7.840620
  C      9.948610   -1.272210    6.593650
  C      9.278380   -0.806520    5.441870
  C      9.443120   -1.795440    4.448140
  C     10.220590   -2.819510    5.075240
  N     10.524190   -2.484660    6.329430
  O     10.572130   -3.953210    4.521260
  C     11.293130   -4.863410    5.334290
  C      8.628730   -1.402420    3.356710
  N      7.998430   -0.228110    3.645750
  C      8.372520    0.145810    4.865680
  O      7.958980    1.241050    5.455380
  C      7.040730    2.036940    4.721050
  C      8.423980   -2.133660    2.166010
  C      9.313950   -3.071260    1.575380
  C      8.612820   -3.662250    0.504400
  C      7.355440   -2.980580    0.468120
  N      7.267510   -2.084630    1.453530
  O      6.413010   -3.160820   -0.425000
  C      5.259710   -2.346310   -0.283290
  C      9.523380   -4.551620   -0.127730
  N     10.743080   -4.458930    0.464120
  C     10.643140   -3.591520    1.474090
  O     11.657960   -3.250180    2.230140
  C     12.896050   -3.873340    1.925990
  C      9.228100   -5.466430   -1.162530
  C      7.966990   -6.064330   -1.408780
  C      8.154720   -6.957550   -2.485600
  C      9.540500   -6.824900   -2.834700
  N     10.152240   -5.951440   -2.040210
  O     10.135870   -7.475020   -3.804740
  C     11.523700   -7.222410   -3.966210
  C      6.950690   -7.680420   -2.628160
  N      6.044560   -7.248510   -1.698770
  C      6.631810   -6.309000   -0.957480
  O      6.055530   -5.723610    0.062800
  C      4.745030   -6.154700    0.388550
  C      6.667960   -8.687010   -3.579760
  C      5.584860   -9.512120   -3.610030
  C      5.199790  -10.207960   -4.870720
  O      5.884000  -10.356640   -5.856590
  C      3.794730  -10.613390   -4.668990
  C      2.934220  -11.196630   -5.554470
  C      1.613890  -11.487090   -5.144400
  C      1.206180  -11.158910   -3.818200
  C     -0.112700  -11.448270   -3.417330
  C     -0.969590  -12.038420   -4.304010
  C     -0.587740  -12.370160   -5.611260
  C      0.688140  -12.094740   -6.017540
  F     -2.229300  -12.316760   -3.922340
  C      2.119740  -10.559680   -2.920190
  C      3.396610  -10.297070   -3.336930
  C      4.549060   -9.749350   -2.627730
  C      4.697260   -9.691920   -1.269810
  C      5.937500   -9.503930   -0.618110
  N      6.912780   -9.501340   -0.011870
  C      3.650540   -9.916250   -0.354600
  N      2.827110  -10.044480    0.435630
  H     14.182590   -4.980700   12.541780
  H     15.549230   -2.033460   15.308320
  H     14.186720   -0.300320   14.167690
  H     12.617060   -4.374370   10.760530
  H     12.616610    0.346010   12.372810
  H      9.782400    0.434870    7.848940
  H     11.604160   -5.675300    4.680480
  H     10.651600   -5.249270    6.129880
  H     12.158750   -4.374120    5.784550
  H      7.500540    2.386220    3.794910
  H      6.784260    2.875290    5.364800
  H      6.153580    1.453870    4.468970
  H      4.800530   -2.506100    0.693540
  H      4.581730   -2.636870   -1.082940
  H      5.528480   -1.291690   -0.368610
  H     13.212080   -3.613060    0.913970
  H     12.799630   -4.958430    1.987500
  H     13.610560   -3.504800    2.658920
  H     12.063640   -7.489330   -3.056410
  H     11.693710   -6.164380   -4.172310
  H     11.847940   -7.836700   -4.803100
  H      4.386470   -5.480470    1.163310
  H      4.767480   -7.179470    0.766450
  H      4.098260   -6.116150   -0.489830
  H      7.353300   -8.755660   -4.417450
  H      3.257600  -11.436280   -6.556400
  H     -0.439890  -11.210060   -2.417290
  H     -1.307430  -12.834920   -6.266290
  H      1.005620  -12.341480   -7.019480
  H      1.785090  -10.317550   -1.923800

 Total Charge           Charge          ....    0
 Multiplicity           Mult            ....    1
 Number of Electrons    NEL             ....  530
 Basis Dimension        Dim             .... 1242

ORBITAL ENERGIES
----------------

  NO   OCC          E(Eh)            E(eV)
   0   2.0000     -24.785170      -674.4388
   1   2.0000     -24.785090      -674.4366
   2   2.0000     -19.277265      -524.5611
   3   2.0000     -19.277253      -524.5607
   4   2.0000     -19.274846      -524.4952
   5   2.0000     -19.274751      -524.4926
   6   2.0000     -19.272893      -524.4421
   7   2.0000     -19.272834      -524.4405
   8   2.0000     -19.215645      -522.8843
   9   2.0000     -19.215604      -522.8832
  10   2.0000     -14.417476      -392.3195
  11   2.0000     -14.417464      -392.3191
  12   2.0000     -14.404161      -391.9572
  13   2.0000     -14.404021      -391.9533
  14   2.0000     -14.387248      -391.4969
  15   2.0000     -14.387135      -391.4939
  16   2.0000     -14.386191      -391.4682
  17   2.0000     -14.386150      -391.4670
  18   2.0000     -14.383650      -391.3990
  19   2.0000     -14.383596      -391.3976
  20   2.0000     -10.381078      -282.4835
  21   2.0000     -10.380929      -282.4794
  22   2.0000     -10.379107      -282.4299
  23   2.0000     -10.379050      -282.4283
  24   2.0000     -10.376108      -282.3482
  25   2.0000     -10.375818      -282.3404
  26   2.0000     -10.368900      -282.1521
  27   2.0000     -10.368816      -282.1498
  28   2.0000     -10.366229      -282.0794
  29   2.0000     -10.366206      -282.0788
  30   2.0000     -10.341972      -281.4194
  31   2.0000     -10.341897      -281.4173
  32   2.0000     -10.334536      -281.2170
  33   2.0000     -10.334451      -281.2147
  34   2.0000     -10.331620      -281.1377
  35   2.0000     -10.331514      -281.1348
  36   2.0000     -10.330914      -281.1185
  37   2.0000     -10.330898      -281.1180
  38   2.0000     -10.327360      -281.0218
  39   2.0000     -10.327314      -281.0205
  40   2.0000     -10.324011      -280.9306
  41   2.0000     -10.323964      -280.9293
  42   2.0000     -10.323709      -280.9224
  43   2.0000     -10.323681      -280.9216
  44   2.0000     -10.322925      -280.9011
  45   2.0000     -10.322811      -280.8980
  46   2.0000     -10.318891      -280.7913
  47   2.0000     -10.318868      -280.7907
  48   2.0000     -10.310312      -280.5579
  49   2.0000     -10.310171      -280.5540
  50   2.0000     -10.309656      -280.5400
  51   2.0000     -10.309561      -280.5374
  52   2.0000     -10.305339      -280.4225
  53   2.0000     -10.305307      -280.4217
  54   2.0000     -10.304890      -280.4103
  55   2.0000     -10.304879      -280.4100
  56   2.0000     -10.303972      -280.3853
  57   2.0000     -10.303946      -280.3846
  58   2.0000     -10.300135      -280.2809
  59   2.0000     -10.300108      -280.2802
  60   2.0000     -10.299511      -280.2639
  61   2.0000     -10.299481      -280.2631
  62   2.0000     -10.297030      -280.1964
  63   2.0000     -10.296996      -280.1955
  64   2.0000     -10.295855      -280.1645
  65   2.0000     -10.295793      -280.1628
  66   2.0000     -10.293520      -280.1009
  67   2.0000     -10.293473      -280.0997
  68   2.0000     -10.289345      -279.9873
  69   2.0000     -10.289340      -279.9872
  70   2.0000     -10.287903      -279.9481
  71   2.0000     -10.287886      -279.9476
  72   2.0000     -10.263565      -279.2858
  73   2.0000     -10.263526      -279.2847
  74   2.0000     -10.261313      -279.2245
  75   2.0000     -10.261104      -279.2188
  76   2.0000     -10.259283      -279.1693
  77   2.0000     -10.258923      -279.1595
  78   2.0000      -1.300060       -35.3764
  79   2.0000      -1.299993       -35.3746
  80   2.0000      -1.190669       -32.3997
  81   2.0000      -1.190386       -32.3921
  82   2.0000      -1.189701       -32.3734
  83   2.0000      -1.189614       -32.3710
  84   2.0000      -1.184396       -32.2291
  85   2.0000      -1.183787       -32.2125
  86   2.0000      -1.130198       -30.7543
  87   2.0000      -1.130173       -30.7536
  88   2.0000      -1.063283       -28.9334
  89   2.0000      -1.059858       -28.8402
  90   2.0000      -1.051430       -28.6109
  91   2.0000      -1.035809       -28.1858
  92   2.0000      -1.028783       -27.9946
  93   2.0000      -1.019152       -27.7325
  94   2.0000      -1.014522       -27.6065
  95   2.0000      -1.014157       -27.5966
  96   2.0000      -0.999308       -27.1926
  97   2.0000      -0.999274       -27.1916
  98   2.0000      -0.987721       -26.8773
  99   2.0000      -0.987665       -26.8757
 100   2.0000      -0.974466       -26.5166
 101   2.0000      -0.974428       -26.5155
 102   2.0000      -0.926227       -25.2039
 103   2.0000      -0.926177       -25.2026
 104   2.0000      -0.901946       -24.5432
 105   2.0000      -0.901889       -24.5417
 106   2.0000      -0.886386       -24.1198
 107   2.0000      -0.886278       -24.1169
 108   2.0000      -0.878299       -23.8997
 109   2.0000      -0.877154       -23.8686
 110   2.0000      -0.868832       -23.6421
 111   2.0000      -0.860847       -23.4249
 112   2.0000      -0.857002       -23.3202
 113   2.0000      -0.856510       -23.3068
 114   2.0000      -0.848881       -23.0992
 115   2.0000      -0.838074       -22.8051
 116   2.0000      -0.834463       -22.7069
 117   2.0000      -0.833057       -22.6686
 118   2.0000      -0.830639       -22.6028
 119   2.0000      -0.825827       -22.4719
 120   2.0000      -0.820908       -22.3380
 121   2.0000      -0.807861       -21.9830
 122   2.0000      -0.807489       -21.9729
 123   2.0000      -0.803774       -21.8718
 124   2.0000      -0.802910       -21.8483
 125   2.0000      -0.765886       -20.8408
 126   2.0000      -0.765705       -20.8359
 127   2.0000      -0.753199       -20.4956
 128   2.0000      -0.752293       -20.4709
 129   2.0000      -0.731098       -19.8942
 130   2.0000      -0.721802       -19.6412
 131   2.0000      -0.719437       -19.5769
 132   2.0000      -0.710679       -19.3386
 133   2.0000      -0.708131       -19.2692
 134   2.0000      -0.707697       -19.2574
 135   2.0000      -0.691858       -18.8264
 136   2.0000      -0.689718       -18.7682
 137   2.0000      -0.684229       -18.6188
 138   2.0000      -0.682214       -18.5640
 139   2.0000      -0.680711       -18.5231
 140   2.0000      -0.676672       -18.4132
 141   2.0000      -0.675444       -18.3798
 142   2.0000      -0.668426       -18.1888
 143   2.0000      -0.661630       -18.0039
 144   2.0000      -0.657451       -17.8901
 145   2.0000      -0.655711       -17.8428
 146   2.0000      -0.646726       -17.5983
 147   2.0000      -0.646057       -17.5801
 148   2.0000      -0.638895       -17.3852
 149   2.0000      -0.633412       -17.2360
 150   2.0000      -0.633033       -17.2257
 151   2.0000      -0.627902       -17.0861
 152   2.0000      -0.627870       -17.0852
 153   2.0000      -0.613983       -16.7073
 154   2.0000      -0.613651       -16.6983
 155   2.0000      -0.611078       -16.6283
 156   2.0000      -0.603611       -16.4251
 157   2.0000      -0.598905       -16.2970
 158   2.0000      -0.591929       -16.1072
 159   2.0000      -0.590919       -16.0797
 160   2.0000      -0.585785       -15.9400
 161   2.0000      -0.580451       -15.7949
 162   2.0000      -0.578462       -15.7407
 163   2.0000      -0.577164       -15.7054
 164   2.0000      -0.575342       -15.6559
 165   2.0000      -0.572374       -15.5751
 166   2.0000      -0.570637       -15.5278
 167   2.0000      -0.569748       -15.5036
 168   2.0000      -0.563456       -15.3324
 169   2.0000      -0.563282       -15.3277
 170   2.0000      -0.562948       -15.3186
 171   2.0000      -0.561500       -15.2792
 172   2.0000      -0.557588       -15.1728
 173   2.0000      -0.557543       -15.1715
 174   2.0000      -0.554706       -15.0943
 175   2.0000      -0.554239       -15.0816
 176   2.0000      -0.551212       -14.9992
 177   2.0000      -0.549474       -14.9520
 178   2.0000      -0.545431       -14.8419
 179   2.0000      -0.545295       -14.8382
 180   2.0000      -0.532795       -14.4981
 181   2.0000      -0.532754       -14.4970
 182   2.0000      -0.528393       -14.3783
 183   2.0000      -0.528376       -14.3778
 184   2.0000      -0.522660       -14.2223
 185   2.0000      -0.522599       -14.2206
 186   2.0000      -0.519250       -14.1295
 187   2.0000      -0.518312       -14.1040
 188   2.0000      -0.517157       -14.0726
 189   2.0000      -0.516093       -14.0436
 190   2.0000      -0.514616       -14.0034
 191   2.0000      -0.514179       -13.9915
 192   2.0000      -0.511154       -13.9092
 193   2.0000      -0.505282       -13.7494
 194   2.0000      -0.502155       -13.6643
 195   2.0000      -0.500777       -13.6268
 196   2.0000      -0.496485       -13.5101
 197   2.0000      -0.496250       -13.5036
 198   2.0000      -0.493303       -13.4235
 199   2.0000      -0.492052       -13.3894
 200   2.0000      -0.487708       -13.2712
 201   2.0000      -0.483370       -13.1532
 202   2.0000      -0.483004       -13.1432
 203   2.0000      -0.480540       -13.0762
 204   2.0000      -0.479540       -13.0489
 205   2.0000      -0.469218       -12.7681
 206   2.0000      -0.465859       -12.6767
 207   2.0000      -0.465707       -12.6725
 208   2.0000      -0.463824       -12.6213
 209   2.0000      -0.458310       -12.4713
 210   2.0000      -0.456043       -12.4095
 211   2.0000      -0.455974       -12.4077
 212   2.0000      -0.452985       -12.3264
 213   2.0000      -0.448816       -12.2129
 214   2.0000      -0.448255       -12.1976
 215   2.0000      -0.447322       -12.1723
 216   2.0000      -0.447289       -12.1714
 217   2.0000      -0.442742       -12.0476
 218   2.0000      -0.442556       -12.0426
 219   2.0000      -0.439081       -11.9480
 220   2.0000      -0.438652       -11.9363
 221   2.0000      -0.437824       -11.9138
 222   2.0000      -0.435136       -11.8406
 223   2.0000      -0.435064       -11.8387
 224   2.0000      -0.432323       -11.7641
 225   2.0000      -0.431469       -11.7409
 226   2.0000      -0.429048       -11.6750
 227   2.0000      -0.427326       -11.6281
 228   2.0000      -0.426205       -11.5976
 229   2.0000      -0.425353       -11.5744
 230   2.0000      -0.423577       -11.5261
 231   2.0000      -0.421384       -11.4665
 232   2.0000      -0.421009       -11.4562
 233   2.0000      -0.420225       -11.4349
 234   2.0000      -0.416903       -11.3445
 235   2.0000      -0.416859       -11.3433
 236   2.0000      -0.410000       -11.1567
 237   2.0000      -0.404413       -11.0046
 238   2.0000      -0.403234       -10.9726
 239   2.0000      -0.396454       -10.7881
 240   2.0000      -0.385380       -10.4867
 241   2.0000      -0.382263       -10.4019
 242   2.0000      -0.380032       -10.3412
 243   2.0000      -0.374782       -10.1983
 244   2.0000      -0.374470       -10.1898
 245   2.0000      -0.372872       -10.1464
 246   2.0000      -0.371259       -10.1025
 247   2.0000      -0.367290        -9.9945
 248   2.0000      -0.345590        -9.4040
 249   2.0000      -0.344897        -9.3851
 250   2.0000      -0.336084        -9.1453
 251   2.0000      -0.335824        -9.1382
 252   2.0000      -0.330614        -8.9965
 253   2.0000      -0.328826        -8.9478
 254   2.0000      -0.324087        -8.8189
 255   2.0000      -0.309266        -8.4156
 256   2.0000      -0.309153        -8.4125
 257   2.0000      -0.296729        -8.0744
 258   2.0000      -0.296544        -8.0694
 259   2.0000      -0.294877        -8.0240
 260   2.0000      -0.293523        -7.9872
 261   2.0000      -0.290308        -7.8997
 262   2.0000      -0.290080        -7.8935
 263   2.0000      -0.275970        -7.5095
 264   2.0000      -0.249164        -6.7801
 265   0.0000      -0.135077        -3.6756
 266   0.0000      -0.106416        -2.8957
 267   0.0000      -0.076532        -2.0825
 268   0.0000      -0.061828        -1.6824
 269   0.0000      -0.051921        -1.4129

MULLIKEN ATOMIC CHARGES
-----------------------
   0 C :   -0.097822
   1 C :    0.304709
   2 F :   -0.190342
   3 C :   -0.032746
   4 C :   -0.007398
   5 C :    0.098286
   6 C :    0.103390
   7 C :   -0.090882
   8 C :    0.051224
   9 C :   -0.001487
  10 C :   -0.075701
  11 C :    0.140193
  12 O :   -0.134093
  13 C :   -0.088576
  14 C :    0.274038
  15 C :   -0.273894
  16 C :   -0.198064
  17 N :    0.160995
  18 C :   -0.193870
  19 N :    0.152736
  20 C :    0.011665
  21 C :    0.020344
  22 C :    0.028362
  23 C :    0.021494
  24 C :    0.104550
  25 N :   -0.221736
  26 O :   -0.235654
  27 C :    0.189285
  28 C :    0.030430
  29 N :   -0.149528
  30 C :    0.104862
  31 O :   -0.242394
  32 C :    0.199202
  33 C :   -0.000261
  34 C :    0.015267
  35 C :    0.012527
  36 C :    0.085323
  37 N :   -0.155466
  38 O :   -0.240465
  39 C :    0.198822
  40 C :    0.005812
  41 N :   -0.157141
  42 C :    0.088188
  43 O :   -0.240985
  44 C :    0.198356
  45 C :    0.030316
  46 C :    0.017018
  47 C :    0.028881
  48 C :    0.107918
  49 N :   -0.153172
  50 O :   -0.243124
  51 C :    0.198862
  52 C :    0.017758
  53 N :   -0.223311
  54 C :    0.109751
  55 O :   -0.236578
  56 C :    0.188296
  57 C :    0.012155
  58 C :   -0.085260
  59 C :    0.137090
  60 O :   -0.134566
  61 C :    0.001730
  62 C :   -0.078233
  63 C :    0.101020
  64 C :    0.105292
  65 C :   -0.098502
  66 C :    0.302184
  67 C :   -0.029917
  68 C :   -0.008853
  69 F :   -0.189999
  70 C :   -0.092863
  71 C :    0.053396
  72 C :    0.274280
  73 C :   -0.272319
  74 C :   -0.199008
  75 N :    0.157102
  76 C :   -0.191590
  77 N :    0.152140
  78 H :   -0.002750
  79 H :    0.003286
  80 H :   -0.009061
  81 H :   -0.006305
  82 H :   -0.011294
  83 H :    0.016857
  84 H :    0.038554
  85 H :    0.045536
  86 H :    0.035043
  87 H :    0.036568
  88 H :    0.038215
  89 H :    0.041678
  90 H :    0.035972
  91 H :    0.033862
  92 H :    0.038326
  93 H :    0.037660
  94 H :    0.037371
  95 H :    0.033404
  96 H :    0.040496
  97 H :    0.037867
  98 H :    0.038174
  99 H :    0.039750
 100 H :    0.045354
 101 H :    0.035499
 102 H :    0.018232
 103 H :   -0.011912
 104 H :   -0.002930
 105 H :    0.003990
 106 H :   -0.009671
 107 H :   -0.007217
Sum of atomic charges:   -0.0000000

LOEWDIN ATOMIC CHARGES
----------------------
   0 C :   -0.043227
   1 C :    0.093877
   2 F :   -0.064773
   3 C :   -0.037978
   4 C :    0.005210
   5 C :   -0.019789
   6 C :    0.004908
   7 C :    0.006719
   8 C :   -0.013349
   9 C :   -0.061368
  10 C :    0.035862
  11 C :    0.082013
  12 O :   -0.136433
  13 C :   -0.047558
  14 C :    0.064244
  15 C :   -0.105401
  16 C :   -0.022027
  17 N :   -0.054527
  18 C :   -0.017519
  19 N :   -0.051893
  20 C :    0.050558
  21 C :    0.055949
  22 C :   -0.107014
  23 C :   -0.111402
  24 C :    0.114994
  25 N :   -0.177361
  26 O :   -0.024725
  27 C :    0.087086
  28 C :    0.071273
  29 N :   -0.165396
  30 C :    0.106852
  31 O :   -0.042292
  32 C :    0.089197
  33 C :    0.061772
  34 C :   -0.114199
  35 C :   -0.114111
  36 C :    0.105009
  37 N :   -0.164087
  38 O :   -0.032953
  39 C :    0.085926
  40 C :    0.062088
  41 N :   -0.164565
  42 C :    0.105597
  43 O :   -0.032782
  44 C :    0.085835
  45 C :    0.071607
  46 C :   -0.111540
  47 C :   -0.106987
  48 C :    0.107363
  49 N :   -0.165906
  50 O :   -0.042335
  51 C :    0.089207
  52 C :    0.056116
  53 N :   -0.177787
  54 C :    0.115267
  55 O :   -0.025111
  56 C :    0.086872
  57 C :    0.050757
  58 C :   -0.047556
  59 C :    0.081886
  60 O :   -0.136582
  61 C :   -0.061333
  62 C :    0.035945
  63 C :   -0.019735
  64 C :    0.004986
  65 C :   -0.043166
  66 C :    0.093747
  67 C :   -0.038059
  68 C :    0.005364
  69 F :   -0.064733
  70 C :    0.006743
  71 C :   -0.013384
  72 C :    0.064368
  73 C :   -0.105375
  74 C :   -0.021824
  75 N :   -0.054590
  76 C :   -0.017574
  77 N :   -0.051802
  78 H :    0.042951
  79 H :    0.041788
  80 H :    0.035741
  81 H :    0.038557
  82 H :    0.039781
  83 H :    0.051856
  84 H :    0.027669
  85 H :    0.029138
  86 H :    0.024291
  87 H :    0.027241
  88 H :    0.026882
  89 H :    0.029169
  90 H :    0.025806
  91 H :    0.024469
  92 H :    0.028039
  93 H :    0.027951
  94 H :    0.025986
  95 H :    0.024327
  96 H :    0.029061
  97 H :    0.027437
  98 H :    0.026844
  99 H :    0.027902
 100 H :    0.029154
 101 H :    0.024350
 102 H :    0.051994
 103 H :    0.039637
 104 H :    0.042896
 105 H :    0.041902
 106 H :    0.035649
 107 H :    0.038446

  Mayer bond orders larger than 0.100000
B(  0-C ,  1-C ) :   1.4408 B(  0-C ,  6-C ) :   1.2024 B(  0-C , 78-H ) :   1.0065
B(  1-C ,  2-F ) :   1.0885 B(  1-C ,  3-C ) :   1.2539 B(  3-C ,  4-C ) :   1.4613
B(  3-C , 79-H ) :   0.9936 B(  4-C ,  5-C ) :   1.2328 B(  4-C , 80-H ) :   0.9972
B(  5-C ,  6-C ) :   1.2537 B(  5-C , 10-C ) :   1.1970 B(  6-C ,  7-C ) :   1.2033
B(  7-C ,  8-C ) :   1.4625 B(  7-C , 81-H ) :   0.9937 B(  8-C ,  9-C ) :   1.2146
B(  8-C , 14-C ) :   1.0016 B(  9-C , 10-C ) :   1.4682 B(  9-C , 11-C ) :   0.9197
B( 10-C , 82-H ) :   1.0148 B( 11-C , 12-O ) :   2.2836 B( 11-C , 13-C ) :   0.9262
B( 13-C , 14-C ) :   1.0307 B( 13-C , 20-C ) :   1.6199 B( 14-C , 15-C ) :   1.6864
B( 15-C , 16-C ) :   1.1432 B( 15-C , 18-C ) :   1.1542 B( 16-C , 17-N ) :   2.9721
B( 18-C , 19-N ) :   2.9657 B( 20-C , 21-C ) :   1.1259 B( 20-C , 83-H ) :   0.9546
B( 21-C , 22-C ) :   1.2181 B( 21-C , 25-N ) :   1.3464 B( 22-C , 23-C ) :   1.2799
B( 22-C , 30-C ) :   1.0500 B( 23-C , 24-C ) :   1.0673 B( 23-C , 28-C ) :   1.2314
B( 24-C , 25-N ) :   1.4429 B( 24-C , 26-O ) :   1.3249 B( 26-O , 27-C ) :   0.9096
B( 27-C , 84-H ) :   0.9772 B( 27-C , 85-H ) :   0.9755 B( 27-C , 86-H ) :   0.9676
B( 28-C , 29-N ) :   1.4439 B( 28-C , 33-C ) :   1.0767 B( 29-N , 30-C ) :   1.4737
B( 30-C , 31-O ) :   1.3315 B( 31-O , 32-C ) :   0.9067 B( 32-C , 87-H ) :   0.9735
B( 32-C , 88-H ) :   0.9792 B( 32-C , 89-H ) :   0.9719 B( 33-C , 34-C ) :   1.1851
B( 33-C , 37-N ) :   1.4785 B( 34-C , 35-C ) :   1.2890 B( 34-C , 42-C ) :   1.0801
B( 35-C , 36-C ) :   1.0807 B( 35-C , 40-C ) :   1.1865 B( 36-C , 37-N ) :   1.4426
B( 36-C , 38-O ) :   1.3125 B( 38-O , 39-C ) :   0.9116 B( 39-C , 90-H ) :   0.9706
B( 39-C , 91-H ) :   0.9782 B( 39-C , 92-H ) :   0.9722 B( 40-C , 41-N ) :   1.4779
B( 40-C , 45-C ) :   1.0755 B( 41-N , 42-C ) :   1.4408 B( 42-C , 43-O ) :   1.3116
B( 43-O , 44-C ) :   0.9126 B( 44-C , 93-H ) :   0.9726 B( 44-C , 94-H ) :   0.9699
B( 44-C , 95-H ) :   0.9781 B( 45-C , 46-C ) :   1.2335 B( 45-C , 49-N ) :   1.4417
B( 46-C , 47-C ) :   1.2787 B( 46-C , 54-C ) :   1.0692 B( 47-C , 48-C ) :   1.0500
B( 47-C , 52-C ) :   1.2181 B( 48-C , 49-N ) :   1.4734 B( 48-C , 50-O ) :   1.3304
B( 50-O , 51-C ) :   0.9067 B( 51-C , 96-H ) :   0.9732 B( 51-C , 97-H ) :   0.9726
B( 51-C , 98-H ) :   0.9791 B( 52-C , 53-N ) :   1.3451 B( 52-C , 57-C ) :   1.1258
B( 53-N , 54-C ) :   1.4436 B( 54-C , 55-O ) :   1.3229 B( 55-O , 56-C ) :   0.9086
B( 56-C , 99-H ) :   0.9772 B( 56-C ,100-H ) :   0.9756 B( 56-C ,101-H ) :   0.9677
B( 57-C , 58-C ) :   1.6186 B( 57-C ,102-H ) :   0.9554 B( 58-C , 59-C ) :   0.9252
B( 58-C , 72-C ) :   1.0308 B( 59-C , 60-O ) :   2.2832 B( 59-C , 61-C ) :   0.9214
B( 61-C , 62-C ) :   1.4674 B( 61-C , 71-C ) :   1.2164 B( 62-C , 63-C ) :   1.1965
B( 62-C ,103-H ) :   1.0146 B( 63-C , 64-C ) :   1.2569 B( 63-C , 68-C ) :   1.2317
B( 64-C , 65-C ) :   1.2014 B( 64-C , 70-C ) :   1.2035 B( 65-C , 66-C ) :   1.4416
B( 65-C ,104-H ) :   1.0065 B( 66-C , 67-C ) :   1.2552 B( 66-C , 69-F ) :   1.0891
B( 67-C , 68-C ) :   1.4639 B( 67-C ,105-H ) :   0.9914 B( 68-C ,106-H ) :   0.9966
B( 70-C , 71-C ) :   1.4607 B( 70-C ,107-H ) :   0.9936 B( 71-C , 72-C ) :   1.0013
B( 72-C , 73-C ) :   1.6839 B( 73-C , 74-C ) :   1.1428 B( 73-C , 76-C ) :   1.1540
B( 74-C , 75-N ) :   2.9705 B( 76-C , 77-N ) :   2.9639

-----------------------------------------------------------------------------
         ABSORPTION SPECTRUM VIA TRANSITION ELECTRIC DIPOLE MOMENTS
-----------------------------------------------------------------------------
State   Energy  Wavelength   fosc         T2         TX        TY        TZ
        (cm-1)    (nm)                  (au**2)     (au)      (au)      (au)
-----------------------------------------------------------------------------
   0   10048.0    995.2   0.796915760  26.11002  -1.89840  -2.53363  -4.01084
   1   12794.4    781.6   0.003923654   0.10096   0.10969   0.23488  -0.18374
   2   13387.7    747.0   0.001061123   0.02609   0.15769  -0.03425  -0.00738
   3   13527.0    739.3   0.013919242   0.33876  -0.18382  -0.41895   0.35979
   4   16120.1    620.3   0.318728240   6.50921  -0.82037  -1.84075   1.56456
   5   16768.3    596.4   0.084472894   1.65846   0.40786   0.93092  -0.79089
   6   17731.4    564.0   0.177394208   3.29361  -1.71745   0.50157  -0.30395
   7   19349.0    516.8   0.003143274   0.05348  -0.04335  -0.12855  -0.18729
   8   19526.4    512.1   0.000071048   0.00120   0.00499   0.02518  -0.02321
   9   20453.8    488.9   0.018808931   0.30274  -0.52169   0.12572  -0.12152
  10   21796.4    458.8   0.126537739   1.91122   1.14955  -0.72305  -0.25877
  11   22644.1    441.6   0.003507448   0.05099   0.07130   0.17848  -0.11855
  12   22690.6    440.7   0.002519221   0.03655  -0.01650  -0.10006  -0.16207
  13   23389.1    427.5   0.001474692   0.02076   0.07816   0.05903   0.10566
  14   24394.5    409.9   0.012713128   0.17157   0.25357   0.23904   0.22389
  15   24402.7    409.8   0.019483021   0.26284  -0.24313  -0.13075  -0.43201
  16   24601.7    406.5   0.006953310   0.09305   0.17413   0.12058   0.21951
  17   24666.7    405.4   0.000304635   0.00407   0.02949  -0.02081   0.05257
  18   25130.6    397.9   0.007901095   0.10350  -0.09324  -0.23429   0.19980
  19   25816.0    387.4   0.048112407   0.61354  -0.14435   0.52945   0.55892
  20   26033.3    384.1   0.000647524   0.00819   0.01973  -0.04270   0.07730
  21   26043.7    384.0   0.023120409   0.29226  -0.35265  -0.17179  -0.37200
  22   26641.0    375.4   0.001730254   0.02138   0.05274   0.10233  -0.09016
  23   28570.6    350.0   0.010034970   0.11563   0.07313  -0.24680   0.22220
  24   28579.7    349.9   0.046982351   0.54119   0.71542  -0.13842   0.10102
  25   28741.2    347.9   0.010608958   0.12152  -0.07886  -0.25016   0.22961
  26   28946.3    345.5   0.111983290   1.27361   0.78206   0.27343   0.76630
  27   29159.9    342.9   0.064260927   0.72550  -0.35679  -0.62973   0.44904
  28   29524.0    338.7   0.031661261   0.35304  -0.48392  -0.30679  -0.15730
  29   29541.6    338.5   0.658137455   7.33429  -1.98800  -0.49835  -1.77025
  30   29977.7    333.6   0.207327443   2.27685  -1.07626  -0.52791  -0.91642
  31   30012.5    333.2   0.047605510   0.52219  -0.32685   0.05163  -0.64242
  32   30257.9    330.5   0.015452354   0.16812  -0.12097  -0.29420   0.25872
  33   30364.3    329.3   0.004125727   0.04473   0.03836   0.14616  -0.14797
  34   31007.2    322.5   0.006031699   0.06404   0.06644   0.23329  -0.07211
  35   31041.6    322.1   0.025755297   0.27315   0.00211   0.30045   0.42764
  36   31368.9    318.8   0.349981051   3.67300  -1.45559  -0.39717  -1.18174
  37   31555.0    316.9   0.071424188   0.74517   0.24480   0.62276  -0.54535
  38   31681.4    315.6   0.061030560   0.63419  -0.24273  -0.57428   0.49545
  39   32031.9    312.2   0.025628372   0.26340   0.48423  -0.09641   0.14009
  40   32491.5    307.8   0.098820823   1.00128   0.00592  -0.64496  -0.76503
  41   32790.7    305.0   0.005419287   0.05441  -0.10356  -0.15250   0.14292
  42   32990.2    303.1   0.229093168   2.28614  -1.43412   0.37950  -0.29224
  43   34173.7    292.6   0.000681670   0.00657   0.04629   0.03115   0.05876
  44   34334.9    291.2   0.490506107   4.70310  -0.97161  -0.98626  -1.66924
  45   34639.6    288.7   0.242161292   2.30148   0.83467   0.58190   1.12525
  46   34952.0    286.1   0.000757439   0.00713  -0.00333   0.05436   0.06456
  47   34970.8    286.0   0.086922516   0.81828   0.22226   0.50566   0.71637
  48   35238.0    283.8   0.003032153   0.02833  -0.08993  -0.08497   0.11411
  49   35276.4    283.5   0.090496757   0.84455   0.87517  -0.23281   0.15627
  50   35352.3    282.9   0.017446283   0.16247   0.09024   0.31960  -0.22843
  51   35481.2    281.8   0.051997009   0.48245   0.06954   0.41446   0.55303
  52   35964.7    278.1   0.001391872   0.01274  -0.04511  -0.09660   0.03708
  53   36265.6    275.7   0.341624821   3.10120   0.65307   0.87681   1.38054
  54   36473.1    274.2   0.168891927   1.52445  -0.38481  -0.65453  -0.97363
  55   36692.5    272.5   0.001536263   0.01378   0.10146  -0.00168   0.05904
  56   36887.5    271.1   0.016040824   0.14316  -0.18777  -0.24210   0.22201
  57   36979.8    270.4   0.118227618   1.05252  -0.93595   0.09634  -0.40894
  58   37128.5    269.3   0.003836995   0.03402   0.06110   0.14037  -0.10289
  59   37313.5    268.0   0.000072248   0.00064   0.00786   0.02296  -0.00695
  60   37620.5    265.8   0.022639710   0.19812  -0.40860   0.03925  -0.17212
  61   37635.7    265.7   0.006032284   0.05277   0.09800   0.17919  -0.10514
  62   37659.1    265.5   0.002124576   0.01857  -0.13121  -0.02778  -0.02420
  63   37769.0    264.8   0.032706234   0.28508  -0.15461  -0.37340   0.34892
  64   38078.2    262.6   0.319368238   2.76116  -0.11516  -1.02748  -1.30084
  65   38106.8    262.4   0.003988644   0.03446  -0.06054  -0.17547   0.00189
  66   38457.2    260.0   0.200342706   1.71503   0.92294   0.36194   0.85570
  67   38596.3    259.1   0.020112021   0.17155   0.03530   0.24899  -0.32910
  68   38816.6    257.6   0.045780078   0.38827  -0.18246  -0.45466   0.38505
  69   39066.7    256.0   0.003974473   0.03349   0.16804  -0.06559  -0.03089
  70   39562.2    252.8   0.164922590   1.37238  -0.43712  -0.59724  -0.90808
  71   39690.9    251.9   0.116913581   0.96973  -0.28031  -0.70006   0.63330
  72   40182.1    248.9   0.088109941   0.72189   0.17539  -0.57462  -0.60078
  73   40192.9    248.8   0.130630727   1.06997   0.43227   0.50913   0.78987
  74   40304.5    248.1   0.002000500   0.01634  -0.02120  -0.04543   0.11759

FINAL SINGLE POINT ENERGY     -3572.602091943465

DIPOLE MOMENT
-------------
                                X             Y             Z
Electronic contribution:     -6.97892     -15.85243      13.41969
Nuclear contribution   :      7.71045      17.56461     -14.84979
                        -----------------------------------------
Total Dipole Moment    :      0.73152       1.71218      -1.43010
                        -----------------------------------------
Magnitude (a.u.)       :      2.34774
Magnitude (Debye)      :      5.96747

Rotational constants in cm-1:     0.001630     0.000267     0.000261
Rotational constants in MHz :    48.878501     8.007342     7.834391

                             ****ORCA TERMINATED NORMALLY****
TOTAL RUN TIME: 0 days 0 hours 11 minutes 34 seconds 742 msec
