                         Program Version 4.2.0 -  RELEASE  -
|  1> # ORCA input file
|  2> # SCF done       -176.312849872850          0.000390464100
|  3> ! CAM-B3LYP def2-SVP def2/J RIJCOSX Grid4 TightSCF
|  4> %maxcore 5000
|  5> %tddft
|  6>     Mode sTDDFT
|  7>     Ethresh 5.0
|  8>     maxcore 5000
|  9> end
| 10>
| 11> %pal
| 12>   nprocs 6
| 13>   end
| 14> * xyz 0 1
| 15>    C       11.53949         2.09201         4.84414
| 16>    C       12.80547         2.60397         5.45277
| 17>    O       13.40815         3.59365         5.10671
| 18>    C       13.08824         1.68432         6.56750
| 19>    C       12.16852         0.63240         6.55433
| 20>    C       11.28903         0.77624         5.40027
| 21>    C       10.54955        -0.21432         4.81317
| 22>    C        9.95831        -0.08810         3.53673
| 23>    N        9.52580        -0.05890         2.47423
| 24>    C       10.38334        -1.50533         5.35774
| 25>    N       10.20641        -2.56167         5.76890
| 26>    C       12.21023        -0.36463         7.53765
| 27>    C       13.17750        -0.29287         8.50606
| 28>    C       14.13381         0.74615         8.53769
| 29>    C       14.09643         1.77133         7.54752
| 30>    C       15.05156         2.80741         7.58379
| 31>    C       16.00893         2.82459         8.56071
| 32>    C       16.05143         1.81699         9.53758
| 33>    C       15.13507         0.80099         9.52822
| 34>    C       10.80407         2.87602         4.02171
| 35>    C        9.44580         2.69421         3.64023
| 36>    C        8.37136         2.07880         4.44037
| 37>    N        7.20509         2.09817         3.87228
| 38>    C        7.39581         2.69067         2.65694
| 39>    C        8.79741         3.10360         2.50208
| 40>    C        8.99340         3.73911         1.22148
| 41>    S       10.41314         4.35964         0.66953
| 42>    C        7.69287         3.71186         0.60757
| 43>    C        6.73272         3.05372         1.51609
| 44>    N        5.48474         3.01700         0.96162
| 45>    C        5.59888         3.59826        -0.19051
| 46>    C        6.95625         4.07577        -0.50370
| 47>    C        7.30160         4.75765        -1.68974
| 48>    S        6.09538         5.16305        -2.87701
| 49>    C        7.27501         5.95711        -3.87423
| 50>    C        8.54001         5.88003        -3.29513
| 51>    C        8.55504         5.21572        -2.08348
| 52>    C        6.86267         6.57839        -5.07349
| 53>    C        7.68302         7.26013        -5.91939
| 54>    C        7.25472         7.89475        -7.10721
| 55>    C        8.18552         8.58601        -8.01645
| 56>    N        7.63636         9.09293        -9.07429
| 57>    C        6.30764         8.79020        -8.97428
| 58>    C        6.02846         8.04557        -7.73008
| 59>    C        4.62111         7.76049        -7.65482
| 60>    S        3.75126         7.15237        -6.39039
| 61>    C        4.08395         8.22982        -8.90840
| 62>    C        5.14030         8.92546        -9.67120
| 63>    N        4.63828         9.43985       -10.82831
| 64>    C        3.38519         9.10529       -10.84641
| 65>    C        2.95266         8.30647        -9.68737
| 66>    C        1.62900         7.81845        -9.51842
| 67>    C        1.19640         6.73803        -8.82609
| 68>    C       -0.25549         6.63045        -8.47195
| 69>    O       -1.15186         7.26628        -8.97762
| 70>    C       -0.30637         5.65301        -7.37529
| 71>    C        0.96121         5.09760        -7.18641
| 72>    C        1.87845         5.63156        -8.18761
| 73>    C        3.05018         5.04866        -8.59077
| 74>    C        3.79638         5.47501        -9.70693
| 75>    N        4.43219         5.76149       -10.61893
| 76>    C        3.64582         3.93874        -7.95592
| 77>    N        4.19925         3.06212        -7.46381
| 78>    C        1.18866         4.16763        -6.16491
| 79>    C        0.13825         3.80170        -5.36393
| 80>    C       -1.16159         4.32428        -5.54356
| 81>    C       -1.40276         5.28107        -6.57246
| 82>    C       -2.70010         5.80424        -6.74447
| 83>    C       -3.72037         5.39132        -5.93205
| 84>    C       -3.48938         4.44762        -4.91850
| 85>    C       -2.23908         3.92616        -4.72663
| 86>    H       11.49085        -1.16739         7.54058
| 87>    H       13.22179        -1.05130         9.27418
| 88>    H       15.00970         3.57652         6.82886
| 89>    H       16.74187         3.61688         8.58665
| 90>    H       16.81612         1.85061        10.29929
| 91>    H       15.16649         0.02417        10.27828
| 92>    H       11.29289         3.77267         3.65143
| 93>    H        8.48868         1.68606         5.43577
| 94>    H        4.75094         3.70608        -0.84515
| 95>    H        9.41786         6.30085        -3.75019
| 96>    H        9.43592         5.06041        -1.48594
| 97>    H        5.81000         6.50625        -5.31230
| 98>    H        8.73966         7.33767        -5.70073
| 99>    H        9.24410         8.68392        -7.84504
|100>    H        2.74728         9.38696       -11.66586
|101>    H        0.84532         8.41980        -9.97198
|102>    H        2.17255         3.76002        -6.00030
|103>    H        0.29632         3.08942        -4.56703
|104>    H       -2.86656         6.52913        -7.52559
|105>    H       -4.71467         5.79035        -6.06586
|106>    H       -4.30953         4.13605        -4.28887
|107>    H       -2.05912         3.19970        -3.94750
|108> *
|109>
|110>                          ****END OF INPUT****

CARTESIAN COORDINATES (ANGSTROEM)
---------------------------------
  C     11.539490    2.092010    4.844140
  C     12.805470    2.603970    5.452770
  O     13.408150    3.593650    5.106710
  C     13.088240    1.684320    6.567500
  C     12.168520    0.632400    6.554330
  C     11.289030    0.776240    5.400270
  C     10.549550   -0.214320    4.813170
  C      9.958310   -0.088100    3.536730
  N      9.525800   -0.058900    2.474230
  C     10.383340   -1.505330    5.357740
  N     10.206410   -2.561670    5.768900
  C     12.210230   -0.364630    7.537650
  C     13.177500   -0.292870    8.506060
  C     14.133810    0.746150    8.537690
  C     14.096430    1.771330    7.547520
  C     15.051560    2.807410    7.583790
  C     16.008930    2.824590    8.560710
  C     16.051430    1.816990    9.537580
  C     15.135070    0.800990    9.528220
  C     10.804070    2.876020    4.021710
  C      9.445800    2.694210    3.640230
  C      8.371360    2.078800    4.440370
  N      7.205090    2.098170    3.872280
  C      7.395810    2.690670    2.656940
  C      8.797410    3.103600    2.502080
  C      8.993400    3.739110    1.221480
  S     10.413140    4.359640    0.669530
  C      7.692870    3.711860    0.607570
  C      6.732720    3.053720    1.516090
  N      5.484740    3.017000    0.961620
  C      5.598880    3.598260   -0.190510
  C      6.956250    4.075770   -0.503700
  C      7.301600    4.757650   -1.689740
  S      6.095380    5.163050   -2.877010
  C      7.275010    5.957110   -3.874230
  C      8.540010    5.880030   -3.295130
  C      8.555040    5.215720   -2.083480
  C      6.862670    6.578390   -5.073490
  C      7.683020    7.260130   -5.919390
  C      7.254720    7.894750   -7.107210
  C      8.185520    8.586010   -8.016450
  N      7.636360    9.092930   -9.074290
  C      6.307640    8.790200   -8.974280
  C      6.028460    8.045570   -7.730080
  C      4.621110    7.760490   -7.654820
  S      3.751260    7.152370   -6.390390
  C      4.083950    8.229820   -8.908400
  C      5.140300    8.925460   -9.671200
  N      4.638280    9.439850  -10.828310
  C      3.385190    9.105290  -10.846410
  C      2.952660    8.306470   -9.687370
  C      1.629000    7.818450   -9.518420
  C      1.196400    6.738030   -8.826090
  C     -0.255490    6.630450   -8.471950
  O     -1.151860    7.266280   -8.977620
  C     -0.306370    5.653010   -7.375290
  C      0.961210    5.097600   -7.186410
  C      1.878450    5.631560   -8.187610
  C      3.050180    5.048660   -8.590770
  C      3.796380    5.475010   -9.706930
  N      4.432190    5.761490  -10.618930
  C      3.645820    3.938740   -7.955920
  N      4.199250    3.062120   -7.463810
  C      1.188660    4.167630   -6.164910
  C      0.138250    3.801700   -5.363930
  C     -1.161590    4.324280   -5.543560
  C     -1.402760    5.281070   -6.572460
  C     -2.700100    5.804240   -6.744470
  C     -3.720370    5.391320   -5.932050
  C     -3.489380    4.447620   -4.918500
  C     -2.239080    3.926160   -4.726630
  H     11.490850   -1.167390    7.540580
  H     13.221790   -1.051300    9.274180
  H     15.009700    3.576520    6.828860
  H     16.741870    3.616880    8.586650
  H     16.816120    1.850610   10.299290
  H     15.166490    0.024170   10.278280
  H     11.292890    3.772670    3.651430
  H      8.488680    1.686060    5.435770
  H      4.750940    3.706080   -0.845150
  H      9.417860    6.300850   -3.750190
  H      9.435920    5.060410   -1.485940
  H      5.810000    6.506250   -5.312300
  H      8.739660    7.337670   -5.700730
  H      9.244100    8.683920   -7.845040
  H      2.747280    9.386960  -11.665860
  H      0.845320    8.419800   -9.971980
  H      2.172550    3.760020   -6.000300
  H      0.296320    3.089420   -4.567030
  H     -2.866560    6.529130   -7.525590
  H     -4.714670    5.790350   -6.065860
  H     -4.309530    4.136050   -4.288870
  H     -2.059120    3.199700   -3.947500

 Total Charge           Charge          ....    0
 Multiplicity           Mult            ....    1
 Number of Electrons    NEL             ....  490
 Basis Dimension        Dim             .... 1116

ORBITAL ENERGIES
----------------

  NO   OCC          E(Eh)            E(eV)
   0   2.0000     -88.975467     -2421.1456
   1   2.0000     -88.915835     -2419.5229
   2   2.0000     -88.910782     -2419.3854
   3   2.0000     -19.226408      -523.1772
   4   2.0000     -19.224328      -523.1206
   5   2.0000     -14.426222      -392.5575
   6   2.0000     -14.423642      -392.4873
   7   2.0000     -14.422665      -392.4607
   8   2.0000     -14.422662      -392.4606
   9   2.0000     -14.420432      -392.3999
  10   2.0000     -14.420384      -392.3986
  11   2.0000     -14.418897      -392.3581
  12   2.0000     -14.418281      -392.3414
  13   2.0000     -10.376583      -282.3612
  14   2.0000     -10.374118      -282.2941
  15   2.0000     -10.356157      -281.8054
  16   2.0000     -10.353004      -281.7196
  17   2.0000     -10.350854      -281.6610
  18   2.0000     -10.350463      -281.6504
  19   2.0000     -10.348467      -281.5961
  20   2.0000     -10.345896      -281.5261
  21   2.0000     -10.345894      -281.5261
  22   2.0000     -10.340656      -281.3836
  23   2.0000     -10.340437      -281.3776
  24   2.0000     -10.340242      -281.3723
  25   2.0000     -10.336980      -281.2835
  26   2.0000     -10.336839      -281.2797
  27   2.0000     -10.334335      -281.2116
  28   2.0000     -10.332736      -281.1681
  29   2.0000     -10.325439      -280.9695
  30   2.0000     -10.323974      -280.9296
  31   2.0000     -10.323381      -280.9135
  32   2.0000     -10.322110      -280.8789
  33   2.0000     -10.322099      -280.8786
  34   2.0000     -10.321801      -280.8705
  35   2.0000     -10.321383      -280.8591
  36   2.0000     -10.320883      -280.8455
  37   2.0000     -10.319809      -280.8163
  38   2.0000     -10.317668      -280.7580
  39   2.0000     -10.314399      -280.6691
  40   2.0000     -10.313709      -280.6503
  41   2.0000     -10.313601      -280.6474
  42   2.0000     -10.313129      -280.6345
  43   2.0000     -10.310073      -280.5514
  44   2.0000     -10.309168      -280.5267
  45   2.0000     -10.308185      -280.5000
  46   2.0000     -10.306913      -280.4654
  47   2.0000     -10.303614      -280.3756
  48   2.0000     -10.303260      -280.3659
  49   2.0000     -10.302719      -280.3512
  50   2.0000     -10.302471      -280.3445
  51   2.0000     -10.301807      -280.3264
  52   2.0000     -10.301324      -280.3133
  53   2.0000     -10.300214      -280.2831
  54   2.0000     -10.299660      -280.2680
  55   2.0000     -10.299119      -280.2533
  56   2.0000     -10.298903      -280.2474
  57   2.0000     -10.298404      -280.2338
  58   2.0000     -10.298160      -280.2272
  59   2.0000     -10.297847      -280.2186
  60   2.0000     -10.293975      -280.1133
  61   2.0000     -10.292066      -280.0614
  62   2.0000     -10.289601      -279.9943
  63   2.0000     -10.289093      -279.9804
  64   2.0000     -10.287160      -279.9279
  65   2.0000     -10.287025      -279.9242
  66   2.0000     -10.286162      -279.9007
  67   2.0000     -10.285540      -279.8838
  68   2.0000     -10.283937      -279.8401
  69   2.0000     -10.283506      -279.8284
  70   2.0000     -10.280239      -279.7395
  71   2.0000      -8.071041      -219.6242
  72   2.0000      -8.010834      -217.9859
  73   2.0000      -8.006210      -217.8600
  74   2.0000      -6.040137      -164.3605
  75   2.0000      -6.036113      -164.2510
  76   2.0000      -6.033429      -164.1779
  77   2.0000      -5.979588      -162.7129
  78   2.0000      -5.979121      -162.7001
  79   2.0000      -5.974892      -162.5851
  80   2.0000      -5.974729      -162.5806
  81   2.0000      -5.970484      -162.4651
  82   2.0000      -5.965680      -162.3344
  83   2.0000      -1.141482       -31.0613
  84   2.0000      -1.139418       -31.0052
  85   2.0000      -1.091943       -29.7133
  86   2.0000      -1.089382       -29.6436
  87   2.0000      -1.072855       -29.1939
  88   2.0000      -1.070139       -29.1200
  89   2.0000      -1.027272       -27.9535
  90   2.0000      -1.023006       -27.8374
  91   2.0000      -1.006804       -27.3965
  92   2.0000      -1.003286       -27.3008
  93   2.0000      -1.002326       -27.2747
  94   2.0000      -1.001394       -27.2493
  95   2.0000      -0.997547       -27.1446
  96   2.0000      -0.976443       -26.5704
  97   2.0000      -0.973463       -26.4893
  98   2.0000      -0.971441       -26.4342
  99   2.0000      -0.970095       -26.3976
 100   2.0000      -0.933077       -25.3903
 101   2.0000      -0.929587       -25.2953
 102   2.0000      -0.928619       -25.2690
 103   2.0000      -0.918533       -24.9946
 104   2.0000      -0.915379       -24.9087
 105   2.0000      -0.904489       -24.6124
 106   2.0000      -0.901207       -24.5231
 107   2.0000      -0.900839       -24.5131
 108   2.0000      -0.872908       -23.7530
 109   2.0000      -0.870930       -23.6992
 110   2.0000      -0.866028       -23.5658
 111   2.0000      -0.862030       -23.4570
 112   2.0000      -0.858720       -23.3670
 113   2.0000      -0.853099       -23.2140
 114   2.0000      -0.849326       -23.1113
 115   2.0000      -0.845654       -23.0114
 116   2.0000      -0.833827       -22.6896
 117   2.0000      -0.831487       -22.6259
 118   2.0000      -0.808847       -22.0099
 119   2.0000      -0.793822       -21.6010
 120   2.0000      -0.789356       -21.4795
 121   2.0000      -0.781790       -21.2736
 122   2.0000      -0.778720       -21.1900
 123   2.0000      -0.770496       -20.9663
 124   2.0000      -0.765943       -20.8424
 125   2.0000      -0.750184       -20.4135
 126   2.0000      -0.742380       -20.2012
 127   2.0000      -0.723793       -19.6954
 128   2.0000      -0.722194       -19.6519
 129   2.0000      -0.717066       -19.5124
 130   2.0000      -0.716158       -19.4876
 131   2.0000      -0.713940       -19.4273
 132   2.0000      -0.710977       -19.3467
 133   2.0000      -0.705998       -19.2112
 134   2.0000      -0.696848       -18.9622
 135   2.0000      -0.692056       -18.8318
 136   2.0000      -0.686735       -18.6870
 137   2.0000      -0.683868       -18.6090
 138   2.0000      -0.679716       -18.4960
 139   2.0000      -0.661249       -17.9935
 140   2.0000      -0.652889       -17.7660
 141   2.0000      -0.647350       -17.6153
 142   2.0000      -0.642721       -17.4893
 143   2.0000      -0.636619       -17.3233
 144   2.0000      -0.633240       -17.2313
 145   2.0000      -0.631101       -17.1731
 146   2.0000      -0.621083       -16.9005
 147   2.0000      -0.611641       -16.6436
 148   2.0000      -0.608149       -16.5486
 149   2.0000      -0.606185       -16.4951
 150   2.0000      -0.596814       -16.2401
 151   2.0000      -0.595542       -16.2055
 152   2.0000      -0.592833       -16.1318
 153   2.0000      -0.591421       -16.0934
 154   2.0000      -0.586029       -15.9467
 155   2.0000      -0.582195       -15.8423
 156   2.0000      -0.580632       -15.7998
 157   2.0000      -0.575411       -15.6577
 158   2.0000      -0.570556       -15.5256
 159   2.0000      -0.563281       -15.3277
 160   2.0000      -0.558944       -15.2096
 161   2.0000      -0.555061       -15.1040
 162   2.0000      -0.552162       -15.0251
 163   2.0000      -0.551394       -15.0042
 164   2.0000      -0.547628       -14.9017
 165   2.0000      -0.544390       -14.8136
 166   2.0000      -0.541877       -14.7452
 167   2.0000      -0.541034       -14.7223
 168   2.0000      -0.536150       -14.5894
 169   2.0000      -0.528824       -14.3900
 170   2.0000      -0.526760       -14.3339
 171   2.0000      -0.526456       -14.3256
 172   2.0000      -0.522442       -14.2164
 173   2.0000      -0.517854       -14.0915
 174   2.0000      -0.514942       -14.0123
 175   2.0000      -0.514392       -13.9973
 176   2.0000      -0.512654       -13.9500
 177   2.0000      -0.512452       -13.9445
 178   2.0000      -0.509457       -13.8630
 179   2.0000      -0.507098       -13.7988
 180   2.0000      -0.505507       -13.7556
 181   2.0000      -0.504133       -13.7182
 182   2.0000      -0.499839       -13.6013
 183   2.0000      -0.498788       -13.5727
 184   2.0000      -0.495808       -13.4916
 185   2.0000      -0.494765       -13.4632
 186   2.0000      -0.490983       -13.3603
 187   2.0000      -0.490512       -13.3475
 188   2.0000      -0.487477       -13.2649
 189   2.0000      -0.483419       -13.1545
 190   2.0000      -0.483025       -13.1438
 191   2.0000      -0.481757       -13.1093
 192   2.0000      -0.480696       -13.0804
 193   2.0000      -0.473573       -12.8866
 194   2.0000      -0.473439       -12.8829
 195   2.0000      -0.467285       -12.7155
 196   2.0000      -0.456681       -12.4269
 197   2.0000      -0.454170       -12.3586
 198   2.0000      -0.452983       -12.3263
 199   2.0000      -0.449992       -12.2449
 200   2.0000      -0.449778       -12.2391
 201   2.0000      -0.449276       -12.2254
 202   2.0000      -0.446515       -12.1503
 203   2.0000      -0.445868       -12.1327
 204   2.0000      -0.442209       -12.0331
 205   2.0000      -0.441504       -12.0139
 206   2.0000      -0.439415       -11.9571
 207   2.0000      -0.437934       -11.9168
 208   2.0000      -0.436326       -11.8730
 209   2.0000      -0.435127       -11.8404
 210   2.0000      -0.433850       -11.8056
 211   2.0000      -0.432974       -11.7818
 212   2.0000      -0.431495       -11.7416
 213   2.0000      -0.430417       -11.7122
 214   2.0000      -0.428648       -11.6641
 215   2.0000      -0.425393       -11.5755
 216   2.0000      -0.422042       -11.4843
 217   2.0000      -0.418453       -11.3867
 218   2.0000      -0.416944       -11.3456
 219   2.0000      -0.407123       -11.0784
 220   2.0000      -0.406239       -11.0543
 221   2.0000      -0.383767       -10.4428
 222   2.0000      -0.380745       -10.3606
 223   2.0000      -0.374481       -10.1902
 224   2.0000      -0.368313       -10.0223
 225   2.0000      -0.365102        -9.9349
 226   2.0000      -0.364243        -9.9116
 227   2.0000      -0.361123        -9.8267
 228   2.0000      -0.357914        -9.7393
 229   2.0000      -0.357360        -9.7243
 230   2.0000      -0.343075        -9.3355
 231   2.0000      -0.341755        -9.2996
 232   2.0000      -0.340816        -9.2741
 233   2.0000      -0.329039        -8.9536
 234   2.0000      -0.328187        -8.9304
 235   2.0000      -0.324810        -8.8385
 236   2.0000      -0.320496        -8.7211
 237   2.0000      -0.316547        -8.6137
 238   2.0000      -0.308878        -8.4050
 239   2.0000      -0.305463        -8.3121
 240   2.0000      -0.298940        -8.1346
 241   2.0000      -0.298146        -8.1130
 242   2.0000      -0.296902        -8.0791
 243   2.0000      -0.291335        -7.9276
 244   2.0000      -0.261258        -7.1092
 245   0.0000      -0.126720        -3.4482
 246   0.0000      -0.118105        -3.2138
 247   0.0000      -0.105608        -2.8737
 248   0.0000      -0.093317        -2.5393
 249   0.0000      -0.082929        -2.2566

MULLIKEN ATOMIC CHARGES
-----------------------
   0 C :   -0.112766
   1 C :    0.123378
   2 O :   -0.137189
   3 C :    0.005514
   4 C :   -0.005952
   5 C :    0.257862
   6 C :   -0.332557
   7 C :   -0.194916
   8 N :    0.179333
   9 C :   -0.176403
  10 N :    0.165522
  11 C :   -0.021165
  12 C :    0.005485
  13 C :    0.079638
  14 C :    0.035460
  15 C :   -0.024127
  16 C :    0.037093
  17 C :    0.037787
  18 C :   -0.020487
  19 C :    0.020851
  20 C :   -0.065799
  21 C :    0.062487
  22 N :   -0.014678
  23 C :    0.031981
  24 C :    0.052317
  25 C :   -0.001406
  26 S :   -0.099446
  27 C :   -0.032710
  28 C :    0.002062
  29 N :   -0.018551
  30 C :    0.051534
  31 C :    0.064614
  32 C :   -0.114577
  33 S :    0.147459
  34 C :   -0.071593
  35 C :    0.020572
  36 C :    0.044950
  37 C :    0.114893
  38 C :   -0.022301
  39 C :    0.010229
  40 C :    0.062142
  41 N :   -0.016240
  42 C :    0.017043
  43 C :    0.000983
  44 C :   -0.015402
  45 S :   -0.109926
  46 C :   -0.006349
  47 C :    0.019273
  48 N :   -0.017037
  49 C :    0.075052
  50 C :   -0.005466
  51 C :    0.004753
  52 C :   -0.083185
  53 C :    0.109256
  54 O :   -0.143645
  55 C :    0.015148
  56 C :    0.000108
  57 C :    0.279560
  58 C :   -0.347359
  59 C :   -0.199852
  60 N :    0.182348
  61 C :   -0.173235
  62 N :    0.166957
  63 C :   -0.021607
  64 C :    0.005018
  65 C :    0.080942
  66 C :    0.035613
  67 C :   -0.026676
  68 C :    0.040318
  69 C :    0.038834
  70 C :   -0.021966
  71 H :    0.003638
  72 H :   -0.008141
  73 H :    0.003985
  74 H :   -0.002837
  75 H :   -0.002747
  76 H :   -0.017358
  77 H :    0.031656
  78 H :    0.018957
  79 H :    0.019553
  80 H :   -0.008445
  81 H :   -0.025248
  82 H :   -0.025041
  83 H :   -0.022520
  84 H :    0.011844
  85 H :    0.010945
  86 H :    0.022674
  87 H :   -0.001062
  88 H :   -0.010929
  89 H :    0.000906
  90 H :   -0.005990
  91 H :   -0.004819
  92 H :   -0.018822
Sum of atomic charges:   -0.0000000

LOEWDIN ATOMIC CHARGES
----------------------
   0 C :   -0.069813
   1 C :    0.087445
   2 O :   -0.130018
   3 C :   -0.032462
   4 C :   -0.005228
   5 C :    0.064956
   6 C :   -0.127626
   7 C :   -0.020864
   8 N :   -0.034691
   9 C :   -0.020581
  10 N :   -0.039426
  11 C :   -0.017636
  12 C :    0.022121
  13 C :   -0.008433
  14 C :   -0.002651
  15 C :   -0.001328
  16 C :   -0.010001
  17 C :   -0.010109
  18 C :   -0.011483
  19 C :    0.066542
  20 C :   -0.054530
  21 C :    0.084484
  22 N :   -0.071323
  23 C :    0.035719
  24 C :   -0.000641
  25 C :   -0.136614
  26 S :    0.084465
  27 C :   -0.046137
  28 C :    0.051206
  29 N :   -0.068392
  30 C :    0.085800
  31 C :   -0.042179
  32 C :   -0.170942
  33 S :    0.459247
  34 C :   -0.160258
  35 C :   -0.036580
  36 C :   -0.021255
  37 C :    0.004483
  38 C :   -0.031582
  39 C :   -0.026160
  40 C :    0.090836
  41 N :   -0.068932
  42 C :    0.049699
  43 C :   -0.046512
  44 C :   -0.137365
  45 S :    0.094443
  46 C :   -0.009916
  47 C :    0.035922
  48 N :   -0.067344
  49 C :    0.092262
  50 C :   -0.050038
  51 C :    0.046205
  52 C :   -0.054293
  53 C :    0.089302
  54 O :   -0.135325
  55 C :   -0.033562
  56 C :    0.001993
  57 C :    0.063031
  58 C :   -0.134252
  59 C :   -0.016363
  60 N :   -0.042314
  61 C :   -0.022622
  62 N :   -0.047461
  63 C :   -0.017492
  64 C :    0.021715
  65 C :   -0.009420
  66 C :   -0.002038
  67 C :   -0.002513
  68 C :   -0.010460
  69 C :   -0.011750
  70 C :   -0.011264
  71 H :    0.040417
  72 H :    0.037147
  73 H :    0.036418
  74 H :    0.033953
  75 H :    0.033319
  76 H :    0.031497
  77 H :    0.050744
  78 H :    0.025703
  79 H :    0.023627
  80 H :    0.033540
  81 H :    0.012346
  82 H :    0.008192
  83 H :    0.029245
  84 H :    0.027236
  85 H :    0.028211
  86 H :    0.048994
  87 H :    0.038993
  88 H :    0.036173
  89 H :    0.035626
  90 H :    0.033096
  91 H :    0.032752
  92 H :    0.031074

  Mayer bond orders larger than 0.100000
B(  0-C ,  1-C ) :   0.9407 B(  0-C ,  5-C ) :   1.0115 B(  0-C , 19-C ) :   1.7155
B(  1-C ,  2-O ) :   2.2107 B(  1-C ,  3-C ) :   0.9421 B(  3-C ,  4-C ) :   1.4090
B(  3-C , 14-C ) :   1.2389 B(  4-C ,  5-C ) :   1.0112 B(  4-C , 11-C ) :   1.2616
B(  5-C ,  6-C ) :   1.6584 B(  6-C ,  7-C ) :   1.1546 B(  6-C ,  9-C ) :   1.1283
B(  7-C ,  8-N ) :   3.0083 B(  9-C , 10-N ) :   2.9952 B( 11-C , 12-C ) :   1.4694
B( 11-C , 71-H ) :   0.9864 B( 12-C , 13-C ) :   1.2234 B( 12-C , 72-H ) :   0.9938
B( 13-C , 14-C ) :   1.2401 B( 13-C , 18-C ) :   1.2423 B( 14-C , 15-C ) :   1.2772
B( 15-C , 16-C ) :   1.4753 B( 15-C , 73-H ) :   0.9860 B( 16-C , 17-C ) :   1.2563
B( 16-C , 74-H ) :   0.9873 B( 17-C , 18-C ) :   1.4952 B( 17-C , 75-H ) :   0.9891
B( 18-C , 76-H ) :   0.9975 B( 19-C , 20-C ) :   1.0296 B( 19-C , 77-H ) :   0.9474
B( 20-C , 21-C ) :   1.0017 B( 20-C , 24-C ) :   1.5586 B( 21-C , 22-N ) :   1.7487
B( 21-C , 78-H ) :   0.9872 B( 22-N , 23-C ) :   1.2538 B( 23-C , 24-C ) :   1.0742
B( 23-C , 28-C ) :   1.5169 B( 24-C , 25-C ) :   1.0163 B( 25-C , 26-S ) :   1.6853
B( 25-C , 27-C ) :   1.0561 B( 26-S , 81-H ) :   0.1121 B( 27-C , 28-C ) :   1.0749
B( 27-C , 31-C ) :   1.5101 B( 28-C , 29-N ) :   1.2536 B( 29-N , 30-C ) :   1.7434
B( 30-C , 31-C ) :   1.0147 B( 30-C , 79-H ) :   0.9837 B( 31-C , 32-C ) :   1.1452
B( 32-C , 33-S ) :   1.1201 B( 32-C , 36-C ) :   1.4295 B( 33-S , 34-C ) :   1.1376
B( 34-C , 35-C ) :   1.4182 B( 34-C , 37-C ) :   1.1593 B( 35-C , 36-C ) :   1.3256
B( 35-C , 80-H ) :   0.9945 B( 36-C , 81-H ) :   0.9687 B( 37-C , 38-C ) :   1.6198
B( 37-C , 82-H ) :   0.9287 B( 38-C , 39-C ) :   1.1630 B( 38-C , 83-H ) :   0.9661
B( 39-C , 40-C ) :   1.0032 B( 39-C , 43-C ) :   1.4523 B( 40-C , 41-N ) :   1.7394
B( 40-C , 84-H ) :   0.9904 B( 41-N , 42-C ) :   1.2552 B( 42-C , 43-C ) :   1.0791
B( 42-C , 47-C ) :   1.5221 B( 43-C , 44-C ) :   1.0597 B( 44-C , 45-S ) :   1.6460
B( 44-C , 46-C ) :   1.0354 B( 45-S , 82-H ) :   0.1110 B( 46-C , 47-C ) :   1.0647
B( 46-C , 50-C ) :   1.5190 B( 47-C , 48-N ) :   1.2748 B( 48-N , 49-C ) :   1.7282
B( 49-C , 50-C ) :   1.0166 B( 49-C , 85-H ) :   0.9935 B( 50-C , 51-C ) :   1.0549
B( 51-C , 52-C ) :   1.7331 B( 51-C , 86-H ) :   0.9368 B( 52-C , 53-C ) :   0.9409
B( 52-C , 57-C ) :   1.0124 B( 53-C , 54-O ) :   2.2031 B( 53-C , 55-C ) :   0.9443
B( 55-C , 56-C ) :   1.4132 B( 55-C , 66-C ) :   1.2312 B( 56-C , 57-C ) :   1.0071
B( 56-C , 63-C ) :   1.2634 B( 57-C , 58-C ) :   1.6471 B( 58-C , 59-C ) :   1.1764
B( 58-C , 61-C ) :   1.1237 B( 59-C , 60-N ) :   3.0085 B( 61-C , 62-N ) :   2.9994
B( 63-C , 64-C ) :   1.4644 B( 63-C , 87-H ) :   0.9869 B( 64-C , 65-C ) :   1.2223
B( 64-C , 88-H ) :   0.9944 B( 65-C , 66-C ) :   1.2422 B( 65-C , 70-C ) :   1.2399
B( 66-C , 67-C ) :   1.2749 B( 67-C , 68-C ) :   1.4743 B( 67-C , 89-H ) :   0.9876
B( 68-C , 69-C ) :   1.2561 B( 68-C , 90-H ) :   0.9875 B( 69-C , 70-C ) :   1.4946
B( 69-C , 91-H ) :   0.9890 B( 70-C , 92-H ) :   0.9984

-----------------------------------------------------------------------------
         ABSORPTION SPECTRUM VIA TRANSITION ELECTRIC DIPOLE MOMENTS
-----------------------------------------------------------------------------
State   Energy  Wavelength   fosc         T2         TX        TY        TZ
        (cm-1)    (nm)                  (au**2)     (au)      (au)      (au)
-----------------------------------------------------------------------------
   0   13728.2    728.4   0.556170234  13.33737  -1.58741   1.30346  -3.01969
   1   14693.0    680.6   0.037594564   0.84234   0.11781  -0.38196   0.82618
   2   16095.5    621.3   0.039619277   0.81036  -0.48539   0.04265  -0.75693
   3   16470.4    607.2   0.003417915   0.06832   0.07634  -0.10678   0.22603
   4   17556.3    569.6   0.146860686   2.75390  -0.83251   0.40506  -1.37723
   5   17892.3    558.9   0.598927609  11.02004   1.47457  -1.24412   2.70145
   6   18214.7    549.0   0.015253689   0.27570  -0.24928   0.21509  -0.40901
   7   20593.4    485.6   0.029835622   0.47696  -0.24229   0.32739  -0.55774
   8   20855.6    479.5   0.033057835   0.52183  -0.26098  -0.27058   0.61685
   9   21436.0    466.5   0.066227560   1.01712   0.48152  -0.10382   0.88004
  10   22287.9    448.7   0.062042200   0.91642  -0.85729  -0.23827  -0.35313
  11   23790.4    420.3   0.018450215   0.25531   0.28968  -0.34327   0.23144
  12   23917.9    418.1   0.161694165   2.22560  -1.42843  -0.41473   0.11484
  13   24638.5    405.9   0.279654969   3.73666   1.14868  -0.34551   1.51585
  14   24782.6    403.5   0.085559848   1.13658  -0.04014   0.82101  -0.67890
  15   25180.9    397.1   0.119862334   1.56706  -0.79310   0.64911  -0.71883
  16   25280.8    395.6   0.023609189   0.30744   0.15400  -0.45204   0.28175
  17   25654.0    389.8   0.064016701   0.82151   0.37637  -0.21392   0.79630
  18   25805.9    387.5   0.069742063   0.88972  -0.14201   0.77080  -0.52480
  19   26003.2    384.6   0.014476656   0.18328   0.16491   0.37558  -0.12258
  20   26151.7    382.4   0.032623093   0.41068   0.51882   0.37187  -0.05670
  21   26381.2    379.1   0.000562438   0.00702   0.04069  -0.05991  -0.04212
  22   26924.1    371.4   0.032685891   0.39966   0.22367   0.55370   0.20750
  23   27231.1    367.2   0.012025839   0.14539   0.35712  -0.10256  -0.08565
  24   27317.5    366.1   0.114175839   1.37597   0.58266  -0.45526   0.91061
  25   27389.2    365.1   0.011270352   0.13547   0.14192  -0.21470   0.26311
  26   27549.5    363.0   0.074952749   0.89567  -0.36554  -0.79349   0.36391
  27   28134.7    355.4   0.005426207   0.06349  -0.24659   0.04803  -0.01948
  28   28321.1    353.1   0.030391100   0.35327   0.22927   0.49910  -0.22718
  29   28463.5    351.3   0.000144516   0.00167   0.03093   0.01756   0.02017
  30   28621.8    349.4   0.104677045   1.20401  -0.22701  -1.05184   0.21476
  31   29012.3    344.7   0.236353126   2.68198  -0.91393   0.41544  -1.29388
  32   29059.3    344.1   0.023930245   0.27111   0.05154  -0.47609   0.20441
  33   29405.6    340.1   0.038517597   0.43123   0.17405   0.52678  -0.35133
  34   29560.5    338.3   0.012057788   0.13429   0.15738   0.30866   0.11938
  35   29943.0    334.0   0.032327827   0.35543   0.35780  -0.22712   0.41933
  36   30135.4    331.8   0.174980338   1.91156   0.73411  -0.37373   1.11039
  37   30138.7    331.8   0.005395501   0.05894   0.09746  -0.21687  -0.04907
  38   30267.3    330.4   0.010636483   0.11569   0.32819   0.07970  -0.04038
  39   30638.5    326.4   0.116273339   1.24936   0.41020  -0.35000   0.97908
  40   30746.0    325.2   0.055885690   0.59839  -0.68459   0.32925  -0.14602
  41   31120.7    321.3   0.026213620   0.27730  -0.50131  -0.08490  -0.13706
  42   31243.2    320.1   0.088848010   0.93620  -0.81309  -0.52266   0.04375
  43   31400.1    318.5   0.046334079   0.48579  -0.04195  -0.39205  -0.57473
  44   31747.1    315.0   0.003937976   0.04084   0.18396  -0.03861   0.07419
  45   31896.8    313.5   0.036224543   0.37388   0.57197  -0.18892   0.10505
  46   31943.1    313.1   0.070436823   0.72594  -0.82210   0.19457   0.11063
  47   32089.2    311.6   0.039889758   0.40924   0.07433  -0.11470  -0.62495
  48   32228.1    310.3   0.013103053   0.13385  -0.28268   0.02302   0.23111
  49   32392.8    308.7   0.000112135   0.00114   0.01418   0.02324   0.01996
  50   32525.9    307.4   0.440633185   4.45989  -1.43251  -0.96670  -1.21379
  51   32567.0    307.1   0.073535246   0.74335   0.68808  -0.42127  -0.30402
  52   32875.0    304.2   0.013527090   0.13546  -0.23366   0.02241  -0.28348
  53   33134.0    301.8   0.013257330   0.13172   0.17503  -0.22039  -0.22916
  54   33271.1    300.6   0.020423665   0.20209   0.15506   0.24801   0.34137
  55   33353.8    299.8   0.232524059   2.29508  -1.41245  -0.34460   0.42583
  56   33387.3    299.5   0.157378579   1.55182   1.24009   0.01243  -0.11762
  57   33661.9    297.1   0.035631086   0.34847  -0.25105  -0.03927  -0.53283
  58   33769.0    296.1   0.015998766   0.15597  -0.22168  -0.19379  -0.26320
  59   33979.3    294.3   0.034161742   0.33098   0.32077  -0.14745   0.45425
  60   34208.9    292.3   0.050669504   0.48762  -0.47024  -0.01118  -0.51611
  61   34385.4    290.8   0.014829486   0.14198   0.02012  -0.18490   0.32770
  62   34474.5    290.1   0.047118104   0.44995  -0.23316  -0.11032  -0.61921
  63   34739.4    287.9   0.100716355   0.95445   0.68804   0.23885  -0.65116
  64   34874.5    286.7   0.060778880   0.57375  -0.39059   0.16446  -0.62780
  65   35033.2    285.4   0.042206410   0.39662  -0.50293   0.04884  -0.37590
  66   35113.9    284.8   0.057749805   0.54144   0.59752  -0.10801   0.41562
  67   35284.1    283.4   0.092408063   0.86220  -0.63225   0.33908  -0.58948
  68   35458.8    282.0   0.113647807   1.05515  -0.03097  -0.59864   0.83416
  69   35472.4    281.9   0.094595755   0.87792   0.19789   0.45517  -0.79472
  70   35734.5    279.8   0.122809279   1.13141   1.03465   0.24309   0.04250
  71   35863.5    278.8   0.005716179   0.05247   0.12117   0.10970   0.16048
  72   36088.0    277.1   0.308836431   2.81735   1.07614   0.29186  -1.25463
  73   36175.9    276.4   0.383657503   3.49140   1.45638   0.51732  -1.05011
  74   36202.6    276.2   0.058284607   0.53002   0.66475  -0.08805   0.28350
  75   36356.9    275.1   0.169797516   1.53752  -1.14867  -0.41284   0.21826
  76   36753.3    272.1   0.150511736   1.34818   0.56221   0.04640   1.01487
  77   36772.9    271.9   0.008154454   0.07300   0.13158  -0.06122  -0.22791
  78   37222.0    268.7   0.048890724   0.43242  -0.52541  -0.35625   0.17160
  79   37244.6    268.5   0.013067885   0.11551   0.02908   0.26524  -0.21050
  80   37935.8    263.6   0.077254418   0.67042  -0.08217   0.53854  -0.61127
  81   38072.6    262.7   0.041638667   0.36005  -0.34535  -0.31531   0.37599
  82   38126.0    262.3   0.062014937   0.53549  -0.21100  -0.46335   0.52561
  83   38279.3    261.2   0.213452611   1.83575  -1.18092  -0.48731   0.45132
  84   38513.3    259.7   0.034681321   0.29646   0.33633   0.14445   0.40308
  85   38623.0    258.9   0.042888901   0.36557   0.27820   0.17474  -0.50759
  86   38967.5    256.6   0.035264231   0.29793   0.42796   0.15172   0.30291
  87   39093.4    255.8   0.000638245   0.00537   0.04497   0.04471  -0.03679
  88   39271.0    254.6   0.083877838   0.70315  -0.52947  -0.53114   0.37511
  89   39353.4    254.1   0.055905831   0.46768   0.51120   0.40478  -0.20619
  90   39486.8    253.2   0.036980959   0.30832   0.53539   0.01284  -0.14666
  91   39615.8    252.4   0.022551359   0.18740  -0.12525  -0.37557   0.17511
  92   39697.4    251.9   0.007490095   0.06212   0.17797   0.00819   0.17429
  93   39987.1    250.1   0.079830575   0.65724  -0.61751   0.42929  -0.30270
  94   39993.0    250.0   0.077090495   0.63459   0.51703  -0.06519   0.60251

FINAL SINGLE POINT ENERGY     -4002.263204312161

DIPOLE MOMENT
-------------
                                X             Y             Z
Electronic contribution:     -1.48270       3.32448     -20.06088
Nuclear contribution   :      1.62850      -2.14946      23.07272
                        -----------------------------------------
Total Dipole Moment    :      0.14580       1.17502       3.01184
                        -----------------------------------------
Magnitude (a.u.)       :      3.23622
Magnitude (Debye)      :      8.22582

Rotational constants in cm-1:     0.002059     0.000275     0.000250
Rotational constants in MHz :    61.717906     8.237593     7.496748

                             ****ORCA TERMINATED NORMALLY****
TOTAL RUN TIME: 0 days 0 hours 9 minutes 42 seconds 793 msec
