                         Program Version 4.2.0 -  RELEASE  -
|  1> # ORCA input file
|  2> # SCF done       -181.999307338595          0.000701736795
|  3> ! CAM-B3LYP def2-SVP def2/J RIJCOSX Grid4 TightSCF
|  4> %maxcore 5000
|  5> %tddft
|  6>     Mode sTDDFT
|  7>     Ethresh 5.0
|  8>     maxcore 5000
|  9> end
| 10>
| 11> %pal
| 12>   nprocs 6
| 13>   end
| 14> * xyz 0 1
| 15>    C       13.62514         2.24993         1.05691
| 16>    C       13.08399         2.08607         2.26534
| 17>    C       11.81262         1.44017         2.43473
| 18>    C       11.20592         0.77446         1.42806
| 19>    C       11.89642         0.65888         0.07773
| 20>    C       12.89865         1.80592        -0.18367
| 21>    N       13.88911         1.49074        -1.18700
| 22>    C       14.20678         0.28697        -1.35847
| 23>    C       13.54955        -0.81980        -0.63470
| 24>    N       12.49294        -0.65975         0.02560
| 25>    F       14.11454        -2.02060        -0.68749
| 26>    F       15.14741        -0.02176        -2.24365
| 27>    C        9.97160         0.06547         1.58884
| 28>    C        9.54519        -1.05116         0.73421
| 29>    N        8.39327        -1.56296         1.05246
| 30>    C        7.95388        -0.83268         2.11483
| 31>    C        8.93435         0.19801         2.48920
| 32>    C        8.41211         0.97179         3.59385
| 33>    S        9.15424         2.25871         4.31348
| 34>    C        7.12543         0.39130         3.88978
| 35>    C        6.88054        -0.72265         2.95699
| 36>    N        5.67960        -1.31564         3.20373
| 37>    C        5.18596        -0.67709         4.22315
| 38>    C        6.02185         0.41559         4.72884
| 39>    C        5.66216         1.26348         5.82956
| 40>    C        6.30362         2.47448         6.00921
| 41>    C        5.95217         3.31088         7.07627
| 42>    C        6.47130         4.54385         7.46404
| 43>    C        7.59095         5.25758         6.79686
| 44>    C        7.14661         6.60634         6.20443
| 45>    N        6.13256         6.38461         5.18759
| 46>    C        8.80050         5.44402         7.73191
| 47>    N        9.93405         5.92082         6.95989
| 48>    C        5.71941         4.95657         8.62643
| 49>    C        5.78638         6.06206         9.39177
| 50>    C        4.86331         6.27767        10.54295
| 51>    C        3.90322         5.16349        10.79165
| 52>    C        3.84862         4.06119        10.02075
| 53>    C        4.73092         3.90844         8.92518
| 54>    C        4.88950         2.91005         7.98236
| 55>    C        4.24891         1.66650         7.78041
| 56>    C        4.62741         0.87400         6.74374
| 57>    C        5.68771         6.66857        11.74499
| 58>    C        5.72417         5.99368        12.89638
| 59>    C        6.49843         6.38729        14.03587
| 60>    C        7.54699         7.40670        14.11223
| 61>    N        8.07042         7.55598        15.29665
| 62>    C        7.41855         6.66516        16.09740
| 63>    C        6.43643         5.89573        15.31754
| 64>    C        5.72036         4.98633        16.17594
| 65>    S        4.50229         3.97740        15.72130
| 66>    C        6.27710         5.21704        17.48697
| 67>    C        7.32464         6.25780        17.40126
| 68>    N        7.83220         6.53398        18.63328
| 69>    C        7.15713         5.79478        19.46396
| 70>    C        6.14046         4.94393        18.83096
| 71>    C        5.25609         4.05268        19.52267
| 72>    C        4.71521         2.96464        18.93231
| 73>    C        3.83518         2.07124        19.63127
| 74>    C        3.35644         2.37052        20.84035
| 75>    C        3.67636         3.68124        21.50703
| 76>    C        4.98826         4.32182        20.99714
| 77>    N        5.03815         5.75020        21.21755
| 78>    C        3.96035         6.39689        21.24602
| 79>    C        2.63867         5.74414        21.18099
| 80>    N        2.49709         4.50397        21.31918
| 81>    F        1.57184         6.51174        20.98754
| 82>    F        3.99760         7.71500        21.40199
| 83>    H       14.57751         2.73026         0.89913
| 84>    H       13.59159         2.44123         3.14897
| 85>    H       11.35643         1.47107         3.41107
| 86>    H       11.13097         0.67222        -0.71065
| 87>    H       12.35267         2.67799        -0.57226
| 88>    H       10.12551        -1.46666        -0.06928
| 89>    H        4.21781        -0.95070         4.60414
| 90>    H        7.06862         2.78002         5.31568
| 91>    H        7.93414         4.63909         5.96075
| 92>    H        8.05227         7.10977         5.83233
| 93>    H        6.69897         7.23205         6.97969
| 94>    H        6.51520         5.83028         4.42840
| 95>    H        5.82369         7.26841         4.79850
| 96>    H        8.99027         4.48563         8.24419
| 97>    H        8.58006         6.19436         8.49499
| 98>    H       10.19851         5.22582         6.26831
| 99>    H       10.73402         6.07650         7.56305
|100>    H        6.51173         6.84218         9.21012
|101>    H        4.26506         7.17309        10.29209
|102>    H        3.22432         5.29819        11.61965
|103>    H        3.12895         3.28231        10.22555
|104>    H        3.46892         1.35114         8.45768
|105>    H        4.15239        -0.08485         6.60799
|106>    H        6.28002         7.56420        11.61523
|107>    H        5.12480         5.10374        13.03139
|108>    H        7.91241         7.99302        13.28742
|109>    H        7.37729         5.81537        20.51518
|110>    H        4.94626         2.74544        17.90197
|111>    H        3.55326         1.15481        19.13624
|112>    H        2.63719         1.74831        21.34660
|113>    H        3.75068         3.52373        22.59238
|114>    H        5.83280         3.90278        21.56254
|115> *
|116>
|117>                          ****END OF INPUT****

CARTESIAN COORDINATES (ANGSTROEM)
---------------------------------
  C     13.625140    2.249930    1.056910
  C     13.083990    2.086070    2.265340
  C     11.812620    1.440170    2.434730
  C     11.205920    0.774460    1.428060
  C     11.896420    0.658880    0.077730
  C     12.898650    1.805920   -0.183670
  N     13.889110    1.490740   -1.187000
  C     14.206780    0.286970   -1.358470
  C     13.549550   -0.819800   -0.634700
  N     12.492940   -0.659750    0.025600
  F     14.114540   -2.020600   -0.687490
  F     15.147410   -0.021760   -2.243650
  C      9.971600    0.065470    1.588840
  C      9.545190   -1.051160    0.734210
  N      8.393270   -1.562960    1.052460
  C      7.953880   -0.832680    2.114830
  C      8.934350    0.198010    2.489200
  C      8.412110    0.971790    3.593850
  S      9.154240    2.258710    4.313480
  C      7.125430    0.391300    3.889780
  C      6.880540   -0.722650    2.956990
  N      5.679600   -1.315640    3.203730
  C      5.185960   -0.677090    4.223150
  C      6.021850    0.415590    4.728840
  C      5.662160    1.263480    5.829560
  C      6.303620    2.474480    6.009210
  C      5.952170    3.310880    7.076270
  C      6.471300    4.543850    7.464040
  C      7.590950    5.257580    6.796860
  C      7.146610    6.606340    6.204430
  N      6.132560    6.384610    5.187590
  C      8.800500    5.444020    7.731910
  N      9.934050    5.920820    6.959890
  C      5.719410    4.956570    8.626430
  C      5.786380    6.062060    9.391770
  C      4.863310    6.277670   10.542950
  C      3.903220    5.163490   10.791650
  C      3.848620    4.061190   10.020750
  C      4.730920    3.908440    8.925180
  C      4.889500    2.910050    7.982360
  C      4.248910    1.666500    7.780410
  C      4.627410    0.874000    6.743740
  C      5.687710    6.668570   11.744990
  C      5.724170    5.993680   12.896380
  C      6.498430    6.387290   14.035870
  C      7.546990    7.406700   14.112230
  N      8.070420    7.555980   15.296650
  C      7.418550    6.665160   16.097400
  C      6.436430    5.895730   15.317540
  C      5.720360    4.986330   16.175940
  S      4.502290    3.977400   15.721300
  C      6.277100    5.217040   17.486970
  C      7.324640    6.257800   17.401260
  N      7.832200    6.533980   18.633280
  C      7.157130    5.794780   19.463960
  C      6.140460    4.943930   18.830960
  C      5.256090    4.052680   19.522670
  C      4.715210    2.964640   18.932310
  C      3.835180    2.071240   19.631270
  C      3.356440    2.370520   20.840350
  C      3.676360    3.681240   21.507030
  C      4.988260    4.321820   20.997140
  N      5.038150    5.750200   21.217550
  C      3.960350    6.396890   21.246020
  C      2.638670    5.744140   21.180990
  N      2.497090    4.503970   21.319180
  F      1.571840    6.511740   20.987540
  F      3.997600    7.715000   21.401990
  H     14.577510    2.730260    0.899130
  H     13.591590    2.441230    3.148970
  H     11.356430    1.471070    3.411070
  H     11.130970    0.672220   -0.710650
  H     12.352670    2.677990   -0.572260
  H     10.125510   -1.466660   -0.069280
  H      4.217810   -0.950700    4.604140
  H      7.068620    2.780020    5.315680
  H      7.934140    4.639090    5.960750
  H      8.052270    7.109770    5.832330
  H      6.698970    7.232050    6.979690
  H      6.515200    5.830280    4.428400
  H      5.823690    7.268410    4.798500
  H      8.990270    4.485630    8.244190
  H      8.580060    6.194360    8.494990
  H     10.198510    5.225820    6.268310
  H     10.734020    6.076500    7.563050
  H      6.511730    6.842180    9.210120
  H      4.265060    7.173090   10.292090
  H      3.224320    5.298190   11.619650
  H      3.128950    3.282310   10.225550
  H      3.468920    1.351140    8.457680
  H      4.152390   -0.084850    6.607990
  H      6.280020    7.564200   11.615230
  H      5.124800    5.103740   13.031390
  H      7.912410    7.993020   13.287420
  H      7.377290    5.815370   20.515180
  H      4.946260    2.745440   17.901970
  H      3.553260    1.154810   19.136240
  H      2.637190    1.748310   21.346600
  H      3.750680    3.523730   22.592380
  H      5.832800    3.902780   21.562540

 Total Charge           Charge          ....    0
 Multiplicity           Mult            ....    1
 Number of Electrons    NEL             ....  482
 Basis Dimension        Dim             .... 1120

ORBITAL ENERGIES
----------------

  NO   OCC          E(Eh)            E(eV)
   0   2.0000     -88.899615     -2419.0815
   1   2.0000     -88.893868     -2418.9251
   2   2.0000     -24.811118      -675.1448
   3   2.0000     -24.806700      -675.0246
   4   2.0000     -24.806647      -675.0232
   5   2.0000     -24.805933      -675.0038
   6   2.0000     -14.438913      -392.9028
   7   2.0000     -14.436494      -392.8370
   8   2.0000     -14.435271      -392.8037
   9   2.0000     -14.433661      -392.7599
  10   2.0000     -14.414173      -392.2296
  11   2.0000     -14.411237      -392.1497
  12   2.0000     -14.409088      -392.0912
  13   2.0000     -14.406311      -392.0157
  14   2.0000     -14.379777      -391.2936
  15   2.0000     -14.368992      -391.0001
  16   2.0000     -10.426349      -283.7154
  17   2.0000     -10.421212      -283.5756
  18   2.0000     -10.421115      -283.5730
  19   2.0000     -10.419955      -283.5414
  20   2.0000     -10.342731      -281.4400
  21   2.0000     -10.339700      -281.3575
  22   2.0000     -10.336676      -281.2753
  23   2.0000     -10.334044      -281.2036
  24   2.0000     -10.332483      -281.1612
  25   2.0000     -10.332076      -281.1501
  26   2.0000     -10.330776      -281.1147
  27   2.0000     -10.329697      -281.0853
  28   2.0000     -10.329263      -281.0735
  29   2.0000     -10.326098      -280.9874
  30   2.0000     -10.325475      -280.9705
  31   2.0000     -10.321927      -280.8739
  32   2.0000     -10.320617      -280.8383
  33   2.0000     -10.317842      -280.7628
  34   2.0000     -10.306992      -280.4675
  35   2.0000     -10.306416      -280.4518
  36   2.0000     -10.302084      -280.3340
  37   2.0000     -10.300536      -280.2918
  38   2.0000     -10.300295      -280.2853
  39   2.0000     -10.299541      -280.2648
  40   2.0000     -10.297813      -280.2177
  41   2.0000     -10.296288      -280.1762
  42   2.0000     -10.294923      -280.1391
  43   2.0000     -10.292394      -280.0703
  44   2.0000     -10.290493      -280.0185
  45   2.0000     -10.289255      -279.9849
  46   2.0000     -10.287176      -279.9283
  47   2.0000     -10.286629      -279.9134
  48   2.0000     -10.285544      -279.8839
  49   2.0000     -10.284210      -279.8476
  50   2.0000     -10.283806      -279.8366
  51   2.0000     -10.283647      -279.8323
  52   2.0000     -10.283564      -279.8300
  53   2.0000     -10.281218      -279.7662
  54   2.0000     -10.280934      -279.7584
  55   2.0000     -10.279327      -279.7147
  56   2.0000     -10.275169      -279.6016
  57   2.0000     -10.271928      -279.5134
  58   2.0000     -10.271174      -279.4928
  59   2.0000     -10.268512      -279.4204
  60   2.0000     -10.267651      -279.3970
  61   2.0000     -10.267642      -279.3968
  62   2.0000     -10.267226      -279.3854
  63   2.0000     -10.264976      -279.3242
  64   2.0000     -10.262847      -279.2663
  65   2.0000     -10.259966      -279.1879
  66   2.0000     -10.259571      -279.1771
  67   2.0000     -10.259046      -279.1628
  68   2.0000      -7.995397      -217.5658
  69   2.0000      -7.989657      -217.4096
  70   2.0000      -5.964271      -162.2961
  71   2.0000      -5.963720      -162.2811
  72   2.0000      -5.958582      -162.1413
  73   2.0000      -5.957718      -162.1177
  74   2.0000      -5.954791      -162.0381
  75   2.0000      -5.949285      -161.8883
  76   2.0000      -1.339155       -36.4403
  77   2.0000      -1.336333       -36.3635
  78   2.0000      -1.323864       -36.0242
  79   2.0000      -1.321658       -35.9641
  80   2.0000      -1.089524       -29.6475
  81   2.0000      -1.085993       -29.5514
  82   2.0000      -1.081008       -29.4157
  83   2.0000      -1.075429       -29.2639
  84   2.0000      -1.062030       -28.8993
  85   2.0000      -1.056558       -28.7504
  86   2.0000      -1.021454       -27.7952
  87   2.0000      -1.018302       -27.7094
  88   2.0000      -0.982971       -26.7480
  89   2.0000      -0.964867       -26.2554
  90   2.0000      -0.961945       -26.1759
  91   2.0000      -0.955859       -26.0102
  92   2.0000      -0.953640       -25.9499
  93   2.0000      -0.950155       -25.8550
  94   2.0000      -0.947568       -25.7846
  95   2.0000      -0.945790       -25.7363
  96   2.0000      -0.920961       -25.0606
  97   2.0000      -0.898130       -24.4394
  98   2.0000      -0.894347       -24.3364
  99   2.0000      -0.888865       -24.1872
 100   2.0000      -0.874852       -23.8059
 101   2.0000      -0.863605       -23.4999
 102   2.0000      -0.863011       -23.4837
 103   2.0000      -0.860029       -23.4026
 104   2.0000      -0.852907       -23.2088
 105   2.0000      -0.846829       -23.0434
 106   2.0000      -0.837281       -22.7836
 107   2.0000      -0.834474       -22.7072
 108   2.0000      -0.829619       -22.5751
 109   2.0000      -0.825506       -22.4632
 110   2.0000      -0.822850       -22.3909
 111   2.0000      -0.795462       -21.6456
 112   2.0000      -0.780069       -21.2267
 113   2.0000      -0.777696       -21.1622
 114   2.0000      -0.774943       -21.0873
 115   2.0000      -0.768430       -20.9100
 116   2.0000      -0.765126       -20.8201
 117   2.0000      -0.761396       -20.7186
 118   2.0000      -0.755478       -20.5576
 119   2.0000      -0.742963       -20.2171
 120   2.0000      -0.734426       -19.9848
 121   2.0000      -0.722133       -19.6502
 122   2.0000      -0.717501       -19.5242
 123   2.0000      -0.712497       -19.3880
 124   2.0000      -0.706577       -19.2269
 125   2.0000      -0.698806       -19.0155
 126   2.0000      -0.693664       -18.8756
 127   2.0000      -0.692206       -18.8359
 128   2.0000      -0.672415       -18.2973
 129   2.0000      -0.671753       -18.2793
 130   2.0000      -0.670599       -18.2479
 131   2.0000      -0.668865       -18.2008
 132   2.0000      -0.667718       -18.1695
 133   2.0000      -0.665030       -18.0964
 134   2.0000      -0.661960       -18.0128
 135   2.0000      -0.648766       -17.6538
 136   2.0000      -0.644012       -17.5245
 137   2.0000      -0.643346       -17.5063
 138   2.0000      -0.636585       -17.3224
 139   2.0000      -0.632933       -17.2230
 140   2.0000      -0.627839       -17.0844
 141   2.0000      -0.624650       -16.9976
 142   2.0000      -0.614770       -16.7287
 143   2.0000      -0.609010       -16.5720
 144   2.0000      -0.601138       -16.3578
 145   2.0000      -0.599580       -16.3154
 146   2.0000      -0.595865       -16.2143
 147   2.0000      -0.594457       -16.1760
 148   2.0000      -0.585194       -15.9239
 149   2.0000      -0.580345       -15.7920
 150   2.0000      -0.576971       -15.7002
 151   2.0000      -0.573370       -15.6022
 152   2.0000      -0.570748       -15.5308
 153   2.0000      -0.569497       -15.4968
 154   2.0000      -0.565533       -15.3889
 155   2.0000      -0.564372       -15.3573
 156   2.0000      -0.563292       -15.3279
 157   2.0000      -0.561524       -15.2798
 158   2.0000      -0.556295       -15.1376
 159   2.0000      -0.550841       -14.9891
 160   2.0000      -0.549885       -14.9631
 161   2.0000      -0.544761       -14.8237
 162   2.0000      -0.543905       -14.8004
 163   2.0000      -0.542221       -14.7546
 164   2.0000      -0.540466       -14.7068
 165   2.0000      -0.538030       -14.6405
 166   2.0000      -0.535982       -14.5848
 167   2.0000      -0.534331       -14.5399
 168   2.0000      -0.532940       -14.5020
 169   2.0000      -0.530283       -14.4297
 170   2.0000      -0.527543       -14.3552
 171   2.0000      -0.523636       -14.2489
 172   2.0000      -0.518018       -14.0960
 173   2.0000      -0.515858       -14.0372
 174   2.0000      -0.512943       -13.9579
 175   2.0000      -0.512316       -13.9408
 176   2.0000      -0.511030       -13.9058
 177   2.0000      -0.510514       -13.8918
 178   2.0000      -0.506442       -13.7810
 179   2.0000      -0.503081       -13.6895
 180   2.0000      -0.502245       -13.6668
 181   2.0000      -0.500295       -13.6137
 182   2.0000      -0.494644       -13.4600
 183   2.0000      -0.492157       -13.3923
 184   2.0000      -0.487815       -13.2741
 185   2.0000      -0.486227       -13.2309
 186   2.0000      -0.485076       -13.1996
 187   2.0000      -0.483665       -13.1612
 188   2.0000      -0.481467       -13.1014
 189   2.0000      -0.477409       -12.9910
 190   2.0000      -0.474616       -12.9150
 191   2.0000      -0.468270       -12.7423
 192   2.0000      -0.464091       -12.6286
 193   2.0000      -0.457472       -12.4485
 194   2.0000      -0.453784       -12.3481
 195   2.0000      -0.453393       -12.3374
 196   2.0000      -0.452627       -12.3166
 197   2.0000      -0.447803       -12.1853
 198   2.0000      -0.445961       -12.1352
 199   2.0000      -0.441207       -12.0058
 200   2.0000      -0.438645       -11.9361
 201   2.0000      -0.433948       -11.8083
 202   2.0000      -0.427882       -11.6433
 203   2.0000      -0.426782       -11.6133
 204   2.0000      -0.424837       -11.5604
 205   2.0000      -0.422123       -11.4866
 206   2.0000      -0.420713       -11.4482
 207   2.0000      -0.419809       -11.4236
 208   2.0000      -0.418462       -11.3869
 209   2.0000      -0.414480       -11.2786
 210   2.0000      -0.410740       -11.1768
 211   2.0000      -0.406536       -11.0624
 212   2.0000      -0.403561       -10.9814
 213   2.0000      -0.399619       -10.8742
 214   2.0000      -0.394844       -10.7442
 215   2.0000      -0.391147       -10.6437
 216   2.0000      -0.382883       -10.4188
 217   2.0000      -0.366857        -9.9827
 218   2.0000      -0.364142        -9.9088
 219   2.0000      -0.362108        -9.8535
 220   2.0000      -0.357308        -9.7228
 221   2.0000      -0.354913        -9.6577
 222   2.0000      -0.353197        -9.6110
 223   2.0000      -0.351371        -9.5613
 224   2.0000      -0.349654        -9.5146
 225   2.0000      -0.348932        -9.4949
 226   2.0000      -0.346290        -9.4230
 227   2.0000      -0.345196        -9.3933
 228   2.0000      -0.342656        -9.3242
 229   2.0000      -0.325164        -8.8482
 230   2.0000      -0.315659        -8.5895
 231   2.0000      -0.311274        -8.4702
 232   2.0000      -0.310593        -8.4517
 233   2.0000      -0.295293        -8.0353
 234   2.0000      -0.288728        -7.8567
 235   2.0000      -0.285160        -7.7596
 236   2.0000      -0.283743        -7.7210
 237   2.0000      -0.282394        -7.6843
 238   2.0000      -0.277984        -7.5643
 239   2.0000      -0.271451        -7.3866
 240   2.0000      -0.219586        -5.9752
 241   0.0000      -0.108152        -2.9430
 242   0.0000      -0.105680        -2.8757
 243   0.0000      -0.081202        -2.2096
 244   0.0000      -0.077592        -2.1114
 245   0.0000      -0.058487        -1.5915

MULLIKEN ATOMIC CHARGES
-----------------------
   0 C :   -0.041379
   1 C :    0.061519
   2 C :   -0.014024
   3 C :    0.009447
   4 C :    0.053655
   5 C :    0.119552
   6 N :   -0.088372
   7 C :    0.099958
   8 C :    0.123274
   9 N :   -0.090844
  10 F :   -0.142024
  11 F :   -0.142828
  12 C :   -0.002314
  13 C :    0.056503
  14 N :   -0.015834
  15 C :   -0.003806
  16 C :   -0.013445
  17 C :    0.005400
  18 S :   -0.171685
  19 C :   -0.021560
  20 C :   -0.002187
  21 N :   -0.019712
  22 C :    0.043265
  23 C :    0.014321
  24 C :    0.088372
  25 C :   -0.054188
  26 C :    0.041392
  27 C :    0.054804
  28 C :   -0.094026
  29 C :    0.148526
  30 N :   -0.217281
  31 C :    0.150880
  32 N :   -0.216338
  33 C :    0.090586
  34 C :   -0.137096
  35 C :    0.193212
  36 C :   -0.066357
  37 C :    0.024703
  38 C :    0.004758
  39 C :    0.044614
  40 C :   -0.006006
  41 C :   -0.030292
  42 C :   -0.107538
  43 C :    0.025736
  44 C :   -0.000718
  45 C :    0.051473
  46 N :   -0.028319
  47 C :    0.023041
  48 C :   -0.003328
  49 C :   -0.000241
  50 S :   -0.135251
  51 C :   -0.014376
  52 C :   -0.009913
  53 N :   -0.026044
  54 C :    0.085507
  55 C :   -0.003156
  56 C :   -0.047510
  57 C :    0.008116
  58 C :    0.027354
  59 C :    0.013921
  60 C :    0.101569
  61 C :    0.097129
  62 N :   -0.112420
  63 C :    0.120868
  64 C :    0.121171
  65 N :   -0.088944
  66 F :   -0.142444
  67 F :   -0.138983
  68 H :    0.014890
  69 H :   -0.006037
  70 H :   -0.013971
  71 H :    0.032885
  72 H :    0.041269
  73 H :    0.011855
  74 H :    0.008300
  75 H :   -0.050454
  76 H :   -0.022721
  77 H :   -0.001185
  78 H :   -0.030730
  79 H :    0.087133
  80 H :    0.087530
  81 H :   -0.001051
  82 H :   -0.025716
  83 H :    0.093021
  84 H :    0.090558
  85 H :    0.001277
  86 H :    0.048615
  87 H :   -0.000530
  88 H :   -0.035108
  89 H :   -0.038395
  90 H :   -0.033628
  91 H :   -0.003676
  92 H :    0.008223
  93 H :    0.003838
  94 H :    0.017439
  95 H :   -0.012858
  96 H :   -0.002563
  97 H :    0.010551
  98 H :    0.030907
  99 H :    0.036489
Sum of atomic charges:   -0.0000000

LOEWDIN ATOMIC CHARGES
----------------------
   0 C :   -0.009619
   1 C :   -0.031022
   2 C :    0.010368
   3 C :   -0.033931
   4 C :    0.018160
   5 C :    0.010944
   6 N :   -0.068203
   7 C :    0.045928
   8 C :    0.048520
   9 N :   -0.072093
  10 F :   -0.030728
  11 F :   -0.031565
  12 C :   -0.023536
  13 C :    0.078742
  14 N :   -0.077916
  15 C :    0.028368
  16 C :   -0.041437
  17 C :   -0.125567
  18 S :    0.048493
  19 C :   -0.056615
  20 C :    0.037168
  21 N :   -0.075310
  22 C :    0.081664
  23 C :   -0.013440
  24 C :   -0.045821
  25 C :    0.031606
  26 C :   -0.023015
  27 C :    0.005886
  28 C :   -0.042245
  29 C :    0.024149
  30 N :   -0.120773
  31 C :    0.028382
  32 N :   -0.116771
  33 C :   -0.011843
  34 C :    0.071618
  35 C :   -0.030619
  36 C :   -0.037826
  37 C :   -0.010770
  38 C :   -0.038523
  39 C :   -0.027740
  40 C :   -0.010194
  41 C :   -0.030310
  42 C :    0.006243
  43 C :   -0.024967
  44 C :   -0.033589
  45 C :    0.082014
  46 N :   -0.079460
  47 C :    0.029823
  48 C :   -0.038618
  49 C :   -0.135872
  50 S :    0.053143
  51 C :   -0.038565
  52 C :    0.041419
  53 N :   -0.083113
  54 C :    0.092981
  55 C :   -0.029490
  56 C :   -0.044564
  57 C :    0.008943
  58 C :   -0.027157
  59 C :    0.000977
  60 C :    0.013882
  61 C :    0.018488
  62 N :   -0.072308
  63 C :    0.057156
  64 C :    0.043886
  65 N :   -0.062582
  66 F :   -0.031633
  67 F :   -0.027820
  68 H :    0.032318
  69 H :    0.034258
  70 H :    0.014800
  71 H :    0.036775
  72 H :    0.048058
  73 H :    0.022355
  74 H :    0.024228
  75 H :    0.003272
  76 H :    0.022055
  77 H :    0.001217
  78 H :    0.007619
  79 H :    0.050981
  80 H :    0.053148
  81 H :    0.005059
  82 H :    0.010741
  83 H :    0.053283
  84 H :    0.055091
  85 H :    0.025620
  86 H :    0.067823
  87 H :    0.027312
  88 H :    0.030963
  89 H :    0.027166
  90 H :    0.023076
  91 H :    0.021731
  92 H :    0.031466
  93 H :    0.022116
  94 H :    0.025578
  95 H :    0.018662
  96 H :    0.035707
  97 H :    0.032218
  98 H :    0.040810
  99 H :    0.042712

  Mayer bond orders larger than 0.100000
B(  0-C ,  1-C ) :   1.7964 B(  0-C ,  5-C ) :   0.9644 B(  0-C , 68-H ) :   0.9806
B(  1-C ,  2-C ) :   1.0779 B(  1-C , 69-H ) :   0.9830 B(  2-C ,  3-C ) :   1.7251
B(  2-C , 70-H ) :   0.9581 B(  3-C ,  4-C ) :   0.9693 B(  3-C , 12-C ) :   1.0865
B(  4-C ,  5-C ) :   0.9821 B(  4-C ,  9-N ) :   0.9999 B(  4-C , 71-H ) :   0.9018
B(  5-C ,  6-N ) :   1.0009 B(  5-C , 72-H ) :   0.8848 B(  6-N ,  7-C ) :   1.9573
B(  7-C ,  8-C ) :   0.9304 B(  7-C , 11-F ) :   1.1639 B(  8-C ,  9-N ) :   1.9520
B(  8-C , 10-F ) :   1.1667 B( 12-C , 13-C ) :   1.0451 B( 12-C , 16-C ) :   1.5192
B( 13-C , 14-N ) :   1.7196 B( 13-C , 73-H ) :   0.9745 B( 14-N , 15-C ) :   1.2691
B( 15-C , 16-C ) :   1.0697 B( 15-C , 20-C ) :   1.5205 B( 16-C , 17-C ) :   1.0519
B( 17-C , 18-S ) :   1.6279 B( 17-C , 19-C ) :   1.0623 B( 19-C , 20-C ) :   1.0717
B( 19-C , 23-C ) :   1.4839 B( 20-C , 21-N ) :   1.2652 B( 21-N , 22-C ) :   1.7248
B( 22-C , 23-C ) :   1.0334 B( 22-C , 74-H ) :   0.9866 B( 23-C , 24-C ) :   1.0549
B( 24-C , 25-C ) :   1.4897 B( 24-C , 41-C ) :   1.1017 B( 25-C , 26-C ) :   1.1666
B( 25-C , 75-H ) :   0.9738 B( 26-C , 27-C ) :   1.4783 B( 26-C , 39-C ) :   1.1081
B( 27-C , 28-C ) :   1.0092 B( 27-C , 33-C ) :   1.0901 B( 28-C , 29-C ) :   1.0364
B( 28-C , 31-C ) :   1.0436 B( 28-C , 76-H ) :   0.8928 B( 29-C , 30-N ) :   1.0767
B( 29-C , 77-H ) :   0.9336 B( 29-C , 78-H ) :   0.9343 B( 30-N , 79-H ) :   0.9716
B( 30-N , 80-H ) :   0.9700 B( 31-C , 32-N ) :   1.0826 B( 31-C , 81-H ) :   0.9459
B( 31-C , 82-H ) :   0.9274 B( 32-N , 83-H ) :   0.9696 B( 32-N , 84-H ) :   0.9670
B( 33-C , 34-C ) :   1.6883 B( 33-C , 38-C ) :   1.0496 B( 34-C , 35-C ) :   0.9588
B( 34-C , 85-H ) :   0.9585 B( 35-C , 36-C ) :   1.0162 B( 35-C , 42-C ) :   0.9349
B( 35-C , 86-H ) :   0.8347 B( 36-C , 37-C ) :   1.7205 B( 36-C , 87-H ) :   0.9624
B( 37-C , 38-C ) :   1.1295 B( 37-C , 88-H ) :   0.9909 B( 38-C , 39-C ) :   1.4444
B( 39-C , 40-C ) :   1.1385 B( 40-C , 41-C ) :   1.6189 B( 40-C , 89-H ) :   0.9908
B( 41-C , 90-H ) :   0.9839 B( 42-C , 43-C ) :   1.8289 B( 42-C , 91-H ) :   0.9707
B( 43-C , 44-C ) :   1.0685 B( 43-C , 92-H ) :   0.9481 B( 44-C , 45-C ) :   1.0221
B( 44-C , 48-C ) :   1.5389 B( 45-C , 46-N ) :   1.7256 B( 45-C , 93-H ) :   0.9902
B( 46-N , 47-C ) :   1.2660 B( 47-C , 48-C ) :   1.0637 B( 47-C , 52-C ) :   1.5227
B( 48-C , 49-C ) :   1.0284 B( 49-C , 50-S ) :   1.6748 B( 49-C , 51-C ) :   1.0418
B( 51-C , 52-C ) :   1.0641 B( 51-C , 55-C ) :   1.5433 B( 52-C , 53-N ) :   1.2742
B( 53-N , 54-C ) :   1.7130 B( 54-C , 55-C ) :   1.0352 B( 54-C , 94-H ) :   0.9794
B( 55-C , 56-C ) :   1.0690 B( 56-C , 57-C ) :   1.7393 B( 56-C , 61-C ) :   0.9362
B( 57-C , 58-C ) :   1.0800 B( 57-C , 95-H ) :   0.9590 B( 58-C , 59-C ) :   1.8057
B( 58-C , 96-H ) :   0.9832 B( 59-C , 60-C ) :   0.9956 B( 59-C , 97-H ) :   0.9759
B( 60-C , 61-C ) :   0.9812 B( 60-C , 65-N ) :   1.0026 B( 60-C , 98-H ) :   0.9036
B( 61-C , 62-N ) :   1.0060 B( 61-C , 99-H ) :   0.8802 B( 62-N , 63-C ) :   1.9340
B( 63-C , 64-C ) :   0.9343 B( 63-C , 67-F ) :   1.1711 B( 64-C , 65-N ) :   1.9557
B( 64-C , 66-F ) :   1.1664

-----------------------------------------------------------------------------
         ABSORPTION SPECTRUM VIA TRANSITION ELECTRIC DIPOLE MOMENTS
-----------------------------------------------------------------------------
State   Energy  Wavelength   fosc         T2         TX        TY        TZ
        (cm-1)    (nm)                  (au**2)     (au)      (au)      (au)
-----------------------------------------------------------------------------
   0    9516.6   1050.8   0.062528254   2.16307   0.45584  -0.89179  -1.07703
   1   12328.2    811.1   0.002353023   0.06284   0.23758   0.00896   0.07945
   2   13843.4    722.4   0.008322564   0.19792   0.23604   0.32811  -0.18588
   3   15893.0    629.2   0.015025255   0.31124   0.48585   0.04107  -0.27111
   4   16542.5    604.5   0.028023705   0.55770  -0.32839  -0.24683   0.62365
   5   16807.4    595.0   0.178362303   3.49363   0.99766  -0.63697  -1.44657
   6   17880.5    559.3   0.093267436   1.71722   0.58951  -0.28514  -1.13507
   7   18267.7    547.4   0.002574572   0.04640   0.19514   0.09079   0.00856
   8   18360.5    544.6   0.021649554   0.38819   0.16516   0.14566  -0.58283
   9   18719.3    534.2   0.181989989   3.20062  -1.23200   0.14842   1.28871
  10   18877.0    529.7   0.037069583   0.64649  -0.02211   0.35413  -0.72152
  11   20281.4    493.1   0.007102710   0.11529   0.26339   0.18134   0.11418
  12   20660.8    484.0   0.044397003   0.70743  -0.20927   0.51802   0.62872
  13   22829.1    438.0   0.001965821   0.02835  -0.08470   0.10158   0.10420
  14   24745.5    404.1   0.136706467   1.81873   0.60028   0.07797  -1.20512
  15   24796.6    403.3   0.038058330   0.50528  -0.20861   0.48736   0.47355
  16   25086.1    398.6   0.328218416   4.30729  -1.51826  -0.02394   1.41478
  17   25263.6    395.8   0.115537113   1.50557  -0.22872  -0.41465   1.13196
  18   25970.7    385.0   0.087048286   1.10345   0.48093  -0.44877  -0.81900
  19   26373.2    379.2   0.034338754   0.42864  -0.14224  -0.16010   0.61869
  20   26520.6    377.1   0.339797321   4.21806  -0.61511   1.11464   1.61161
  21   27007.3    370.3   0.216444010   2.63839  -1.40035   0.10338   0.81654
  22   27051.0    369.7   0.126567802   1.54034  -0.63015  -0.50193   0.94410
  23   27411.4    364.8   0.015884770   0.19078  -0.01122  -0.24194  -0.36347
  24   27558.1    362.9   0.002169194   0.02591   0.15045   0.03880  -0.04209
  25   28213.5    354.4   0.002452659   0.02862   0.07421   0.01596   0.15119
  26   28834.3    346.8   0.221068574   2.52403   0.24251  -0.43836   1.50766
  27   28900.0    346.0   0.165947673   1.89038  -0.07078   0.39930  -1.31375
  28   29406.9    340.1   0.000626433   0.00701  -0.04366  -0.05670  -0.04350
  29   29438.1    339.7   0.009367672   0.10476  -0.16464  -0.09630   0.26150
  30   29699.5    336.7   0.054710659   0.60645   0.08646  -0.22245   0.74128
  31   30029.0    333.0   0.020599007   0.22583   0.27984  -0.05913  -0.37950
  32   30132.6    331.9   0.006725694   0.07348   0.18392   0.12500  -0.15502
  33   30299.3    330.0   0.061288254   0.66592   0.08674  -0.38521   0.71415
  34   30489.1    328.0   0.030046478   0.32443   0.18069   0.25914  -0.47395
  35   30633.6    326.4   0.020562659   0.22098   0.20569   0.20367  -0.37040
  36   30931.9    323.3   0.029592085   0.31495  -0.32965  -0.33373   0.30807
  37   31002.4    322.6   0.002260282   0.02400   0.09088   0.12353  -0.02200
  38   31241.6    320.1   0.011604451   0.12228  -0.27180  -0.17430   0.13427
  39   31913.9    313.3   0.054300766   0.56015  -0.50581  -0.54754   0.06707
  40   32305.0    309.5   0.001708509   0.01741   0.04874   0.03593  -0.11723
  41   32797.1    304.9   0.002297213   0.02306   0.13925   0.00562  -0.06031
  42   33307.3    300.2   0.259313234   2.56307   0.33258  -0.10147  -1.56274
  43   33377.6    299.6   0.049203766   0.48531   0.04906   0.32708  -0.61313
  44   33581.1    297.8   0.001148651   0.01126  -0.03248  -0.07324   0.06958
  45   33712.4    296.6   0.004549894   0.04443  -0.07009  -0.17386  -0.09639
  46   33980.0    294.3   0.002442885   0.02367  -0.08356   0.05303   0.11779
  47   34074.1    293.5   0.010016858   0.09678   0.12900  -0.03413  -0.28102
  48   34141.0    292.9   0.003008741   0.02901  -0.10256   0.06611   0.11884
  49   34190.8    292.5   0.072526179   0.69833  -0.51665   0.27890   0.59466
  50   34622.1    288.8   0.004101226   0.03900   0.12083  -0.06806  -0.14059
  51   34682.6    288.3   0.010117501   0.09604   0.09806  -0.14931  -0.25323
  52   34781.9    287.5   0.022166579   0.20981   0.15762   0.28587   0.32131
  53   35281.6    283.4   0.004254584   0.03970  -0.02043   0.10292  -0.16938
  54   35648.0    280.5   0.060932228   0.56271   0.31971   0.15112  -0.66156
  55   35724.5    279.9   0.004559482   0.04202  -0.01203   0.04357   0.19994
  56   35907.0    278.5   0.084880540   0.77822   0.48735   0.05810  -0.73303
  57   35999.9    277.8   0.061468844   0.56212  -0.33708   0.14371   0.65410
  58   36071.1    277.2   0.023470663   0.21421  -0.34715   0.28877   0.10155
  59   36195.1    276.3   0.011009777   0.10014  -0.11477   0.01170   0.29467
  60   36290.6    275.6   0.009080339   0.08237   0.09215  -0.24287  -0.12204
  61   36328.2    275.3   0.033044148   0.29945  -0.06767   0.24460  -0.48481
  62   36525.1    273.8   0.078335688   0.70606   0.02562  -0.36730  -0.75531
  63   36609.9    273.2   0.106991470   0.96211  -0.43683  -0.54157  -0.69138
  64   36682.4    272.6   0.264630105   2.37497  -1.04574   0.59427   0.96344
  65   36704.0    272.4   0.015313387   0.13735  -0.15247  -0.32463  -0.09337
  66   36870.3    271.2   0.006827228   0.06096  -0.13457   0.19831   0.05938
  67   37067.6    269.8   0.036474871   0.32395   0.28609   0.30305   0.38764
  68   37105.1    269.5   0.010406589   0.09233  -0.19700   0.23130  -0.00485
  69   37247.0    268.5   0.005123485   0.04528  -0.19593   0.07928   0.02469
  70   37407.9    267.3   0.021695504   0.19093   0.04769   0.11731   0.41821
  71   37507.9    266.6   0.156828715   1.37651  -0.49086   0.59606   0.88334
  72   37626.8    265.8   0.004675181   0.04091   0.13006   0.13590   0.07430
  73   37681.2    265.4   0.030600028   0.26735  -0.31822  -0.07739  -0.40011
  74   37951.5    263.5   0.010606506   0.09201   0.26071  -0.15061   0.03681
  75   38079.5    262.6   0.010321561   0.08923  -0.16992  -0.24175  -0.04380
  76   38189.1    261.9   0.102515297   0.88374  -0.50771  -0.71410  -0.34064
  77   38682.1    258.5   0.015625882   0.13299  -0.11669  -0.31760  -0.13602
  78   39034.6    256.2   0.040958461   0.34544   0.48047   0.33450  -0.05191
  79   39199.5    255.1   0.074746441   0.62775  -0.63696  -0.46868  -0.04877
  80   39662.1    252.1   0.181953598   1.51029  -0.26984  -0.75261  -0.93331
  81   39779.6    251.4   0.051519050   0.42637   0.10263   0.54454  -0.34541
  82   39798.9    251.3   0.045119048   0.37322   0.35734  -0.32125  -0.37727
  83   39867.4    250.8   0.000838116   0.00692  -0.05158   0.00681   0.06491

FINAL SINGLE POINT ENERGY     -3739.837423976363

DIPOLE MOMENT
-------------
                                X             Y             Z
Electronic contribution:      8.98701     -21.24735      15.14359
Nuclear contribution   :     -9.03804      22.01980     -13.65944
                        -----------------------------------------
Total Dipole Moment    :     -0.05103       0.77245       1.48415
                        -----------------------------------------
Magnitude (a.u.)       :      1.67391
Magnitude (Debye)      :      4.25474

Rotational constants in cm-1:     0.002294     0.000249     0.000243
Rotational constants in MHz :    68.785154     7.461059     7.299165

                             ****ORCA TERMINATED NORMALLY****
TOTAL RUN TIME: 0 days 0 hours 8 minutes 52 seconds 820 msec
