                         Program Version 4.2.0 -  RELEASE  -
|  1> # ORCA input file
|  2> # SCF done       -178.254000950169          0.000754794439
|  3> ! CAM-B3LYP def2-SVP def2/J RIJCOSX Grid4 TightSCF
|  4> %maxcore 5000
|  5> %tddft
|  6>     Mode sTDDFT
|  7>     Ethresh 5.0
|  8>     maxcore 5000
|  9> end
| 10>
| 11> %pal
| 12>   nprocs 6
| 13>   end
| 14> * xyz 0 1
| 15>    C        6.54879        -4.82422         1.38260
| 16>    C        6.18187        -5.22597         0.12063
| 17>    N        7.16418        -5.73350        -0.78182
| 18>    O        8.31755        -5.71418        -0.39774
| 19>    O        6.80553        -6.15028        -1.86122
| 20>    C        4.79037        -5.09124        -0.14785
| 21>    C        4.15937        -5.45421        -1.43687
| 22>    C        4.12703        -4.54995         0.94347
| 23>    S        5.23116        -4.24985         2.27036
| 24>    C        2.72588        -4.29619         1.06557
| 25>    N        1.87526        -4.90213         0.25170
| 26>    C        0.64265        -4.50623         0.63144
| 27>    C        0.70603        -3.58597         1.76624
| 28>    C       -0.64888        -3.16419         2.15304
| 29>    O       -0.98721        -2.41190         3.04424
| 30>    C       -1.50277        -3.88172         1.18748
| 31>    C       -0.67297        -4.68981         0.27552
| 32>    N       -1.44492        -5.34015        -0.62837
| 33>    C       -2.67600        -4.99154        -0.33868
| 34>    C       -2.78395        -4.07870         0.78056
| 35>    C        2.04369        -3.41893         2.05215
| 36>    C        2.67256        -2.57583         3.00749
| 37>    C        1.98868        -1.86120         3.93272
| 38>    C        2.55898        -0.98469         4.91581
| 39>    C        1.70122        -0.21886         5.68812
| 40>    C        2.21101         0.66753         6.64838
| 41>    C        1.56777         1.54843         7.51966
| 42>    C        0.10031         1.75255         7.64825
| 43>    C       -0.39265         1.29362         9.03750
| 44>    N       -1.81641         1.05649         8.98983
| 45>    C       -0.28877         3.21458         7.36155
| 46>    N       -1.72804         3.33756         7.18182
| 47>    C        2.60047         2.20916         8.27964
| 48>    C        2.54278         3.12686         9.26598
| 49>    C        3.78273         3.67938         9.88625
| 50>    C        5.05531         3.06692         9.41057
| 51>    C        5.09596         2.14199         8.43104
| 52>    C        3.90028         1.68819         7.82956
| 53>    C        3.64947         0.75780         6.83643
| 54>    C        4.50485        -0.04501         6.05099
| 55>    C        3.97306        -0.88212         5.12279
| 56>    C        3.78374         5.16044         9.59186
| 57>    C        3.12164         6.06061        10.32772
| 58>    C        3.13536         7.46132        10.02576
| 59>    N        4.14661         8.01996         9.37702
| 60>    C        3.91020         9.34583         9.38453
| 61>    C        2.66205         9.65682        10.08922
| 62>    C        2.40735        11.10846        10.09820
| 63>    O        1.46894        11.70288        10.58161
| 64>    C        3.57745        11.63574         9.37464
| 65>    C        4.46605        10.53155         8.95409
| 66>    N        5.53355        11.00834         8.27599
| 67>    C        5.36674        12.31234         8.24630
| 68>    C        4.16605        12.76922         8.90733
| 69>    C        2.12965         8.45024        10.47275
| 70>    C        0.86800         8.21668        11.08897
| 71>    C        0.18632         7.05119        10.99959
| 72>    C       -1.08402         6.81650        11.59045
| 73>    C       -1.82148         5.62543        11.63898
| 74>    N       -1.36304         4.39718        11.13888
| 75>    O       -0.21128         4.31718        10.71829
| 76>    O       -2.11713         3.44107        11.14492
| 77>    C       -3.08876         5.76918        12.29167
| 78>    C       -4.09346         4.69215        12.50187
| 79>    C       -3.27215         7.04390        12.72262
| 80>    S       -1.96052         8.09415        12.35898
| 81>    H        7.53806        -4.84973         1.79664
| 82>    H        4.70133        -4.99849        -2.26425
| 83>    H        3.11507        -5.15957        -1.44455
| 84>    H        4.21744        -6.53279        -1.58031
| 85>    H       -3.49919        -5.37855        -0.91371
| 86>    H       -3.69730        -3.67374         1.16960
| 87>    H        3.74775        -2.49705         2.95260
| 88>    H        0.90872        -1.93119         3.94043
| 89>    H        0.63490        -0.30520         5.53859
| 90>    H       -0.40839         1.12084         6.91315
| 91>    H       -0.09842         2.04693         9.78035
| 92>    H        0.10355         0.35209         9.30152
| 93>    H       -2.28466         1.90146         8.67413
| 94>    H       -2.17288         0.80420         9.90346
| 95>    H        0.28510         3.56058         6.48378
| 96>    H       -0.01193         3.84613         8.20861
| 97>    H       -2.03173         2.77078         6.39583
| 98>    H       -1.97552         4.30120         6.98259
| 99>    H        1.61344         3.52268         9.64485
|100>    H        3.69671         3.55771        10.97521
|101>    H        5.95856         3.43432         9.87268
|102>    H        6.03785         1.72799         8.10204
|103>    H        5.57355         0.01417         6.19555
|104>    H        4.62968        -1.50057         4.53120
|105>    H        4.31827         5.47987         8.70995
|106>    H        2.54948         5.75053        11.19192
|107>    H        6.09271        12.93990         7.75908
|108>    H        3.84806        13.78965         8.99003
|109>    H        0.43153         9.06412        11.60439
|110>    H        0.60061         6.23334        10.43106
|111>    H       -4.43805         4.30165        11.54602
|112>    H       -4.94156         5.08044        13.05971
|113>    H       -3.65396         3.85891        13.04736
|114>    H       -4.12220         7.43401        13.24606
|115> *
|116>
|117>                          ****END OF INPUT****

CARTESIAN COORDINATES (ANGSTROEM)
---------------------------------
  C      6.548790   -4.824220    1.382600
  C      6.181870   -5.225970    0.120630
  N      7.164180   -5.733500   -0.781820
  O      8.317550   -5.714180   -0.397740
  O      6.805530   -6.150280   -1.861220
  C      4.790370   -5.091240   -0.147850
  C      4.159370   -5.454210   -1.436870
  C      4.127030   -4.549950    0.943470
  S      5.231160   -4.249850    2.270360
  C      2.725880   -4.296190    1.065570
  N      1.875260   -4.902130    0.251700
  C      0.642650   -4.506230    0.631440
  C      0.706030   -3.585970    1.766240
  C     -0.648880   -3.164190    2.153040
  O     -0.987210   -2.411900    3.044240
  C     -1.502770   -3.881720    1.187480
  C     -0.672970   -4.689810    0.275520
  N     -1.444920   -5.340150   -0.628370
  C     -2.676000   -4.991540   -0.338680
  C     -2.783950   -4.078700    0.780560
  C      2.043690   -3.418930    2.052150
  C      2.672560   -2.575830    3.007490
  C      1.988680   -1.861200    3.932720
  C      2.558980   -0.984690    4.915810
  C      1.701220   -0.218860    5.688120
  C      2.211010    0.667530    6.648380
  C      1.567770    1.548430    7.519660
  C      0.100310    1.752550    7.648250
  C     -0.392650    1.293620    9.037500
  N     -1.816410    1.056490    8.989830
  C     -0.288770    3.214580    7.361550
  N     -1.728040    3.337560    7.181820
  C      2.600470    2.209160    8.279640
  C      2.542780    3.126860    9.265980
  C      3.782730    3.679380    9.886250
  C      5.055310    3.066920    9.410570
  C      5.095960    2.141990    8.431040
  C      3.900280    1.688190    7.829560
  C      3.649470    0.757800    6.836430
  C      4.504850   -0.045010    6.050990
  C      3.973060   -0.882120    5.122790
  C      3.783740    5.160440    9.591860
  C      3.121640    6.060610   10.327720
  C      3.135360    7.461320   10.025760
  N      4.146610    8.019960    9.377020
  C      3.910200    9.345830    9.384530
  C      2.662050    9.656820   10.089220
  C      2.407350   11.108460   10.098200
  O      1.468940   11.702880   10.581610
  C      3.577450   11.635740    9.374640
  C      4.466050   10.531550    8.954090
  N      5.533550   11.008340    8.275990
  C      5.366740   12.312340    8.246300
  C      4.166050   12.769220    8.907330
  C      2.129650    8.450240   10.472750
  C      0.868000    8.216680   11.088970
  C      0.186320    7.051190   10.999590
  C     -1.084020    6.816500   11.590450
  C     -1.821480    5.625430   11.638980
  N     -1.363040    4.397180   11.138880
  O     -0.211280    4.317180   10.718290
  O     -2.117130    3.441070   11.144920
  C     -3.088760    5.769180   12.291670
  C     -4.093460    4.692150   12.501870
  C     -3.272150    7.043900   12.722620
  S     -1.960520    8.094150   12.358980
  H      7.538060   -4.849730    1.796640
  H      4.701330   -4.998490   -2.264250
  H      3.115070   -5.159570   -1.444550
  H      4.217440   -6.532790   -1.580310
  H     -3.499190   -5.378550   -0.913710
  H     -3.697300   -3.673740    1.169600
  H      3.747750   -2.497050    2.952600
  H      0.908720   -1.931190    3.940430
  H      0.634900   -0.305200    5.538590
  H     -0.408390    1.120840    6.913150
  H     -0.098420    2.046930    9.780350
  H      0.103550    0.352090    9.301520
  H     -2.284660    1.901460    8.674130
  H     -2.172880    0.804200    9.903460
  H      0.285100    3.560580    6.483780
  H     -0.011930    3.846130    8.208610
  H     -2.031730    2.770780    6.395830
  H     -1.975520    4.301200    6.982590
  H      1.613440    3.522680    9.644850
  H      3.696710    3.557710   10.975210
  H      5.958560    3.434320    9.872680
  H      6.037850    1.727990    8.102040
  H      5.573550    0.014170    6.195550
  H      4.629680   -1.500570    4.531200
  H      4.318270    5.479870    8.709950
  H      2.549480    5.750530   11.191920
  H      6.092710   12.939900    7.759080
  H      3.848060   13.789650    8.990030
  H      0.431530    9.064120   11.604390
  H      0.600610    6.233340   10.431060
  H     -4.438050    4.301650   11.546020
  H     -4.941560    5.080440   13.059710
  H     -3.653960    3.858910   13.047360
  H     -4.122200    7.434010   13.246060

 Total Charge           Charge          ....    0
 Multiplicity           Mult            ....    1
 Number of Electrons    NEL             ....  470
 Basis Dimension        Dim             .... 1102

ORBITAL ENERGIES
----------------

  NO   OCC          E(Eh)            E(eV)
   0   2.0000     -88.990976     -2421.5676
   1   2.0000     -88.988454     -2421.4989
   2   2.0000     -19.259374      -524.0742
   3   2.0000     -19.256174      -523.9871
   4   2.0000     -19.243389      -523.6392
   5   2.0000     -19.239301      -523.5280
   6   2.0000     -19.214903      -522.8641
   7   2.0000     -19.204117      -522.5706
   8   2.0000     -14.667111      -399.1124
   9   2.0000     -14.651048      -398.6753
  10   2.0000     -14.413397      -392.2085
  11   2.0000     -14.409121      -392.0921
  12   2.0000     -14.406862      -392.0306
  13   2.0000     -14.397457      -391.7747
  14   2.0000     -14.382180      -391.3590
  15   2.0000     -14.337999      -390.1568
  16   2.0000     -10.376214      -282.3511
  17   2.0000     -10.364075      -282.0208
  18   2.0000     -10.350228      -281.6440
  19   2.0000     -10.349423      -281.6221
  20   2.0000     -10.348154      -281.5876
  21   2.0000     -10.343715      -281.4668
  22   2.0000     -10.338497      -281.3248
  23   2.0000     -10.334229      -281.2087
  24   2.0000     -10.333382      -281.1856
  25   2.0000     -10.329252      -281.0732
  26   2.0000     -10.329175      -281.0711
  27   2.0000     -10.326227      -280.9909
  28   2.0000     -10.322658      -280.8938
  29   2.0000     -10.318127      -280.7705
  30   2.0000     -10.315771      -280.7064
  31   2.0000     -10.315384      -280.6959
  32   2.0000     -10.313264      -280.6382
  33   2.0000     -10.313070      -280.6329
  34   2.0000     -10.312687      -280.6225
  35   2.0000     -10.310510      -280.5632
  36   2.0000     -10.310044      -280.5506
  37   2.0000     -10.304866      -280.4097
  38   2.0000     -10.302513      -280.3456
  39   2.0000     -10.301395      -280.3152
  40   2.0000     -10.299907      -280.2747
  41   2.0000     -10.299536      -280.2646
  42   2.0000     -10.293731      -280.1067
  43   2.0000     -10.293147      -280.0908
  44   2.0000     -10.291932      -280.0577
  45   2.0000     -10.282042      -279.7886
  46   2.0000     -10.279349      -279.7153
  47   2.0000     -10.278249      -279.6854
  48   2.0000     -10.277796      -279.6731
  49   2.0000     -10.277641      -279.6688
  50   2.0000     -10.274785      -279.5911
  51   2.0000     -10.273100      -279.5453
  52   2.0000     -10.273015      -279.5429
  53   2.0000     -10.272998      -279.5425
  54   2.0000     -10.272788      -279.5368
  55   2.0000     -10.269889      -279.4579
  56   2.0000     -10.268848      -279.4296
  57   2.0000     -10.267464      -279.3919
  58   2.0000     -10.265560      -279.3401
  59   2.0000     -10.262408      -279.2543
  60   2.0000     -10.260511      -279.2027
  61   2.0000     -10.260155      -279.1930
  62   2.0000     -10.259496      -279.1751
  63   2.0000     -10.255441      -279.0647
  64   2.0000     -10.254766      -279.0464
  65   2.0000     -10.253551      -279.0133
  66   2.0000      -8.086070      -220.0332
  67   2.0000      -8.084253      -219.9837
  68   2.0000      -6.055227      -164.7711
  69   2.0000      -6.053391      -164.7211
  70   2.0000      -6.050772      -164.6499
  71   2.0000      -6.049095      -164.6042
  72   2.0000      -6.048767      -164.5953
  73   2.0000      -6.046731      -164.5399
  74   2.0000      -1.335628       -36.3443
  75   2.0000      -1.323839       -36.0235
  76   2.0000      -1.150110       -31.2961
  77   2.0000      -1.141736       -31.0682
  78   2.0000      -1.129192       -30.7269
  79   2.0000      -1.117955       -30.4211
  80   2.0000      -1.083562       -29.4852
  81   2.0000      -1.075064       -29.2540
  82   2.0000      -1.063857       -28.9490
  83   2.0000      -1.052660       -28.6443
  84   2.0000      -1.023322       -27.8460
  85   2.0000      -1.017648       -27.6916
  86   2.0000      -0.981825       -26.7168
  87   2.0000      -0.963749       -26.2249
  88   2.0000      -0.951240       -25.8846
  89   2.0000      -0.941288       -25.6137
  90   2.0000      -0.936565       -25.4852
  91   2.0000      -0.930943       -25.3323
  92   2.0000      -0.924883       -25.1673
  93   2.0000      -0.921409       -25.0728
  94   2.0000      -0.920379       -25.0448
  95   2.0000      -0.911522       -24.8038
  96   2.0000      -0.897676       -24.4270
  97   2.0000      -0.891187       -24.2504
  98   2.0000      -0.883737       -24.0477
  99   2.0000      -0.881145       -23.9772
 100   2.0000      -0.867776       -23.6134
 101   2.0000      -0.859383       -23.3850
 102   2.0000      -0.850830       -23.1523
 103   2.0000      -0.850376       -23.1399
 104   2.0000      -0.838729       -22.8230
 105   2.0000      -0.832090       -22.6423
 106   2.0000      -0.822702       -22.3869
 107   2.0000      -0.809363       -22.0239
 108   2.0000      -0.802140       -21.8273
 109   2.0000      -0.795924       -21.6582
 110   2.0000      -0.772882       -21.0312
 111   2.0000      -0.768140       -20.9021
 112   2.0000      -0.762437       -20.7470
 113   2.0000      -0.757636       -20.6163
 114   2.0000      -0.753992       -20.5172
 115   2.0000      -0.751579       -20.4515
 116   2.0000      -0.749726       -20.4011
 117   2.0000      -0.732763       -19.9395
 118   2.0000      -0.723896       -19.6982
 119   2.0000      -0.710560       -19.3353
 120   2.0000      -0.709243       -19.2995
 121   2.0000      -0.707144       -19.2424
 122   2.0000      -0.690597       -18.7921
 123   2.0000      -0.676643       -18.4124
 124   2.0000      -0.671288       -18.2667
 125   2.0000      -0.665927       -18.1208
 126   2.0000      -0.663708       -18.0604
 127   2.0000      -0.660595       -17.9757
 128   2.0000      -0.655756       -17.8440
 129   2.0000      -0.653218       -17.7750
 130   2.0000      -0.646345       -17.5879
 131   2.0000      -0.640343       -17.4246
 132   2.0000      -0.637944       -17.3593
 133   2.0000      -0.633592       -17.2409
 134   2.0000      -0.633022       -17.2254
 135   2.0000      -0.629986       -17.1428
 136   2.0000      -0.624398       -16.9907
 137   2.0000      -0.618516       -16.8307
 138   2.0000      -0.616486       -16.7754
 139   2.0000      -0.612214       -16.6592
 140   2.0000      -0.606935       -16.5155
 141   2.0000      -0.601721       -16.3737
 142   2.0000      -0.594209       -16.1693
 143   2.0000      -0.589719       -16.0471
 144   2.0000      -0.585326       -15.9275
 145   2.0000      -0.583158       -15.8685
 146   2.0000      -0.576931       -15.6991
 147   2.0000      -0.573579       -15.6079
 148   2.0000      -0.564880       -15.3712
 149   2.0000      -0.563069       -15.3219
 150   2.0000      -0.560879       -15.2623
 151   2.0000      -0.556058       -15.1311
 152   2.0000      -0.552663       -15.0387
 153   2.0000      -0.550805       -14.9882
 154   2.0000      -0.543435       -14.7876
 155   2.0000      -0.542776       -14.7697
 156   2.0000      -0.540919       -14.7191
 157   2.0000      -0.539007       -14.6671
 158   2.0000      -0.534587       -14.5468
 159   2.0000      -0.530806       -14.4440
 160   2.0000      -0.526694       -14.3321
 161   2.0000      -0.522589       -14.2204
 162   2.0000      -0.522118       -14.2076
 163   2.0000      -0.521303       -14.1854
 164   2.0000      -0.520709       -14.1692
 165   2.0000      -0.516881       -14.0651
 166   2.0000      -0.515038       -14.0149
 167   2.0000      -0.511498       -13.9186
 168   2.0000      -0.510789       -13.8993
 169   2.0000      -0.506218       -13.7749
 170   2.0000      -0.504984       -13.7413
 171   2.0000      -0.501785       -13.6543
 172   2.0000      -0.497584       -13.5400
 173   2.0000      -0.496324       -13.5057
 174   2.0000      -0.493033       -13.4161
 175   2.0000      -0.490184       -13.3386
 176   2.0000      -0.486062       -13.2264
 177   2.0000      -0.483990       -13.1700
 178   2.0000      -0.483023       -13.1437
 179   2.0000      -0.481310       -13.0971
 180   2.0000      -0.479754       -13.0548
 181   2.0000      -0.477153       -12.9840
 182   2.0000      -0.475722       -12.9450
 183   2.0000      -0.469821       -12.7845
 184   2.0000      -0.468175       -12.7397
 185   2.0000      -0.467637       -12.7250
 186   2.0000      -0.466283       -12.6882
 187   2.0000      -0.464239       -12.6326
 188   2.0000      -0.463445       -12.6110
 189   2.0000      -0.461264       -12.5516
 190   2.0000      -0.460515       -12.5313
 191   2.0000      -0.455266       -12.3884
 192   2.0000      -0.453220       -12.3327
 193   2.0000      -0.450779       -12.2663
 194   2.0000      -0.442693       -12.0463
 195   2.0000      -0.441191       -12.0054
 196   2.0000      -0.435989       -11.8639
 197   2.0000      -0.432776       -11.7764
 198   2.0000      -0.428236       -11.6529
 199   2.0000      -0.424704       -11.5568
 200   2.0000      -0.417890       -11.3714
 201   2.0000      -0.410393       -11.1674
 202   2.0000      -0.401435       -10.9236
 203   2.0000      -0.396244       -10.7824
 204   2.0000      -0.395431       -10.7602
 205   2.0000      -0.392544       -10.6817
 206   2.0000      -0.387271       -10.5382
 207   2.0000      -0.385733       -10.4963
 208   2.0000      -0.383023       -10.4226
 209   2.0000      -0.381028       -10.3683
 210   2.0000      -0.380356       -10.3500
 211   2.0000      -0.376958       -10.2575
 212   2.0000      -0.368438       -10.0257
 213   2.0000      -0.364694        -9.9238
 214   2.0000      -0.364618        -9.9217
 215   2.0000      -0.363109        -9.8807
 216   2.0000      -0.357345        -9.7238
 217   2.0000      -0.356206        -9.6929
 218   2.0000      -0.349549        -9.5117
 219   2.0000      -0.348008        -9.4698
 220   2.0000      -0.345541        -9.4026
 221   2.0000      -0.343536        -9.3481
 222   2.0000      -0.336981        -9.1697
 223   2.0000      -0.335152        -9.1200
 224   2.0000      -0.333915        -9.0863
 225   2.0000      -0.326766        -8.8917
 226   2.0000      -0.322003        -8.7622
 227   2.0000      -0.321191        -8.7400
 228   2.0000      -0.310092        -8.4380
 229   2.0000      -0.301493        -8.2040
 230   2.0000      -0.298268        -8.1163
 231   2.0000      -0.287064        -7.8114
 232   2.0000      -0.268081        -7.2948
 233   2.0000      -0.266355        -7.2479
 234   2.0000      -0.218013        -5.9324
 235   0.0000      -0.119963        -3.2644
 236   0.0000      -0.108119        -2.9421
 237   0.0000      -0.085228        -2.3192
 238   0.0000      -0.069548        -1.8925
 239   0.0000      -0.049020        -1.3339

MULLIKEN ATOMIC CHARGES
-----------------------
   0 C :   -0.072570
   1 C :    0.113665
   2 N :    0.260138
   3 O :   -0.248722
   4 O :   -0.231119
   5 C :   -0.062866
   6 C :    0.182900
   7 C :   -0.208833
   8 S :    0.177627
   9 C :    0.057471
  10 N :   -0.053016
  11 C :    0.066649
  12 C :   -0.175132
  13 C :    0.217791
  14 O :   -0.147847
  15 C :   -0.011396
  16 C :   -0.035852
  17 N :   -0.054803
  18 C :    0.084890
  19 C :   -0.097207
  20 C :    0.054126
  21 C :   -0.056433
  22 C :    0.005940
  23 C :    0.111077
  24 C :   -0.101311
  25 C :    0.059869
  26 C :   -0.010061
  27 C :   -0.061637
  28 C :    0.158924
  29 N :   -0.221513
  30 C :    0.140357
  31 N :   -0.218309
  32 C :    0.101692
  33 C :   -0.111129
  34 C :    0.121821
  35 C :   -0.056652
  36 C :    0.028773
  37 C :   -0.000988
  38 C :    0.037917
  39 C :   -0.003798
  40 C :   -0.006083
  41 C :   -0.007628
  42 C :   -0.032214
  43 C :    0.029774
  44 N :   -0.039966
  45 C :    0.069958
  46 C :   -0.120556
  47 C :    0.200883
  48 O :   -0.131617
  49 C :   -0.039521
  50 C :   -0.024689
  51 N :   -0.053913
  52 C :    0.092280
  53 C :   -0.089653
  54 C :    0.027917
  55 C :   -0.008814
  56 C :   -0.035122
  57 C :   -0.142690
  58 C :    0.146090
  59 N :    0.294331
  60 O :   -0.270075
  61 O :   -0.223821
  62 C :   -0.091914
  63 C :    0.163365
  64 C :   -0.123553
  65 S :    0.166148
  66 H :    0.050806
  67 H :    0.024645
  68 H :    0.034574
  69 H :    0.032615
  70 H :    0.005338
  71 H :   -0.008845
  72 H :   -0.020730
  73 H :    0.003192
  74 H :   -0.014195
  75 H :   -0.027351
  76 H :   -0.035586
  77 H :   -0.012676
  78 H :    0.078483
  79 H :    0.080133
  80 H :   -0.006802
  81 H :   -0.022809
  82 H :    0.102489
  83 H :    0.090758
  84 H :    0.008125
  85 H :    0.039743
  86 H :   -0.007269
  87 H :   -0.034739
  88 H :   -0.040106
  89 H :   -0.039288
  90 H :    0.042543
  91 H :    0.016845
  92 H :    0.011825
  93 H :   -0.004351
  94 H :    0.020723
  95 H :    0.036162
  96 H :    0.039251
  97 H :    0.003312
  98 H :    0.032807
  99 H :    0.031033
Sum of atomic charges:   -0.0000000

LOEWDIN ATOMIC CHARGES
----------------------
   0 C :   -0.137674
   1 C :   -0.079335
   2 N :    0.285134
   3 O :   -0.212094
   4 O :   -0.188664
   5 C :    0.012694
   6 C :   -0.050458
   7 C :   -0.199298
   8 S :    0.513784
   9 C :    0.061129
  10 N :   -0.094583
  11 C :    0.048969
  12 C :   -0.065508
  13 C :    0.070927
  14 O :   -0.145988
  15 C :   -0.040733
  16 C :    0.014098
  17 N :   -0.097728
  18 C :    0.066709
  19 C :   -0.036680
  20 C :   -0.019348
  21 C :   -0.076701
  22 C :    0.038625
  23 C :   -0.037286
  24 C :    0.015985
  25 C :   -0.026611
  26 C :   -0.007631
  27 C :   -0.038928
  28 C :    0.027700
  29 N :   -0.128104
  30 C :    0.023604
  31 N :   -0.100790
  32 C :   -0.017356
  33 C :    0.074608
  34 C :   -0.031723
  35 C :   -0.044052
  36 C :   -0.009664
  37 C :   -0.041426
  38 C :   -0.027307
  39 C :   -0.009517
  40 C :   -0.024853
  41 C :    0.082054
  42 C :   -0.064514
  43 C :    0.080998
  44 N :   -0.103408
  45 C :    0.046013
  46 C :   -0.031367
  47 C :    0.062684
  48 O :   -0.142918
  49 C :   -0.040716
  50 C :    0.024389
  51 N :   -0.096565
  52 C :    0.077700
  53 C :   -0.036885
  54 C :   -0.037743
  55 C :    0.004184
  56 C :   -0.045598
  57 C :   -0.136189
  58 C :   -0.079462
  59 N :    0.301695
  60 O :   -0.220793
  61 O :   -0.178434
  62 C :   -0.041317
  63 C :   -0.043362
  64 C :   -0.185415
  65 S :    0.488700
  66 H :    0.041921
  67 H :    0.038114
  68 H :    0.033249
  69 H :    0.049465
  70 H :    0.021856
  71 H :    0.032794
  72 H :    0.003465
  73 H :    0.033754
  74 H :    0.033824
  75 H :    0.024145
  76 H :   -0.011344
  77 H :    0.012581
  78 H :    0.030863
  79 H :    0.046867
  80 H :    0.001508
  81 H :    0.009125
  82 H :    0.057047
  83 H :    0.054204
  84 H :    0.028372
  85 H :    0.058913
  86 H :    0.025567
  87 H :    0.030451
  88 H :    0.026259
  89 H :    0.021743
  90 H :    0.042983
  91 H :    0.035305
  92 H :    0.024771
  93 H :    0.034954
  94 H :    0.034296
  95 H :    0.033645
  96 H :    0.042823
  97 H :    0.029376
  98 H :    0.040340
  99 H :    0.029109

  Mayer bond orders larger than 0.100000
B(  0-C ,  1-C ) :   1.4920 B(  0-C ,  8-S ) :   1.2338 B(  0-C , 66-H ) :   0.9557
B(  1-C ,  2-N ) :   0.9128 B(  1-C ,  5-C ) :   1.2489 B(  2-N ,  3-O ) :   1.5440
B(  2-N ,  4-O ) :   1.5368 B(  3-O ,  4-O ) :   0.2690 B(  5-C ,  6-C ) :   1.1493
B(  5-C ,  7-C ) :   1.4898 B(  6-C , 67-H ) :   0.9212 B(  6-C , 68-H ) :   0.9036
B(  6-C , 69-H ) :   0.9175 B(  7-C ,  8-S ) :   1.1195 B(  7-C ,  9-C ) :   1.0946
B(  9-C , 10-N ) :   1.6082 B(  9-C , 11-C ) :   0.1169 B(  9-C , 20-C ) :   1.0195
B( 10-N , 11-C ) :   1.3317 B( 11-C , 12-C ) :   1.0662 B( 11-C , 16-C ) :   1.4254
B( 12-C , 13-C ) :   0.9004 B( 12-C , 20-C ) :   1.5421 B( 13-C , 14-O ) :   2.1737
B( 13-C , 15-C ) :   0.9336 B( 14-O , 73-H ) :   0.1067 B( 15-C , 16-C ) :   1.0704
B( 15-C , 19-C ) :   1.6015 B( 16-C , 17-N ) :   1.3109 B( 17-N , 18-C ) :   1.6587
B( 18-C , 19-C ) :   1.0712 B( 18-C , 70-H ) :   0.9895 B( 19-C , 71-H ) :   1.0114
B( 20-C , 21-C ) :   1.1219 B( 21-C , 22-C ) :   1.6293 B( 21-C , 72-H ) :   0.9423
B( 22-C , 23-C ) :   1.0911 B( 22-C , 73-H ) :   0.9714 B( 23-C , 24-C ) :   1.4749
B( 23-C , 40-C ) :   1.1184 B( 24-C , 25-C ) :   1.1292 B( 24-C , 74-H ) :   1.0096
B( 25-C , 26-C ) :   1.4739 B( 25-C , 38-C ) :   1.1141 B( 26-C , 27-C ) :   1.0394
B( 26-C , 32-C ) :   1.0906 B( 27-C , 28-C ) :   1.0317 B( 27-C , 30-C ) :   1.0373
B( 27-C , 75-H ) :   0.8806 B( 28-C , 29-N ) :   1.1174 B( 28-C , 76-H ) :   0.9135
B( 28-C , 77-H ) :   0.9395 B( 29-N , 78-H ) :   0.9415 B( 29-N , 79-H ) :   0.9678
B( 30-C , 31-N ) :   1.0735 B( 30-C , 80-H ) :   0.9465 B( 30-C , 81-H ) :   0.9260
B( 31-N , 78-H ) :   0.1003 B( 31-N , 82-H ) :   0.9635 B( 31-N , 83-H ) :   0.9682
B( 32-C , 33-C ) :   1.6576 B( 32-C , 37-C ) :   1.0418 B( 33-C , 34-C ) :   0.9769
B( 33-C , 84-H ) :   0.9640 B( 34-C , 35-C ) :   0.9731 B( 34-C , 41-C ) :   0.9446
B( 34-C , 85-H ) :   0.8771 B( 35-C , 36-C ) :   1.7143 B( 35-C , 86-H ) :   0.9775
B( 36-C , 37-C ) :   1.1363 B( 36-C , 87-H ) :   0.9908 B( 37-C , 38-C ) :   1.4431
B( 38-C , 39-C ) :   1.1399 B( 39-C , 40-C ) :   1.6246 B( 39-C , 88-H ) :   0.9884
B( 40-C , 89-H ) :   0.9799 B( 41-C , 42-C ) :   1.7628 B( 41-C , 90-H ) :   0.9773
B( 42-C , 43-C ) :   1.0957 B( 42-C , 91-H ) :   0.9505 B( 43-C , 44-N ) :   1.6123
B( 43-C , 45-C ) :   0.1077 B( 43-C , 54-C ) :   1.0047 B( 44-N , 45-C ) :   1.3487
B( 45-C , 46-C ) :   1.0454 B( 45-C , 50-C ) :   1.4060 B( 46-C , 47-C ) :   0.8918
B( 46-C , 54-C ) :   1.5583 B( 47-C , 48-O ) :   2.2853 B( 47-C , 49-C ) :   0.9023
B( 49-C , 50-C ) :   1.0565 B( 49-C , 53-C ) :   1.6011 B( 50-C , 51-N ) :   1.3253
B( 51-N , 52-C ) :   1.6411 B( 52-C , 53-C ) :   1.0808 B( 52-C , 92-H ) :   0.9899
B( 53-C , 93-H ) :   1.0114 B( 54-C , 55-C ) :   1.1259 B( 55-C , 56-C ) :   1.6133
B( 55-C , 94-H ) :   0.9627 B( 56-C , 57-C ) :   1.1674 B( 56-C , 95-H ) :   0.9699
B( 57-C , 58-C ) :   1.4053 B( 57-C , 65-S ) :   1.2020 B( 58-C , 59-N ) :   0.9772
B( 58-C , 62-C ) :   1.2263 B( 59-N , 60-O ) :   1.4285 B( 59-N , 61-O ) :   1.5206
B( 60-O , 61-O ) :   0.2345 B( 62-C , 63-C ) :   1.1018 B( 62-C , 64-C ) :   1.6098
B( 63-C , 96-H ) :   0.9370 B( 63-C , 97-H ) :   0.9393 B( 63-C , 98-H ) :   0.9367
B( 64-C , 65-S ) :   1.1220 B( 64-C , 99-H ) :   0.9636

-----------------------------------------------------------------------------
         ABSORPTION SPECTRUM VIA TRANSITION ELECTRIC DIPOLE MOMENTS
-----------------------------------------------------------------------------
State   Energy  Wavelength   fosc         T2         TX        TY        TZ
        (cm-1)    (nm)                  (au**2)     (au)      (au)      (au)
-----------------------------------------------------------------------------
   0    8690.6   1150.7   0.084071226   3.18473   0.02180   1.62800   0.73067
   1   10918.0    915.9   0.092534270   2.79020   0.48253   0.97399   1.26835
   2   14121.2    708.2   0.050516825   1.17772   1.05094   0.13689   0.23344
   3   15407.8    649.0   0.040040085   0.85552   0.48880   0.72290   0.30661
   4   18287.4    546.8   0.002199927   0.03960  -0.02507   0.05958  -0.18821
   5   18341.6    545.2   0.018788044   0.33722   0.38444   0.37276   0.22468
   6   19099.8    523.6   0.152781701   2.63340  -1.10264  -1.09038   0.47820
   7   21554.9    463.9   0.066365285   1.01361   0.23560   0.90521   0.37243
   8   21761.7    459.5   0.017688254   0.26759   0.05633  -0.32932  -0.39492
   9   21828.9    458.1   0.009606315   0.14488  -0.36037   0.04727   0.11305
  10   22175.1    451.0   0.036484704   0.54165  -0.24668  -0.61602  -0.31831
  11   22798.6    438.6   0.381801200   5.51320  -0.16246  -1.75320  -1.55341
  12   23056.2    433.7   0.003306956   0.04722   0.12776  -0.07604  -0.15847
  13   24349.2    410.7   0.598171137   8.08753   1.72410   2.25871  -0.11490
  14   24575.0    406.9   0.444442626   5.95386  -2.26488   0.02010  -0.90761
  15   25106.4    398.3   0.395786575   5.18982  -1.71734  -1.37348   0.59508
  16   25482.2    392.4   0.091636018   1.18387   0.69906  -0.32955  -0.76588
  17   25526.9    391.7   0.016610398   0.21422  -0.24764   0.09638   0.37895
  18   25637.0    390.1   0.305398072   3.92170   1.17585   1.21498   1.03098
  19   25787.6    387.8   0.122726435   1.56676  -0.86213   0.71089   0.56402
  20   25907.1    386.0   0.019615800   0.24927   0.36257  -0.20754  -0.27338
  21   25985.5    384.8   0.155469717   1.96965   1.37775   0.24827   0.09911
  22   26008.9    384.5   0.179280095   2.26926   0.30276  -1.37210  -0.54309
  23   26105.6    383.1   0.048423138   0.61065  -0.25181  -0.73452   0.08791
  24   26411.8    378.6   0.144603747   1.80243  -0.39311  -0.37446  -1.22787
  25   27276.6    366.6   0.031586037   0.38122  -0.00366  -0.53990   0.29952
  26   27555.8    362.9   0.003284388   0.03924  -0.04096   0.07593  -0.17831
  27   29003.3    344.8   0.006992012   0.07937  -0.03319  -0.08044   0.26794
  28   29327.5    341.0   0.001389968   0.01560  -0.08284  -0.09338   0.00453
  29   30151.9    331.7   0.040096763   0.43779  -0.09178  -0.57223  -0.31926
  30   30244.8    330.6   0.019602192   0.21337   0.02263  -0.27705  -0.36892
  31   30321.4    329.8   0.096379176   1.04643  -0.40357  -0.67659  -0.65252
  32   30795.6    324.7   0.046779743   0.50009  -0.56684  -0.37991  -0.18560
  33   30929.5    323.3   0.001899334   0.02022   0.10570   0.07930   0.05251
  34   31115.9    321.4   0.009015495   0.09539  -0.10254   0.25083  -0.14817
  35   31464.8    317.8   0.111263746   1.16414  -0.01366  -1.05556  -0.22303
  36   31657.1    315.9   0.010370129   0.10784  -0.01406   0.30545  -0.11977
  37   31808.4    314.4   0.056556046   0.58535   0.10890  -0.72156  -0.22986
  38   32059.0    311.9   0.472937542   4.85656   0.22209  -1.45475  -1.64041
  39   32360.3    309.0   0.021806844   0.22185  -0.40099   0.24137  -0.05284
  40   32695.9    305.8   0.050923948   0.51275  -0.37574   0.60220  -0.09449
  41   32929.6    303.7   0.040547751   0.40537   0.59822   0.10682   0.18998
  42   33375.0    299.6   0.003917155   0.03864   0.15030  -0.12564   0.01619
  43   33520.4    298.3   0.002431540   0.02388  -0.09714   0.06706   0.09973
  44   33844.2    295.5   0.045361619   0.44124   0.26194   0.17323   0.58534
  45   34083.2    293.4   0.075836435   0.73251   0.41660   0.63718   0.39109
  46   34406.0    290.6   0.011806926   0.11297  -0.06555  -0.25696  -0.20651
  47   34710.1    288.1   0.099157508   0.94047   0.29302   0.91779   0.11076
  48   34979.0    285.9   0.261817698   2.46415   0.81389   1.33971  -0.08310
  49   35258.1    283.6   0.174725753   1.63145  -0.13686  -1.15996   0.51692
  50   35481.2    281.8   0.238874057   2.21639   1.43632  -0.34479   0.18574
  51   35683.8    280.2   0.001498009   0.01382   0.00077  -0.06818  -0.09576
  52   35737.3    279.8   0.113969138   1.04988   0.94733   0.24457   0.30435
  53   35941.9    278.2   0.011722529   0.10737   0.02768   0.13019  -0.29943
  54   36052.2    277.4   0.004052237   0.03700  -0.13097   0.02068  -0.13936
  55   36350.7    275.1   0.097384198   0.88196   0.86197  -0.26021  -0.26696
  56   36415.9    274.6   0.045297397   0.40950   0.46918  -0.11143  -0.42066
  57   36706.7    272.4   0.001488845   0.01335  -0.10473   0.02398   0.04254
  58   36990.2    270.3   0.066294981   0.59002  -0.61876   0.04500   0.45291
  59   37331.8    267.9   0.063570683   0.56060   0.18680   0.61573   0.38286
  60   37669.6    265.5   0.125573897   1.09745   0.35263   0.92448  -0.34415
  61   38059.6    262.7   0.007765945   0.06717   0.17331   0.17422   0.08238
  62   38395.9    260.4   0.005560972   0.04768  -0.21460  -0.03875  -0.01115
  63   38644.8    258.8   0.049991853   0.42588  -0.54761  -0.04704   0.35184
  64   38897.3    257.1   0.045989438   0.38924   0.37546   0.46824   0.17033
  65   38935.3    256.8   0.054074587   0.45722  -0.11438   0.66639   0.00821
  66   39237.5    254.9   0.058759994   0.49301  -0.27509   0.47302   0.43999
  67   39478.0    253.3   0.002725097   0.02272   0.05991   0.12933   0.04908
  68   39607.0    252.5   0.000570424   0.00474  -0.05563   0.03936  -0.00988
  69   39680.2    252.0   0.007875580   0.06534   0.14860  -0.05201   0.20138
  70   39801.1    251.2   0.020011465   0.16552   0.04120  -0.39118  -0.10395
  71   39862.8    250.9   0.001726461   0.01426   0.01084   0.03640   0.11321
  72   39982.4    250.1   0.020634331   0.16990   0.38719   0.12812   0.05976
  73   40120.9    249.2   0.039089858   0.32075   0.44920   0.34489   0.00504
  74   40250.6    248.4   0.225720634   1.84618  -0.35681   0.74495   1.07885

FINAL SINGLE POINT ENERGY     -3607.351834659897

DIPOLE MOMENT
-------------
                                X             Y             Z
Electronic contribution:     23.30435      -1.97157     -19.78828
Nuclear contribution   :    -24.67394       5.05415      22.84450
                        -----------------------------------------
Total Dipole Moment    :     -1.36959       3.08258       3.05622
                        -----------------------------------------
Magnitude (a.u.)       :      4.55177
Magnitude (Debye)      :     11.56967

Rotational constants in cm-1:     0.001622     0.000359     0.000316
Rotational constants in MHz :    48.612607    10.761539     9.472862

                             ****ORCA TERMINATED NORMALLY****
TOTAL RUN TIME: 0 days 0 hours 20 minutes 12 seconds 126 msec
