                         Program Version 4.2.0 -  RELEASE  -
|  1> # ORCA input file
|  2> # SCF done       -179.312285553216          0.015367281163
|  3> ! CAM-B3LYP def2-SVP def2/J RIJCOSX Grid4 TightSCF
|  4> %maxcore 5000
|  5> %tddft
|  6>     Mode sTDDFT
|  7>     Ethresh 5.0
|  8>     maxcore 5000
|  9> end
| 10>
| 11> %pal
| 12>   nprocs 6
| 13>   end
| 14> * xyz 0 1
| 15>    C       -1.10568       -11.12282         2.57965
| 16>    C        0.06483       -11.02849         1.86781
| 17>    C        1.18464       -11.86805         2.04629
| 18>    N        2.16279       -12.46532         2.12198
| 19>    C        0.27532       -10.13270         0.80021
| 20>    N        0.49810        -9.47162        -0.11171
| 21>    C       -1.43740       -12.21226         3.49414
| 22>    C       -2.77262       -12.08126         3.91392
| 23>    C       -3.36036       -13.00041         4.76103
| 24>    C       -2.60331       -14.08598         5.18111
| 25>    C       -1.27700       -14.23745         4.75192
| 26>    C       -0.68668       -13.29738         3.91454
| 27>   Cl       -0.37632       -15.61256         5.23026
| 28>   Cl       -3.30726       -15.26260         6.21440
| 29>    C       -3.37048       -10.89739         3.27022
| 30>    O       -4.50760       -10.50229         3.33744
| 31>    C       -2.25268       -10.25002         2.51312
| 32>    C       -2.47763        -9.00695         2.00476
| 33>    C       -1.59600        -7.99696         1.54532
| 34>    C       -1.98055        -6.97116         0.55881
| 35>    N       -1.07498        -6.07008         0.33516
| 36>    C       -0.03440        -6.37427         1.15715
| 37>    C       -0.33635        -7.60143         1.94109
| 38>    C        0.74845        -7.88412         2.83992
| 39>    S        0.93454        -9.10404         3.92771
| 40>    C        1.68966        -6.82213         2.59581
| 41>    C        1.18601        -5.90269         1.55326
| 42>    N        2.06974        -4.88390         1.36509
| 43>    C        3.05307        -5.10956         2.18869
| 44>    C        2.88872        -6.31956         2.99913
| 45>    C        3.77025        -6.86390         4.03054
| 46>    S        3.27173        -6.41476         5.79617
| 47>    C        4.91125        -5.85772         5.58750
| 48>    C        5.10173        -6.22338         4.30591
| 49>    C        6.20396        -6.09894         3.35883
| 50>    O        6.07858        -6.16482         2.15905
| 51>    O        7.37700        -5.90491         3.98886
| 52>    C        8.51496        -5.72863         3.15001
| 53>    C        8.85345        -6.89501         2.29390
| 54>    C        9.81629        -6.77955         1.17685
| 55>    N        9.97785        -7.87039         0.50627
| 56>    C        9.13001        -8.78388         1.08487
| 57>    C        8.44725        -8.18878         2.24365
| 58>    C        7.53054        -9.18458         2.79124
| 59>    S        6.51792        -8.98189         4.14550
| 60>    C        7.62493       -10.30172         1.98710
| 61>    C        8.64453       -10.04734         0.92335
| 62>    N        8.76708       -11.12499         0.10684
| 63>    C        7.92251       -12.00758         0.54748
| 64>    C        7.11398       -11.59620         1.70009
| 65>    C        6.14876       -12.44444         2.20412
| 66>    C        5.20391       -12.26428         3.22838
| 67>    C        4.36577       -13.34956         3.76710
| 68>    C        4.43942       -14.67752         3.46778
| 69>    C        3.56143       -15.64683         4.00600
| 70>    N        2.82728       -16.46430         4.32842
| 71>    C        5.36509       -15.30270         2.59789
| 72>    N        6.11195       -15.91099         1.97109
| 73>    C        3.47653       -12.75409         4.75833
| 74>    C        3.79264       -11.37985         4.85492
| 75>    C        4.82058       -11.09265         3.88402
| 76>    O        5.19083        -9.85778         3.56899
| 77>    C        3.12691       -10.54236         5.72767
| 78>    C        2.10385       -11.08192         6.50098
| 79>    C        1.77391       -12.43568         6.39872
| 80>    C        2.46573       -13.28455         5.53676
| 81>   Cl        0.49427       -13.06829         7.35124
| 82>   Cl        1.25010       -10.06161         7.57811
| 83>    H       -4.38420       -12.88451         5.07855
| 84>    H        0.33453       -13.43658         3.60352
| 85>    H       -3.52739        -8.71813         2.00618
| 86>    H       -2.91689        -6.95843         0.02849
| 87>    H        3.89430        -4.44375         2.23411
| 88>    H        3.80170        -7.95296         3.96478
| 89>    H        5.51257        -5.36488         6.32573
| 90>    H        9.33860        -5.50817         3.83677
| 91>    H        8.35126        -4.85850         2.49935
| 92>    H       10.36291        -5.88722         0.92921
| 93>    H        7.83264       -12.96752         0.06595
| 94>    H        6.11815       -13.40911         1.71571
| 95>    H        3.36653        -9.49565         5.82769
| 96>    H        2.18701       -14.32482         5.48985
| 97> *
| 98>
| 99>                          ****END OF INPUT****

CARTESIAN COORDINATES (ANGSTROEM)
---------------------------------
  C     -1.105680  -11.122820    2.579650
  C      0.064830  -11.028490    1.867810
  C      1.184640  -11.868050    2.046290
  N      2.162790  -12.465320    2.121980
  C      0.275320  -10.132700    0.800210
  N      0.498100   -9.471620   -0.111710
  C     -1.437400  -12.212260    3.494140
  C     -2.772620  -12.081260    3.913920
  C     -3.360360  -13.000410    4.761030
  C     -2.603310  -14.085980    5.181110
  C     -1.277000  -14.237450    4.751920
  C     -0.686680  -13.297380    3.914540
  Cl    -0.376320  -15.612560    5.230260
  Cl    -3.307260  -15.262600    6.214400
  C     -3.370480  -10.897390    3.270220
  O     -4.507600  -10.502290    3.337440
  C     -2.252680  -10.250020    2.513120
  C     -2.477630   -9.006950    2.004760
  C     -1.596000   -7.996960    1.545320
  C     -1.980550   -6.971160    0.558810
  N     -1.074980   -6.070080    0.335160
  C     -0.034400   -6.374270    1.157150
  C     -0.336350   -7.601430    1.941090
  C      0.748450   -7.884120    2.839920
  S      0.934540   -9.104040    3.927710
  C      1.689660   -6.822130    2.595810
  C      1.186010   -5.902690    1.553260
  N      2.069740   -4.883900    1.365090
  C      3.053070   -5.109560    2.188690
  C      2.888720   -6.319560    2.999130
  C      3.770250   -6.863900    4.030540
  S      3.271730   -6.414760    5.796170
  C      4.911250   -5.857720    5.587500
  C      5.101730   -6.223380    4.305910
  C      6.203960   -6.098940    3.358830
  O      6.078580   -6.164820    2.159050
  O      7.377000   -5.904910    3.988860
  C      8.514960   -5.728630    3.150010
  C      8.853450   -6.895010    2.293900
  C      9.816290   -6.779550    1.176850
  N      9.977850   -7.870390    0.506270
  C      9.130010   -8.783880    1.084870
  C      8.447250   -8.188780    2.243650
  C      7.530540   -9.184580    2.791240
  S      6.517920   -8.981890    4.145500
  C      7.624930  -10.301720    1.987100
  C      8.644530  -10.047340    0.923350
  N      8.767080  -11.124990    0.106840
  C      7.922510  -12.007580    0.547480
  C      7.113980  -11.596200    1.700090
  C      6.148760  -12.444440    2.204120
  C      5.203910  -12.264280    3.228380
  C      4.365770  -13.349560    3.767100
  C      4.439420  -14.677520    3.467780
  C      3.561430  -15.646830    4.006000
  N      2.827280  -16.464300    4.328420
  C      5.365090  -15.302700    2.597890
  N      6.111950  -15.910990    1.971090
  C      3.476530  -12.754090    4.758330
  C      3.792640  -11.379850    4.854920
  C      4.820580  -11.092650    3.884020
  O      5.190830   -9.857780    3.568990
  C      3.126910  -10.542360    5.727670
  C      2.103850  -11.081920    6.500980
  C      1.773910  -12.435680    6.398720
  C      2.465730  -13.284550    5.536760
  Cl     0.494270  -13.068290    7.351240
  Cl     1.250100  -10.061610    7.578110
  H     -4.384200  -12.884510    5.078550
  H      0.334530  -13.436580    3.603520
  H     -3.527390   -8.718130    2.006180
  H     -2.916890   -6.958430    0.028490
  H      3.894300   -4.443750    2.234110
  H      3.801700   -7.952960    3.964780
  H      5.512570   -5.364880    6.325730
  H      9.338600   -5.508170    3.836770
  H      8.351260   -4.858500    2.499350
  H     10.362910   -5.887220    0.929210
  H      7.832640  -12.967520    0.065950
  H      6.118150  -13.409110    1.715710
  H      3.366530   -9.495650    5.827690
  H      2.187010  -14.324820    5.489850

 Total Charge           Charge          ....    0
 Multiplicity           Mult            ....    1
 Number of Electrons    NEL             ....  512
 Basis Dimension        Dim             .... 1050

ORBITAL ENERGIES
----------------

  NO   OCC          E(Eh)            E(eV)
   0   2.0000    -101.606812     -2764.8619
   1   2.0000    -101.606435     -2764.8517
   2   2.0000    -101.602430     -2764.7427
   3   2.0000    -101.601473     -2764.7166
   4   2.0000     -89.011991     -2422.1394
   5   2.0000     -88.958502     -2420.6839
   6   2.0000     -88.927932     -2419.8520
   7   2.0000     -19.300376      -525.1899
   8   2.0000     -19.284654      -524.7621
   9   2.0000     -19.236895      -523.4625
  10   2.0000     -19.225369      -523.1489
  11   2.0000     -14.438671      -392.8962
  12   2.0000     -14.434326      -392.7780
  13   2.0000     -14.432249      -392.7215
  14   2.0000     -14.428557      -392.6210
  15   2.0000     -14.428245      -392.6125
  16   2.0000     -14.426240      -392.5579
  17   2.0000     -14.416163      -392.2837
  18   2.0000     -14.406172      -392.0119
  19   2.0000     -10.422381      -283.6074
  20   2.0000     -10.385734      -282.6102
  21   2.0000     -10.372904      -282.2611
  22   2.0000     -10.365303      -282.0542
  23   2.0000     -10.364709      -282.0381
  24   2.0000     -10.363877      -282.0154
  25   2.0000     -10.363515      -282.0056
  26   2.0000     -10.361378      -281.9474
  27   2.0000     -10.359552      -281.8977
  28   2.0000     -10.357709      -281.8476
  29   2.0000     -10.354904      -281.7713
  30   2.0000     -10.352828      -281.7148
  31   2.0000     -10.351105      -281.6679
  32   2.0000     -10.350231      -281.6441
  33   2.0000     -10.349181      -281.6155
  34   2.0000     -10.348302      -281.5916
  35   2.0000     -10.347167      -281.5607
  36   2.0000     -10.342235      -281.4265
  37   2.0000     -10.338616      -281.3280
  38   2.0000     -10.337284      -281.2918
  39   2.0000     -10.335023      -281.2303
  40   2.0000     -10.334641      -281.2199
  41   2.0000     -10.334626      -281.2195
  42   2.0000     -10.333995      -281.2023
  43   2.0000     -10.330177      -281.0984
  44   2.0000     -10.329002      -281.0664
  45   2.0000     -10.328960      -281.0653
  46   2.0000     -10.327931      -281.0373
  47   2.0000     -10.326463      -280.9973
  48   2.0000     -10.325365      -280.9675
  49   2.0000     -10.322457      -280.8883
  50   2.0000     -10.321561      -280.8639
  51   2.0000     -10.319257      -280.8012
  52   2.0000     -10.317953      -280.7658
  53   2.0000     -10.315526      -280.6997
  54   2.0000     -10.312584      -280.6197
  55   2.0000     -10.312312      -280.6123
  56   2.0000     -10.311429      -280.5883
  57   2.0000     -10.309944      -280.5478
  58   2.0000     -10.309546      -280.5370
  59   2.0000     -10.309360      -280.5319
  60   2.0000     -10.309301      -280.5303
  61   2.0000     -10.308405      -280.5060
  62   2.0000     -10.307312      -280.4762
  63   2.0000     -10.307213      -280.4735
  64   2.0000     -10.306801      -280.4623
  65   2.0000     -10.299766      -280.2709
  66   2.0000     -10.299190      -280.2552
  67   2.0000     -10.293359      -280.0966
  68   2.0000      -9.561778      -260.1892
  69   2.0000      -9.561065      -260.1698
  70   2.0000      -9.557505      -260.0729
  71   2.0000      -9.556234      -260.0384
  72   2.0000      -8.102301      -220.4748
  73   2.0000      -8.053974      -219.1598
  74   2.0000      -8.022596      -218.3059
  75   2.0000      -7.332174      -199.5186
  76   2.0000      -7.331460      -199.4992
  77   2.0000      -7.327767      -199.3987
  78   2.0000      -7.326592      -199.3667
  79   2.0000      -7.322047      -199.2430
  80   2.0000      -7.321330      -199.2235
  81   2.0000      -7.321301      -199.2227
  82   2.0000      -7.320552      -199.2023
  83   2.0000      -7.317853      -199.1289
  84   2.0000      -7.317063      -199.1074
  85   2.0000      -7.316528      -199.0929
  86   2.0000      -7.315794      -199.0729
  87   2.0000      -6.076350      -165.3459
  88   2.0000      -6.067458      -165.1039
  89   2.0000      -6.059997      -164.9009
  90   2.0000      -6.023600      -163.9105
  91   2.0000      -6.020713      -163.8319
  92   2.0000      -6.013921      -163.6471
  93   2.0000      -5.991498      -163.0369
  94   2.0000      -5.991149      -163.0275
  95   2.0000      -5.981865      -162.7748
  96   2.0000      -1.213948       -33.0332
  97   2.0000      -1.194324       -32.4992
  98   2.0000      -1.153040       -31.3758
  99   2.0000      -1.119565       -30.4649
 100   2.0000      -1.100357       -29.9422
 101   2.0000      -1.080217       -29.3942
 102   2.0000      -1.077793       -29.3283
 103   2.0000      -1.055486       -28.7212
 104   2.0000      -1.042798       -28.3760
 105   2.0000      -1.036396       -28.2018
 106   2.0000      -1.032309       -28.0906
 107   2.0000      -1.024488       -27.8777
 108   2.0000      -1.015024       -27.6202
 109   2.0000      -1.006169       -27.3792
 110   2.0000      -1.005603       -27.3639
 111   2.0000      -1.004746       -27.3405
 112   2.0000      -1.002438       -27.2777
 113   2.0000      -0.982876       -26.7454
 114   2.0000      -0.970006       -26.3952
 115   2.0000      -0.967266       -26.3207
 116   2.0000      -0.963681       -26.2231
 117   2.0000      -0.948811       -25.8185
 118   2.0000      -0.938668       -25.5424
 119   2.0000      -0.931468       -25.3465
 120   2.0000      -0.924118       -25.1465
 121   2.0000      -0.903853       -24.5951
 122   2.0000      -0.902394       -24.5554
 123   2.0000      -0.901243       -24.5241
 124   2.0000      -0.896803       -24.4033
 125   2.0000      -0.883400       -24.0385
 126   2.0000      -0.873922       -23.7806
 127   2.0000      -0.870838       -23.6967
 128   2.0000      -0.862287       -23.4640
 129   2.0000      -0.851686       -23.1755
 130   2.0000      -0.840391       -22.8682
 131   2.0000      -0.834694       -22.7132
 132   2.0000      -0.810077       -22.0433
 133   2.0000      -0.800116       -21.7723
 134   2.0000      -0.797945       -21.7132
 135   2.0000      -0.794754       -21.6264
 136   2.0000      -0.783485       -21.3197
 137   2.0000      -0.780390       -21.2355
 138   2.0000      -0.771018       -20.9805
 139   2.0000      -0.761946       -20.7336
 140   2.0000      -0.754291       -20.5253
 141   2.0000      -0.752076       -20.4650
 142   2.0000      -0.729406       -19.8481
 143   2.0000      -0.718159       -19.5421
 144   2.0000      -0.714899       -19.4534
 145   2.0000      -0.710303       -19.3283
 146   2.0000      -0.708235       -19.2720
 147   2.0000      -0.705028       -19.1848
 148   2.0000      -0.698860       -19.0170
 149   2.0000      -0.693257       -18.8645
 150   2.0000      -0.688874       -18.7452
 151   2.0000      -0.670157       -18.2359
 152   2.0000      -0.668467       -18.1899
 153   2.0000      -0.666493       -18.1362
 154   2.0000      -0.657296       -17.8859
 155   2.0000      -0.649515       -17.6742
 156   2.0000      -0.644102       -17.5269
 157   2.0000      -0.636640       -17.3238
 158   2.0000      -0.634856       -17.2753
 159   2.0000      -0.620431       -16.8828
 160   2.0000      -0.618620       -16.8335
 161   2.0000      -0.614717       -16.7273
 162   2.0000      -0.610277       -16.6065
 163   2.0000      -0.602743       -16.4015
 164   2.0000      -0.601345       -16.3634
 165   2.0000      -0.589841       -16.0504
 166   2.0000      -0.589025       -16.0282
 167   2.0000      -0.583106       -15.8671
 168   2.0000      -0.581933       -15.8352
 169   2.0000      -0.580298       -15.7907
 170   2.0000      -0.576568       -15.6892
 171   2.0000      -0.572484       -15.5781
 172   2.0000      -0.568113       -15.4591
 173   2.0000      -0.562422       -15.3043
 174   2.0000      -0.560031       -15.2392
 175   2.0000      -0.558730       -15.2038
 176   2.0000      -0.556700       -15.1486
 177   2.0000      -0.553820       -15.0702
 178   2.0000      -0.552077       -15.0228
 179   2.0000      -0.548710       -14.9312
 180   2.0000      -0.547207       -14.8903
 181   2.0000      -0.542299       -14.7567
 182   2.0000      -0.539439       -14.6789
 183   2.0000      -0.535788       -14.5795
 184   2.0000      -0.530848       -14.4451
 185   2.0000      -0.527722       -14.3600
 186   2.0000      -0.526517       -14.3272
 187   2.0000      -0.523390       -14.2422
 188   2.0000      -0.521812       -14.1992
 189   2.0000      -0.520166       -14.1544
 190   2.0000      -0.517690       -14.0871
 191   2.0000      -0.514338       -13.9959
 192   2.0000      -0.510483       -13.8909
 193   2.0000      -0.506745       -13.7892
 194   2.0000      -0.503503       -13.7010
 195   2.0000      -0.501706       -13.6521
 196   2.0000      -0.498169       -13.5559
 197   2.0000      -0.495182       -13.4746
 198   2.0000      -0.491112       -13.3638
 199   2.0000      -0.487925       -13.2771
 200   2.0000      -0.487456       -13.2644
 201   2.0000      -0.481839       -13.1115
 202   2.0000      -0.480767       -13.0823
 203   2.0000      -0.478718       -13.0266
 204   2.0000      -0.472745       -12.8640
 205   2.0000      -0.470673       -12.8077
 206   2.0000      -0.465799       -12.6750
 207   2.0000      -0.464856       -12.6494
 208   2.0000      -0.462383       -12.5821
 209   2.0000      -0.460143       -12.5211
 210   2.0000      -0.458662       -12.4808
 211   2.0000      -0.456353       -12.4180
 212   2.0000      -0.454712       -12.3733
 213   2.0000      -0.452876       -12.3234
 214   2.0000      -0.451665       -12.2904
 215   2.0000      -0.447021       -12.1640
 216   2.0000      -0.444495       -12.0953
 217   2.0000      -0.441821       -12.0226
 218   2.0000      -0.439356       -11.9555
 219   2.0000      -0.436539       -11.8788
 220   2.0000      -0.434886       -11.8338
 221   2.0000      -0.431375       -11.7383
 222   2.0000      -0.429223       -11.6798
 223   2.0000      -0.428714       -11.6659
 224   2.0000      -0.425654       -11.5826
 225   2.0000      -0.420277       -11.4363
 226   2.0000      -0.419423       -11.4131
 227   2.0000      -0.414797       -11.2872
 228   2.0000      -0.414470       -11.2783
 229   2.0000      -0.410348       -11.1661
 230   2.0000      -0.407786       -11.0964
 231   2.0000      -0.404631       -11.0106
 232   2.0000      -0.400267       -10.8918
 233   2.0000      -0.387523       -10.5450
 234   2.0000      -0.382695       -10.4137
 235   2.0000      -0.380821       -10.3627
 236   2.0000      -0.377820       -10.2810
 237   2.0000      -0.375275       -10.2117
 238   2.0000      -0.371325       -10.1043
 239   2.0000      -0.364358        -9.9147
 240   2.0000      -0.359918        -9.7939
 241   2.0000      -0.356267        -9.6945
 242   2.0000      -0.352801        -9.6002
 243   2.0000      -0.349511        -9.5107
 244   2.0000      -0.345994        -9.4150
 245   2.0000      -0.343619        -9.3503
 246   2.0000      -0.339698        -9.2436
 247   2.0000      -0.332896        -9.0586
 248   2.0000      -0.324934        -8.8419
 249   2.0000      -0.322826        -8.7845
 250   2.0000      -0.318475        -8.6661
 251   2.0000      -0.317272        -8.6334
 252   2.0000      -0.310380        -8.4459
 253   2.0000      -0.303546        -8.2599
 254   2.0000      -0.297884        -8.1058
 255   2.0000      -0.252636        -6.8746
 256   0.0000      -0.129535        -3.5248
 257   0.0000      -0.107263        -2.9188
 258   0.0000      -0.103683        -2.8214
 259   0.0000      -0.095153        -2.5892
 260   0.0000      -0.093179        -2.5355

MULLIKEN ATOMIC CHARGES
-----------------------
   0 C :    0.360548
   1 C :   -0.374087
   2 C :   -0.143865
   3 N :    0.149435
   4 C :   -0.220019
   5 N :    0.193813
   6 C :    0.023510
   7 C :    0.000225
   8 C :   -0.022795
   9 C :    0.057001
  10 C :    0.050851
  11 C :   -0.025630
  12 Cl:   -0.005021
  13 Cl:   -0.037299
  14 C :    0.131900
  15 O :   -0.126019
  16 C :   -0.095980
  17 C :   -0.023630
  18 C :    0.010006
  19 C :    0.074334
  20 N :   -0.015462
  21 C :   -0.009768
  22 C :   -0.003567
  23 C :    0.013104
  24 S :   -0.122523
  25 C :    0.018526
  26 C :    0.070609
  27 N :   -0.016004
  28 C :    0.092161
  29 C :   -0.002999
  30 C :   -0.114332
  31 S :    0.067059
  32 C :   -0.036062
  33 C :   -0.024135
  34 C :    0.195185
  35 O :   -0.192625
  36 O :   -0.301586
  37 C :    0.351397
  38 C :   -0.208870
  39 C :    0.025568
  40 N :   -0.018710
  41 C :   -0.019151
  42 C :    0.008756
  43 C :   -0.100711
  44 S :    0.320092
  45 C :    0.019729
  46 C :   -0.006107
  47 N :   -0.012411
  48 C :    0.063092
  49 C :    0.044293
  50 C :   -0.067102
  51 C :    0.035938
  52 C :    0.341735
  53 C :   -0.316642
  54 C :   -0.190643
  55 N :    0.157244
  56 C :   -0.184370
  57 N :    0.166034
  58 C :    0.019315
  59 C :    0.078203
  60 C :    0.162864
  61 O :   -0.388577
  62 C :   -0.050069
  63 C :    0.045522
  64 C :    0.038720
  65 C :   -0.043259
  66 Cl:   -0.045895
  67 Cl:   -0.043663
  68 H :    0.001325
  69 H :   -0.003587
  70 H :    0.035868
  71 H :    0.016703
  72 H :    0.016420
  73 H :    0.085043
  74 H :    0.028848
  75 H :    0.046447
  76 H :    0.033157
  77 H :   -0.007640
  78 H :    0.022846
  79 H :   -0.006633
  80 H :   -0.037028
  81 H :   -0.008947
Sum of atomic charges:   -0.0000000

LOEWDIN ATOMIC CHARGES
----------------------
   0 C :    0.065147
   1 C :   -0.133275
   2 C :   -0.006197
   3 N :   -0.049649
   4 C :   -0.015776
   5 N :   -0.034849
   6 C :   -0.009208
   7 C :   -0.048077
   8 C :    0.005959
   9 C :   -0.132646
  10 C :   -0.132280
  11 C :   -0.017793
  12 Cl:    0.192738
  13 Cl:    0.163344
  14 C :    0.086989
  15 O :   -0.123616
  16 C :   -0.064283
  17 C :    0.059478
  18 C :   -0.054658
  19 C :    0.097140
  20 N :   -0.062934
  21 C :    0.043061
  22 C :    0.004175
  23 C :   -0.145454
  24 S :    0.107783
  25 C :   -0.026313
  26 C :    0.053479
  27 N :   -0.079088
  28 C :    0.111012
  29 C :   -0.038960
  30 C :   -0.062418
  31 S :    0.295639
  32 C :   -0.086678
  33 C :   -0.143838
  34 C :    0.058947
  35 O :   -0.168197
  36 O :   -0.090749
  37 C :    0.089979
  38 C :   -0.040639
  39 C :    0.037266
  40 N :   -0.059141
  41 C :   -0.026134
  42 C :   -0.046484
  43 C :   -0.180572
  44 S :    0.517868
  45 C :   -0.040810
  46 C :    0.047986
  47 N :   -0.068011
  48 C :    0.100794
  49 C :   -0.057316
  50 C :    0.001205
  51 C :   -0.058121
  52 C :    0.093279
  53 C :   -0.100252
  54 C :   -0.015150
  55 N :   -0.037418
  56 C :   -0.020921
  57 N :   -0.034059
  58 C :   -0.018373
  59 C :   -0.028683
  60 C :    0.057000
  61 O :   -0.208111
  62 C :   -0.028580
  63 C :   -0.142902
  64 C :   -0.149058
  65 C :   -0.017261
  66 Cl:    0.160587
  67 Cl:    0.159938
  68 H :    0.047208
  69 H :    0.040155
  70 H :    0.052741
  71 H :    0.030578
  72 H :    0.029088
  73 H :    0.034982
  74 H :    0.025918
  75 H :    0.044958
  76 H :    0.037410
  77 H :    0.017979
  78 H :    0.031788
  79 H :    0.043307
  80 H :    0.024935
  81 H :    0.033096

  Mayer bond orders larger than 0.100000
B(  0-C ,  1-C ) :   1.5995 B(  0-C ,  6-C ) :   1.0177 B(  0-C , 16-C ) :   1.0547
B(  1-C ,  2-C ) :   1.1247 B(  1-C ,  4-C ) :   1.1871 B(  2-C ,  3-N ) :   2.9394
B(  4-C ,  5-N ) :   3.0031 B(  6-C ,  7-C ) :   1.3244 B(  6-C , 11-C ) :   1.3456
B(  7-C ,  8-C ) :   1.3380 B(  7-C , 14-C ) :   0.9269 B(  8-C ,  9-C ) :   1.3504
B(  8-C , 68-H ) :   1.0159 B(  9-C , 10-C ) :   1.3985 B(  9-C , 13-Cl) :   1.0536
B( 10-C , 11-C ) :   1.3611 B( 10-C , 12-Cl) :   1.0928 B( 11-C , 69-H ) :   0.9816
B( 14-C , 15-O ) :   2.2748 B( 14-C , 16-C ) :   0.9221 B( 16-C , 17-C ) :   1.6918
B( 17-C , 18-C ) :   1.0703 B( 17-C , 70-H ) :   0.9321 B( 18-C , 19-C ) :   1.0173
B( 18-C , 22-C ) :   1.4888 B( 19-C , 20-N ) :   1.7231 B( 19-C , 71-H ) :   0.9944
B( 20-N , 21-C ) :   1.2762 B( 21-C , 22-C ) :   1.0686 B( 21-C , 26-C ) :   1.5219
B( 22-C , 23-C ) :   1.0496 B( 23-C , 24-S ) :   1.6718 B( 23-C , 25-C ) :   1.0008
B( 25-C , 26-C ) :   1.0437 B( 25-C , 29-C ) :   1.6144 B( 26-C , 27-N ) :   1.2808
B( 27-N , 28-C ) :   1.7036 B( 28-C , 29-C ) :   1.0405 B( 28-C , 72-H ) :   0.9888
B( 29-C , 30-C ) :   0.9862 B( 30-C , 31-S ) :   1.0211 B( 30-C , 33-C ) :   0.9723
B( 30-C , 73-H ) :   0.8845 B( 31-S , 32-C ) :   1.0832 B( 32-C , 33-C ) :   1.6627
B( 32-C , 74-H ) :   1.0126 B( 33-C , 34-C ) :   0.9717 B( 34-C , 35-O ) :   2.1096
B( 34-C , 36-O ) :   1.1953 B( 36-O , 37-C ) :   0.9670 B( 37-C , 38-C ) :   1.0151
B( 37-C , 75-H ) :   0.9275 B( 37-C , 76-H ) :   0.9309 B( 38-C , 39-C ) :   0.9995
B( 38-C , 42-C ) :   1.6729 B( 39-C , 40-N ) :   1.8165 B( 39-C , 77-H ) :   0.9957
B( 40-N , 41-C ) :   1.2080 B( 41-C , 42-C ) :   1.1115 B( 41-C , 46-C ) :   1.6109
B( 42-C , 43-C ) :   0.9777 B( 42-C , 45-C ) :   0.1216 B( 43-C , 44-S ) :   1.0798
B( 43-C , 45-C ) :   1.5412 B( 44-S , 61-O ) :   0.8010 B( 45-C , 46-C ) :   1.0449
B( 45-C , 49-C ) :   1.0697 B( 46-C , 47-N ) :   1.2562 B( 47-N , 48-C ) :   1.7265
B( 48-C , 49-C ) :   1.0157 B( 48-C , 78-H ) :   0.9882 B( 49-C , 50-C ) :   1.5441
B( 50-C , 51-C ) :   1.1717 B( 50-C , 79-H ) :   0.9269 B( 51-C , 52-C ) :   1.0457
B( 51-C , 60-C ) :   1.4472 B( 52-C , 53-C ) :   1.6804 B( 52-C , 58-C ) :   0.9745
B( 53-C , 54-C ) :   1.1404 B( 53-C , 56-C ) :   1.1233 B( 54-C , 55-N ) :   2.9753
B( 56-C , 57-N ) :   2.9866 B( 58-C , 59-C ) :   1.3090 B( 58-C , 65-C ) :   1.3714
B( 59-C , 60-C ) :   1.0374 B( 59-C , 62-C ) :   1.3033 B( 60-C , 61-O ) :   1.1591
B( 62-C , 63-C ) :   1.3336 B( 62-C , 80-H ) :   1.0096 B( 63-C , 64-C ) :   1.4418
B( 63-C , 67-Cl) :   1.0560 B( 64-C , 65-C ) :   1.3157 B( 64-C , 66-Cl) :   1.0599
B( 65-C , 81-H ) :   0.9873

-----------------------------------------------------------------------------
         ABSORPTION SPECTRUM VIA TRANSITION ELECTRIC DIPOLE MOMENTS
-----------------------------------------------------------------------------
State   Energy  Wavelength   fosc         T2         TX        TY        TZ
        (cm-1)    (nm)                  (au**2)     (au)      (au)      (au)
-----------------------------------------------------------------------------
   0   12728.3    785.7   0.057844681   1.49613  -0.90411  -0.50766   0.64884
   1   13288.2    752.5   0.000645306   0.01599  -0.09769  -0.07432   0.03033
   2   14535.1    688.0   0.056627036   1.28257  -0.91493  -0.43445   0.50669
   3   15469.7    646.4   0.002309187   0.04914  -0.04218  -0.21653  -0.02182
   4   17644.4    566.8   0.001293770   0.02414   0.13760   0.02807   0.06647
   5   18941.3    527.9   0.001353952   0.02353   0.00202   0.15339  -0.00053
   6   19731.2    506.8   0.006389374   0.10661  -0.27720  -0.05716  -0.16278
   7   21023.3    475.7   0.031993028   0.50099  -0.51433  -0.38526   0.29669
   8   21861.2    457.4   0.001712568   0.02579  -0.05927  -0.05032  -0.14052
   9   22990.0    435.0   0.104692205   1.49917   0.83868   0.70421  -0.54761
  10   23262.0    429.9   0.226217205   3.20151   1.10782   1.39524  -0.16602
  11   23975.4    417.1   0.011211480   0.15395  -0.03285  -0.38833   0.04549
  12   24496.6    408.2   0.102193312   1.37339  -0.97170  -0.07884   0.65037
  13   24539.6    407.5   0.003658224   0.04908   0.22091   0.01298  -0.01047
  14   24896.0    401.7   0.000438120   0.00579  -0.04888  -0.00400   0.05821
  15   25245.4    396.1   0.013767437   0.17953  -0.38601  -0.16417   0.05986
  16   25520.1    391.8   0.011620799   0.14991  -0.29060   0.14605   0.21007
  17   25878.9    386.4   0.006768450   0.08610   0.00254  -0.04279   0.29029
  18   25969.3    385.1   0.022137196   0.28063  -0.26412  -0.26742  -0.37331
  19   25980.8    384.9   0.009123934   0.11561  -0.03729  -0.27462   0.19699
  20   26604.6    375.9   0.006196145   0.07667   0.25495   0.05532  -0.09282
  21   26964.6    370.9   0.013053089   0.15937   0.30828   0.25271   0.02165
  22   27100.4    369.0   0.044087005   0.53556   0.50843   0.50656  -0.14304
  23   27315.7    366.1   0.118368257   1.42659  -0.65754  -0.98615   0.14743
  24   27507.6    363.5   0.321361518   3.84606  -0.84517  -1.76517   0.12623
  25   28584.9    349.8   0.044386205   0.51120   0.48928   0.33103  -0.40277
  26   28683.2    348.6   0.028916500   0.33189  -0.34232   0.41584   0.20440
  27   28874.7    346.3   0.140619123   1.60326  -0.91641  -0.75213   0.44469
  28   28904.7    346.0   0.032861431   0.37428   0.48687   0.36588   0.05805
  29   29066.5    344.0   0.035107710   0.39764  -0.49500  -0.32966   0.20961
  30   29269.5    341.7   0.025731522   0.28942   0.05332  -0.51301  -0.15296
  31   29372.3    340.5   0.016015669   0.17951  -0.08788   0.39187   0.13498
  32   29556.3    338.3   0.099146672   1.10434   0.04095   1.04531   0.09993
  33   29815.0    335.4   0.008616755   0.09514  -0.17120  -0.20962  -0.14798
  34   29940.1    334.0   0.080124380   0.88102   0.52213  -0.40441  -0.66697
  35   30227.5    330.8   0.030798739   0.33543   0.34015  -0.43237   0.18109
  36   30576.1    327.1   0.264183203   2.84446  -1.04136  -1.29135   0.30404
  37   30701.6    325.7   0.050539542   0.54193   0.27847   0.68146  -0.00169
  38   31025.2    322.3   0.055539148   0.58933  -0.22211   0.69491   0.23896
  39   31204.7    320.5   0.093614101   0.98764  -0.24861  -0.88519   0.37718
  40   31475.9    317.7   0.007351142   0.07689  -0.20450   0.00632   0.18715
  41   31794.8    314.5   0.005330469   0.05519  -0.00442   0.04883   0.22976
  42   31875.4    313.7   0.106566832   1.10063   0.84017   0.43078  -0.45735
  43   31990.8    312.6   0.028759808   0.29596   0.14545   0.46627   0.23959
  44   32037.7    312.1   0.059871780   0.61523  -0.58295   0.29836   0.43171
  45   32334.2    309.3   0.003339761   0.03400  -0.09005  -0.11657   0.11094
  46   32364.1    309.0   0.024581509   0.25005  -0.40805  -0.25567   0.13480
  47   32509.8    307.6   0.017244846   0.17463  -0.07865  -0.18909   0.36426
  48   32868.9    304.2   0.022768189   0.22804   0.20907   0.14805  -0.40301
  49   32935.3    303.6   0.096125075   0.96084   0.92762   0.31543  -0.02929
  50   33229.0    300.9   0.262604033   2.60172  -1.31538  -0.87151   0.33458
  51   33370.9    299.7   0.049082677   0.48421   0.63948   0.20610  -0.18109
  52   33693.2    296.8   0.037439425   0.36582  -0.37574  -0.40982  -0.23808
  53   33751.4    296.3   0.029337462   0.28616  -0.07164  -0.43637  -0.30101
  54   34036.5    293.8   0.011331767   0.10960  -0.15232   0.05975  -0.28781
  55   34326.9    291.3   0.067057995   0.64312  -0.61170   0.00824   0.51853
  56   34369.9    291.0   0.031303193   0.29984   0.47713   0.26764   0.02351
  57   34385.1    290.8   0.014785387   0.14156   0.19298  -0.32298   0.00023
  58   34680.4    288.3   0.020754385   0.19702  -0.21184  -0.38054  -0.08560
  59   34765.5    287.6   0.010179309   0.09639  -0.19446   0.07436  -0.23032
  60   35314.3    283.2   0.019770577   0.18431  -0.22609  -0.27714   0.23745
  61   35343.1    282.9   0.087365278   0.81378  -0.36776  -0.77759   0.27183
  62   35557.0    281.2   0.088627564   0.82058  -0.89444   0.05141  -0.13380
  63   35734.9    279.8   0.006657900   0.06134  -0.07682   0.12720   0.19813
  64   35869.3    278.8   0.149437473   1.37155   0.80187   0.40803  -0.74971
  65   36021.9    277.6   0.120117930   1.09778  -0.78269  -0.69115   0.08660
  66   36086.3    277.1   0.040754971   0.37180   0.36870   0.35214  -0.33446
  67   36413.2    274.6   0.339837802   3.07248  -0.33828   1.46948   0.89369
  68   36582.1    273.4   0.122475452   1.10219   0.38325   0.95705  -0.19838
  69   36649.5    272.9   0.069597855   0.62518  -0.32844   0.39210   0.60296
  70   36791.1    271.8   0.012982390   0.11617  -0.20981  -0.20203   0.17701
  71   37048.2    269.9   0.203072930   1.80451  -0.57113  -1.14640   0.40508
  72   37143.2    269.2   0.013492551   0.11959   0.13819  -0.06060   0.31116
  73   37260.0    268.4   0.004412624   0.03899  -0.03237   0.16651  -0.10107
  74   37336.8    267.8   0.020317032   0.17914  -0.02660  -0.41688  -0.06814
  75   37525.1    266.5   0.022805494   0.20008   0.06470  -0.42342  -0.12886
  76   37595.8    266.0   0.065181903   0.57077   0.61858   0.18471  -0.39244
  77   37736.1    265.0   0.098963033   0.86336  -0.02255  -0.61209   0.69871
  78   37905.7    263.8   0.093619393   0.81309  -0.34265  -0.83052  -0.07686
  79   38174.8    262.0   0.041754413   0.36008   0.30843  -0.37500  -0.35260
  80   38249.8    261.4   0.029166608   0.25103   0.45737  -0.06808  -0.19291
  81   38396.5    260.4   0.008773367   0.07522   0.21754   0.07123   0.15109
  82   38604.7    259.0   0.016519999   0.14088   0.11157   0.34589   0.09376
  83   38922.5    256.9   0.407092033   3.44324  -1.10989   1.36811   0.58280
  84   39131.7    255.5   0.124444859   1.04694  -0.68984  -0.37261   0.65744
  85   39192.9    255.1   0.161263716   1.35458  -0.39343   0.57918   0.92970
  86   39288.7    254.5   0.219318111   1.83773  -1.04482   0.61172  -0.60983
  87   39452.9    253.5   0.136504590   1.13905  -0.08401  -0.92822   0.52001
  88   39662.4    252.1   0.233290046   1.93639  -0.92191   0.75933  -0.71407
  89   39990.5    250.1   0.031989071   0.26334  -0.50429   0.08811  -0.03565
  90   40186.1    248.8   0.009414347   0.07712   0.19011  -0.19233  -0.06318
  91   40311.9    248.1   0.043792718   0.35764  -0.20042   0.50951   0.24057

FINAL SINGLE POINT ENERGY     -5645.401125965654

DIPOLE MOMENT
-------------
                                X             Y             Z
Electronic contribution:    -30.16685     -31.79237      24.74677
Nuclear contribution   :     29.37944      33.99987     -22.11840
                        -----------------------------------------
Total Dipole Moment    :     -0.78741       2.20750       2.62836
                        -----------------------------------------
Magnitude (a.u.)       :      3.52156
Magnitude (Debye)      :      8.95108

Rotational constants in cm-1:     0.001465     0.000826     0.000659
Rotational constants in MHz :    43.934321    24.768985    19.765934

                             ****ORCA TERMINATED NORMALLY****
TOTAL RUN TIME: 0 days 0 hours 18 minutes 51 seconds 96 msec
