                         Program Version 4.2.0 -  RELEASE  -
|  1> # ORCA input file
|  2> # SCF done       -192.264241618157          0.000445113589
|  3> ! CAM-B3LYP def2-SVP def2/J RIJCOSX Grid4 TightSCF
|  4> %maxcore 5000
|  5> %tddft
|  6>     Mode sTDDFT
|  7>     Ethresh 5.0
|  8>     maxcore 5000
|  9> end
| 10>
| 11> %pal
| 12>   nprocs 6
| 13>   end
| 14> * xyz 0 1
| 15>    C        0.17710         2.19453        -3.43496
| 16>    C        1.33942         2.68221        -2.90821
| 17>    C        2.53700         2.80989        -3.64376
| 18>    N        3.53173         2.92635        -4.20301
| 19>    C        1.49956         3.01334        -1.54599
| 20>    N        1.69437         3.23256        -0.43621
| 21>    C        0.01367         1.60094        -4.75456
| 22>    C       -1.15718         0.78381        -4.74824
| 23>    C       -1.53749         0.06807        -5.84820
| 24>    C       -0.75662         0.14316        -7.02265
| 25>    C        0.40438         0.97140        -7.04029
| 26>    C        0.77654         1.69949        -5.88761
| 27>    C        1.17036         1.04136        -8.22188
| 28>    C        0.81131         0.32656        -9.33200
| 29>    C       -0.33023        -0.48944        -9.31325
| 30>    C       -1.09719        -0.57948        -8.18354
| 31>    C       -1.81319         0.87054        -3.43412
| 32>    O       -2.77546         0.27042        -3.02669
| 33>    C       -1.05280         1.93900        -2.70270
| 34>    C       -1.59945         2.57509        -1.64411
| 35>    C       -1.14732         3.82034        -1.10421
| 36>    N       -0.61713         4.75636        -1.86984
| 37>    C       -0.32258         5.78486        -1.04456
| 38>    C       -0.70170         5.47712         0.34475
| 39>    C       -0.34752         6.59770         1.23574
| 40>    O       -0.53863         6.70260         2.42553
| 41>    C        0.28870         7.55388         0.30956
| 42>    C        0.26982         7.01858        -1.07412
| 43>    N        0.86608         7.88692        -1.92929
| 44>    C        1.25115         8.89066        -1.18429
| 45>    C        0.92755         8.74536         0.22635
| 46>    C       -1.23340         4.21530         0.32127
| 47>    C       -1.70472         3.36951         1.36846
| 48>    C       -1.63330         3.71772         2.66912
| 49>    C       -2.04676         2.88432         3.76492
| 50>    C       -1.55522         3.08750         5.05304
| 51>    C       -0.64737         4.07132         5.45704
| 52>    N        0.10295         4.86225         5.81352
| 53>    S       -2.13668         1.93404         6.19536
| 54>    C       -3.09297         1.15706         4.97635
| 55>    C       -2.94169         1.77969         3.73720
| 56>    C       -3.65703         1.37765         2.59176
| 57>    N       -4.20999         1.13840         1.61571
| 58>    C       -3.89961         0.00948         5.20127
| 59>    N       -4.58951        -0.49417         4.19139
| 60>    C       -5.19773        -1.59818         4.66628
| 61>    C       -4.84062        -1.83193         6.07443
| 62>    C       -5.54764        -3.01788         6.60058
| 63>    O       -5.51866        -3.48129         7.71584
| 64>    C       -6.31927        -3.47076         5.42629
| 65>    C       -6.07402        -2.57540         4.26881
| 66>    N       -6.80045        -2.97296         3.19640
| 67>    C       -7.46639        -4.02315         3.60283
| 68>    C       -7.21979        -4.38440         4.98990
| 69>    C       -4.02675        -0.79293         6.44372
| 70>    C       -3.42109        -0.52899         7.70736
| 71>    C       -3.12385        -1.50278         8.59999
| 72>    C       -2.52190        -1.19940         9.85031
| 73>    C       -1.97790        -2.12185        10.68956
| 74>    C       -1.41839        -1.88441        12.01121
| 75>    C       -1.23945        -0.67013        12.62051
| 76>    C       -0.68861        -0.50477        13.90967
| 77>    N       -0.25178        -0.29894        14.95097
| 78>    C       -1.55333         0.58511        12.05781
| 79>    N       -1.77321         1.64205        11.66629
| 80>    C       -1.05638        -3.17823        12.57714
| 81>    C       -1.32318        -4.19249        11.61297
| 82>    C       -1.86514        -3.57969        10.38919
| 83>    O       -2.11960        -4.13918         9.34628
| 84>    C       -1.06840        -5.51052        11.86122
| 85>    C       -0.52833        -5.88437        13.11159
| 86>    C       -0.26330        -4.87713        14.08449
| 87>    C       -0.53553        -3.52027        13.79818
| 88>    C        0.27661        -5.26095        15.32925
| 89>    C        0.54392        -6.57507        15.60068
| 90>    C        0.28348        -7.56562        14.64161
| 91>    C       -0.24160        -7.22778        13.42381
| 92>    H       -2.42331        -0.54894        -5.82166
| 93>    H        1.65186         2.32874        -5.92910
| 94>    H        2.04964         1.66830        -8.23053
| 95>    H        1.40537         0.38545       -10.23151
| 96>    H       -0.59867        -1.04581       -10.19864
| 97>    H       -1.97678        -1.20591        -8.16326
| 98>    H       -2.49022         2.13284        -1.20928
| 99>    H        1.75835         9.73129        -1.62541
|100>    H        1.16281         9.45396         0.99541
|101>    H       -2.09320         2.40582         1.07507
|102>    H       -1.19018         4.66672         2.94652
|103>    H       -8.12675        -4.54198         2.92972
|104>    H       -7.67180        -5.20567         5.50967
|105>    H       -3.17088         0.49820         7.94339
|106>    H       -3.31804        -2.53903         8.36351
|107>    H       -2.51268        -0.15504        10.13661
|108>    H       -1.27765        -6.25840        11.11084
|109>    H       -0.32370        -2.78345        14.55650
|110>    H        0.47622        -4.49477        16.06395
|111>    H        0.95816        -6.85899        16.55641
|112>    H        0.50117        -8.59759        14.87274
|113>    H       -0.44419        -7.98577        12.68140
|114> *
|115>
|116>                          ****END OF INPUT****

CARTESIAN COORDINATES (ANGSTROEM)
---------------------------------
  C      0.177100    2.194530   -3.434960
  C      1.339420    2.682210   -2.908210
  C      2.537000    2.809890   -3.643760
  N      3.531730    2.926350   -4.203010
  C      1.499560    3.013340   -1.545990
  N      1.694370    3.232560   -0.436210
  C      0.013670    1.600940   -4.754560
  C     -1.157180    0.783810   -4.748240
  C     -1.537490    0.068070   -5.848200
  C     -0.756620    0.143160   -7.022650
  C      0.404380    0.971400   -7.040290
  C      0.776540    1.699490   -5.887610
  C      1.170360    1.041360   -8.221880
  C      0.811310    0.326560   -9.332000
  C     -0.330230   -0.489440   -9.313250
  C     -1.097190   -0.579480   -8.183540
  C     -1.813190    0.870540   -3.434120
  O     -2.775460    0.270420   -3.026690
  C     -1.052800    1.939000   -2.702700
  C     -1.599450    2.575090   -1.644110
  C     -1.147320    3.820340   -1.104210
  N     -0.617130    4.756360   -1.869840
  C     -0.322580    5.784860   -1.044560
  C     -0.701700    5.477120    0.344750
  C     -0.347520    6.597700    1.235740
  O     -0.538630    6.702600    2.425530
  C      0.288700    7.553880    0.309560
  C      0.269820    7.018580   -1.074120
  N      0.866080    7.886920   -1.929290
  C      1.251150    8.890660   -1.184290
  C      0.927550    8.745360    0.226350
  C     -1.233400    4.215300    0.321270
  C     -1.704720    3.369510    1.368460
  C     -1.633300    3.717720    2.669120
  C     -2.046760    2.884320    3.764920
  C     -1.555220    3.087500    5.053040
  C     -0.647370    4.071320    5.457040
  N      0.102950    4.862250    5.813520
  S     -2.136680    1.934040    6.195360
  C     -3.092970    1.157060    4.976350
  C     -2.941690    1.779690    3.737200
  C     -3.657030    1.377650    2.591760
  N     -4.209990    1.138400    1.615710
  C     -3.899610    0.009480    5.201270
  N     -4.589510   -0.494170    4.191390
  C     -5.197730   -1.598180    4.666280
  C     -4.840620   -1.831930    6.074430
  C     -5.547640   -3.017880    6.600580
  O     -5.518660   -3.481290    7.715840
  C     -6.319270   -3.470760    5.426290
  C     -6.074020   -2.575400    4.268810
  N     -6.800450   -2.972960    3.196400
  C     -7.466390   -4.023150    3.602830
  C     -7.219790   -4.384400    4.989900
  C     -4.026750   -0.792930    6.443720
  C     -3.421090   -0.528990    7.707360
  C     -3.123850   -1.502780    8.599990
  C     -2.521900   -1.199400    9.850310
  C     -1.977900   -2.121850   10.689560
  C     -1.418390   -1.884410   12.011210
  C     -1.239450   -0.670130   12.620510
  C     -0.688610   -0.504770   13.909670
  N     -0.251780   -0.298940   14.950970
  C     -1.553330    0.585110   12.057810
  N     -1.773210    1.642050   11.666290
  C     -1.056380   -3.178230   12.577140
  C     -1.323180   -4.192490   11.612970
  C     -1.865140   -3.579690   10.389190
  O     -2.119600   -4.139180    9.346280
  C     -1.068400   -5.510520   11.861220
  C     -0.528330   -5.884370   13.111590
  C     -0.263300   -4.877130   14.084490
  C     -0.535530   -3.520270   13.798180
  C      0.276610   -5.260950   15.329250
  C      0.543920   -6.575070   15.600680
  C      0.283480   -7.565620   14.641610
  C     -0.241600   -7.227780   13.423810
  H     -2.423310   -0.548940   -5.821660
  H      1.651860    2.328740   -5.929100
  H      2.049640    1.668300   -8.230530
  H      1.405370    0.385450  -10.231510
  H     -0.598670   -1.045810  -10.198640
  H     -1.976780   -1.205910   -8.163260
  H     -2.490220    2.132840   -1.209280
  H      1.758350    9.731290   -1.625410
  H      1.162810    9.453960    0.995410
  H     -2.093200    2.405820    1.075070
  H     -1.190180    4.666720    2.946520
  H     -8.126750   -4.541980    2.929720
  H     -7.671800   -5.205670    5.509670
  H     -3.170880    0.498200    7.943390
  H     -3.318040   -2.539030    8.363510
  H     -2.512680   -0.155040   10.136610
  H     -1.277650   -6.258400   11.110840
  H     -0.323700   -2.783450   14.556500
  H      0.476220   -4.494770   16.063950
  H      0.958160   -6.858990   16.556410
  H      0.501170   -8.597590   14.872740
  H     -0.444190   -7.985770   12.681400

 Total Charge           Charge          ....    0
 Multiplicity           Mult            ....    1
 Number of Electrons    NEL             ....  512
 Basis Dimension        Dim             .... 1192

ORBITAL ENERGIES
----------------

  NO   OCC          E(Eh)            E(eV)
   0   2.0000     -89.011504     -2422.1262
   1   2.0000     -19.225177      -523.1437
   2   2.0000     -19.222430      -523.0689
   3   2.0000     -19.219515      -522.9896
   4   2.0000     -19.218953      -522.9743
   5   2.0000     -14.427386      -392.5891
   6   2.0000     -14.423722      -392.4894
   7   2.0000     -14.421676      -392.4338
   8   2.0000     -14.421310      -392.4238
   9   2.0000     -14.420982      -392.4149
  10   2.0000     -14.420852      -392.4113
  11   2.0000     -14.418047      -392.3350
  12   2.0000     -14.417461      -392.3191
  13   2.0000     -14.414242      -392.2315
  14   2.0000     -14.413428      -392.2093
  15   2.0000     -10.383415      -282.5471
  16   2.0000     -10.378150      -282.4038
  17   2.0000     -10.375352      -282.3277
  18   2.0000     -10.370005      -282.1822
  19   2.0000     -10.367216      -282.1063
  20   2.0000     -10.360126      -281.9134
  21   2.0000     -10.355571      -281.7894
  22   2.0000     -10.352668      -281.7104
  23   2.0000     -10.351692      -281.6839
  24   2.0000     -10.347133      -281.5598
  25   2.0000     -10.346185      -281.5340
  26   2.0000     -10.346056      -281.5305
  27   2.0000     -10.346034      -281.5299
  28   2.0000     -10.344557      -281.4897
  29   2.0000     -10.340950      -281.3915
  30   2.0000     -10.339432      -281.3503
  31   2.0000     -10.338871      -281.3350
  32   2.0000     -10.335542      -281.2444
  33   2.0000     -10.334611      -281.2191
  34   2.0000     -10.334557      -281.2176
  35   2.0000     -10.323425      -280.9147
  36   2.0000     -10.323293      -280.9111
  37   2.0000     -10.323178      -280.9080
  38   2.0000     -10.323091      -280.9056
  39   2.0000     -10.322304      -280.8842
  40   2.0000     -10.321801      -280.8705
  41   2.0000     -10.320605      -280.8379
  42   2.0000     -10.319297      -280.8023
  43   2.0000     -10.318245      -280.7737
  44   2.0000     -10.317236      -280.7463
  45   2.0000     -10.313437      -280.6429
  46   2.0000     -10.310727      -280.5691
  47   2.0000     -10.309450      -280.5344
  48   2.0000     -10.308509      -280.5088
  49   2.0000     -10.305779      -280.4345
  50   2.0000     -10.305626      -280.4303
  51   2.0000     -10.302902      -280.3562
  52   2.0000     -10.302816      -280.3539
  53   2.0000     -10.302726      -280.3514
  54   2.0000     -10.302238      -280.3382
  55   2.0000     -10.301422      -280.3160
  56   2.0000     -10.301365      -280.3144
  57   2.0000     -10.300122      -280.2806
  58   2.0000     -10.299973      -280.2765
  59   2.0000     -10.299734      -280.2700
  60   2.0000     -10.299166      -280.2546
  61   2.0000     -10.298581      -280.2386
  62   2.0000     -10.298209      -280.2285
  63   2.0000     -10.297893      -280.2199
  64   2.0000     -10.297707      -280.2149
  65   2.0000     -10.296752      -280.1889
  66   2.0000     -10.296198      -280.1738
  67   2.0000     -10.295914      -280.1661
  68   2.0000     -10.290678      -280.0236
  69   2.0000     -10.290346      -280.0146
  70   2.0000     -10.289943      -280.0036
  71   2.0000     -10.289687      -279.9966
  72   2.0000     -10.289074      -279.9799
  73   2.0000     -10.288688      -279.9694
  74   2.0000     -10.287968      -279.9498
  75   2.0000     -10.287757      -279.9441
  76   2.0000     -10.287252      -279.9304
  77   2.0000      -8.105954      -220.5742
  78   2.0000      -6.075266      -165.3164
  79   2.0000      -6.070861      -165.1965
  80   2.0000      -6.068299      -165.1268
  81   2.0000      -1.141002       -31.0483
  82   2.0000      -1.138140       -30.9704
  83   2.0000      -1.134649       -30.8754
  84   2.0000      -1.134007       -30.8579
  85   2.0000      -1.097109       -29.8539
  86   2.0000      -1.088101       -29.6087
  87   2.0000      -1.075213       -29.2580
  88   2.0000      -1.068642       -29.0792
  89   2.0000      -1.041020       -28.3276
  90   2.0000      -1.023592       -27.8534
  91   2.0000      -1.021817       -27.8051
  92   2.0000      -1.004322       -27.3290
  93   2.0000      -1.004186       -27.3253
  94   2.0000      -1.001632       -27.2558
  95   2.0000      -0.999226       -27.1903
  96   2.0000      -0.997443       -27.1418
  97   2.0000      -0.993771       -27.0419
  98   2.0000      -0.977485       -26.5987
  99   2.0000      -0.974370       -26.5140
 100   2.0000      -0.952892       -25.9295
 101   2.0000      -0.946420       -25.7534
 102   2.0000      -0.944192       -25.6928
 103   2.0000      -0.934331       -25.4244
 104   2.0000      -0.928414       -25.2634
 105   2.0000      -0.925231       -25.1768
 106   2.0000      -0.911029       -24.7904
 107   2.0000      -0.906125       -24.6569
 108   2.0000      -0.902304       -24.5529
 109   2.0000      -0.895759       -24.3748
 110   2.0000      -0.886261       -24.1164
 111   2.0000      -0.884062       -24.0565
 112   2.0000      -0.880744       -23.9663
 113   2.0000      -0.879413       -23.9300
 114   2.0000      -0.870686       -23.6926
 115   2.0000      -0.862691       -23.4750
 116   2.0000      -0.841300       -22.8929
 117   2.0000      -0.836473       -22.7616
 118   2.0000      -0.833155       -22.6713
 119   2.0000      -0.830528       -22.5998
 120   2.0000      -0.815771       -22.1983
 121   2.0000      -0.806067       -21.9342
 122   2.0000      -0.797458       -21.6999
 123   2.0000      -0.778335       -21.1796
 124   2.0000      -0.770905       -20.9774
 125   2.0000      -0.767988       -20.8980
 126   2.0000      -0.764573       -20.8051
 127   2.0000      -0.759722       -20.6731
 128   2.0000      -0.752221       -20.4690
 129   2.0000      -0.741402       -20.1746
 130   2.0000      -0.727733       -19.8026
 131   2.0000      -0.726703       -19.7746
 132   2.0000      -0.713370       -19.4118
 133   2.0000      -0.711831       -19.3699
 134   2.0000      -0.706312       -19.2197
 135   2.0000      -0.705381       -19.1944
 136   2.0000      -0.700289       -19.0558
 137   2.0000      -0.693746       -18.8778
 138   2.0000      -0.683165       -18.5899
 139   2.0000      -0.682179       -18.5630
 140   2.0000      -0.675503       -18.3814
 141   2.0000      -0.669550       -18.2194
 142   2.0000      -0.659017       -17.9328
 143   2.0000      -0.652832       -17.7645
 144   2.0000      -0.646633       -17.5958
 145   2.0000      -0.644405       -17.5351
 146   2.0000      -0.640787       -17.4367
 147   2.0000      -0.636078       -17.3086
 148   2.0000      -0.632386       -17.2081
 149   2.0000      -0.623441       -16.9647
 150   2.0000      -0.619772       -16.8649
 151   2.0000      -0.615286       -16.7428
 152   2.0000      -0.612434       -16.6652
 153   2.0000      -0.609511       -16.5856
 154   2.0000      -0.605311       -16.4713
 155   2.0000      -0.601236       -16.3605
 156   2.0000      -0.597023       -16.2458
 157   2.0000      -0.587678       -15.9915
 158   2.0000      -0.582260       -15.8441
 159   2.0000      -0.575083       -15.6488
 160   2.0000      -0.569720       -15.5029
 161   2.0000      -0.565974       -15.4009
 162   2.0000      -0.565927       -15.3997
 163   2.0000      -0.563089       -15.3224
 164   2.0000      -0.559088       -15.2135
 165   2.0000      -0.554578       -15.0908
 166   2.0000      -0.550434       -14.9781
 167   2.0000      -0.549041       -14.9402
 168   2.0000      -0.547929       -14.9099
 169   2.0000      -0.544409       -14.8141
 170   2.0000      -0.543438       -14.7877
 171   2.0000      -0.543203       -14.7813
 172   2.0000      -0.539511       -14.6808
 173   2.0000      -0.539215       -14.6728
 174   2.0000      -0.537621       -14.6294
 175   2.0000      -0.535322       -14.5668
 176   2.0000      -0.531654       -14.4670
 177   2.0000      -0.529238       -14.4013
 178   2.0000      -0.526525       -14.3275
 179   2.0000      -0.524720       -14.2784
 180   2.0000      -0.521891       -14.2014
 181   2.0000      -0.517378       -14.0786
 182   2.0000      -0.516859       -14.0645
 183   2.0000      -0.516231       -14.0474
 184   2.0000      -0.513459       -13.9719
 185   2.0000      -0.509308       -13.8590
 186   2.0000      -0.508717       -13.8429
 187   2.0000      -0.505932       -13.7671
 188   2.0000      -0.502881       -13.6841
 189   2.0000      -0.500130       -13.6092
 190   2.0000      -0.499167       -13.5830
 191   2.0000      -0.498847       -13.5743
 192   2.0000      -0.493021       -13.4158
 193   2.0000      -0.492025       -13.3887
 194   2.0000      -0.488504       -13.2929
 195   2.0000      -0.486839       -13.2476
 196   2.0000      -0.484808       -13.1923
 197   2.0000      -0.484163       -13.1747
 198   2.0000      -0.481037       -13.0897
 199   2.0000      -0.479058       -13.0358
 200   2.0000      -0.476597       -12.9689
 201   2.0000      -0.472054       -12.8452
 202   2.0000      -0.471135       -12.8202
 203   2.0000      -0.467558       -12.7229
 204   2.0000      -0.467098       -12.7104
 205   2.0000      -0.463041       -12.6000
 206   2.0000      -0.459823       -12.5124
 207   2.0000      -0.455248       -12.3879
 208   2.0000      -0.452590       -12.3156
 209   2.0000      -0.449433       -12.2297
 210   2.0000      -0.448676       -12.2091
 211   2.0000      -0.447698       -12.1825
 212   2.0000      -0.444367       -12.0919
 213   2.0000      -0.443154       -12.0588
 214   2.0000      -0.442184       -12.0324
 215   2.0000      -0.438539       -11.9333
 216   2.0000      -0.438209       -11.9243
 217   2.0000      -0.436156       -11.8684
 218   2.0000      -0.435797       -11.8586
 219   2.0000      -0.434624       -11.8267
 220   2.0000      -0.433362       -11.7924
 221   2.0000      -0.431276       -11.7356
 222   2.0000      -0.429188       -11.6788
 223   2.0000      -0.424892       -11.5619
 224   2.0000      -0.423192       -11.5156
 225   2.0000      -0.422830       -11.5058
 226   2.0000      -0.421931       -11.4813
 227   2.0000      -0.421087       -11.4584
 228   2.0000      -0.415820       -11.3150
 229   2.0000      -0.409611       -11.1461
 230   2.0000      -0.405020       -11.0211
 231   2.0000      -0.398453       -10.8425
 232   2.0000      -0.382589       -10.4108
 233   2.0000      -0.379211       -10.3189
 234   2.0000      -0.375154       -10.2084
 235   2.0000      -0.372947       -10.1484
 236   2.0000      -0.366058        -9.9610
 237   2.0000      -0.364598        -9.9212
 238   2.0000      -0.362573        -9.8661
 239   2.0000      -0.361747        -9.8436
 240   2.0000      -0.360978        -9.8227
 241   2.0000      -0.357863        -9.7379
 242   2.0000      -0.345988        -9.4148
 243   2.0000      -0.343551        -9.3485
 244   2.0000      -0.341820        -9.3014
 245   2.0000      -0.340665        -9.2700
 246   2.0000      -0.337108        -9.1732
 247   2.0000      -0.336825        -9.1655
 248   2.0000      -0.325065        -8.8455
 249   2.0000      -0.320663        -8.7257
 250   2.0000      -0.318239        -8.6597
 251   2.0000      -0.315598        -8.5879
 252   2.0000      -0.301123        -8.1940
 253   2.0000      -0.297448        -8.0940
 254   2.0000      -0.291639        -7.9359
 255   2.0000      -0.289173        -7.8688
 256   0.0000      -0.133239        -3.6256
 257   0.0000      -0.128004        -3.4832
 258   0.0000      -0.103462        -2.8153
 259   0.0000      -0.086377        -2.3504
 260   0.0000      -0.066362        -1.8058

MULLIKEN ATOMIC CHARGES
-----------------------
   0 C :    0.284914
   1 C :   -0.290253
   2 C :   -0.188505
   3 N :    0.162764
   4 C :   -0.180734
   5 N :    0.166373
   6 C :    0.039583
   7 C :    0.004572
   8 C :   -0.076784
   9 C :    0.095600
  10 C :    0.097062
  11 C :   -0.078382
  12 C :   -0.018054
  13 C :    0.037553
  14 C :    0.037562
  15 C :   -0.015405
  16 C :    0.137654
  17 O :   -0.117179
  18 C :   -0.083294
  19 C :    0.002114
  20 C :   -0.026692
  21 N :   -0.034403
  22 C :    0.078968
  23 C :   -0.140019
  24 C :    0.229440
  25 O :   -0.125753
  26 C :   -0.003232
  27 C :   -0.023466
  28 N :   -0.051416
  29 C :    0.099012
  30 C :   -0.094343
  31 C :    0.075052
  32 C :   -0.015905
  33 C :   -0.031062
  34 C :    0.219936
  35 C :   -0.269211
  36 C :   -0.174860
  37 N :    0.171208
  38 S :    0.236317
  39 C :   -0.084253
  40 C :   -0.082959
  41 C :   -0.216274
  42 N :    0.202801
  43 C :    0.030851
  44 N :   -0.028436
  45 C :    0.075852
  46 C :   -0.156551
  47 C :    0.215263
  48 O :   -0.116062
  49 C :   -0.029377
  50 C :   -0.010012
  51 N :   -0.044555
  52 C :    0.098587
  53 C :   -0.087183
  54 C :    0.062624
  55 C :   -0.069278
  56 C :    0.042127
  57 C :   -0.056246
  58 C :   -0.051324
  59 C :    0.330052
  60 C :   -0.348616
  61 C :   -0.182680
  62 N :    0.155815
  63 C :   -0.187059
  64 N :    0.148075
  65 C :    0.046971
  66 C :   -0.005350
  67 C :    0.148911
  68 O :   -0.137690
  69 C :   -0.076176
  70 C :    0.098385
  71 C :    0.096006
  72 C :   -0.081525
  73 C :   -0.018232
  74 C :    0.038385
  75 C :    0.035674
  76 C :   -0.016751
  77 H :   -0.007371
  78 H :   -0.000441
  79 H :   -0.007887
  80 H :   -0.002000
  81 H :   -0.003354
  82 H :   -0.014616
  83 H :    0.052762
  84 H :    0.016310
  85 H :    0.003274
  86 H :   -0.002072
  87 H :    0.031574
  88 H :    0.018860
  89 H :    0.001969
  90 H :    0.023565
  91 H :    0.049171
  92 H :    0.014952
  93 H :   -0.011192
  94 H :   -0.008271
  95 H :   -0.007366
  96 H :   -0.004341
  97 H :   -0.003844
  98 H :   -0.016208
Sum of atomic charges:   -0.0000000

LOEWDIN ATOMIC CHARGES
----------------------
   0 C :    0.072801
   1 C :   -0.107781
   2 C :   -0.016101
   3 N :   -0.040386
   4 C :   -0.014045
   5 N :   -0.046675
   6 C :   -0.020477
   7 C :   -0.059523
   8 C :    0.037252
   9 C :   -0.007979
  10 C :   -0.002913
  11 C :    0.020128
  12 C :   -0.005069
  13 C :   -0.010063
  14 C :   -0.010953
  15 C :   -0.007746
  16 C :    0.084065
  17 O :   -0.118153
  18 C :   -0.023732
  19 C :    0.035266
  20 C :    0.061119
  21 N :   -0.087547
  22 C :    0.043947
  23 C :   -0.027944
  24 C :    0.072144
  25 O :   -0.124584
  26 C :   -0.033341
  27 C :    0.040310
  28 N :   -0.093302
  29 C :    0.087363
  30 C :   -0.025876
  31 C :   -0.019968
  32 C :   -0.002273
  33 C :    0.004151
  34 C :    0.000136
  35 C :   -0.201446
  36 C :   -0.057739
  37 N :   -0.012453
  38 S :    0.536965
  39 C :   -0.155598
  40 C :   -0.057206
  41 C :   -0.027791
  42 N :   -0.030088
  43 C :    0.046684
  44 N :   -0.069107
  45 C :    0.041096
  46 C :   -0.026143
  47 C :    0.066612
  48 O :   -0.122148
  49 C :   -0.037645
  50 C :    0.042828
  51 N :   -0.088229
  52 C :    0.089087
  53 C :   -0.027421
  54 C :   -0.035594
  55 C :   -0.011950
  56 C :    0.015597
  57 C :    0.061406
  58 C :   -0.073777
  59 C :    0.074729
  60 C :   -0.132657
  61 C :   -0.017022
  62 N :   -0.048548
  63 C :   -0.019100
  64 N :   -0.049683
  65 C :   -0.026274
  66 C :   -0.055949
  67 C :    0.085212
  68 O :   -0.131210
  69 C :    0.034066
  70 C :   -0.007275
  71 C :   -0.005699
  72 C :    0.020712
  73 C :   -0.004786
  74 C :   -0.012258
  75 C :   -0.010873
  76 C :   -0.009172
  77 H :    0.041099
  78 H :    0.040480
  79 H :    0.035424
  80 H :    0.034231
  81 H :    0.033637
  82 H :    0.032871
  83 H :    0.057577
  84 H :    0.026667
  85 H :    0.037957
  86 H :    0.034161
  87 H :    0.041564
  88 H :    0.027626
  89 H :    0.037383
  90 H :    0.020297
  91 H :    0.040400
  92 H :    0.042605
  93 H :    0.039860
  94 H :    0.039196
  95 H :    0.035326
  96 H :    0.033569
  97 H :    0.033262
  98 H :    0.032405

  Mayer bond orders larger than 0.100000
B(  0-C ,  1-C ) :   1.6982 B(  0-C ,  6-C ) :   1.0076 B(  0-C , 18-C ) :   1.0060
B(  1-C ,  2-C ) :   1.1372 B(  1-C ,  4-C ) :   1.1566 B(  2-C ,  3-N ) :   2.9895
B(  4-C ,  5-N ) :   2.9885 B(  6-C ,  7-C ) :   1.2088 B(  6-C , 11-C ) :   1.4527
B(  7-C ,  8-C ) :   1.4667 B(  7-C , 16-C ) :   0.9211 B(  8-C ,  9-C ) :   1.1923
B(  8-C , 77-H ) :   1.0161 B(  9-C , 10-C ) :   1.2521 B(  9-C , 15-C ) :   1.2421
B( 10-C , 11-C ) :   1.2089 B( 10-C , 12-C ) :   1.2385 B( 11-C , 78-H ) :   0.9937
B( 12-C , 13-C ) :   1.4927 B( 12-C , 79-H ) :   0.9979 B( 13-C , 14-C ) :   1.2573
B( 13-C , 80-H ) :   0.9883 B( 14-C , 15-C ) :   1.4922 B( 14-C , 81-H ) :   0.9886
B( 15-C , 82-H ) :   0.9981 B( 16-C , 17-O ) :   2.2959 B( 16-C , 18-C ) :   0.9081
B( 18-C , 19-C ) :   1.7660 B( 19-C , 20-C ) :   1.0209 B( 19-C , 83-H ) :   0.9346
B( 20-C , 21-N ) :   1.6057 B( 20-C , 22-C ) :   0.1140 B( 20-C , 31-C ) :   1.0211
B( 21-N , 22-C ) :   1.2996 B( 22-C , 23-C ) :   1.0609 B( 22-C , 27-C ) :   1.4458
B( 23-C , 24-C ) :   0.8886 B( 23-C , 31-C ) :   1.5569 B( 24-C , 25-O ) :   2.1995
B( 24-C , 26-C ) :   0.9214 B( 26-C , 27-C ) :   1.0590 B( 26-C , 30-C ) :   1.6259
B( 27-C , 28-N ) :   1.3008 B( 28-N , 29-C ) :   1.6685 B( 29-C , 30-C ) :   1.0508
B( 29-C , 84-H ) :   0.9884 B( 30-C , 85-H ) :   1.0107 B( 31-C , 32-C ) :   1.1241
B( 32-C , 33-C ) :   1.6890 B( 32-C , 86-H ) :   0.9482 B( 33-C , 34-C ) :   1.1086
B( 33-C , 87-H ) :   0.9293 B( 34-C , 35-C ) :   1.4338 B( 34-C , 40-C ) :   1.2395
B( 35-C , 36-C ) :   1.1889 B( 35-C , 38-S ) :   1.1508 B( 35-C , 39-C ) :   0.1151
B( 36-C , 37-N ) :   2.9965 B( 38-S , 39-C ) :   1.1470 B( 39-C , 40-C ) :   1.4750
B( 39-C , 43-C ) :   1.0808 B( 40-C , 41-C ) :   1.1599 B( 41-C , 42-N ) :   2.9666
B( 43-C , 44-N ) :   1.6425 B( 43-C , 45-C ) :   0.1253 B( 43-C , 54-C ) :   1.0377
B( 44-N , 45-C ) :   1.3440 B( 45-C , 46-C ) :   1.0564 B( 45-C , 50-C ) :   1.4180
B( 46-C , 47-C ) :   0.8803 B( 46-C , 54-C ) :   1.5919 B( 47-C , 48-O ) :   2.2671
B( 47-C , 49-C ) :   0.9037 B( 49-C , 50-C ) :   1.0481 B( 49-C , 53-C ) :   1.6274
B( 50-C , 51-N ) :   1.3075 B( 51-N , 52-C ) :   1.6615 B( 52-C , 53-C ) :   1.0530
B( 52-C , 88-H ) :   0.9891 B( 53-C , 89-H ) :   1.0102 B( 54-C , 55-C ) :   1.0391
B( 55-C , 56-C ) :   1.6452 B( 55-C , 90-H ) :   0.9540 B( 56-C , 57-C ) :   1.1203
B( 56-C , 91-H ) :   0.9726 B( 57-C , 58-C ) :   1.5956 B( 57-C , 92-H ) :   0.9603
B( 58-C , 59-C ) :   1.0471 B( 58-C , 67-C ) :   0.9278 B( 59-C , 60-C ) :   1.6385
B( 59-C , 65-C ) :   0.9933 B( 60-C , 61-C ) :   1.1440 B( 60-C , 63-C ) :   1.1459
B( 61-C , 62-N ) :   2.9650 B( 63-C , 64-N ) :   2.9605 B( 65-C , 66-C ) :   1.2142
B( 65-C , 72-C ) :   1.4440 B( 66-C , 67-C ) :   0.9429 B( 66-C , 69-C ) :   1.4699
B( 67-C , 68-O ) :   2.2180 B( 69-C , 70-C ) :   1.1820 B( 69-C , 93-H ) :   1.0155
B( 70-C , 71-C ) :   1.2553 B( 70-C , 76-C ) :   1.2419 B( 71-C , 72-C ) :   1.2095
B( 71-C , 73-C ) :   1.2378 B( 72-C , 94-H ) :   0.9889 B( 73-C , 74-C ) :   1.4900
B( 73-C , 95-H ) :   0.9974 B( 74-C , 75-C ) :   1.2593 B( 74-C , 96-H ) :   0.9881
B( 75-C , 76-C ) :   1.4900 B( 75-C , 97-H ) :   0.9888 B( 76-C , 98-H ) :   0.9980

-----------------------------------------------------------------------------
         ABSORPTION SPECTRUM VIA TRANSITION ELECTRIC DIPOLE MOMENTS
-----------------------------------------------------------------------------
State   Energy  Wavelength   fosc         T2         TX        TY        TZ
        (cm-1)    (nm)                  (au**2)     (au)      (au)      (au)
-----------------------------------------------------------------------------
   0   17666.2    566.1   0.067845290   1.26430   0.44657   0.98838  -0.29661
   1   17957.4    556.9   0.073462421   1.34678   0.71806   0.30947   0.85755
   2   20138.3    496.6   0.241215726   3.94329   1.29098   1.50615  -0.09051
   3   20390.0    490.4   0.042542458   0.68688   0.18161  -0.80860  -0.00828
   4   20639.8    484.5   0.039115907   0.62391  -0.44781  -0.64973   0.03506
   5   21335.0    468.7   0.024881508   0.38394   0.14431  -0.59473  -0.09697
   6   23600.4    423.7   0.110747823   1.54487  -0.74798  -0.71816  -0.68531
   7   23797.2    420.2   0.116923787   1.61753  -0.56460  -0.78006   0.83082
   8   23884.7    418.7   0.075251394   1.03722  -0.00363   0.93827   0.39604
   9   24276.8    411.9   0.047239200   0.64060   0.05375   0.43065  -0.67250
  10   24646.5    405.7   0.029764352   0.39757   0.02662  -0.56492  -0.27880
  11   24805.1    403.1   0.691449352   9.17687  -1.81144  -0.25837  -2.41429
  12   24882.5    401.9   0.508436160   6.72694   0.70194   1.76767  -1.76339
  13   25349.9    394.5   0.058962643   0.76573   0.07706   0.77446   0.40001
  14   25539.1    391.6   0.098100309   1.26456  -0.10531   0.33988  -1.06675
  15   25890.4    386.2   0.306029582   3.89136  -0.23785  -1.70268  -0.96729
  16   26193.4    381.8   0.084932381   1.06747   0.79261   0.36123   0.55566
  17   26569.6    376.4   0.024452654   0.30298  -0.10845  -0.11544  -0.52716
  18   26729.3    374.1   0.139483830   1.71795  -0.00702   0.82309   1.02001
  19   26907.5    371.6   0.000264169   0.00323  -0.00336   0.03625   0.04367
  20   27024.8    370.0   0.028882927   0.35185  -0.06167  -0.46869   0.35829
  21   27184.6    367.9   0.012580526   0.15235   0.25240   0.05333   0.29292
  22   27795.7    359.8   0.140700326   1.66645  -0.27289  -1.24091   0.22833
  23   28101.6    355.9   0.274680091   3.21790   0.86350  -0.55527   1.47103
  24   28476.6    351.2   0.166834642   1.92874   0.49871   0.82449  -1.00012
  25   28906.5    345.9   0.114235807   1.30102   0.51759   1.00750  -0.13437
  26   29226.6    342.2   0.007658909   0.08627   0.07374  -0.09606   0.26759
  27   29790.1    335.7   0.001867894   0.02064   0.03799   0.06612   0.12177
  28   30043.5    332.9   0.164108125   1.79827  -0.47761  -0.31080  -1.21390
  29   30113.6    332.1   0.010442398   0.11416   0.26945  -0.02526   0.20228
  30   30442.3    328.5   0.210877012   2.28049  -0.62116  -1.07566   0.85884
  31   30937.1    323.2   0.262099874   2.78909   0.54526   1.04514  -1.18299
  32   31089.6    321.7   0.007382264   0.07817  -0.06296  -0.06146   0.26539
  33   31095.5    321.6   0.060467965   0.64018  -0.22464  -0.49508   0.58704
  34   31217.4    320.3   0.167745856   1.76901  -0.26923  -0.79169  -1.03429
  35   31868.4    313.8   0.302459149   3.12451   0.50441  -1.52443   0.73905
  36   32125.9    311.3   0.063636281   0.65212  -0.53839  -0.60027  -0.04389
  37   32172.6    310.8   0.010456002   0.10699   0.19352   0.07819   0.25185
  38   32591.0    306.8   0.061002211   0.61620  -0.56262  -0.06145   0.54395
  39   32804.7    304.8   0.009061073   0.09093  -0.10822   0.09054  -0.26650
  40   32981.6    303.2   0.019521235   0.19485   0.38035   0.20683   0.08609
  41   33293.1    300.4   0.315107858   3.11588   0.82131  -1.43515   0.61778
  42   33712.7    296.6   0.185814845   1.81452   0.11817  -0.86125   1.02899
  43   33979.6    294.3   0.042472027   0.41149  -0.31497   0.41856   0.37026
  44   34115.9    293.1   0.094458568   0.91151  -0.00390  -0.91435   0.27470
  45   34190.0    292.5   0.138994948   1.33837   0.30801   1.10137   0.17457
  46   34583.7    289.2   0.147813996   1.40708  -0.19057   0.44694   1.08213
  47   34653.9    288.6   0.096579225   0.91750  -0.08743   0.43533   0.84873
  48   34828.9    287.1   0.146077238   1.38076  -0.62303  -0.87375  -0.47869
  49   34876.6    286.7   0.114120494   1.07722   0.67681   0.53413   0.57780
  50   35225.7    283.9   0.067083409   0.62695   0.04245  -0.21236  -0.76161
  51   35322.4    283.1   0.005511998   0.05137  -0.00055  -0.21930  -0.05727
  52   35890.8    278.6   0.146929462   1.34773  -0.57864  -0.59231  -0.81367
  53   35924.0    278.4   0.002858214   0.02619  -0.12261  -0.10083  -0.03153
  54   36188.9    276.3   0.048205544   0.43853  -0.27577  -0.60127  -0.03083
  55   36263.9    275.8   0.007141522   0.06483  -0.16004   0.03689   0.19457
  56   36490.1    274.0   0.143530453   1.29493   0.50972   0.73732   0.70105
  57   36579.7    273.4   0.023701160   0.21331  -0.21272  -0.36100  -0.19426
  58   36645.8    272.9   0.108065402   0.97082   0.46078   0.75617   0.43209
  59   36884.4    271.1   0.101927276   0.90975   0.46545   0.15553   0.81787
  60   37064.0    269.8   0.048873759   0.43411   0.15068   0.59504  -0.23944
  61   37202.0    268.8   0.066104779   0.58498   0.13862  -0.22979   0.71621
  62   37301.9    268.1   0.057254075   0.50530  -0.21046  -0.55351  -0.39324
  63   37876.9    264.0   0.126186146   1.09676   0.65984   0.79483   0.17213
  64   38126.4    262.3   0.000551760   0.00476  -0.03309  -0.04770  -0.03733
  65   38309.5    261.0   0.005256026   0.04517   0.05961  -0.13949  -0.14885
  66   38335.1    260.9   0.129583112   1.11283  -0.31159  -0.91276  -0.42733
  67   38463.0    260.0   0.126966659   1.08673  -0.30125  -0.71736  -0.69382
  68   38723.1    258.2   0.009641251   0.08197   0.18028   0.22162  -0.01878
  69   38757.1    258.0   0.027193404   0.23099  -0.13677  -0.40834   0.21341
  70   38866.1    257.3   0.006441747   0.05456   0.01143   0.20903  -0.10363
  71   38985.6    256.5   0.075402463   0.63673  -0.04754  -0.72790  -0.32348
  72   39171.0    255.3   0.016502764   0.13870  -0.10310  -0.30804   0.18216
  73   39376.1    254.0   0.071432358   0.59723  -0.08933  -0.32555  -0.69517
  74   39446.0    253.5   0.054754434   0.45697  -0.22334   0.21286   0.60149
  75   39527.4    253.0   0.002997130   0.02496  -0.00050  -0.01086   0.15762
  76   39694.6    251.9   0.002158827   0.01790   0.01467  -0.07394   0.11056
  77   39791.7    251.3   0.000784793   0.00649   0.03989   0.02375   0.06586
  78   39990.8    250.1   0.041124334   0.33854   0.12689   0.38629   0.41620
  79   40151.8    249.1   0.260228605   2.13366  -0.27872  -0.51885  -1.33670
  80   40260.4    248.4   0.039518957   0.32315  -0.06372   0.44957   0.34201

FINAL SINGLE POINT ENERGY     -3617.977217334059

DIPOLE MOMENT
-------------
                                X             Y             Z
Electronic contribution:     -6.58003      25.42771       3.43561
Nuclear contribution   :      5.62851     -28.50838      -5.04835
                        -----------------------------------------
Total Dipole Moment    :     -0.95152      -3.08067      -1.61274
                        -----------------------------------------
Magnitude (a.u.)       :      3.60511
Magnitude (Debye)      :      9.16346

Rotational constants in cm-1:     0.001245     0.000299     0.000272
Rotational constants in MHz :    37.332911     8.966890     8.161471

                             ****ORCA TERMINATED NORMALLY****
TOTAL RUN TIME: 0 days 0 hours 10 minutes 9 seconds 17 msec
