                         Program Version 4.2.0 -  RELEASE  -
|  1> # ORCA input file
|  2> # SCF done       -171.823144120096          0.000833163906
|  3> ! CAM-B3LYP def2-SVP def2/J RIJCOSX Grid4 TightSCF
|  4> %maxcore 5000
|  5> %tddft
|  6>     Mode sTDDFT
|  7>     Ethresh 5.0
|  8>     maxcore 5000
|  9> end
| 10>
| 11> %pal
| 12>   nprocs 6
| 13>   end
| 14> * xyz 0 1
| 15>    C        2.81030         1.36676        -0.64631
| 16>    C        3.66732         1.78668        -1.62978
| 17>    C        4.56828         0.93506        -2.30338
| 18>    N        5.31974         0.29672        -2.89113
| 19>    C        3.81502         3.11691        -2.07656
| 20>    N        4.01024         4.17522        -2.47853
| 21>    C        2.74517         0.01548        -0.10589
| 22>    C        1.89397         0.02982         1.03433
| 23>    C        1.64225        -1.09638         1.76331
| 24>    C        2.23648        -2.31637         1.37073
| 25>    C        3.08249        -2.34193         0.22438
| 26>    C        3.32916        -1.15710        -0.50656
| 27>    C        3.66376        -3.56659        -0.16256
| 28>    C        3.42307        -4.71119         0.54759
| 29>    C        2.59080        -4.68446         1.67661
| 30>    C        2.01065        -3.51238         2.07982
| 31>    C        1.37232         1.39036         1.24737
| 32>    O        0.66123         1.74244         2.16516
| 33>    C        1.87704         2.19410         0.10486
| 34>    C        1.45383         3.42251        -0.31646
| 35>    C        0.58014         4.35534         0.28478
| 36>    S        0.05202         5.70336        -0.70668
| 37>    C       -0.89230         6.37419         0.57614
| 38>    C       -0.76992         5.58472         1.72855
| 39>    C        0.05132         4.46261         1.55545
| 40>    C       -1.38356         5.84498         2.96605
| 41>    N       -1.85874         6.01817         3.99684
| 42>    C       -1.65536         7.54850         0.33236
| 43>    C       -2.43550         8.15704         1.25456
| 44>    C       -3.27854         9.30631         1.05748
| 45>    C       -3.97170         9.86367         2.15505
| 46>    C       -3.80406         9.34419         3.54954
| 47>    C       -4.82080        10.92481         1.92193
| 48>    C       -5.05152        11.46192         0.64889
| 49>    C       -4.31409        10.94942        -0.43381
| 50>    C       -3.45457         9.89283        -0.20086
| 51>    C       -4.38480        11.52499        -1.81600
| 52>    C       -6.04535        12.51065         0.56756
| 53>    C       -6.86766        12.79210        -0.45814
| 54>    C       -7.87986        13.80091        -0.40889
| 55>    S       -8.14306        14.78667         1.00189
| 56>    C       -9.45309        15.61887         0.24259
| 57>    C      -10.28214        16.58125         0.99430
| 58>    O      -11.45784        16.72265         0.78327
| 59>    O       -9.66243        17.26444         1.96368
| 60>    C       -9.67204        15.15746        -1.04269
| 61>    C       -8.78268        14.11798        -1.39224
| 62>    C      -10.68161        15.65441        -1.94966
| 63>    C      -11.01082        16.94977        -2.13126
| 64>    C      -12.10608        17.46393        -2.94793
| 65>    C      -12.89401        16.74887        -3.80711
| 66>    C      -13.94500        17.30700        -4.56743
| 67>    N      -14.80622        17.69658        -5.21809
| 68>    C      -12.75465        15.37448        -4.09597
| 69>    N      -12.69120        14.26838        -4.39816
| 70>    C      -12.20676        18.89404        -2.69397
| 71>    C      -11.13321        19.28805        -1.84431
| 72>    C      -10.31687        18.11724        -1.50722
| 73>    O       -9.26939        18.11081        -0.89527
| 74>    C      -10.97293        20.58100        -1.43371
| 75>    C      -11.90109        21.55729        -1.85609
| 76>    C      -12.97958        21.17205        -2.70490
| 77>    C      -13.11761        19.82748        -3.11665
| 78>    C      -13.90075        22.15557        -3.12045
| 79>    C      -13.76573        23.45598        -2.71728
| 80>    C      -12.70467        23.83364        -1.88021
| 81>    C      -11.79248        22.90479        -1.45882
| 82>    H        0.99497        -1.05679         2.62687
| 83>    H        3.96919        -1.21065        -1.37285
| 84>    H        4.30509        -3.58197        -1.03156
| 85>    H        3.87306        -5.64417         0.24303
| 86>    H        2.41130        -5.59711         2.22493
| 87>    H        1.36865        -3.48535         2.94813
| 88>    H        1.80761         3.74206        -1.29041
| 89>    H        0.24563         3.74832         2.33473
| 90>    H       -1.57675         7.93454        -0.67447
| 91>    H       -2.45180         7.73440         2.24627
| 92>    H       -2.76063         9.38422         3.85843
| 93>    H       -4.13447         8.30891         3.62543
| 94>    H       -4.38983         9.93861         4.24583
| 95>    H       -5.36267        11.34860         2.75615
| 96>    H       -2.90162         9.49967        -1.04046
| 97>    H       -4.57113        12.59581        -1.78624
| 98>    H       -5.17907        11.04991        -2.39213
| 99>    H       -3.44840        11.34770        -2.34083
|100>    H       -6.18153        13.07568         1.48402
|101>    H       -6.84143        12.22635        -1.37638
|102>    H       -8.70302        17.14411         1.95144
|103>    H       -8.79710        13.63526        -2.35339
|104>    H      -11.18670        14.88641        -2.52110
|105>    H      -10.15184        20.85152        -0.78664
|106>    H      -13.94813        19.56792        -3.75372
|107>    H      -14.71609        21.86013        -3.76426
|108>    H      -14.47659        24.20162        -3.04044
|109>    H      -12.61448        24.86420        -1.57094
|110>    H      -10.97406        23.18924        -0.81385
|111> *
|112>
|113>                          ****END OF INPUT****

CARTESIAN COORDINATES (ANGSTROEM)
---------------------------------
  C      2.810300    1.366760   -0.646310
  C      3.667320    1.786680   -1.629780
  C      4.568280    0.935060   -2.303380
  N      5.319740    0.296720   -2.891130
  C      3.815020    3.116910   -2.076560
  N      4.010240    4.175220   -2.478530
  C      2.745170    0.015480   -0.105890
  C      1.893970    0.029820    1.034330
  C      1.642250   -1.096380    1.763310
  C      2.236480   -2.316370    1.370730
  C      3.082490   -2.341930    0.224380
  C      3.329160   -1.157100   -0.506560
  C      3.663760   -3.566590   -0.162560
  C      3.423070   -4.711190    0.547590
  C      2.590800   -4.684460    1.676610
  C      2.010650   -3.512380    2.079820
  C      1.372320    1.390360    1.247370
  O      0.661230    1.742440    2.165160
  C      1.877040    2.194100    0.104860
  C      1.453830    3.422510   -0.316460
  C      0.580140    4.355340    0.284780
  S      0.052020    5.703360   -0.706680
  C     -0.892300    6.374190    0.576140
  C     -0.769920    5.584720    1.728550
  C      0.051320    4.462610    1.555450
  C     -1.383560    5.844980    2.966050
  N     -1.858740    6.018170    3.996840
  C     -1.655360    7.548500    0.332360
  C     -2.435500    8.157040    1.254560
  C     -3.278540    9.306310    1.057480
  C     -3.971700    9.863670    2.155050
  C     -3.804060    9.344190    3.549540
  C     -4.820800   10.924810    1.921930
  C     -5.051520   11.461920    0.648890
  C     -4.314090   10.949420   -0.433810
  C     -3.454570    9.892830   -0.200860
  C     -4.384800   11.524990   -1.816000
  C     -6.045350   12.510650    0.567560
  C     -6.867660   12.792100   -0.458140
  C     -7.879860   13.800910   -0.408890
  S     -8.143060   14.786670    1.001890
  C     -9.453090   15.618870    0.242590
  C    -10.282140   16.581250    0.994300
  O    -11.457840   16.722650    0.783270
  O     -9.662430   17.264440    1.963680
  C     -9.672040   15.157460   -1.042690
  C     -8.782680   14.117980   -1.392240
  C    -10.681610   15.654410   -1.949660
  C    -11.010820   16.949770   -2.131260
  C    -12.106080   17.463930   -2.947930
  C    -12.894010   16.748870   -3.807110
  C    -13.945000   17.307000   -4.567430
  N    -14.806220   17.696580   -5.218090
  C    -12.754650   15.374480   -4.095970
  N    -12.691200   14.268380   -4.398160
  C    -12.206760   18.894040   -2.693970
  C    -11.133210   19.288050   -1.844310
  C    -10.316870   18.117240   -1.507220
  O     -9.269390   18.110810   -0.895270
  C    -10.972930   20.581000   -1.433710
  C    -11.901090   21.557290   -1.856090
  C    -12.979580   21.172050   -2.704900
  C    -13.117610   19.827480   -3.116650
  C    -13.900750   22.155570   -3.120450
  C    -13.765730   23.455980   -2.717280
  C    -12.704670   23.833640   -1.880210
  C    -11.792480   22.904790   -1.458820
  H      0.994970   -1.056790    2.626870
  H      3.969190   -1.210650   -1.372850
  H      4.305090   -3.581970   -1.031560
  H      3.873060   -5.644170    0.243030
  H      2.411300   -5.597110    2.224930
  H      1.368650   -3.485350    2.948130
  H      1.807610    3.742060   -1.290410
  H      0.245630    3.748320    2.334730
  H     -1.576750    7.934540   -0.674470
  H     -2.451800    7.734400    2.246270
  H     -2.760630    9.384220    3.858430
  H     -4.134470    8.308910    3.625430
  H     -4.389830    9.938610    4.245830
  H     -5.362670   11.348600    2.756150
  H     -2.901620    9.499670   -1.040460
  H     -4.571130   12.595810   -1.786240
  H     -5.179070   11.049910   -2.392130
  H     -3.448400   11.347700   -2.340830
  H     -6.181530   13.075680    1.484020
  H     -6.841430   12.226350   -1.376380
  H     -8.703020   17.144110    1.951440
  H     -8.797100   13.635260   -2.353390
  H    -11.186700   14.886410   -2.521100
  H    -10.151840   20.851520   -0.786640
  H    -13.948130   19.567920   -3.753720
  H    -14.716090   21.860130   -3.764260
  H    -14.476590   24.201620   -3.040440
  H    -12.614480   24.864200   -1.570940
  H    -10.974060   23.189240   -0.813850

 Total Charge           Charge          ....    0
 Multiplicity           Mult            ....    1
 Number of Electrons    NEL             ....  464
 Basis Dimension        Dim             .... 1091

ORBITAL ENERGIES
----------------

  NO   OCC          E(Eh)            E(eV)
   0   2.0000     -88.982446     -2421.3354
   1   2.0000     -88.981082     -2421.2983
   2   2.0000     -19.264952      -524.2260
   3   2.0000     -19.221081      -523.0322
   4   2.0000     -19.218612      -522.9650
   5   2.0000     -19.200708      -522.4778
   6   2.0000     -14.418507      -392.3475
   7   2.0000     -14.417279      -392.3141
   8   2.0000     -14.415863      -392.2756
   9   2.0000     -14.414953      -392.2508
  10   2.0000     -14.414008      -392.2251
  11   2.0000     -10.412115      -283.3281
  12   2.0000     -10.372288      -282.2443
  13   2.0000     -10.370931      -282.2074
  14   2.0000     -10.345049      -281.5031
  15   2.0000     -10.344228      -281.4808
  16   2.0000     -10.342999      -281.4473
  17   2.0000     -10.342106      -281.4230
  18   2.0000     -10.342057      -281.4217
  19   2.0000     -10.329316      -281.0750
  20   2.0000     -10.324982      -280.9570
  21   2.0000     -10.323169      -280.9077
  22   2.0000     -10.321130      -280.8522
  23   2.0000     -10.321000      -280.8487
  24   2.0000     -10.320697      -280.8404
  25   2.0000     -10.320212      -280.8272
  26   2.0000     -10.318655      -280.7849
  27   2.0000     -10.318444      -280.7791
  28   2.0000     -10.317947      -280.7656
  29   2.0000     -10.315588      -280.7014
  30   2.0000     -10.305084      -280.4156
  31   2.0000     -10.304347      -280.3955
  32   2.0000     -10.304208      -280.3918
  33   2.0000     -10.303923      -280.3840
  34   2.0000     -10.303709      -280.3782
  35   2.0000     -10.302273      -280.3391
  36   2.0000     -10.299862      -280.2735
  37   2.0000     -10.298856      -280.2461
  38   2.0000     -10.298735      -280.2428
  39   2.0000     -10.298602      -280.2392
  40   2.0000     -10.298600      -280.2392
  41   2.0000     -10.298499      -280.2364
  42   2.0000     -10.297983      -280.2224
  43   2.0000     -10.297900      -280.2201
  44   2.0000     -10.297701      -280.2147
  45   2.0000     -10.297410      -280.2068
  46   2.0000     -10.297385      -280.2061
  47   2.0000     -10.294486      -280.1272
  48   2.0000     -10.293274      -280.0942
  49   2.0000     -10.290876      -280.0290
  50   2.0000     -10.289804      -279.9998
  51   2.0000     -10.289130      -279.9815
  52   2.0000     -10.287929      -279.9488
  53   2.0000     -10.287676      -279.9419
  54   2.0000     -10.287522      -279.9377
  55   2.0000     -10.287462      -279.9361
  56   2.0000     -10.286974      -279.9228
  57   2.0000     -10.286961      -279.9224
  58   2.0000     -10.286905      -279.9209
  59   2.0000     -10.286744      -279.9165
  60   2.0000     -10.286713      -279.9157
  61   2.0000     -10.286261      -279.9034
  62   2.0000     -10.286122      -279.8996
  63   2.0000     -10.279857      -279.7291
  64   2.0000     -10.275946      -279.6227
  65   2.0000     -10.272794      -279.5369
  66   2.0000     -10.266617      -279.3689
  67   2.0000      -8.078291      -219.8215
  68   2.0000      -8.076747      -219.7795
  69   2.0000      -6.047386      -164.5577
  70   2.0000      -6.045860      -164.5162
  71   2.0000      -6.043358      -164.4481
  72   2.0000      -6.041805      -164.4059
  73   2.0000      -6.040566      -164.3721
  74   2.0000      -6.039115      -164.3327
  75   2.0000      -1.188778       -32.3483
  76   2.0000      -1.135996       -30.9120
  77   2.0000      -1.134597       -30.8739
  78   2.0000      -1.100835       -29.9552
  79   2.0000      -1.021515       -27.7968
  80   2.0000      -1.019702       -27.7475
  81   2.0000      -1.018334       -27.7103
  82   2.0000      -1.007187       -27.4069
  83   2.0000      -0.999978       -27.2108
  84   2.0000      -0.999701       -27.2033
  85   2.0000      -0.995224       -27.0814
  86   2.0000      -0.994723       -27.0678
  87   2.0000      -0.993302       -27.0291
  88   2.0000      -0.974640       -26.5213
  89   2.0000      -0.972765       -26.4703
  90   2.0000      -0.972020       -26.4500
  91   2.0000      -0.933407       -25.3993
  92   2.0000      -0.928193       -25.2574
  93   2.0000      -0.924312       -25.1518
  94   2.0000      -0.916126       -24.9291
  95   2.0000      -0.907442       -24.6927
  96   2.0000      -0.897084       -24.4109
  97   2.0000      -0.887934       -24.1619
  98   2.0000      -0.882976       -24.0270
  99   2.0000      -0.882257       -24.0074
 100   2.0000      -0.881145       -23.9772
 101   2.0000      -0.878010       -23.8919
 102   2.0000      -0.870292       -23.6818
 103   2.0000      -0.858858       -23.3707
 104   2.0000      -0.844906       -22.9911
 105   2.0000      -0.831981       -22.6393
 106   2.0000      -0.829339       -22.5675
 107   2.0000      -0.829185       -22.5633
 108   2.0000      -0.816151       -22.2086
 109   2.0000      -0.811182       -22.0734
 110   2.0000      -0.788654       -21.4604
 111   2.0000      -0.783709       -21.3258
 112   2.0000      -0.763532       -20.7768
 113   2.0000      -0.763405       -20.7733
 114   2.0000      -0.756123       -20.5751
 115   2.0000      -0.751230       -20.4420
 116   2.0000      -0.735138       -20.0041
 117   2.0000      -0.730119       -19.8676
 118   2.0000      -0.711511       -19.3612
 119   2.0000      -0.707282       -19.2461
 120   2.0000      -0.705793       -19.2056
 121   2.0000      -0.703773       -19.1506
 122   2.0000      -0.702760       -19.1231
 123   2.0000      -0.697251       -18.9732
 124   2.0000      -0.695737       -18.9320
 125   2.0000      -0.682159       -18.5625
 126   2.0000      -0.680574       -18.5194
 127   2.0000      -0.678924       -18.4745
 128   2.0000      -0.672027       -18.2868
 129   2.0000      -0.661685       -18.0054
 130   2.0000      -0.653514       -17.7830
 131   2.0000      -0.641059       -17.4441
 132   2.0000      -0.639758       -17.4087
 133   2.0000      -0.634750       -17.2724
 134   2.0000      -0.629927       -17.1412
 135   2.0000      -0.619866       -16.8674
 136   2.0000      -0.610776       -16.6201
 137   2.0000      -0.608509       -16.5584
 138   2.0000      -0.607012       -16.5176
 139   2.0000      -0.605172       -16.4676
 140   2.0000      -0.590268       -16.0620
 141   2.0000      -0.583590       -15.8803
 142   2.0000      -0.578269       -15.7355
 143   2.0000      -0.575131       -15.6501
 144   2.0000      -0.565850       -15.3976
 145   2.0000      -0.560524       -15.2526
 146   2.0000      -0.556060       -15.1312
 147   2.0000      -0.552306       -15.0290
 148   2.0000      -0.550490       -14.9796
 149   2.0000      -0.548021       -14.9124
 150   2.0000      -0.547364       -14.8945
 151   2.0000      -0.546147       -14.8614
 152   2.0000      -0.539907       -14.6916
 153   2.0000      -0.537786       -14.6339
 154   2.0000      -0.535355       -14.5677
 155   2.0000      -0.533374       -14.5138
 156   2.0000      -0.529633       -14.4121
 157   2.0000      -0.526839       -14.3360
 158   2.0000      -0.523538       -14.2462
 159   2.0000      -0.521336       -14.1863
 160   2.0000      -0.520517       -14.1640
 161   2.0000      -0.519041       -14.1238
 162   2.0000      -0.517298       -14.0764
 163   2.0000      -0.515628       -14.0309
 164   2.0000      -0.513737       -13.9795
 165   2.0000      -0.512697       -13.9512
 166   2.0000      -0.510120       -13.8811
 167   2.0000      -0.507581       -13.8120
 168   2.0000      -0.503722       -13.7070
 169   2.0000      -0.501095       -13.6355
 170   2.0000      -0.500729       -13.6255
 171   2.0000      -0.497155       -13.5283
 172   2.0000      -0.496812       -13.5189
 173   2.0000      -0.495514       -13.4836
 174   2.0000      -0.492014       -13.3884
 175   2.0000      -0.488147       -13.2831
 176   2.0000      -0.487441       -13.2639
 177   2.0000      -0.484028       -13.1711
 178   2.0000      -0.480526       -13.0758
 179   2.0000      -0.478769       -13.0280
 180   2.0000      -0.474899       -12.9227
 181   2.0000      -0.472476       -12.8567
 182   2.0000      -0.466434       -12.6923
 183   2.0000      -0.465777       -12.6744
 184   2.0000      -0.460554       -12.5323
 185   2.0000      -0.455436       -12.3930
 186   2.0000      -0.451046       -12.2736
 187   2.0000      -0.450633       -12.2624
 188   2.0000      -0.449314       -12.2264
 189   2.0000      -0.448346       -12.2001
 190   2.0000      -0.446005       -12.1364
 191   2.0000      -0.445791       -12.1306
 192   2.0000      -0.444302       -12.0901
 193   2.0000      -0.441826       -12.0227
 194   2.0000      -0.441374       -12.0104
 195   2.0000      -0.440884       -11.9971
 196   2.0000      -0.437257       -11.8984
 197   2.0000      -0.434629       -11.8268
 198   2.0000      -0.434350       -11.8193
 199   2.0000      -0.434101       -11.8125
 200   2.0000      -0.432771       -11.7763
 201   2.0000      -0.429129       -11.6772
 202   2.0000      -0.427870       -11.6429
 203   2.0000      -0.426681       -11.6106
 204   2.0000      -0.424531       -11.5521
 205   2.0000      -0.420986       -11.4556
 206   2.0000      -0.420443       -11.4408
 207   2.0000      -0.419586       -11.4175
 208   2.0000      -0.413543       -11.2531
 209   2.0000      -0.408781       -11.1235
 210   2.0000      -0.407153       -11.0792
 211   2.0000      -0.405297       -11.0287
 212   2.0000      -0.403051       -10.9676
 213   2.0000      -0.397050       -10.8043
 214   2.0000      -0.389045       -10.5865
 215   2.0000      -0.380013       -10.3407
 216   2.0000      -0.376886       -10.2556
 217   2.0000      -0.366790        -9.9809
 218   2.0000      -0.358383        -9.7521
 219   2.0000      -0.352835        -9.6011
 220   2.0000      -0.345779        -9.4091
 221   2.0000      -0.341270        -9.2864
 222   2.0000      -0.339198        -9.2300
 223   2.0000      -0.331255        -9.0139
 224   2.0000      -0.321246        -8.7416
 225   2.0000      -0.318327        -8.6621
 226   2.0000      -0.316733        -8.6187
 227   2.0000      -0.311981        -8.4894
 228   2.0000      -0.297018        -8.0823
 229   2.0000      -0.293730        -7.9928
 230   2.0000      -0.286461        -7.7950
 231   2.0000      -0.260363        -7.0848
 232   0.0000      -0.100730        -2.7410
 233   0.0000      -0.092518        -2.5175
 234   0.0000      -0.068104        -1.8532
 235   0.0000      -0.061070        -1.6618
 236   0.0000      -0.054587        -1.4854

MULLIKEN ATOMIC CHARGES
-----------------------
   0 C :    0.300067
   1 C :   -0.346949
   2 C :   -0.183912
   3 N :    0.149451
   4 C :   -0.202162
   5 N :    0.159294
   6 C :    0.050169
   7 C :   -0.001124
   8 C :   -0.082510
   9 C :    0.099443
  10 C :    0.097670
  11 C :   -0.083792
  12 C :   -0.021294
  13 C :    0.038795
  14 C :    0.035443
  15 C :   -0.017222
  16 C :    0.161741
  17 O :   -0.155920
  18 C :   -0.093640
  19 C :    0.058020
  20 C :   -0.106482
  21 S :    0.165010
  22 C :   -0.044861
  23 C :   -0.096681
  24 C :    0.043844
  25 C :   -0.156980
  26 N :    0.110094
  27 C :    0.065647
  28 C :   -0.030228
  29 C :    0.121281
  30 C :   -0.089022
  31 C :    0.122003
  32 C :   -0.079606
  33 C :    0.098288
  34 C :   -0.072769
  35 C :   -0.082300
  36 C :    0.087024
  37 C :   -0.038012
  38 C :    0.045935
  39 C :   -0.050750
  40 S :    0.115948
  41 C :   -0.181320
  42 C :    0.181738
  43 O :   -0.183917
  44 O :   -0.148693
  45 C :    0.116507
  46 C :   -0.016965
  47 C :   -0.046468
  48 C :   -0.027114
  49 C :    0.312899
  50 C :   -0.342163
  51 C :   -0.183628
  52 N :    0.150137
  53 C :   -0.188694
  54 N :    0.154309
  55 C :    0.052387
  56 C :    0.006535
  57 C :    0.153946
  58 O :   -0.163689
  59 C :   -0.075770
  60 C :    0.098600
  61 C :    0.099571
  62 C :   -0.085272
  63 C :   -0.019189
  64 C :    0.036993
  65 C :    0.039055
  66 C :   -0.015616
  67 H :   -0.011613
  68 H :   -0.007120
  69 H :   -0.008209
  70 H :   -0.004795
  71 H :   -0.004452
  72 H :   -0.016239
  73 H :    0.015705
  74 H :    0.026784
  75 H :   -0.022396
  76 H :   -0.013330
  77 H :    0.036801
  78 H :    0.046551
  79 H :    0.007369
  80 H :   -0.038272
  81 H :   -0.043345
  82 H :    0.031570
  83 H :    0.037311
  84 H :    0.015870
  85 H :   -0.000037
  86 H :   -0.011045
  87 H :    0.184031
  88 H :   -0.006317
  89 H :    0.026258
  90 H :   -0.012979
  91 H :   -0.007295
  92 H :   -0.008590
  93 H :   -0.003675
  94 H :   -0.004706
  95 H :   -0.016967
Sum of atomic charges:   -0.0000000

LOEWDIN ATOMIC CHARGES
----------------------
   0 C :    0.076858
   1 C :   -0.141316
   2 C :   -0.017441
   3 N :   -0.053437
   4 C :   -0.025917
   5 N :   -0.052150
   6 C :   -0.026544
   7 C :   -0.055201
   8 C :    0.032582
   9 C :   -0.008135
  10 C :   -0.006048
  11 C :    0.019841
  12 C :   -0.005438
  13 C :   -0.012712
  14 C :   -0.011991
  15 C :   -0.009294
  16 C :    0.087953
  17 O :   -0.141356
  18 C :   -0.091245
  19 C :    0.047488
  20 C :   -0.185357
  21 S :    0.474960
  22 C :   -0.112587
  23 C :   -0.119567
  24 C :    0.026533
  25 C :   -0.024703
  26 N :   -0.060196
  27 C :   -0.058174
  28 C :    0.028325
  29 C :   -0.036191
  30 C :   -0.007317
  31 C :   -0.045655
  32 C :   -0.019224
  33 C :   -0.019600
  34 C :   -0.018987
  35 C :   -0.004566
  36 C :   -0.047438
  37 C :   -0.015929
  38 C :   -0.034674
  39 C :   -0.154268
  40 S :    0.452617
  41 C :   -0.207132
  42 C :    0.060739
  43 O :   -0.162212
  44 O :   -0.020084
  45 C :   -0.043790
  46 C :   -0.037186
  47 C :    0.078988
  48 C :   -0.065837
  49 C :    0.081593
  50 C :   -0.132268
  51 C :   -0.016395
  52 N :   -0.050236
  53 C :   -0.018703
  54 N :   -0.049965
  55 C :   -0.022174
  56 C :   -0.051962
  57 C :    0.094976
  58 O :   -0.147122
  59 C :    0.038141
  60 C :   -0.006949
  61 C :   -0.003835
  62 C :    0.021284
  63 C :   -0.004693
  64 C :   -0.011903
  65 C :   -0.011219
  66 C :   -0.008380
  67 H :    0.039254
  68 H :    0.039083
  69 H :    0.034929
  70 H :    0.033293
  71 H :    0.033069
  72 H :    0.032185
  73 H :    0.044018
  74 H :    0.043266
  75 H :    0.027028
  76 H :    0.037618
  77 H :    0.039614
  78 H :    0.042087
  79 H :    0.031845
  80 H :    0.025522
  81 H :    0.023537
  82 H :    0.034138
  83 H :    0.035052
  84 H :    0.032272
  85 H :    0.022722
  86 H :    0.037277
  87 H :    0.087387
  88 H :    0.036473
  89 H :    0.047363
  90 H :    0.039364
  91 H :    0.039334
  92 H :    0.035116
  93 H :    0.033716
  94 H :    0.033076
  95 H :    0.032182

  Mayer bond orders larger than 0.100000
B(  0-C ,  1-C ) :   1.6340 B(  0-C ,  6-C ) :   0.9884 B(  0-C , 18-C ) :   1.0673
B(  1-C ,  2-C ) :   1.1474 B(  1-C ,  4-C ) :   1.1374 B(  2-C ,  3-N ) :   2.9694
B(  4-C ,  5-N ) :   2.9932 B(  6-C ,  7-C ) :   1.2146 B(  6-C , 11-C ) :   1.4485
B(  7-C ,  8-C ) :   1.4713 B(  7-C , 16-C ) :   0.9530 B(  8-C ,  9-C ) :   1.1774
B(  8-C , 67-H ) :   1.0167 B(  9-C , 10-C ) :   1.2565 B(  9-C , 15-C ) :   1.2451
B( 10-C , 11-C ) :   1.2065 B( 10-C , 12-C ) :   1.2383 B( 11-C , 68-H ) :   0.9910
B( 12-C , 13-C ) :   1.4900 B( 12-C , 69-H ) :   0.9977 B( 13-C , 14-C ) :   1.2599
B( 13-C , 70-H ) :   0.9885 B( 14-C , 15-C ) :   1.4881 B( 14-C , 71-H ) :   0.9887
B( 15-C , 72-H ) :   0.9980 B( 16-C , 17-O ) :   2.1730 B( 16-C , 18-C ) :   0.9391
B( 18-C , 19-C ) :   1.6115 B( 19-C , 20-C ) :   1.1900 B( 19-C , 73-H ) :   0.9199
B( 20-C , 21-S ) :   1.0883 B( 20-C , 24-C ) :   1.4427 B( 21-S , 22-C ) :   1.1800
B( 22-C , 23-C ) :   1.3979 B( 22-C , 27-C ) :   1.1492 B( 23-C , 24-C ) :   1.3061
B( 23-C , 25-C ) :   1.1208 B( 24-C , 74-H ) :   0.9817 B( 25-C , 26-N ) :   2.9635
B( 27-C , 28-C ) :   1.6678 B( 27-C , 75-H ) :   0.9454 B( 28-C , 29-C ) :   1.1028
B( 28-C , 76-H ) :   0.9551 B( 29-C , 30-C ) :   1.3183 B( 29-C , 35-C ) :   1.3060
B( 30-C , 31-C ) :   1.0904 B( 30-C , 32-C ) :   1.4060 B( 31-C , 77-H ) :   0.9387
B( 31-C , 78-H ) :   0.9322 B( 31-C , 79-H ) :   0.9492 B( 32-C , 33-C ) :   1.3095
B( 32-C , 80-H ) :   0.9957 B( 33-C , 34-C ) :   1.3502 B( 33-C , 37-C ) :   1.0686
B( 34-C , 35-C ) :   1.4159 B( 34-C , 36-C ) :   1.0765 B( 35-C , 81-H ) :   0.9891
B( 36-C , 82-H ) :   0.9476 B( 36-C , 83-H ) :   0.9414 B( 36-C , 84-H ) :   0.9507
B( 37-C , 38-C ) :   1.7076 B( 37-C , 85-H ) :   0.9605 B( 38-C , 39-C ) :   1.1293
B( 38-C , 86-H ) :   0.9755 B( 39-C , 40-S ) :   1.1182 B( 39-C , 46-C ) :   1.4961
B( 40-S , 41-C ) :   1.1243 B( 41-C , 42-C ) :   0.9115 B( 41-C , 45-C ) :   1.5506
B( 42-C , 43-O ) :   2.1618 B( 42-C , 44-O ) :   1.2568 B( 44-O , 87-H ) :   0.9469
B( 45-C , 46-C ) :   1.2271 B( 45-C , 47-C ) :   1.0357 B( 46-C , 88-H ) :   1.0080
B( 47-C , 48-C ) :   1.7300 B( 47-C , 89-H ) :   0.9334 B( 48-C , 49-C ) :   1.0440
B( 48-C , 57-C ) :   0.9133 B( 49-C , 50-C ) :   1.6524 B( 49-C , 55-C ) :   0.9999
B( 50-C , 51-C ) :   1.1402 B( 50-C , 53-C ) :   1.1406 B( 51-C , 52-N ) :   2.9682
B( 53-C , 54-N ) :   2.9711 B( 55-C , 56-C ) :   1.2112 B( 55-C , 62-C ) :   1.4401
B( 56-C , 57-C ) :   0.9508 B( 56-C , 59-C ) :   1.4618 B( 57-C , 58-O ) :   2.2031
B( 59-C , 60-C ) :   1.1857 B( 59-C , 90-H ) :   1.0154 B( 60-C , 61-C ) :   1.2536
B( 60-C , 66-C ) :   1.2403 B( 61-C , 62-C ) :   1.2111 B( 61-C , 63-C ) :   1.2382
B( 62-C , 91-H ) :   0.9897 B( 63-C , 64-C ) :   1.4911 B( 63-C , 92-H ) :   0.9974
B( 64-C , 65-C ) :   1.2574 B( 64-C , 93-H ) :   0.9882 B( 65-C , 66-C ) :   1.4916
B( 65-C , 94-H ) :   0.9885 B( 66-C , 95-H ) :   0.9978

-----------------------------------------------------------------------------
         ABSORPTION SPECTRUM VIA TRANSITION ELECTRIC DIPOLE MOMENTS
-----------------------------------------------------------------------------
State   Energy  Wavelength   fosc         T2         TX        TY        TZ
        (cm-1)    (nm)                  (au**2)     (au)      (au)      (au)
-----------------------------------------------------------------------------
   0   20180.8    495.5   2.106909399  34.37032   3.64641  -4.57038  -0.43088
   1   22196.9    450.5   0.068164418   1.01097  -0.46156   0.28830  -0.84547
   2   26329.0    379.8   0.185905408   2.32452   0.55122  -1.31680   0.53547
   3   26639.1    375.4   0.042736961   0.52815  -0.35291  -0.34482  -0.53358
   4   27245.7    367.0   0.413840953   5.00048   1.34247  -1.53021   0.92559
   5   27465.6    364.1   0.023908895   0.28658   0.30968  -0.13815   0.41424
   6   27997.2    357.2   0.028742769   0.33798  -0.16528   0.53614  -0.15235
   7   28951.9    345.4   0.065863795   0.74894  -0.82477   0.10410  -0.24052
   8   29070.0    344.0   0.044947264   0.50902   0.58516  -0.01592   0.40787
   9   29316.1    341.1   0.031383161   0.35243  -0.45626   0.34993   0.14766
  10   30247.2    330.6   0.357610989   3.89225  -0.67887   1.84965  -0.10093
  11   30543.6    327.4   0.090655508   0.97712   0.78418   0.38840  -0.45971
  12   31797.9    314.5   0.097881371   1.01339   0.39237  -0.33544   0.86424
  13   32061.4    311.9   0.042333344   0.43469  -0.14925   0.45602  -0.45217
  14   32267.3    309.9   0.127062943   1.29638   0.77863  -0.49813   0.66482
  15   33684.8    296.9   1.077436305  10.53013  -0.43968  -3.15523   0.61751
  16   33831.0    295.6   0.567510264   5.52248   0.66883  -2.09760  -0.82172
  17   34194.4    292.4   0.121580437   1.17054  -0.77331   0.58928  -0.47463
  18   34439.5    290.4   0.049990756   0.47787  -0.35441   0.53620  -0.25446
  19   34461.1    290.2   0.065997906   0.63049  -0.06114   0.75097  -0.25057
  20   34586.6    289.1   0.244577413   2.32801  -0.25815   1.41263  -0.51559
  21   35314.3    283.2   0.049433293   0.46083  -0.25994   0.48183   0.40138
  22   35738.7    279.8   0.084886434   0.78194   0.23731   0.83306  -0.17789
  23   36179.0    276.4   0.017581885   0.15999   0.39191  -0.02311  -0.07657
  24   36629.2    273.0   0.026221373   0.23567  -0.15835  -0.30379   0.34396
  25   36848.8    271.4   0.019191802   0.17146  -0.14541  -0.27056  -0.27769
  26   37805.8    264.5   0.011971583   0.10425  -0.21072   0.19076  -0.15314
  27   38513.6    259.6   0.118537202   1.01325  -0.68305  -0.14381  -0.72526
  28   38740.1    258.1   0.036951748   0.31401  -0.48996  -0.26695   0.05190
  29   39156.8    255.4   0.074795389   0.62884  -0.40939  -0.52081   0.43588
  30   39161.8    255.4   0.103408818   0.86930  -0.37316   0.26447  -0.81247
  31   39309.5    254.4   0.044218120   0.37032   0.27219   0.36056   0.40771
  32   39882.4    250.7   0.104838200   0.86539   0.61217  -0.44900  -0.53763
  33   40149.0    249.1   0.248303651   2.03603  -0.91302   0.38490   1.02678

FINAL SINGLE POINT ENERGY     -3518.684068754123

DIPOLE MOMENT
-------------
                                X             Y             Z
Electronic contribution:     -0.72210      -1.34951     -10.12271
Nuclear contribution   :      1.32902       1.82710      11.15584
                        -----------------------------------------
Total Dipole Moment    :      0.60692       0.47759       1.03313
                        -----------------------------------------
Magnitude (a.u.)       :      1.28988
Magnitude (Debye)      :      3.27862

Rotational constants in cm-1:     0.003443     0.000181     0.000179
Rotational constants in MHz :   103.211317     5.425913     5.370650

                             ****ORCA TERMINATED NORMALLY****
TOTAL RUN TIME: 0 days 0 hours 7 minutes 55 seconds 548 msec
