                         Program Version 4.2.0 -  RELEASE  -
|  1> # ORCA input file
|  2> # SCF done       -213.441994606750          0.002163198995
|  3> ! CAM-B3LYP def2-SVP def2/J RIJCOSX Grid4 TightSCF
|  4> %maxcore 5000
|  5> %tddft
|  6>     Mode sTDDFT
|  7>     Ethresh 5.0
|  8>     maxcore 5000
|  9> end
| 10>
| 11> %pal
| 12>   nprocs 6
| 13>   end
| 14> * xyz 0 1
| 15>    C        1.57996         2.24938        -2.72142
| 16>    C        2.21306         3.45630        -2.60139
| 17>    C        2.85556         4.11303        -3.67220
| 18>    N        3.36801         4.69632        -4.51627
| 19>    C        2.37104         4.13416        -1.37347
| 20>    N        2.55334         4.69331        -0.38837
| 21>    C        1.62777         1.37770        -3.88830
| 22>    C        1.33573         0.04473        -3.47013
| 23>    C        1.35422        -1.00033        -4.34966
| 24>    C        1.65660        -0.75330        -5.70745
| 25>    C        1.92947         0.57997        -6.13371
| 26>    C        1.91143         1.64220        -5.20113
| 27>    C        2.22107         0.81301        -7.49306
| 28>    C        2.24567        -0.22028        -8.38994
| 29>    C        1.97857        -1.53214        -7.96979
| 30>    C        1.69053        -1.79325        -6.65749
| 31>    C        1.01629         0.03814        -2.03318
| 32>    O        0.77784        -0.90151        -1.31605
| 33>    C        0.97143         1.48762        -1.64628
| 34>    C        0.26710         1.85912        -0.54904
| 35>    C       -0.26098         3.14255        -0.25137
| 36>    O       -0.21524         4.15258        -1.14293
| 37>    C       -0.85378         5.22242        -0.63148
| 38>    C       -1.36040         4.90303         0.61878
| 39>    C       -0.98047         3.55957         0.86744
| 40>    C       -1.27195         2.78520         2.00313
| 41>    N       -1.50534         2.13975         2.91922
| 42>    C       -2.29246         5.66679         1.50197
| 43>    F       -2.81518         6.74272         0.89943
| 44>    F       -3.34955         4.89037         1.82807
| 45>    F       -1.74799         6.05479         2.65092
| 46>    C       -0.87227         6.43753        -1.39106
| 47>    N       -0.88775         6.46682        -2.76539
| 48>    C       -1.04523         5.35336        -3.67012
| 49>    C       -2.44125         4.74314        -3.58717
| 50>    C       -0.88274         7.79042        -3.24973
| 51>    O       -0.91852         8.06773        -4.43080
| 52>    C       -0.81615         8.60471        -2.06075
| 53>    C       -0.81090         7.74114        -0.93391
| 54>    C       -0.66346         8.56321         0.25742
| 55>    O       -0.54265         8.28791         1.42477
| 56>    N       -0.66059         9.88438        -0.24063
| 57>    C       -0.49920        11.01052         0.64803
| 58>    C        0.93035        11.54520         0.63301
| 59>    C       -0.73713         9.92091        -1.60856
| 60>    C       -0.76328        11.11472        -2.37705
| 61>    C       -0.75426        11.09446        -3.73450
| 62>    C       -0.81740        12.25744        -4.54170
| 63>    O       -0.99198        13.48951        -4.02217
| 64>    C       -1.07546        14.38139        -5.02924
| 65>    C       -0.89884        13.72768        -6.23923
| 66>    C       -0.73683        12.35575        -5.93232
| 67>    C       -0.52775        11.31030        -6.84762
| 68>    N       -0.35549        10.47099        -7.60742
| 69>    C       -0.72426        14.27820        -7.61508
| 70>    F       -0.68270        15.62088        -7.65358
| 71>    F        0.45168        13.87025        -8.13136
| 72>    F       -1.66428        13.88934        -8.47595
| 73>    C       -1.24647        15.76661        -4.69129
| 74>    C       -2.03144        16.62496        -5.38091
| 75>    C       -2.14787        18.06779        -5.22601
| 76>    C       -1.39502        18.85645        -4.39893
| 77>    C       -1.52374        20.26001        -4.30906
| 78>    N       -1.58315        21.39909        -4.18512
| 79>    C       -0.39741        18.38200        -3.52101
| 80>    N        0.42220        18.05834        -2.78529
| 81>    C       -3.17101        18.52907        -6.15417
| 82>    C       -3.71177        17.40524        -6.84494
| 83>    C       -3.05356        16.18055        -6.38472
| 84>    O       -3.32426        15.03776        -6.67244
| 85>    C       -4.69113        17.53587        -7.78813
| 86>    C       -5.17778        18.82401        -8.09939
| 87>    C       -4.64415        19.95482        -7.41401
| 88>    C       -3.63769        19.78731        -6.43610
| 89>    C       -5.13684        21.23638        -7.73497
| 90>    C       -6.10683        21.39496        -8.68715
| 91>    C       -6.63057        20.28131        -9.36085
| 92>    C       -6.17614        19.02277        -9.07320
| 93>    H        1.13705        -2.00328        -4.01397
| 94>    H        2.11396         2.64301        -5.54992
| 95>    H        2.42862         1.82400        -7.81106
| 96>    H        2.47043        -0.03199        -9.42872
| 97>    H        2.00058        -2.33460        -8.69134
| 98>    H        1.48348        -2.80096        -6.32885
| 99>    H       -0.01784         1.07087         0.13861
|100>    H       -0.28063         4.59908        -3.46926
|101>    H       -0.87970         5.76664        -4.66940
|102>    H       -2.63588         4.33358        -2.59790
|103>    H       -2.53512         3.94355        -4.31662
|104>    H       -3.19254         5.49915        -3.80173
|105>    H       -0.74208        10.64123         1.64802
|106>    H       -1.21290        11.79366         0.37827
|107>    H        1.62122        10.76467         0.94108
|108>    H        1.01758        12.37780         1.32518
|109>    H        1.21200        11.88489        -0.36124
|110>    H       -0.79822        12.06086        -1.85590
|111>    H       -0.70012        10.15719        -4.27359
|112>    H       -0.71793        16.08198        -3.80147
|113>    H       -5.08027        16.66539        -8.29496
|114>    H       -3.25943        20.66279        -5.93344
|115>    H       -4.73078        22.09112        -7.21497
|116>    H       -6.47630        22.38042        -8.92701
|117>    H       -7.39610        20.42544       -10.10836
|118>    H       -6.57506        18.16112        -9.58785
|119> *
|120>
|121>                          ****END OF INPUT****

CARTESIAN COORDINATES (ANGSTROEM)
---------------------------------
  C      1.579960    2.249380   -2.721420
  C      2.213060    3.456300   -2.601390
  C      2.855560    4.113030   -3.672200
  N      3.368010    4.696320   -4.516270
  C      2.371040    4.134160   -1.373470
  N      2.553340    4.693310   -0.388370
  C      1.627770    1.377700   -3.888300
  C      1.335730    0.044730   -3.470130
  C      1.354220   -1.000330   -4.349660
  C      1.656600   -0.753300   -5.707450
  C      1.929470    0.579970   -6.133710
  C      1.911430    1.642200   -5.201130
  C      2.221070    0.813010   -7.493060
  C      2.245670   -0.220280   -8.389940
  C      1.978570   -1.532140   -7.969790
  C      1.690530   -1.793250   -6.657490
  C      1.016290    0.038140   -2.033180
  O      0.777840   -0.901510   -1.316050
  C      0.971430    1.487620   -1.646280
  C      0.267100    1.859120   -0.549040
  C     -0.260980    3.142550   -0.251370
  O     -0.215240    4.152580   -1.142930
  C     -0.853780    5.222420   -0.631480
  C     -1.360400    4.903030    0.618780
  C     -0.980470    3.559570    0.867440
  C     -1.271950    2.785200    2.003130
  N     -1.505340    2.139750    2.919220
  C     -2.292460    5.666790    1.501970
  F     -2.815180    6.742720    0.899430
  F     -3.349550    4.890370    1.828070
  F     -1.747990    6.054790    2.650920
  C     -0.872270    6.437530   -1.391060
  N     -0.887750    6.466820   -2.765390
  C     -1.045230    5.353360   -3.670120
  C     -2.441250    4.743140   -3.587170
  C     -0.882740    7.790420   -3.249730
  O     -0.918520    8.067730   -4.430800
  C     -0.816150    8.604710   -2.060750
  C     -0.810900    7.741140   -0.933910
  C     -0.663460    8.563210    0.257420
  O     -0.542650    8.287910    1.424770
  N     -0.660590    9.884380   -0.240630
  C     -0.499200   11.010520    0.648030
  C      0.930350   11.545200    0.633010
  C     -0.737130    9.920910   -1.608560
  C     -0.763280   11.114720   -2.377050
  C     -0.754260   11.094460   -3.734500
  C     -0.817400   12.257440   -4.541700
  O     -0.991980   13.489510   -4.022170
  C     -1.075460   14.381390   -5.029240
  C     -0.898840   13.727680   -6.239230
  C     -0.736830   12.355750   -5.932320
  C     -0.527750   11.310300   -6.847620
  N     -0.355490   10.470990   -7.607420
  C     -0.724260   14.278200   -7.615080
  F     -0.682700   15.620880   -7.653580
  F      0.451680   13.870250   -8.131360
  F     -1.664280   13.889340   -8.475950
  C     -1.246470   15.766610   -4.691290
  C     -2.031440   16.624960   -5.380910
  C     -2.147870   18.067790   -5.226010
  C     -1.395020   18.856450   -4.398930
  C     -1.523740   20.260010   -4.309060
  N     -1.583150   21.399090   -4.185120
  C     -0.397410   18.382000   -3.521010
  N      0.422200   18.058340   -2.785290
  C     -3.171010   18.529070   -6.154170
  C     -3.711770   17.405240   -6.844940
  C     -3.053560   16.180550   -6.384720
  O     -3.324260   15.037760   -6.672440
  C     -4.691130   17.535870   -7.788130
  C     -5.177780   18.824010   -8.099390
  C     -4.644150   19.954820   -7.414010
  C     -3.637690   19.787310   -6.436100
  C     -5.136840   21.236380   -7.734970
  C     -6.106830   21.394960   -8.687150
  C     -6.630570   20.281310   -9.360850
  C     -6.176140   19.022770   -9.073200
  H      1.137050   -2.003280   -4.013970
  H      2.113960    2.643010   -5.549920
  H      2.428620    1.824000   -7.811060
  H      2.470430   -0.031990   -9.428720
  H      2.000580   -2.334600   -8.691340
  H      1.483480   -2.800960   -6.328850
  H     -0.017840    1.070870    0.138610
  H     -0.280630    4.599080   -3.469260
  H     -0.879700    5.766640   -4.669400
  H     -2.635880    4.333580   -2.597900
  H     -2.535120    3.943550   -4.316620
  H     -3.192540    5.499150   -3.801730
  H     -0.742080   10.641230    1.648020
  H     -1.212900   11.793660    0.378270
  H      1.621220   10.764670    0.941080
  H      1.017580   12.377800    1.325180
  H      1.212000   11.884890   -0.361240
  H     -0.798220   12.060860   -1.855900
  H     -0.700120   10.157190   -4.273590
  H     -0.717930   16.081980   -3.801470
  H     -5.080270   16.665390   -8.294960
  H     -3.259430   20.662790   -5.933440
  H     -4.730780   22.091120   -7.214970
  H     -6.476300   22.380420   -8.927010
  H     -7.396100   20.425440  -10.108360
  H     -6.575060   18.161120   -9.587850

 Total Charge           Charge          ....    0
 Multiplicity           Mult            ....    1
 Number of Electrons    NEL             ....  532
 Basis Dimension        Dim             .... 1222

ORBITAL ENERGIES
----------------

  NO   OCC          E(Eh)            E(eV)
   0   2.0000     -24.814818      -675.2455
   1   2.0000     -24.805874      -675.0021
   2   2.0000     -24.805855      -675.0016
   3   2.0000     -24.803229      -674.9302
   4   2.0000     -24.798715      -674.8073
   5   2.0000     -24.798600      -674.8042
   6   2.0000     -19.342720      -526.3422
   7   2.0000     -19.338382      -526.2241
   8   2.0000     -19.230907      -523.2996
   9   2.0000     -19.227561      -523.2085
  10   2.0000     -19.206282      -522.6295
  11   2.0000     -19.201412      -522.4970
  12   2.0000     -14.467215      -393.6729
  13   2.0000     -14.467155      -393.6713
  14   2.0000     -14.431650      -392.7052
  15   2.0000     -14.429137      -392.6368
  16   2.0000     -14.426450      -392.5637
  17   2.0000     -14.426446      -392.5635
  18   2.0000     -14.423289      -392.4776
  19   2.0000     -14.418163      -392.3381
  20   2.0000     -10.535690      -286.6907
  21   2.0000     -10.531161      -286.5675
  22   2.0000     -10.392464      -282.7933
  23   2.0000     -10.389861      -282.7225
  24   2.0000     -10.387419      -282.6560
  25   2.0000     -10.384820      -282.5853
  26   2.0000     -10.383865      -282.5593
  27   2.0000     -10.382883      -282.5326
  28   2.0000     -10.381924      -282.5065
  29   2.0000     -10.379130      -282.4305
  30   2.0000     -10.360216      -281.9158
  31   2.0000     -10.360124      -281.9133
  32   2.0000     -10.358468      -281.8682
  33   2.0000     -10.357446      -281.8404
  34   2.0000     -10.356190      -281.8063
  35   2.0000     -10.353089      -281.7219
  36   2.0000     -10.350662      -281.6558
  37   2.0000     -10.341951      -281.4188
  38   2.0000     -10.338172      -281.3160
  39   2.0000     -10.337251      -281.2909
  40   2.0000     -10.333801      -281.1970
  41   2.0000     -10.333311      -281.1837
  42   2.0000     -10.332770      -281.1690
  43   2.0000     -10.330918      -281.1186
  44   2.0000     -10.327608      -281.0285
  45   2.0000     -10.325831      -280.9801
  46   2.0000     -10.325434      -280.9693
  47   2.0000     -10.324697      -280.9493
  48   2.0000     -10.320866      -280.8450
  49   2.0000     -10.317829      -280.7624
  50   2.0000     -10.317735      -280.7599
  51   2.0000     -10.317619      -280.7567
  52   2.0000     -10.316441      -280.7246
  53   2.0000     -10.315681      -280.7040
  54   2.0000     -10.314116      -280.6614
  55   2.0000     -10.313242      -280.6376
  56   2.0000     -10.309245      -280.5288
  57   2.0000     -10.309097      -280.5248
  58   2.0000     -10.308897      -280.5194
  59   2.0000     -10.308623      -280.5119
  60   2.0000     -10.306758      -280.4612
  61   2.0000     -10.306405      -280.4515
  62   2.0000     -10.306106      -280.4434
  63   2.0000     -10.305774      -280.4344
  64   2.0000     -10.301237      -280.3109
  65   2.0000     -10.299860      -280.2734
  66   2.0000     -10.296255      -280.1753
  67   2.0000     -10.295805      -280.1631
  68   2.0000     -10.295601      -280.1575
  69   2.0000     -10.295177      -280.1460
  70   2.0000     -10.293449      -280.0990
  71   2.0000     -10.292983      -280.0863
  72   2.0000     -10.292703      -280.0787
  73   2.0000     -10.292194      -280.0648
  74   2.0000     -10.285548      -279.8840
  75   2.0000     -10.276600      -279.6405
  76   2.0000     -10.271995      -279.5152
  77   2.0000     -10.270164      -279.4654
  78   2.0000      -1.400028       -38.0967
  79   2.0000      -1.393252       -37.9123
  80   2.0000      -1.304278       -35.4912
  81   2.0000      -1.297999       -35.3204
  82   2.0000      -1.296150       -35.2700
  83   2.0000      -1.290108       -35.1056
  84   2.0000      -1.265933       -34.4478
  85   2.0000      -1.258834       -34.2546
  86   2.0000      -1.148895       -31.2630
  87   2.0000      -1.148841       -31.2616
  88   2.0000      -1.143834       -31.1253
  89   2.0000      -1.140836       -31.0437
  90   2.0000      -1.079535       -29.3756
  91   2.0000      -1.070256       -29.1231
  92   2.0000      -1.032888       -28.1063
  93   2.0000      -1.029050       -28.0019
  94   2.0000      -1.012583       -27.5538
  95   2.0000      -1.012143       -27.5418
  96   2.0000      -1.008382       -27.4395
  97   2.0000      -1.008222       -27.4351
  98   2.0000      -1.004398       -27.3310
  99   2.0000      -1.003324       -27.3018
 100   2.0000      -0.984779       -26.7972
 101   2.0000      -0.982150       -26.7257
 102   2.0000      -0.964995       -26.2589
 103   2.0000      -0.961102       -26.1529
 104   2.0000      -0.956181       -26.0190
 105   2.0000      -0.949182       -25.8286
 106   2.0000      -0.941286       -25.6137
 107   2.0000      -0.936029       -25.4706
 108   2.0000      -0.929813       -25.3015
 109   2.0000      -0.921468       -25.0744
 110   2.0000      -0.905934       -24.6517
 111   2.0000      -0.898946       -24.4616
 112   2.0000      -0.892490       -24.2859
 113   2.0000      -0.890083       -24.2204
 114   2.0000      -0.884433       -24.0666
 115   2.0000      -0.872313       -23.7368
 116   2.0000      -0.867893       -23.6166
 117   2.0000      -0.839901       -22.8549
 118   2.0000      -0.837447       -22.7881
 119   2.0000      -0.836769       -22.7696
 120   2.0000      -0.831360       -22.6225
 121   2.0000      -0.825369       -22.4594
 122   2.0000      -0.822322       -22.3765
 123   2.0000      -0.816844       -22.2275
 124   2.0000      -0.791741       -21.5444
 125   2.0000      -0.783166       -21.3110
 126   2.0000      -0.776507       -21.1298
 127   2.0000      -0.775970       -21.1152
 128   2.0000      -0.770813       -20.9749
 129   2.0000      -0.769805       -20.9474
 130   2.0000      -0.767491       -20.8845
 131   2.0000      -0.746281       -20.3073
 132   2.0000      -0.737804       -20.0767
 133   2.0000      -0.727127       -19.7861
 134   2.0000      -0.723542       -19.6886
 135   2.0000      -0.719230       -19.5712
 136   2.0000      -0.718449       -19.5500
 137   2.0000      -0.714864       -19.4524
 138   2.0000      -0.711607       -19.3638
 139   2.0000      -0.708200       -19.2711
 140   2.0000      -0.705010       -19.1843
 141   2.0000      -0.694533       -18.8992
 142   2.0000      -0.688162       -18.7258
 143   2.0000      -0.687213       -18.7000
 144   2.0000      -0.684394       -18.6233
 145   2.0000      -0.682223       -18.5642
 146   2.0000      -0.680530       -18.5182
 147   2.0000      -0.674779       -18.3617
 148   2.0000      -0.669944       -18.2301
 149   2.0000      -0.662562       -18.0292
 150   2.0000      -0.655184       -17.8285
 151   2.0000      -0.653465       -17.7817
 152   2.0000      -0.645621       -17.5682
 153   2.0000      -0.642844       -17.4927
 154   2.0000      -0.637162       -17.3380
 155   2.0000      -0.630339       -17.1524
 156   2.0000      -0.622471       -16.9383
 157   2.0000      -0.618133       -16.8203
 158   2.0000      -0.616945       -16.7879
 159   2.0000      -0.614137       -16.7115
 160   2.0000      -0.609850       -16.5949
 161   2.0000      -0.605672       -16.4812
 162   2.0000      -0.602621       -16.3981
 163   2.0000      -0.600260       -16.3339
 164   2.0000      -0.595677       -16.2092
 165   2.0000      -0.587937       -15.9986
 166   2.0000      -0.580591       -15.7987
 167   2.0000      -0.577155       -15.7052
 168   2.0000      -0.573791       -15.6136
 169   2.0000      -0.569989       -15.5102
 170   2.0000      -0.563886       -15.3441
 171   2.0000      -0.562211       -15.2985
 172   2.0000      -0.561519       -15.2797
 173   2.0000      -0.560430       -15.2501
 174   2.0000      -0.557599       -15.1730
 175   2.0000      -0.554997       -15.1022
 176   2.0000      -0.554401       -15.0860
 177   2.0000      -0.552604       -15.0371
 178   2.0000      -0.552160       -15.0250
 179   2.0000      -0.548779       -14.9330
 180   2.0000      -0.547698       -14.9036
 181   2.0000      -0.546707       -14.8767
 182   2.0000      -0.544976       -14.8295
 183   2.0000      -0.541943       -14.7470
 184   2.0000      -0.540352       -14.7037
 185   2.0000      -0.537835       -14.6352
 186   2.0000      -0.533415       -14.5150
 187   2.0000      -0.532727       -14.4962
 188   2.0000      -0.528755       -14.3882
 189   2.0000      -0.527287       -14.3482
 190   2.0000      -0.525622       -14.3029
 191   2.0000      -0.523275       -14.2390
 192   2.0000      -0.520413       -14.1612
 193   2.0000      -0.519941       -14.1483
 194   2.0000      -0.516905       -14.0657
 195   2.0000      -0.515561       -14.0291
 196   2.0000      -0.515050       -14.0152
 197   2.0000      -0.513979       -13.9861
 198   2.0000      -0.512173       -13.9369
 199   2.0000      -0.510035       -13.8788
 200   2.0000      -0.507719       -13.8157
 201   2.0000      -0.506480       -13.7820
 202   2.0000      -0.502964       -13.6863
 203   2.0000      -0.502394       -13.6708
 204   2.0000      -0.497505       -13.5378
 205   2.0000      -0.493204       -13.4208
 206   2.0000      -0.492733       -13.4079
 207   2.0000      -0.491292       -13.3687
 208   2.0000      -0.489678       -13.3248
 209   2.0000      -0.486941       -13.2503
 210   2.0000      -0.484686       -13.1890
 211   2.0000      -0.483371       -13.1532
 212   2.0000      -0.480494       -13.0749
 213   2.0000      -0.477311       -12.9883
 214   2.0000      -0.475710       -12.9447
 215   2.0000      -0.475199       -12.9308
 216   2.0000      -0.474618       -12.9150
 217   2.0000      -0.473568       -12.8865
 218   2.0000      -0.469180       -12.7670
 219   2.0000      -0.462738       -12.5917
 220   2.0000      -0.462464       -12.5843
 221   2.0000      -0.458430       -12.4745
 222   2.0000      -0.457777       -12.4567
 223   2.0000      -0.457705       -12.4548
 224   2.0000      -0.453400       -12.3376
 225   2.0000      -0.452315       -12.3081
 226   2.0000      -0.451865       -12.2959
 227   2.0000      -0.451447       -12.2845
 228   2.0000      -0.449046       -12.2192
 229   2.0000      -0.446116       -12.1394
 230   2.0000      -0.445127       -12.1125
 231   2.0000      -0.444766       -12.1027
 232   2.0000      -0.443817       -12.0769
 233   2.0000      -0.441331       -12.0092
 234   2.0000      -0.440998       -12.0002
 235   2.0000      -0.439301       -11.9540
 236   2.0000      -0.436146       -11.8681
 237   2.0000      -0.435001       -11.8370
 238   2.0000      -0.433131       -11.7861
 239   2.0000      -0.431357       -11.7378
 240   2.0000      -0.427566       -11.6347
 241   2.0000      -0.425263       -11.5720
 242   2.0000      -0.423438       -11.5223
 243   2.0000      -0.421429       -11.4677
 244   2.0000      -0.420224       -11.4349
 245   2.0000      -0.418858       -11.3977
 246   2.0000      -0.414160       -11.2699
 247   2.0000      -0.400737       -10.9046
 248   2.0000      -0.390732       -10.6324
 249   2.0000      -0.390350       -10.6220
 250   2.0000      -0.386151       -10.5077
 251   2.0000      -0.385663       -10.4944
 252   2.0000      -0.374927       -10.2023
 253   2.0000      -0.361089        -9.8257
 254   2.0000      -0.359121        -9.7722
 255   2.0000      -0.351554        -9.5663
 256   2.0000      -0.348734        -9.4895
 257   2.0000      -0.345347        -9.3974
 258   2.0000      -0.329579        -8.9683
 259   2.0000      -0.328981        -8.9520
 260   2.0000      -0.326588        -8.8869
 261   2.0000      -0.317710        -8.6453
 262   2.0000      -0.309564        -8.4237
 263   2.0000      -0.303012        -8.2454
 264   2.0000      -0.301786        -8.2120
 265   2.0000      -0.256858        -6.9895
 266   0.0000      -0.122140        -3.3236
 267   0.0000      -0.110120        -2.9965
 268   0.0000      -0.089203        -2.4273
 269   0.0000      -0.070199        -1.9102
 270   0.0000      -0.065929        -1.7940

MULLIKEN ATOMIC CHARGES
-----------------------
   0 C :    0.255683
   1 C :   -0.315474
   2 C :   -0.186742
   3 N :    0.174515
   4 C :   -0.202303
   5 N :    0.177389
   6 C :    0.038590
   7 C :    0.009734
   8 C :   -0.076033
   9 C :    0.092618
  10 C :    0.093398
  11 C :   -0.081531
  12 C :   -0.016369
  13 C :    0.037680
  14 C :    0.035801
  15 C :   -0.013736
  16 C :    0.140296
  17 O :   -0.127537
  18 C :   -0.106645
  19 C :   -0.013197
  20 C :    0.152788
  21 O :   -0.197085
  22 C :    0.073751
  23 C :   -0.073583
  24 C :   -0.069382
  25 C :   -0.220733
  26 N :    0.208329
  27 C :    0.540626
  28 F :   -0.151505
  29 F :   -0.166291
  30 F :   -0.127257
  31 C :    0.089151
  32 N :   -0.257408
  33 C :    0.101706
  34 C :   -0.005735
  35 C :    0.177113
  36 O :   -0.198886
  37 C :   -0.093397
  38 C :   -0.000280
  39 C :    0.143907
  40 O :   -0.159891
  41 N :   -0.262449
  42 C :    0.094000
  43 C :    0.000501
  44 C :    0.157074
  45 C :   -0.023290
  46 C :   -0.040371
  47 C :    0.161143
  48 O :   -0.174778
  49 C :    0.132260
  50 C :   -0.041006
  51 C :   -0.094541
  52 C :   -0.214135
  53 N :    0.200654
  54 C :    0.538854
  55 F :   -0.158877
  56 F :   -0.157210
  57 F :   -0.137452
  58 C :   -0.057275
  59 C :   -0.057928
  60 C :    0.307446
  61 C :   -0.332773
  62 C :   -0.180436
  63 N :    0.160767
  64 C :   -0.190557
  65 N :    0.161662
  66 C :    0.060336
  67 C :   -0.016779
  68 C :    0.138905
  69 O :   -0.137085
  70 C :   -0.064219
  71 C :    0.094142
  72 C :    0.094066
  73 C :   -0.079963
  74 C :   -0.016292
  75 C :    0.039692
  76 C :    0.035137
  77 C :   -0.011364
  78 H :   -0.006876
  79 H :   -0.001548
  80 H :   -0.006592
  81 H :   -0.000287
  82 H :   -0.000483
  83 H :   -0.014394
  84 H :    0.042760
  85 H :    0.032775
  86 H :    0.054016
  87 H :    0.017473
  88 H :    0.027632
  89 H :    0.031002
  90 H :    0.050747
  91 H :    0.026543
  92 H :    0.036651
  93 H :    0.030827
  94 H :    0.016766
  95 H :   -0.006523
  96 H :    0.049997
  97 H :    0.043165
  98 H :   -0.006396
  99 H :   -0.007094
 100 H :   -0.006481
 101 H :   -0.001228
 102 H :    0.000656
 103 H :   -0.013042
Sum of atomic charges:   -0.0000000

LOEWDIN ATOMIC CHARGES
----------------------
   0 C :    0.061057
   1 C :   -0.125080
   2 C :   -0.022287
   3 N :   -0.036687
   4 C :   -0.028142
   5 N :   -0.043331
   6 C :   -0.023793
   7 C :   -0.059796
   8 C :    0.037301
   9 C :   -0.008440
  10 C :   -0.003836
  11 C :    0.016466
  12 C :   -0.005078
  13 C :   -0.008807
  14 C :   -0.009834
  15 C :   -0.007594
  16 C :    0.084620
  17 O :   -0.127891
  18 C :   -0.058361
  19 C :    0.038448
  20 C :    0.054029
  21 O :    0.055317
  22 C :    0.064685
  23 C :   -0.080336
  24 C :   -0.055831
  25 C :   -0.038080
  26 N :   -0.012441
  27 C :    0.168578
  28 F :   -0.043651
  29 F :   -0.063570
  30 F :   -0.029496
  31 C :    0.038654
  32 N :    0.006308
  33 C :    0.031464
  34 C :   -0.060353
  35 C :    0.079597
  36 O :   -0.187824
  37 C :   -0.122711
  38 C :   -0.091442
  39 C :    0.082704
  40 O :   -0.161343
  41 N :   -0.001293
  42 C :    0.037011
  43 C :   -0.059836
  44 C :    0.089748
  45 C :   -0.024886
  46 C :    0.016765
  47 C :    0.066502
  48 O :    0.040761
  49 C :    0.054057
  50 C :   -0.070879
  51 C :   -0.071017
  52 C :   -0.038891
  53 N :   -0.013644
  54 C :    0.169837
  55 F :   -0.051479
  56 F :   -0.055536
  57 F :   -0.035877
  58 C :    0.036819
  59 C :   -0.056344
  60 C :    0.071710
  61 C :   -0.123559
  62 C :   -0.017258
  63 N :   -0.040639
  64 C :   -0.019614
  65 N :   -0.041282
  66 C :   -0.025035
  67 C :   -0.057425
  68 C :    0.078942
  69 O :   -0.131244
  70 C :    0.041015
  71 C :   -0.006775
  72 C :   -0.003730
  73 C :    0.022584
  74 C :   -0.003989
  75 C :   -0.008521
  76 C :   -0.008174
  77 C :   -0.006504
  78 H :    0.041262
  79 H :    0.039741
  80 H :    0.035881
  81 H :    0.034965
  82 H :    0.034408
  83 H :    0.033037
  84 H :    0.062409
  85 H :    0.019083
  86 H :    0.040725
  87 H :    0.019928
  88 H :    0.033222
  89 H :    0.032536
  90 H :    0.040830
  91 H :    0.024128
  92 H :    0.035203
  93 H :    0.033939
  94 H :    0.022241
  95 H :    0.035268
  96 H :    0.051626
  97 H :    0.052749
  98 H :    0.042176
  99 H :    0.039710
 100 H :    0.035788
 101 H :    0.034894
 102 H :    0.034933
 103 H :    0.033805

  Mayer bond orders larger than 0.100000
B(  0-C ,  1-C ) :   1.6793 B(  0-C ,  6-C ) :   1.0050 B(  0-C , 18-C ) :   1.0133
B(  1-C ,  2-C ) :   1.1332 B(  1-C ,  4-C ) :   1.1629 B(  2-C ,  3-N ) :   2.9940
B(  4-C ,  5-N ) :   3.0011 B(  6-C ,  7-C ) :   1.2102 B(  6-C , 11-C ) :   1.4558
B(  7-C ,  8-C ) :   1.4720 B(  7-C , 16-C ) :   0.9227 B(  8-C ,  9-C ) :   1.1903
B(  8-C , 78-H ) :   1.0163 B(  9-C , 10-C ) :   1.2525 B(  9-C , 15-C ) :   1.2447
B( 10-C , 11-C ) :   1.2070 B( 10-C , 12-C ) :   1.2408 B( 11-C , 79-H ) :   0.9950
B( 12-C , 13-C ) :   1.4893 B( 12-C , 80-H ) :   0.9983 B( 13-C , 14-C ) :   1.2594
B( 13-C , 81-H ) :   0.9891 B( 14-C , 15-C ) :   1.4892 B( 14-C , 82-H ) :   0.9897
B( 15-C , 83-H ) :   0.9983 B( 16-C , 17-O ) :   2.2822 B( 16-C , 18-C ) :   0.9177
B( 18-C , 19-C ) :   1.6693 B( 19-C , 20-C ) :   1.1385 B( 19-C , 84-H ) :   0.9427
B( 20-C , 21-O ) :   1.1288 B( 20-C , 22-C ) :   0.1027 B( 20-C , 24-C ) :   1.4284
B( 21-O , 22-C ) :   1.1437 B( 22-C , 23-C ) :   1.5217 B( 22-C , 31-C ) :   0.9841
B( 23-C , 24-C ) :   1.2903 B( 23-C , 27-C ) :   0.9270 B( 24-C , 25-C ) :   1.1216
B( 25-C , 26-N ) :   3.0286 B( 27-C , 28-F ) :   1.1562 B( 27-C , 29-F ) :   1.1575
B( 27-C , 30-F ) :   1.2146 B( 31-C , 32-N ) :   1.1976 B( 31-C , 38-C ) :   1.4694
B( 32-N , 33-C ) :   0.9440 B( 32-N , 35-C ) :   1.0468 B( 33-C , 34-C ) :   1.1203
B( 33-C , 85-H ) :   0.9477 B( 33-C , 86-H ) :   0.9243 B( 34-C , 87-H ) :   0.9686
B( 34-C , 88-H ) :   0.9669 B( 34-C , 89-H ) :   0.9647 B( 35-C , 36-O ) :   2.0241
B( 35-C , 37-C ) :   0.9976 B( 36-O , 96-H ) :   0.1170 B( 37-C , 38-C ) :   1.2349
B( 37-C , 44-C ) :   1.3401 B( 38-C , 39-C ) :   0.9335 B( 39-C , 40-O ) :   2.1679
B( 39-C , 41-N ) :   1.0240 B( 41-N , 42-C ) :   0.9398 B( 41-N , 44-C ) :   1.1778
B( 42-C , 43-C ) :   1.1208 B( 42-C , 90-H ) :   0.9283 B( 42-C , 91-H ) :   0.9500
B( 43-C , 92-H ) :   0.9638 B( 43-C , 93-H ) :   0.9679 B( 43-C , 94-H ) :   0.9685
B( 44-C , 45-C ) :   1.1259 B( 45-C , 46-C ) :   1.5782 B( 45-C , 95-H ) :   0.9819
B( 46-C , 47-C ) :   1.1921 B( 46-C , 96-H ) :   0.9247 B( 47-C , 48-O ) :   1.1690
B( 47-C , 51-C ) :   1.3860 B( 48-O , 49-C ) :   1.1342 B( 49-C , 50-C ) :   1.4979
B( 49-C , 58-C ) :   1.0706 B( 50-C , 51-C ) :   1.3058 B( 50-C , 54-C ) :   0.9309
B( 51-C , 52-C ) :   1.1290 B( 52-C , 53-N ) :   3.0237 B( 54-C , 55-F ) :   1.1342
B( 54-C , 56-F ) :   1.1748 B( 54-C , 57-F ) :   1.1992 B( 58-C , 59-C ) :   1.7065
B( 58-C , 97-H ) :   0.9295 B( 59-C , 60-C ) :   1.0470 B( 59-C , 68-C ) :   0.9087
B( 60-C , 61-C ) :   1.6590 B( 60-C , 66-C ) :   1.0027 B( 61-C , 62-C ) :   1.1408
B( 61-C , 64-C ) :   1.1404 B( 62-C , 63-N ) :   2.9664 B( 64-C , 65-N ) :   2.9736
B( 66-C , 67-C ) :   1.2080 B( 66-C , 73-C ) :   1.4390 B( 67-C , 68-C ) :   0.9486
B( 67-C , 70-C ) :   1.4693 B( 68-C , 69-O ) :   2.2335 B( 70-C , 71-C ) :   1.1846
B( 70-C , 98-H ) :   1.0163 B( 71-C , 72-C ) :   1.2503 B( 71-C , 77-C ) :   1.2424
B( 72-C , 73-C ) :   1.2142 B( 72-C , 74-C ) :   1.2384 B( 73-C , 99-H ) :   0.9895
B( 74-C , 75-C ) :   1.4919 B( 74-C ,100-H ) :   0.9974 B( 75-C , 76-C ) :   1.2564
B( 75-C ,101-H ) :   0.9893 B( 76-C , 77-C ) :   1.4895 B( 76-C ,102-H ) :   0.9900
B( 77-C ,103-H ) :   0.9982

-----------------------------------------------------------------------------
         ABSORPTION SPECTRUM VIA TRANSITION ELECTRIC DIPOLE MOMENTS
-----------------------------------------------------------------------------
State   Energy  Wavelength   fosc         T2         TX        TY        TZ
        (cm-1)    (nm)                  (au**2)     (au)      (au)      (au)
-----------------------------------------------------------------------------
   0   13846.1    722.2   0.774401067  18.41258  -0.83603   4.20053  -0.26301
   1   17762.2    563.0   0.178562066   3.30955  -0.22828  -1.52731   0.96164
   2   21652.5    461.8   0.024556179   0.37336   0.56542  -0.22060  -0.07073
   3   23758.1    420.9   0.262886807   3.64278  -0.10455   1.81821  -0.57092
   4   23986.8    416.9   0.036918421   0.50670   0.65887   0.25543   0.08566
   5   24663.2    405.5   0.075570864   1.00874   0.52597  -0.62049   0.58915
   6   25618.1    390.3   0.002195602   0.02822  -0.01227  -0.09999  -0.13441
   7   25939.7    385.5   0.143802723   1.82506   0.99117  -0.43872  -0.80633
   8   27080.3    369.3   0.041517291   0.50472   0.46038  -0.25321  -0.47818
   9   27238.8    367.1   0.287697689   3.47715  -0.21042   1.69589  -0.74620
  10   27487.3    363.8   0.021756960   0.26058  -0.13876   0.47854  -0.11101
  11   27965.3    357.6   0.037603362   0.44267   0.46299  -0.15994  -0.45026
  12   28057.4    356.4   0.090988584   1.06762  -0.32817   0.51991   0.83043
  13   28464.0    351.3   0.087791815   1.01539   0.27782  -0.66062  -0.70838
  14   28781.3    347.4   0.310868396   3.55584   0.72880  -0.54727   1.65082
  15   30151.1    331.7   0.083575434   0.91254  -0.40165   0.54484   0.67407
  16   30619.5    326.6   0.067719628   0.72810   0.43154   0.72972  -0.09690
  17   31019.6    322.4   0.003187078   0.03382   0.05457   0.02730   0.17350
  18   31207.5    320.4   0.045917237   0.48439   0.13850  -0.30074   0.61217
  19   31951.2    313.0   0.069212456   0.71314   0.29148  -0.16917   0.77431
  20   32657.2    306.2   0.296338510   2.98734  -1.07661   1.14482   0.71947
  21   32693.3    305.9   0.760885229   7.66189   1.57649  -0.20063   2.26634
  22   32991.8    303.1   0.312367784   3.11700  -0.30096  -1.49121  -0.89595
  23   33228.6    300.9   0.065443512   0.64838   0.32776   0.06592   0.73254
  24   33785.5    296.0   0.078226171   0.76225  -0.03042  -0.15639   0.85841
  25   33848.6    295.4   0.044369993   0.43154   0.14084   0.11553   0.63116
  26   34351.9    291.1   0.003217537   0.03084   0.05188   0.05378  -0.15891
  27   35284.1    283.4   0.050511169   0.47129   0.18669  -0.00370   0.66062
  28   35784.1    279.5   0.056550717   0.52026   0.10811  -0.58316  -0.41049
  29   35903.6    278.5   0.104677096   0.95982   0.25313  -0.58637  -0.74291
  30   36360.0    275.0   0.168455333   1.52524  -1.15872   0.41842   0.08676
  31   36602.1    273.2   0.062195613   0.55941  -0.39448  -0.06362  -0.63226
  32   36817.1    271.6   0.193541995   1.73062  -0.18793   0.86332   0.97467
  33   37026.5    270.1   0.028096794   0.24982   0.31454   0.25708   0.29118
  34   37174.3    269.0   0.058449962   0.51763  -0.05950  -0.48204  -0.53078
  35   37732.2    265.0   0.045542228   0.39735  -0.00966   0.44127   0.45004
  36   38129.0    262.3   0.059882351   0.51703  -0.38201  -0.29303  -0.53408
  37   38538.1    259.5   0.014277108   0.12196   0.16667   0.21645   0.21756
  38   38633.0    258.8   0.020440211   0.17418  -0.16451  -0.35856   0.13620
  39   38760.9    258.0   0.015085582   0.12813   0.14466   0.05069   0.32347
  40   38943.3    256.8   0.139845523   1.18220   0.24286  -0.88106  -0.58903
  41   39529.9    253.0   0.003740864   0.03115   0.08271   0.15038  -0.04124
  42   40074.5    249.5   0.016761972   0.13770  -0.06205   0.34203   0.12987
  43   40103.6    249.4   0.227963991   1.87137   0.36965   1.31130  -0.12334
  44   40196.3    248.8   0.073542700   0.60232   0.23802   0.73755  -0.04103

FINAL SINGLE POINT ENERGY     -3709.680263774952

DIPOLE MOMENT
-------------
                                X             Y             Z
Electronic contribution:      1.86193       9.51551      18.58870
Nuclear contribution   :     -4.11814      -8.91584     -21.93120
                        -----------------------------------------
Total Dipole Moment    :     -2.25621       0.59967      -3.34250
                        -----------------------------------------
Magnitude (a.u.)       :      4.07706
Magnitude (Debye)      :     10.36307

Rotational constants in cm-1:     0.001507     0.000301     0.000269
Rotational constants in MHz :    45.174572     9.017676     8.073052

                             ****ORCA TERMINATED NORMALLY****
TOTAL RUN TIME: 0 days 0 hours 11 minutes 27 seconds 921 msec
