                         Program Version 4.2.0 -  RELEASE  -
|  1> # ORCA input file
|  2> # SCF done       -178.156795510218          0.000497995079
|  3> ! CAM-B3LYP def2-SVP def2/J RIJCOSX Grid4 TightSCF
|  4> %maxcore 5000
|  5> %tddft
|  6>     Mode sTDDFT
|  7>     Ethresh 5.0
|  8>     maxcore 5000
|  9> end
| 10>
| 11> %pal
| 12>   nprocs 6
| 13>   end
| 14> * xyz 0 1
| 15>    C       -3.03657         6.64057         1.14252
| 16>    C       -3.31446         6.79828        -0.18767
| 17>    C       -3.37490         8.04234        -0.84777
| 18>    N       -3.37681         9.01226        -1.46140
| 19>    C       -3.56476         5.71149        -1.05080
| 20>    N       -3.76671         4.83795        -1.76740
| 21>    C       -2.98790         7.69753         2.13724
| 22>    C       -3.20808         7.11696         3.42378
| 23>    C       -3.26246         7.88927         4.54951
| 24>    C       -3.07152         9.28545         4.43834
| 25>    C       -2.81060         9.86157         3.15923
| 26>    C       -2.78104         9.04487         2.00697
| 27>    C       -2.58932        11.25054         3.06669
| 28>    C       -2.63960        12.03930         4.18406
| 29>    C       -2.91058        11.47584         5.44034
| 30>    C       -3.11964        10.12867         5.56591
| 31>    C       -3.32063         5.65379         3.29372
| 32>    O       -3.56976         4.83446         4.14173
| 33>    C       -2.96322         5.37630         1.86043
| 34>    C       -2.46905         4.17568         1.48295
| 35>    C       -1.72154         3.94864         0.26915
| 36>    C       -1.60659         2.76123        -0.37709
| 37>    C       -0.93165         2.69421        -1.64065
| 38>    C       -0.75707         1.49942        -2.31266
| 39>    C       -0.10850         1.44039        -3.55828
| 40>    N        0.42438         1.39979        -4.57462
| 41>    C       -1.20034         0.27542        -1.78274
| 42>    N       -1.55644        -0.72446        -1.34505
| 43>    C       -0.48612         3.94321        -2.18543
| 44>    C       -0.60599         5.07877        -1.45600
| 45>    O       -1.12411         5.07494        -0.19973
| 46>    C       -0.28751         6.41764        -1.87979
| 47>    S       -0.06160         6.86155        -3.53758
| 48>    C        0.06085         8.54509        -3.12552
| 49>    C       -0.06673         8.72507        -1.74900
| 50>    C       -0.26136         7.51808        -1.05595
| 51>    C       -0.10099         9.95050        -1.06161
| 52>    N       -0.16641        10.90236        -0.42482
| 53>    C        0.24826         9.50063        -4.15810
| 54>    C        0.53294        10.81203        -3.97157
| 55>    C        0.67714        11.71351        -5.05963
| 56>    O        0.41387        11.32171        -6.32134
| 57>    C        0.62322        12.36360        -7.15299
| 58>    C        1.04716        13.47053        -6.41515
| 59>    C        1.07660        13.05060        -5.05751
| 60>    C        1.44512        13.81368        -3.94054
| 61>    N        1.75308        14.43609        -3.02928
| 62>    C        1.36958        14.73810        -6.91931
| 63>    N        1.63303        15.77266        -7.33566
| 64>    C        0.37793        12.23569        -8.54440
| 65>    C       -0.12125        11.09341        -9.08218
| 66>    C       -0.41648        10.95725       -10.46055
| 67>    C       -0.97847         9.84328       -11.01029
| 68>    C       -1.34816         9.64657       -12.40336
| 69>    C       -1.03427        10.46367       -13.45713
| 70>    C       -1.41364        10.21068       -14.79317
| 71>    N       -1.69148        10.06575       -15.89718
| 72>    C       -0.27401        11.64987       -13.37727
| 73>    N        0.34352        12.61762       -13.39524
| 74>    C       -2.08767         8.39351       -12.49361
| 75>    C       -2.10917         7.78132       -11.20735
| 76>    C       -1.39818         8.63314       -10.24385
| 77>    O       -1.20490         8.39504        -9.06993
| 78>    C       -2.73135         6.58579       -10.98567
| 79>    C       -3.38092         5.93815       -12.05926
| 80>    C       -3.37155         6.54727       -13.34800
| 81>    C       -2.71392         7.78235       -13.54839
| 82>    C       -4.02945         5.89579       -14.41121
| 83>    C       -4.66577         4.70065       -14.21280
| 84>    C       -4.67312         4.10155       -12.94404
| 85>    C       -4.04395         4.70671       -11.89000
| 86>    H       -3.44411         7.44093         5.51493
| 87>    H       -2.57617         9.50246         1.05069
| 88>    H       -2.37782        11.67599         2.09712
| 89>    H       -2.47024        13.10234         4.10538
| 90>    H       -2.94886        12.11392         6.31033
| 91>    H       -3.32261         9.69028         6.53190
| 92>    H       -2.58269         3.34259         2.16344
| 93>    H       -2.06938         1.87545         0.02715
| 94>    H       -0.06913         3.97611        -3.17922
| 95>    H       -0.37138         7.46232         0.01275
| 96>    H        0.16209         9.12350        -5.16879
| 97>    H        0.67095        11.23262        -2.98655
| 98>    H        0.59113        13.10392        -9.15303
| 99>    H       -0.32404        10.25032        -8.43751
|100>    H       -0.19904        11.81100       -11.08943
|101>    H       -2.73035         6.14228       -10.00103
|102>    H       -2.72827         8.21719       -14.53503
|103>    H       -4.02034         6.36002       -15.38638
|104>    H       -5.16732         4.20985       -15.03322
|105>    H       -5.17995         3.15835       -12.80597
|106>    H       -4.04610         4.25046       -10.91104
|107> *
|108>
|109>                          ****END OF INPUT****

CARTESIAN COORDINATES (ANGSTROEM)
---------------------------------
  C     -3.036570    6.640570    1.142520
  C     -3.314460    6.798280   -0.187670
  C     -3.374900    8.042340   -0.847770
  N     -3.376810    9.012260   -1.461400
  C     -3.564760    5.711490   -1.050800
  N     -3.766710    4.837950   -1.767400
  C     -2.987900    7.697530    2.137240
  C     -3.208080    7.116960    3.423780
  C     -3.262460    7.889270    4.549510
  C     -3.071520    9.285450    4.438340
  C     -2.810600    9.861570    3.159230
  C     -2.781040    9.044870    2.006970
  C     -2.589320   11.250540    3.066690
  C     -2.639600   12.039300    4.184060
  C     -2.910580   11.475840    5.440340
  C     -3.119640   10.128670    5.565910
  C     -3.320630    5.653790    3.293720
  O     -3.569760    4.834460    4.141730
  C     -2.963220    5.376300    1.860430
  C     -2.469050    4.175680    1.482950
  C     -1.721540    3.948640    0.269150
  C     -1.606590    2.761230   -0.377090
  C     -0.931650    2.694210   -1.640650
  C     -0.757070    1.499420   -2.312660
  C     -0.108500    1.440390   -3.558280
  N      0.424380    1.399790   -4.574620
  C     -1.200340    0.275420   -1.782740
  N     -1.556440   -0.724460   -1.345050
  C     -0.486120    3.943210   -2.185430
  C     -0.605990    5.078770   -1.456000
  O     -1.124110    5.074940   -0.199730
  C     -0.287510    6.417640   -1.879790
  S     -0.061600    6.861550   -3.537580
  C      0.060850    8.545090   -3.125520
  C     -0.066730    8.725070   -1.749000
  C     -0.261360    7.518080   -1.055950
  C     -0.100990    9.950500   -1.061610
  N     -0.166410   10.902360   -0.424820
  C      0.248260    9.500630   -4.158100
  C      0.532940   10.812030   -3.971570
  C      0.677140   11.713510   -5.059630
  O      0.413870   11.321710   -6.321340
  C      0.623220   12.363600   -7.152990
  C      1.047160   13.470530   -6.415150
  C      1.076600   13.050600   -5.057510
  C      1.445120   13.813680   -3.940540
  N      1.753080   14.436090   -3.029280
  C      1.369580   14.738100   -6.919310
  N      1.633030   15.772660   -7.335660
  C      0.377930   12.235690   -8.544400
  C     -0.121250   11.093410   -9.082180
  C     -0.416480   10.957250  -10.460550
  C     -0.978470    9.843280  -11.010290
  C     -1.348160    9.646570  -12.403360
  C     -1.034270   10.463670  -13.457130
  C     -1.413640   10.210680  -14.793170
  N     -1.691480   10.065750  -15.897180
  C     -0.274010   11.649870  -13.377270
  N      0.343520   12.617620  -13.395240
  C     -2.087670    8.393510  -12.493610
  C     -2.109170    7.781320  -11.207350
  C     -1.398180    8.633140  -10.243850
  O     -1.204900    8.395040   -9.069930
  C     -2.731350    6.585790  -10.985670
  C     -3.380920    5.938150  -12.059260
  C     -3.371550    6.547270  -13.348000
  C     -2.713920    7.782350  -13.548390
  C     -4.029450    5.895790  -14.411210
  C     -4.665770    4.700650  -14.212800
  C     -4.673120    4.101550  -12.944040
  C     -4.043950    4.706710  -11.890000
  H     -3.444110    7.440930    5.514930
  H     -2.576170    9.502460    1.050690
  H     -2.377820   11.675990    2.097120
  H     -2.470240   13.102340    4.105380
  H     -2.948860   12.113920    6.310330
  H     -3.322610    9.690280    6.531900
  H     -2.582690    3.342590    2.163440
  H     -2.069380    1.875450    0.027150
  H     -0.069130    3.976110   -3.179220
  H     -0.371380    7.462320    0.012750
  H      0.162090    9.123500   -5.168790
  H      0.670950   11.232620   -2.986550
  H      0.591130   13.103920   -9.153030
  H     -0.324040   10.250320   -8.437510
  H     -0.199040   11.811000  -11.089430
  H     -2.730350    6.142280  -10.001030
  H     -2.728270    8.217190  -14.535030
  H     -4.020340    6.360020  -15.386380
  H     -5.167320    4.209850  -15.033220
  H     -5.179950    3.158350  -12.805970
  H     -4.046100    4.250460  -10.911040

 Total Charge           Charge          ....    0
 Multiplicity           Mult            ....    1
 Number of Electrons    NEL             ....  474
 Basis Dimension        Dim             .... 1103

ORBITAL ENERGIES
----------------

  NO   OCC          E(Eh)            E(eV)
   0   2.0000     -89.008611     -2422.0474
   1   2.0000     -19.345494      -526.4177
   2   2.0000     -19.335125      -526.1355
   3   2.0000     -19.238593      -523.5087
   4   2.0000     -19.229670      -523.2659
   5   2.0000     -14.438922      -392.9031
   6   2.0000     -14.438334      -392.8870
   7   2.0000     -14.433954      -392.7679
   8   2.0000     -14.429876      -392.6569
   9   2.0000     -14.428474      -392.6187
  10   2.0000     -14.425570      -392.5397
  11   2.0000     -14.423257      -392.4768
  12   2.0000     -14.412816      -392.1926
  13   2.0000     -14.411710      -392.1626
  14   2.0000     -10.404854      -283.1305
  15   2.0000     -10.400632      -283.0156
  16   2.0000     -10.392587      -282.7967
  17   2.0000     -10.390646      -282.7439
  18   2.0000     -10.390546      -282.7411
  19   2.0000     -10.379972      -282.4534
  20   2.0000     -10.367250      -282.1072
  21   2.0000     -10.362963      -281.9906
  22   2.0000     -10.361098      -281.9398
  23   2.0000     -10.353352      -281.7290
  24   2.0000     -10.353045      -281.7207
  25   2.0000     -10.352020      -281.6928
  26   2.0000     -10.351176      -281.6698
  27   2.0000     -10.350727      -281.6576
  28   2.0000     -10.350225      -281.6439
  29   2.0000     -10.344664      -281.4926
  30   2.0000     -10.344545      -281.4894
  31   2.0000     -10.340355      -281.3754
  32   2.0000     -10.339408      -281.3496
  33   2.0000     -10.338401      -281.3222
  34   2.0000     -10.334193      -281.2077
  35   2.0000     -10.333768      -281.1961
  36   2.0000     -10.331256      -281.1278
  37   2.0000     -10.329516      -281.0804
  38   2.0000     -10.329505      -281.0801
  39   2.0000     -10.328945      -281.0649
  40   2.0000     -10.328350      -281.0487
  41   2.0000     -10.328133      -281.0428
  42   2.0000     -10.327716      -281.0314
  43   2.0000     -10.327603      -281.0284
  44   2.0000     -10.327208      -281.0176
  45   2.0000     -10.325435      -280.9694
  46   2.0000     -10.322202      -280.8814
  47   2.0000     -10.321372      -280.8588
  48   2.0000     -10.315267      -280.6927
  49   2.0000     -10.315176      -280.6902
  50   2.0000     -10.314739      -280.6783
  51   2.0000     -10.314112      -280.6613
  52   2.0000     -10.314079      -280.6604
  53   2.0000     -10.312358      -280.6135
  54   2.0000     -10.311969      -280.6029
  55   2.0000     -10.311259      -280.5836
  56   2.0000     -10.309638      -280.5395
  57   2.0000     -10.308636      -280.5122
  58   2.0000     -10.304937      -280.4116
  59   2.0000     -10.304812      -280.4082
  60   2.0000     -10.304463      -280.3987
  61   2.0000     -10.304281      -280.3938
  62   2.0000     -10.298270      -280.2302
  63   2.0000     -10.297752      -280.2161
  64   2.0000     -10.296927      -280.1936
  65   2.0000     -10.296377      -280.1787
  66   2.0000     -10.295335      -280.1503
  67   2.0000     -10.292324      -280.0684
  68   2.0000     -10.291925      -280.0575
  69   2.0000     -10.291699      -280.0514
  70   2.0000     -10.291283      -280.0401
  71   2.0000      -8.103892      -220.5181
  72   2.0000      -6.073136      -165.2584
  73   2.0000      -6.068949      -165.1445
  74   2.0000      -6.066078      -165.0664
  75   2.0000      -1.266788       -34.4711
  76   2.0000      -1.250181       -34.0192
  77   2.0000      -1.154584       -31.4178
  78   2.0000      -1.143914       -31.1275
  79   2.0000      -1.043839       -28.4043
  80   2.0000      -1.041022       -28.3276
  81   2.0000      -1.027271       -27.9535
  82   2.0000      -1.019326       -27.7373
  83   2.0000      -1.019291       -27.7363
  84   2.0000      -1.017080       -27.6761
  85   2.0000      -1.013931       -27.5905
  86   2.0000      -1.012796       -27.5596
  87   2.0000      -1.010207       -27.4891
  88   2.0000      -1.007129       -27.4054
  89   2.0000      -1.002411       -27.2770
  90   2.0000      -0.990919       -26.9643
  91   2.0000      -0.990134       -26.9429
  92   2.0000      -0.980077       -26.6693
  93   2.0000      -0.974641       -26.5213
  94   2.0000      -0.972232       -26.4558
  95   2.0000      -0.964184       -26.2368
  96   2.0000      -0.962772       -26.1984
  97   2.0000      -0.943131       -25.6639
  98   2.0000      -0.939106       -25.5544
  99   2.0000      -0.929982       -25.3061
 100   2.0000      -0.920459       -25.0470
 101   2.0000      -0.910122       -24.7657
 102   2.0000      -0.902199       -24.5501
 103   2.0000      -0.896586       -24.3974
 104   2.0000      -0.894617       -24.3438
 105   2.0000      -0.888467       -24.1764
 106   2.0000      -0.886964       -24.1355
 107   2.0000      -0.878067       -23.8934
 108   2.0000      -0.864589       -23.5267
 109   2.0000      -0.844471       -22.9792
 110   2.0000      -0.843366       -22.9491
 111   2.0000      -0.835406       -22.7325
 112   2.0000      -0.820386       -22.3238
 113   2.0000      -0.811811       -22.0905
 114   2.0000      -0.806277       -21.9399
 115   2.0000      -0.785650       -21.3786
 116   2.0000      -0.780912       -21.2497
 117   2.0000      -0.774225       -21.0677
 118   2.0000      -0.770940       -20.9783
 119   2.0000      -0.768762       -20.9191
 120   2.0000      -0.754021       -20.5179
 121   2.0000      -0.737180       -20.0597
 122   2.0000      -0.730568       -19.8798
 123   2.0000      -0.723829       -19.6964
 124   2.0000      -0.717013       -19.5109
 125   2.0000      -0.713416       -19.4130
 126   2.0000      -0.711297       -19.3554
 127   2.0000      -0.705733       -19.2040
 128   2.0000      -0.704353       -19.1664
 129   2.0000      -0.695942       -18.9376
 130   2.0000      -0.695440       -18.9239
 131   2.0000      -0.690593       -18.7920
 132   2.0000      -0.680453       -18.5161
 133   2.0000      -0.667985       -18.1768
 134   2.0000      -0.657538       -17.8925
 135   2.0000      -0.652029       -17.7426
 136   2.0000      -0.647703       -17.6249
 137   2.0000      -0.638889       -17.3851
 138   2.0000      -0.631268       -17.1777
 139   2.0000      -0.626864       -17.0578
 140   2.0000      -0.624425       -16.9915
 141   2.0000      -0.622621       -16.9424
 142   2.0000      -0.621119       -16.9015
 143   2.0000      -0.613870       -16.7043
 144   2.0000      -0.613026       -16.6813
 145   2.0000      -0.608164       -16.5490
 146   2.0000      -0.606597       -16.5064
 147   2.0000      -0.599845       -16.3226
 148   2.0000      -0.598669       -16.2906
 149   2.0000      -0.591670       -16.1002
 150   2.0000      -0.580577       -15.7983
 151   2.0000      -0.575516       -15.6606
 152   2.0000      -0.569629       -15.5004
 153   2.0000      -0.565059       -15.3760
 154   2.0000      -0.563113       -15.3231
 155   2.0000      -0.561386       -15.2761
 156   2.0000      -0.558090       -15.1864
 157   2.0000      -0.553834       -15.0706
 158   2.0000      -0.550499       -14.9798
 159   2.0000      -0.548739       -14.9319
 160   2.0000      -0.547052       -14.8861
 161   2.0000      -0.546974       -14.8839
 162   2.0000      -0.541691       -14.7402
 163   2.0000      -0.539279       -14.6745
 164   2.0000      -0.537379       -14.6228
 165   2.0000      -0.530794       -14.4437
 166   2.0000      -0.529758       -14.4154
 167   2.0000      -0.528637       -14.3850
 168   2.0000      -0.523774       -14.2526
 169   2.0000      -0.522458       -14.2168
 170   2.0000      -0.521424       -14.1887
 171   2.0000      -0.517251       -14.0751
 172   2.0000      -0.514097       -13.9893
 173   2.0000      -0.512345       -13.9416
 174   2.0000      -0.507137       -13.7999
 175   2.0000      -0.505869       -13.7654
 176   2.0000      -0.503574       -13.7029
 177   2.0000      -0.500589       -13.6217
 178   2.0000      -0.500266       -13.6129
 179   2.0000      -0.498654       -13.5691
 180   2.0000      -0.494752       -13.4629
 181   2.0000      -0.492154       -13.3922
 182   2.0000      -0.488303       -13.2874
 183   2.0000      -0.487732       -13.2719
 184   2.0000      -0.482887       -13.1400
 185   2.0000      -0.475535       -12.9400
 186   2.0000      -0.472304       -12.8521
 187   2.0000      -0.471892       -12.8408
 188   2.0000      -0.471473       -12.8294
 189   2.0000      -0.471103       -12.8194
 190   2.0000      -0.466256       -12.6875
 191   2.0000      -0.460940       -12.5428
 192   2.0000      -0.456993       -12.4354
 193   2.0000      -0.455665       -12.3993
 194   2.0000      -0.454370       -12.3640
 195   2.0000      -0.454243       -12.3606
 196   2.0000      -0.452187       -12.3046
 197   2.0000      -0.452070       -12.3014
 198   2.0000      -0.449424       -12.2295
 199   2.0000      -0.449103       -12.2207
 200   2.0000      -0.448750       -12.2111
 201   2.0000      -0.447199       -12.1689
 202   2.0000      -0.446884       -12.1603
 203   2.0000      -0.445598       -12.1253
 204   2.0000      -0.441446       -12.0124
 205   2.0000      -0.441029       -12.0010
 206   2.0000      -0.440922       -11.9981
 207   2.0000      -0.439390       -11.9564
 208   2.0000      -0.437780       -11.9126
 209   2.0000      -0.434765       -11.8306
 210   2.0000      -0.433578       -11.7982
 211   2.0000      -0.431524       -11.7424
 212   2.0000      -0.429352       -11.6833
 213   2.0000      -0.428411       -11.6577
 214   2.0000      -0.427748       -11.6396
 215   2.0000      -0.425253       -11.5717
 216   2.0000      -0.425105       -11.5677
 217   2.0000      -0.421749       -11.4764
 218   2.0000      -0.414898       -11.2900
 219   2.0000      -0.412829       -11.2336
 220   2.0000      -0.407252       -11.0819
 221   2.0000      -0.400199       -10.8900
 222   2.0000      -0.389909       -10.6100
 223   2.0000      -0.384381       -10.4595
 224   2.0000      -0.378903       -10.3105
 225   2.0000      -0.370412       -10.0794
 226   2.0000      -0.363068        -9.8796
 227   2.0000      -0.358878        -9.7656
 228   2.0000      -0.349190        -9.5019
 229   2.0000      -0.347458        -9.4548
 230   2.0000      -0.332852        -9.0574
 231   2.0000      -0.327258        -8.9052
 232   2.0000      -0.322175        -8.7668
 233   2.0000      -0.309122        -8.4116
 234   2.0000      -0.302375        -8.2280
 235   2.0000      -0.296544        -8.0694
 236   2.0000      -0.280536        -7.6338
 237   0.0000      -0.122284        -3.3275
 238   0.0000      -0.120688        -3.2841
 239   0.0000      -0.096216        -2.6182
 240   0.0000      -0.075966        -2.0672
 241   0.0000      -0.068944        -1.8761

MULLIKEN ATOMIC CHARGES
-----------------------
   0 C :    0.250372
   1 C :   -0.331221
   2 C :   -0.162501
   3 N :    0.165323
   4 C :   -0.203302
   5 N :    0.174682
   6 C :    0.049710
   7 C :    0.002841
   8 C :   -0.072582
   9 C :    0.091060
  10 C :    0.089694
  11 C :   -0.079440
  12 C :   -0.010660
  13 C :    0.036092
  14 C :    0.039074
  15 C :   -0.014090
  16 C :    0.143660
  17 O :   -0.121391
  18 C :   -0.091907
  19 C :    0.034057
  20 C :    0.172700
  21 C :   -0.065913
  22 C :    0.268555
  23 C :   -0.328748
  24 C :   -0.174872
  25 N :    0.140642
  26 C :   -0.175249
  27 N :    0.145228
  28 C :   -0.126888
  29 C :    0.264689
  30 O :   -0.251214
  31 C :   -0.112011
  32 S :    0.210434
  33 C :   -0.049359
  34 C :   -0.048196
  35 C :    0.036568
  36 C :   -0.172647
  37 N :    0.134603
  38 C :    0.045101
  39 C :   -0.053568
  40 C :    0.135542
  41 O :   -0.180077
  42 C :    0.146616
  43 C :   -0.003044
  44 C :   -0.002244
  45 C :   -0.295460
  46 N :    0.243505
  47 C :   -0.297304
  48 N :    0.244506
  49 C :   -0.031774
  50 C :    0.016289
  51 C :   -0.042143
  52 C :   -0.056535
  53 C :    0.325905
  54 C :   -0.343155
  55 C :   -0.180485
  56 N :    0.155236
  57 C :   -0.193738
  58 N :    0.158523
  59 C :    0.050623
  60 C :   -0.002204
  61 C :    0.154276
  62 O :   -0.154516
  63 C :   -0.077698
  64 C :    0.097621
  65 C :    0.097773
  66 C :   -0.083957
  67 C :   -0.020033
  68 C :    0.040322
  69 C :    0.038312
  70 C :   -0.015124
  71 H :   -0.005705
  72 H :    0.000159
  73 H :    0.003968
  74 H :    0.005068
  75 H :    0.001339
  76 H :   -0.013855
  77 H :    0.040234
  78 H :    0.035940
  79 H :    0.028265
  80 H :    0.010600
  81 H :    0.022714
  82 H :    0.041809
  83 H :    0.037855
  84 H :    0.039950
  85 H :    0.018808
  86 H :   -0.011224
  87 H :   -0.006765
  88 H :   -0.007415
  89 H :   -0.001716
  90 H :   -0.001330
  91 H :   -0.013581
Sum of atomic charges:   -0.0000000

LOEWDIN ATOMIC CHARGES
----------------------
   0 C :    0.064569
   1 C :   -0.129916
   2 C :   -0.020176
   3 N :   -0.040594
   4 C :   -0.024136
   5 N :   -0.045027
   6 C :   -0.028349
   7 C :   -0.061842
   8 C :    0.040036
   9 C :   -0.007211
  10 C :   -0.002188
  11 C :    0.019257
  12 C :    0.001307
  13 C :   -0.005362
  14 C :   -0.005997
  15 C :   -0.008481
  16 C :    0.086084
  17 O :   -0.122972
  18 C :   -0.043979
  19 C :    0.041135
  20 C :    0.070926
  21 C :   -0.006664
  22 C :    0.057544
  23 C :   -0.153817
  24 C :   -0.027960
  25 N :   -0.056063
  26 C :   -0.030059
  27 N :   -0.054243
  28 C :   -0.044920
  29 C :    0.074910
  30 O :    0.000596
  31 C :   -0.193280
  32 S :    0.505518
  33 C :   -0.126484
  34 C :   -0.096420
  35 C :   -0.001871
  36 C :   -0.025446
  37 N :   -0.047798
  38 C :   -0.015876
  39 C :   -0.014759
  40 C :    0.074552
  41 O :    0.042616
  42 C :    0.070031
  43 C :   -0.072640
  44 C :   -0.077043
  45 C :   -0.036839
  46 N :   -0.017077
  47 C :   -0.036415
  48 N :   -0.017259
  49 C :   -0.002881
  50 C :   -0.000131
  51 C :    0.058744
  52 C :   -0.070870
  53 C :    0.072148
  54 C :   -0.129101
  55 C :   -0.017000
  56 N :   -0.045548
  57 C :   -0.021573
  58 N :   -0.044013
  59 C :   -0.026072
  60 C :   -0.058355
  61 C :    0.087530
  62 O :   -0.144796
  63 C :    0.036520
  64 C :   -0.007429
  65 C :   -0.004499
  66 C :    0.021152
  67 C :   -0.004776
  68 C :   -0.009564
  69 C :   -0.008811
  70 C :   -0.007415
  71 H :    0.041916
  72 H :    0.040559
  73 H :    0.040453
  74 H :    0.037101
  75 H :    0.035370
  76 H :    0.033244
  77 H :    0.057689
  78 H :    0.055679
  79 H :    0.046827
  80 H :    0.042181
  81 H :    0.042221
  82 H :    0.053193
  83 H :    0.052270
  84 H :    0.036143
  85 H :    0.044145
  86 H :    0.040013
  87 H :    0.039664
  88 H :    0.035518
  89 H :    0.034563
  90 H :    0.034533
  91 H :    0.033538

  Mayer bond orders larger than 0.100000
B(  0-C ,  1-C ) :   1.6789 B(  0-C ,  6-C ) :   1.0203 B(  0-C , 18-C ) :   1.0042
B(  1-C ,  2-C ) :   1.1271 B(  1-C ,  4-C ) :   1.1647 B(  2-C ,  3-N ) :   2.9613
B(  4-C ,  5-N ) :   3.0025 B(  6-C ,  7-C ) :   1.2003 B(  6-C , 11-C ) :   1.4408
B(  7-C ,  8-C ) :   1.4678 B(  7-C , 16-C ) :   0.9257 B(  8-C ,  9-C ) :   1.1933
B(  8-C , 71-H ) :   1.0166 B(  9-C , 10-C ) :   1.2456 B(  9-C , 15-C ) :   1.2464
B( 10-C , 11-C ) :   1.2143 B( 10-C , 12-C ) :   1.2423 B( 11-C , 72-H ) :   0.9967
B( 12-C , 13-C ) :   1.4869 B( 12-C , 73-H ) :   0.9979 B( 13-C , 14-C ) :   1.2590
B( 13-C , 74-H ) :   0.9896 B( 14-C , 15-C ) :   1.4881 B( 14-C , 75-H ) :   0.9895
B( 15-C , 76-H ) :   0.9984 B( 16-C , 17-O ) :   2.2960 B( 16-C , 18-C ) :   0.9076
B( 18-C , 19-C ) :   1.7343 B( 19-C , 20-C ) :   1.0389 B( 19-C , 77-H ) :   0.9557
B( 20-C , 21-C ) :   1.5857 B( 20-C , 30-O ) :   1.0865 B( 21-C , 22-C ) :   1.0974
B( 21-C , 78-H ) :   0.9754 B( 22-C , 23-C ) :   1.5723 B( 22-C , 28-C ) :   1.1255
B( 23-C , 24-C ) :   1.1319 B( 23-C , 26-C ) :   1.1303 B( 24-C , 25-N ) :   3.0096
B( 26-C , 27-N ) :   3.0123 B( 28-C , 29-C ) :   1.5895 B( 28-C , 79-H ) :   0.9669
B( 29-C , 30-O ) :   1.1133 B( 29-C , 31-C ) :   1.0676 B( 31-C , 32-S ) :   1.1387
B( 31-C , 35-C ) :   1.4828 B( 32-S , 33-C ) :   1.1519 B( 33-C , 34-C ) :   1.4553
B( 33-C , 38-C ) :   1.1271 B( 34-C , 35-C ) :   1.2869 B( 34-C , 36-C ) :   1.1156
B( 35-C , 80-H ) :   1.0069 B( 36-C , 37-N ) :   2.9644 B( 38-C , 39-C ) :   1.6495
B( 38-C , 81-H ) :   0.9586 B( 39-C , 40-C ) :   1.2086 B( 39-C , 82-H ) :   0.9414
B( 40-C , 41-O ) :   1.1649 B( 40-C , 44-C ) :   1.3718 B( 41-O , 42-C ) :   1.1485
B( 42-C , 43-C ) :   1.3734 B( 42-C , 49-C ) :   1.1669 B( 43-C , 44-C ) :   1.3261
B( 43-C , 47-C ) :   1.1556 B( 44-C , 45-C ) :   1.1513 B( 45-C , 46-N ) :   3.0176
B( 47-C , 48-N ) :   3.0213 B( 49-C , 50-C ) :   1.5689 B( 49-C , 83-H ) :   0.9684
B( 50-C , 51-C ) :   1.1188 B( 50-C , 84-H ) :   0.9848 B( 51-C , 52-C ) :   1.5832
B( 51-C , 85-H ) :   0.9657 B( 52-C , 53-C ) :   1.0465 B( 52-C , 61-C ) :   0.9324
B( 53-C , 54-C ) :   1.6441 B( 53-C , 59-C ) :   0.9923 B( 54-C , 55-C ) :   1.1426
B( 54-C , 57-C ) :   1.1450 B( 55-C , 56-N ) :   2.9658 B( 57-C , 58-N ) :   2.9684
B( 59-C , 60-C ) :   1.2143 B( 59-C , 66-C ) :   1.4442 B( 60-C , 61-C ) :   0.9510
B( 60-C , 63-C ) :   1.4627 B( 61-C , 62-O ) :   2.1932 B( 63-C , 64-C ) :   1.1823
B( 63-C , 86-H ) :   1.0172 B( 64-C , 65-C ) :   1.2535 B( 64-C , 70-C ) :   1.2430
B( 65-C , 66-C ) :   1.2087 B( 65-C , 67-C ) :   1.2386 B( 66-C , 87-H ) :   0.9896
B( 67-C , 68-C ) :   1.4886 B( 67-C , 88-H ) :   0.9978 B( 68-C , 69-C ) :   1.2595
B( 68-C , 89-H ) :   0.9889 B( 69-C , 70-C ) :   1.4884 B( 69-C , 90-H ) :   0.9889
B( 70-C , 91-H ) :   0.9984

-----------------------------------------------------------------------------
         ABSORPTION SPECTRUM VIA TRANSITION ELECTRIC DIPOLE MOMENTS
-----------------------------------------------------------------------------
State   Energy  Wavelength   fosc         T2         TX        TY        TZ
        (cm-1)    (nm)                  (au**2)     (au)      (au)      (au)
-----------------------------------------------------------------------------
   0   19362.4    516.5   0.857446238  14.57883   0.61804  -1.15055   3.58791
   1   20093.9    497.7   0.371552316   6.08739  -0.00876   1.18477   2.16417
   2   23300.9    429.2   0.131650770   1.86006  -0.83957   0.85053   0.65710
   3   23811.8    420.0   0.013969261   0.19313  -0.32959   0.29043  -0.01243
   4   24089.0    415.1   0.021146424   0.28900  -0.33684  -0.12126  -0.40104
   5   25409.0    393.6   1.008873570  13.07146   0.78139   3.43156   0.82781
   6   25807.8    387.5   0.007255082   0.09255  -0.08774  -0.21254   0.19918
   7   26041.8    384.0   0.100741567   1.27354   0.09893  -0.15357  -1.11363
   8   26785.5    373.3   0.031703747   0.38966  -0.29180   0.43957  -0.33360
   9   27377.0    365.3   0.006207177   0.07464   0.12163   0.17696   0.16892
  10   28371.0    352.5   0.005280990   0.06128   0.17666   0.13647   0.10699
  11   29058.4    344.1   0.052990818   0.60035   0.63044   0.13416  -0.42999
  12   29671.1    337.0   0.019987675   0.22177   0.42144  -0.19880  -0.06811
  13   30107.0    332.1   0.018486553   0.20215   0.01842   0.26412   0.36338
  14   30815.4    324.5   0.131083980   1.40042  -0.46350  -1.06222   0.23932
  15   31233.3    320.2   0.084873701   0.89460  -0.79241  -0.47105   0.21169
  16   31438.0    318.1   0.046646508   0.48847  -0.35858  -0.42881   0.41953
  17   31771.7    314.7   0.980349959  10.15818  -0.99797  -2.99647  -0.42824
  18   32258.9    310.0   0.283221565   2.89036   0.98400   1.38562  -0.04641
  19   32610.4    306.7   0.604924290   6.10689  -0.08577  -1.48393  -1.97420
  20   33333.0    300.0   0.180718962   1.78486  -0.20484  -1.14442  -0.65818
  21   33797.3    295.9   0.215224254   2.09645   0.34011   1.24720   0.65213
  22   33846.1    295.5   0.146925046   1.42910   0.24122   0.96903   0.65718
  23   33984.0    294.3   0.133483327   1.29309   0.13341   0.87655   0.71200
  24   34512.6    289.7   0.051746377   0.49360  -0.26121   0.57570   0.30649
  25   34683.3    288.3   0.038224742   0.36283   0.10954  -0.58605   0.08587
  26   34871.3    286.8   0.013892437   0.13116   0.12801  -0.31077  -0.13486
  27   35326.6    283.1   0.038503055   0.35881   0.15535  -0.39506  -0.42262
  28   35608.3    280.8   0.101021366   0.93398   0.07327  -0.92508  -0.26990
  29   35839.2    279.0   0.022741996   0.20890   0.41807   0.09596   0.15783
  30   36171.8    276.5   0.083381957   0.75889  -0.59731  -0.35357   0.52640
  31   36532.9    273.7   0.134826100   1.21497  -0.21438  -1.08114  -0.01194
  32   37297.2    268.1   0.032210404   0.28431  -0.11233  -0.08322   0.51456
  33   37584.9    266.1   0.180132024   1.57780  -0.04487  -1.24792  -0.13592
  34   37753.5    264.9   0.239214226   2.08596   0.13174   0.22867  -1.41997
  35   38017.2    263.0   0.050912051   0.44088   0.32428   0.55004   0.18215
  36   38327.9    260.9   0.127834356   1.09801  -0.06851  -0.20882  -1.02456
  37   38568.4    259.3   0.003841416   0.03279  -0.02266  -0.07754  -0.16206
  38   38726.0    258.2   0.052393753   0.44540  -0.02972  -0.59457  -0.30168
  39   38975.1    256.6   0.083040254   0.70142   0.26576   0.43382   0.66528
  40   39167.9    255.3   0.120245424   1.01068   0.18544   0.84801   0.50712
  41   39619.8    252.4   0.124067352   1.03091   0.17634  -0.72031   0.69352
  42   39685.9    252.0   0.010966407   0.09097   0.11580  -0.14841   0.23566
  43   39831.6    251.1   0.030724501   0.25394  -0.21577  -0.02572   0.45467
  44   40142.2    249.1   0.069884385   0.57313   0.09864   0.00949  -0.75054
  45   40215.7    248.7   0.028336404   0.23197  -0.24482  -0.09648  -0.40339

FINAL SINGLE POINT ENERGY     -3372.484558154692

DIPOLE MOMENT
-------------
                                X             Y             Z
Electronic contribution:     12.43134       0.09148       0.81527
Nuclear contribution   :    -13.94206      -0.64203       1.75375
                        -----------------------------------------
Total Dipole Moment    :     -1.51072      -0.55055       2.56902
                        -----------------------------------------
Magnitude (a.u.)       :      3.03072
Magnitude (Debye)      :      7.70348

Rotational constants in cm-1:     0.001189     0.000470     0.000367
Rotational constants in MHz :    35.658971    14.101591    10.990820

                             ****ORCA TERMINATED NORMALLY****
TOTAL RUN TIME: 0 days 0 hours 9 minutes 19 seconds 796 msec
