                         Program Version 4.2.0 -  RELEASE  -
|  1> # ORCA input file
|  2> # SCF done       -186.844639751794          0.000800701058
|  3> ! CAM-B3LYP def2-SVP def2/J RIJCOSX Grid4 TightSCF
|  4> %maxcore 5000
|  5> %tddft
|  6>     Mode sTDDFT
|  7>     Ethresh 5.0
|  8>     maxcore 5000
|  9> end
| 10>
| 11> %pal
| 12>   nprocs 6
| 13>   end
| 14> * xyz 0 1
| 15>    C        2.40373         1.05656       -11.31314
| 16>    C        1.22370         1.73778       -11.44201
| 17>    C        0.55813         2.22155       -10.30610
| 18>    C        1.08168         2.01827        -9.05825
| 19>    C        2.29456         1.32054        -8.88904
| 20>    C        2.83728         1.10265        -7.60108
| 21>    C        4.01878         0.42455        -7.47552
| 22>    C        4.69704        -0.05210        -8.63560
| 23>    C        4.19170         0.13513        -9.88927
| 24>    C        2.97038         0.83036       -10.04350
| 25>    C        5.95445        -0.70804        -8.22931
| 26>    O        6.76130        -1.27407        -8.92998
| 27>    C        6.05804        -0.46719        -6.76108
| 28>    C        4.78881         0.03733        -6.29855
| 29>    C        4.30438        -0.03193        -5.01717
| 30>    C        4.97582        -0.68536        -3.96578
| 31>    N        5.47142        -1.22963        -3.08439
| 32>    C        3.06905         0.50335        -4.60896
| 33>    N        2.09706         0.95997        -4.20103
| 34>    C        7.27135        -0.60827        -6.15029
| 35>    C        7.71789        -0.06396        -4.93258
| 36>    C        7.19616         0.97860        -4.16359
| 37>    C        7.95729         1.24379        -2.99850
| 38>    S        7.24125         2.52835        -2.09805
| 39>    C        5.99140         2.62574        -3.36578
| 40>    N        6.12398         1.79450        -4.32950
| 41>    C        4.88304         3.59198        -3.24418
| 42>    C        9.08258         0.44672        -2.86159
| 43>    S        9.19810        -0.65615        -4.20896
| 44>    C       10.05914         0.44961        -1.85862
| 45>    C       11.20554        -0.35943        -1.86551
| 46>    C       12.06193        -0.13392        -0.73897
| 47>    N       13.17630        -0.84414        -0.56846
| 48>    C       13.45897        -1.73575        -1.49567
| 49>    C       14.67807        -2.56214        -1.29195
| 50>    O       15.36384        -2.49462        -0.29611
| 51>    C       14.99154        -3.49216        -2.39369
| 52>    C       14.23113        -3.64195        -3.48216
| 53>    C       12.98742        -2.88800        -3.71647
| 54>    O       12.31058        -3.04475        -4.70988
| 55>    C       12.63048        -1.92020        -2.64823
| 56>    N       11.51413        -1.24026        -2.81325
| 57>    C       11.56969         0.85897         0.12218
| 58>    S       10.04751         1.47233        -0.45567
| 59>    C       12.17436         1.33618         1.28871
| 60>    C       11.61612         2.24284         2.19162
| 61>    C       12.48376         2.52603         3.26377
| 62>    S       11.72562         3.62967         4.35017
| 63>    C       10.30344         3.61437         3.26595
| 64>    N       10.41396         2.87064         2.23105
| 65>    C        9.11720         4.42444         3.60462
| 66>    C       13.72153         1.87861         3.20647
| 67>    S       13.78750         0.87147         1.76217
| 68>    C       14.69607         2.05029         4.19709
| 69>    C       15.96182         1.52681         4.27417
| 70>    C       16.92386         1.73347         5.33660
| 71>    C       16.73675         2.43457         6.50173
| 72>    C       17.72430         2.59028         7.49628
| 73>    N       18.48219         2.76274         8.34164
| 74>    C       15.54941         3.09208         6.88315
| 75>    N       14.61896         3.64492         7.26899
| 76>    C       18.15186         1.03960         4.95568
| 77>    C       17.94494         0.40758         3.69544
| 78>    C       18.91760        -0.32543         3.08056
| 79>    C       20.17565        -0.45929         3.71027
| 80>    C       21.22114        -1.20023         3.12597
| 81>    C       22.43351        -1.31232         3.75154
| 82>    C       22.65196        -0.68894         4.98876
| 83>    C       21.65594         0.03716         5.58386
| 84>    C       20.39573         0.17339         4.96764
| 85>    C       19.36434         0.92294         5.58114
| 86>    C       16.57899         0.69074         3.23645
| 87>    O       16.06776         0.32593         2.19280
| 88>    H        2.92091         0.68168       -12.18427
| 89>    H        0.79698         1.90721       -12.41926
| 90>    H       -0.37246         2.75629       -10.42460
| 91>    H        0.57149         2.38709        -8.18044
| 92>    H        2.30962         1.48885        -6.74280
| 93>    H        4.71678        -0.24025       -10.75504
| 94>    H        8.01351        -1.15958        -6.71951
| 95>    H        4.03954         3.11605        -2.74088
| 96>    H        4.55137         3.89735        -4.23388
| 97>    H        5.18759         4.45912        -2.66403
| 98>    H       15.89563        -4.07015        -2.25594
| 99>    H       14.49480        -4.34324        -4.26244
|100>    H        9.38853         5.47601         3.68759
|101>    H        8.70840         4.10937         4.56396
|102>    H        8.36411         4.30150         2.83113
|103>    H       14.37447         2.70254         5.00137
|104>    H       18.72688        -0.79710         2.12812
|105>    H       21.04584        -1.67781         2.17313
|106>    H       23.23026        -1.88153         3.29642
|107>    H       23.61404        -0.78668         5.46907
|108>    H       21.81971         0.51842         6.53694
|109>    H       19.56513         1.38772         6.53323
|110> *
|111>
|112>                          ****END OF INPUT****

CARTESIAN COORDINATES (ANGSTROEM)
---------------------------------
  C      2.403730    1.056560  -11.313140
  C      1.223700    1.737780  -11.442010
  C      0.558130    2.221550  -10.306100
  C      1.081680    2.018270   -9.058250
  C      2.294560    1.320540   -8.889040
  C      2.837280    1.102650   -7.601080
  C      4.018780    0.424550   -7.475520
  C      4.697040   -0.052100   -8.635600
  C      4.191700    0.135130   -9.889270
  C      2.970380    0.830360  -10.043500
  C      5.954450   -0.708040   -8.229310
  O      6.761300   -1.274070   -8.929980
  C      6.058040   -0.467190   -6.761080
  C      4.788810    0.037330   -6.298550
  C      4.304380   -0.031930   -5.017170
  C      4.975820   -0.685360   -3.965780
  N      5.471420   -1.229630   -3.084390
  C      3.069050    0.503350   -4.608960
  N      2.097060    0.959970   -4.201030
  C      7.271350   -0.608270   -6.150290
  C      7.717890   -0.063960   -4.932580
  C      7.196160    0.978600   -4.163590
  C      7.957290    1.243790   -2.998500
  S      7.241250    2.528350   -2.098050
  C      5.991400    2.625740   -3.365780
  N      6.123980    1.794500   -4.329500
  C      4.883040    3.591980   -3.244180
  C      9.082580    0.446720   -2.861590
  S      9.198100   -0.656150   -4.208960
  C     10.059140    0.449610   -1.858620
  C     11.205540   -0.359430   -1.865510
  C     12.061930   -0.133920   -0.738970
  N     13.176300   -0.844140   -0.568460
  C     13.458970   -1.735750   -1.495670
  C     14.678070   -2.562140   -1.291950
  O     15.363840   -2.494620   -0.296110
  C     14.991540   -3.492160   -2.393690
  C     14.231130   -3.641950   -3.482160
  C     12.987420   -2.888000   -3.716470
  O     12.310580   -3.044750   -4.709880
  C     12.630480   -1.920200   -2.648230
  N     11.514130   -1.240260   -2.813250
  C     11.569690    0.858970    0.122180
  S     10.047510    1.472330   -0.455670
  C     12.174360    1.336180    1.288710
  C     11.616120    2.242840    2.191620
  C     12.483760    2.526030    3.263770
  S     11.725620    3.629670    4.350170
  C     10.303440    3.614370    3.265950
  N     10.413960    2.870640    2.231050
  C      9.117200    4.424440    3.604620
  C     13.721530    1.878610    3.206470
  S     13.787500    0.871470    1.762170
  C     14.696070    2.050290    4.197090
  C     15.961820    1.526810    4.274170
  C     16.923860    1.733470    5.336600
  C     16.736750    2.434570    6.501730
  C     17.724300    2.590280    7.496280
  N     18.482190    2.762740    8.341640
  C     15.549410    3.092080    6.883150
  N     14.618960    3.644920    7.268990
  C     18.151860    1.039600    4.955680
  C     17.944940    0.407580    3.695440
  C     18.917600   -0.325430    3.080560
  C     20.175650   -0.459290    3.710270
  C     21.221140   -1.200230    3.125970
  C     22.433510   -1.312320    3.751540
  C     22.651960   -0.688940    4.988760
  C     21.655940    0.037160    5.583860
  C     20.395730    0.173390    4.967640
  C     19.364340    0.922940    5.581140
  C     16.578990    0.690740    3.236450
  O     16.067760    0.325930    2.192800
  H      2.920910    0.681680  -12.184270
  H      0.796980    1.907210  -12.419260
  H     -0.372460    2.756290  -10.424600
  H      0.571490    2.387090   -8.180440
  H      2.309620    1.488850   -6.742800
  H      4.716780   -0.240250  -10.755040
  H      8.013510   -1.159580   -6.719510
  H      4.039540    3.116050   -2.740880
  H      4.551370    3.897350   -4.233880
  H      5.187590    4.459120   -2.664030
  H     15.895630   -4.070150   -2.255940
  H     14.494800   -4.343240   -4.262440
  H      9.388530    5.476010    3.687590
  H      8.708400    4.109370    4.563960
  H      8.364110    4.301500    2.831130
  H     14.374470    2.702540    5.001370
  H     18.726880   -0.797100    2.128120
  H     21.045840   -1.677810    2.173130
  H     23.230260   -1.881530    3.296420
  H     23.614040   -0.786680    5.469070
  H     21.819710    0.518420    6.536940
  H     19.565130    1.387720    6.533230

 Total Charge           Charge          ....    0
 Multiplicity           Mult            ....    1
 Number of Electrons    NEL             ....  526
 Basis Dimension        Dim             .... 1152

ORBITAL ENERGIES
----------------

  NO   OCC          E(Eh)            E(eV)
   0   2.0000     -89.001983     -2421.8671
   1   2.0000     -88.975190     -2421.1380
   2   2.0000     -88.972744     -2421.0714
   3   2.0000     -88.971742     -2421.0442
   4   2.0000     -88.970103     -2420.9996
   5   2.0000     -19.228514      -523.2345
   6   2.0000     -19.227843      -523.2162
   7   2.0000     -19.215191      -522.8719
   8   2.0000     -19.205805      -522.6165
   9   2.0000     -14.454860      -393.3367
  10   2.0000     -14.452329      -393.2679
  11   2.0000     -14.426787      -392.5728
  12   2.0000     -14.422957      -392.4686
  13   2.0000     -14.412735      -392.1905
  14   2.0000     -14.409941      -392.1144
  15   2.0000     -14.408317      -392.0702
  16   2.0000     -14.405351      -391.9895
  17   2.0000     -10.378141      -282.4036
  18   2.0000     -10.377243      -282.3791
  19   2.0000     -10.363174      -281.9963
  20   2.0000     -10.362468      -281.9771
  21   2.0000     -10.358469      -281.8683
  22   2.0000     -10.356655      -281.8189
  23   2.0000     -10.345895      -281.5261
  24   2.0000     -10.345608      -281.5183
  25   2.0000     -10.338984      -281.3381
  26   2.0000     -10.338625      -281.3283
  27   2.0000     -10.337171      -281.2887
  28   2.0000     -10.336705      -281.2760
  29   2.0000     -10.336169      -281.2615
  30   2.0000     -10.335736      -281.2497
  31   2.0000     -10.334710      -281.2218
  32   2.0000     -10.330432      -281.1053
  33   2.0000     -10.325843      -280.9805
  34   2.0000     -10.325384      -280.9680
  35   2.0000     -10.324701      -280.9494
  36   2.0000     -10.320653      -280.8392
  37   2.0000     -10.320449      -280.8337
  38   2.0000     -10.320110      -280.8245
  39   2.0000     -10.319236      -280.8007
  40   2.0000     -10.318550      -280.7820
  41   2.0000     -10.316248      -280.7194
  42   2.0000     -10.315948      -280.7112
  43   2.0000     -10.313138      -280.6347
  44   2.0000     -10.312651      -280.6215
  45   2.0000     -10.311812      -280.5987
  46   2.0000     -10.310249      -280.5561
  47   2.0000     -10.309463      -280.5347
  48   2.0000     -10.307200      -280.4732
  49   2.0000     -10.297831      -280.2182
  50   2.0000     -10.294472      -280.1268
  51   2.0000     -10.293128      -280.0903
  52   2.0000     -10.292873      -280.0833
  53   2.0000     -10.292309      -280.0680
  54   2.0000     -10.291749      -280.0527
  55   2.0000     -10.291556      -280.0475
  56   2.0000     -10.290777      -280.0263
  57   2.0000     -10.290571      -280.0207
  58   2.0000     -10.290101      -280.0079
  59   2.0000     -10.289808      -279.9999
  60   2.0000     -10.289703      -279.9970
  61   2.0000     -10.289414      -279.9892
  62   2.0000     -10.287626      -279.9405
  63   2.0000     -10.283471      -279.8275
  64   2.0000     -10.282813      -279.8096
  65   2.0000     -10.282216      -279.7933
  66   2.0000     -10.281970      -279.7866
  67   2.0000     -10.281461      -279.7728
  68   2.0000     -10.280808      -279.7550
  69   2.0000     -10.280404      -279.7440
  70   2.0000     -10.280152      -279.7371
  71   2.0000     -10.279759      -279.7265
  72   2.0000     -10.279313      -279.7143
  73   2.0000      -8.095403      -220.2871
  74   2.0000      -8.071100      -219.6258
  75   2.0000      -8.067561      -219.5295
  76   2.0000      -8.066474      -219.4999
  77   2.0000      -8.061696      -219.3699
  78   2.0000      -6.064517      -165.0239
  79   2.0000      -6.060206      -164.9066
  80   2.0000      -6.058243      -164.8532
  81   2.0000      -6.040531      -164.3712
  82   2.0000      -6.037032      -164.2760
  83   2.0000      -6.036492      -164.2613
  84   2.0000      -6.035990      -164.2476
  85   2.0000      -6.032915      -164.1640
  86   2.0000      -6.032630      -164.1562
  87   2.0000      -6.031619      -164.1287
  88   2.0000      -6.031448      -164.1241
  89   2.0000      -6.029106      -164.0603
  90   2.0000      -6.028344      -164.0396
  91   2.0000      -6.026695      -163.9947
  92   2.0000      -6.023451      -163.9064
  93   2.0000      -1.146124       -31.1876
  94   2.0000      -1.141380       -31.0585
  95   2.0000      -1.131588       -30.7921
  96   2.0000      -1.120958       -30.5028
  97   2.0000      -1.105609       -30.0852
  98   2.0000      -1.085134       -29.5280
  99   2.0000      -1.083830       -29.4925
 100   2.0000      -1.033589       -28.1254
 101   2.0000      -1.014477       -27.6053
 102   2.0000      -1.013405       -27.5762
 103   2.0000      -1.009318       -27.4649
 104   2.0000      -0.994562       -27.0634
 105   2.0000      -0.991840       -26.9893
 106   2.0000      -0.989934       -26.9375
 107   2.0000      -0.988667       -26.9030
 108   2.0000      -0.986333       -26.8395
 109   2.0000      -0.981478       -26.7074
 110   2.0000      -0.966494       -26.2996
 111   2.0000      -0.963399       -26.2154
 112   2.0000      -0.941321       -25.6146
 113   2.0000      -0.929202       -25.2849
 114   2.0000      -0.921863       -25.0852
 115   2.0000      -0.916386       -24.9361
 116   2.0000      -0.910080       -24.7645
 117   2.0000      -0.896620       -24.3983
 118   2.0000      -0.893521       -24.3140
 119   2.0000      -0.884559       -24.0701
 120   2.0000      -0.878444       -23.9037
 121   2.0000      -0.877293       -23.8724
 122   2.0000      -0.874692       -23.8016
 123   2.0000      -0.873868       -23.7791
 124   2.0000      -0.871627       -23.7182
 125   2.0000      -0.868259       -23.6265
 126   2.0000      -0.855905       -23.2904
 127   2.0000      -0.827441       -22.5158
 128   2.0000      -0.823890       -22.4192
 129   2.0000      -0.820919       -22.3383
 130   2.0000      -0.814860       -22.1735
 131   2.0000      -0.801716       -21.8158
 132   2.0000      -0.800833       -21.7918
 133   2.0000      -0.796695       -21.6792
 134   2.0000      -0.792372       -21.5615
 135   2.0000      -0.784986       -21.3605
 136   2.0000      -0.768080       -20.9005
 137   2.0000      -0.757833       -20.6217
 138   2.0000      -0.751802       -20.4576
 139   2.0000      -0.743005       -20.2182
 140   2.0000      -0.731747       -19.9119
 141   2.0000      -0.712187       -19.3796
 142   2.0000      -0.705526       -19.1983
 143   2.0000      -0.699349       -19.0303
 144   2.0000      -0.696591       -18.9552
 145   2.0000      -0.693072       -18.8594
 146   2.0000      -0.691601       -18.8194
 147   2.0000      -0.683742       -18.6056
 148   2.0000      -0.675613       -18.3844
 149   2.0000      -0.674158       -18.3448
 150   2.0000      -0.671263       -18.2660
 151   2.0000      -0.667404       -18.1610
 152   2.0000      -0.663585       -18.0571
 153   2.0000      -0.658294       -17.9131
 154   2.0000      -0.645311       -17.5598
 155   2.0000      -0.640828       -17.4378
 156   2.0000      -0.635685       -17.2979
 157   2.0000      -0.625023       -17.0077
 158   2.0000      -0.621725       -16.9180
 159   2.0000      -0.620897       -16.8955
 160   2.0000      -0.606563       -16.5054
 161   2.0000      -0.603579       -16.4242
 162   2.0000      -0.601554       -16.3691
 163   2.0000      -0.599488       -16.3129
 164   2.0000      -0.598637       -16.2897
 165   2.0000      -0.587814       -15.9952
 166   2.0000      -0.584509       -15.9053
 167   2.0000      -0.572868       -15.5885
 168   2.0000      -0.569983       -15.5100
 169   2.0000      -0.567366       -15.4388
 170   2.0000      -0.562321       -15.3015
 171   2.0000      -0.560665       -15.2565
 172   2.0000      -0.555712       -15.1217
 173   2.0000      -0.554722       -15.0947
 174   2.0000      -0.551705       -15.0127
 175   2.0000      -0.549618       -14.9559
 176   2.0000      -0.546192       -14.8626
 177   2.0000      -0.544505       -14.8167
 178   2.0000      -0.541296       -14.7294
 179   2.0000      -0.539337       -14.6761
 180   2.0000      -0.536652       -14.6030
 181   2.0000      -0.534612       -14.5475
 182   2.0000      -0.529666       -14.4129
 183   2.0000      -0.528539       -14.3823
 184   2.0000      -0.526700       -14.3322
 185   2.0000      -0.525605       -14.3024
 186   2.0000      -0.523399       -14.2424
 187   2.0000      -0.519368       -14.1327
 188   2.0000      -0.518800       -14.1173
 189   2.0000      -0.513716       -13.9789
 190   2.0000      -0.512292       -13.9402
 191   2.0000      -0.511446       -13.9172
 192   2.0000      -0.510853       -13.9010
 193   2.0000      -0.509059       -13.8522
 194   2.0000      -0.505666       -13.7599
 195   2.0000      -0.505355       -13.7514
 196   2.0000      -0.504305       -13.7228
 197   2.0000      -0.499785       -13.5998
 198   2.0000      -0.497131       -13.5276
 199   2.0000      -0.494453       -13.4548
 200   2.0000      -0.493734       -13.4352
 201   2.0000      -0.492483       -13.4011
 202   2.0000      -0.491145       -13.3647
 203   2.0000      -0.487475       -13.2649
 204   2.0000      -0.485342       -13.2068
 205   2.0000      -0.483467       -13.1558
 206   2.0000      -0.480712       -13.0808
 207   2.0000      -0.476704       -12.9718
 208   2.0000      -0.472474       -12.8567
 209   2.0000      -0.463112       -12.6019
 210   2.0000      -0.461358       -12.5542
 211   2.0000      -0.460514       -12.5312
 212   2.0000      -0.457070       -12.4375
 213   2.0000      -0.456430       -12.4201
 214   2.0000      -0.446971       -12.1627
 215   2.0000      -0.445487       -12.1223
 216   2.0000      -0.444429       -12.0935
 217   2.0000      -0.441576       -12.0159
 218   2.0000      -0.441200       -12.0057
 219   2.0000      -0.440301       -11.9812
 220   2.0000      -0.438268       -11.9259
 221   2.0000      -0.437844       -11.9144
 222   2.0000      -0.436527       -11.8785
 223   2.0000      -0.435334       -11.8460
 224   2.0000      -0.432507       -11.7691
 225   2.0000      -0.430570       -11.7164
 226   2.0000      -0.429478       -11.6867
 227   2.0000      -0.426151       -11.5962
 228   2.0000      -0.423392       -11.5211
 229   2.0000      -0.422244       -11.4898
 230   2.0000      -0.420713       -11.4482
 231   2.0000      -0.419897       -11.4260
 232   2.0000      -0.414604       -11.2819
 233   2.0000      -0.412893       -11.2354
 234   2.0000      -0.409298       -11.1376
 235   2.0000      -0.403815       -10.9884
 236   2.0000      -0.402062       -10.9407
 237   2.0000      -0.398623       -10.8471
 238   2.0000      -0.391735       -10.6597
 239   2.0000      -0.389579       -10.6010
 240   2.0000      -0.382544       -10.4095
 241   2.0000      -0.374405       -10.1881
 242   2.0000      -0.372877       -10.1465
 243   2.0000      -0.370344       -10.0776
 244   2.0000      -0.366759        -9.9800
 245   2.0000      -0.364234        -9.9113
 246   2.0000      -0.362489        -9.8638
 247   2.0000      -0.353954        -9.6316
 248   2.0000      -0.350904        -9.5486
 249   2.0000      -0.348169        -9.4742
 250   2.0000      -0.344167        -9.3653
 251   2.0000      -0.339903        -9.2492
 252   2.0000      -0.330865        -9.0033
 253   2.0000      -0.326475        -8.8838
 254   2.0000      -0.323613        -8.8060
 255   2.0000      -0.316138        -8.6026
 256   2.0000      -0.315785        -8.5929
 257   2.0000      -0.309661        -8.4263
 258   2.0000      -0.304203        -8.2778
 259   2.0000      -0.292453        -7.9580
 260   2.0000      -0.285941        -7.7809
 261   2.0000      -0.280283        -7.6269
 262   2.0000      -0.239320        -6.5122
 263   0.0000      -0.120728        -3.2852
 264   0.0000      -0.095088        -2.5875
 265   0.0000      -0.077315        -2.1039
 266   0.0000      -0.074329        -2.0226
 267   0.0000      -0.053100        -1.4449

MULLIKEN ATOMIC CHARGES
-----------------------
   0 C :   -0.014025
   1 C :    0.032264
   2 C :    0.036344
   3 C :   -0.020184
   4 C :    0.099279
   5 C :   -0.093370
   6 C :    0.047189
   7 C :    0.005517
   8 C :   -0.081437
   9 C :    0.092103
  10 C :    0.135718
  11 O :   -0.142251
  12 C :   -0.133047
  13 C :    0.302951
  14 C :   -0.311864
  15 C :   -0.223069
  16 N :    0.168083
  17 C :   -0.182494
  18 N :    0.136653
  19 C :    0.069436
  20 C :   -0.167558
  21 C :    0.099129
  22 C :   -0.035315
  23 S :    0.114715
  24 C :   -0.169530
  25 N :   -0.038097
  26 C :    0.124102
  27 C :   -0.164078
  28 S :    0.234845
  29 C :   -0.122966
  30 C :    0.011404
  31 C :    0.040257
  32 N :    0.068938
  33 C :   -0.114333
  34 C :    0.135501
  35 O :   -0.092135
  36 C :   -0.013921
  37 C :   -0.018754
  38 C :    0.140652
  39 O :   -0.101400
  40 C :   -0.113286
  41 N :    0.042639
  42 C :   -0.176450
  43 S :    0.262303
  44 C :   -0.135577
  45 C :    0.090129
  46 C :   -0.012391
  47 S :    0.130446
  48 C :   -0.196015
  49 N :   -0.044055
  50 C :    0.121872
  51 C :   -0.140617
  52 S :    0.265781
  53 C :   -0.041262
  54 C :   -0.105652
  55 C :    0.339039
  56 C :   -0.363995
  57 C :   -0.180928
  58 N :    0.143094
  59 C :   -0.188038
  60 N :    0.138848
  61 C :    0.045063
  62 C :   -0.004468
  63 C :   -0.081189
  64 C :    0.098013
  65 C :   -0.016010
  66 C :    0.035177
  67 C :    0.036700
  68 C :   -0.019829
  69 C :    0.097574
  70 C :   -0.085978
  71 C :    0.174560
  72 O :   -0.173774
  73 H :   -0.019939
  74 H :   -0.008577
  75 H :   -0.008115
  76 H :   -0.015373
  77 H :   -0.013554
  78 H :   -0.014988
  79 H :    0.021509
  80 H :    0.072091
  81 H :    0.050873
  82 H :    0.024853
  83 H :    0.017137
  84 H :    0.019031
  85 H :    0.046210
  86 H :    0.047741
  87 H :    0.043028
  88 H :    0.004379
  89 H :   -0.008851
  90 H :   -0.019401
  91 H :   -0.006859
  92 H :   -0.006854
  93 H :   -0.010552
  94 H :   -0.010767
Sum of atomic charges:   -0.0000000

LOEWDIN ATOMIC CHARGES
----------------------
   0 C :   -0.009427
   1 C :   -0.017138
   2 C :   -0.015503
   3 C :   -0.009233
   4 C :   -0.005570
   5 C :    0.008183
   6 C :   -0.016979
   7 C :   -0.057110
   8 C :    0.030968
   9 C :   -0.011509
  10 C :    0.082700
  11 O :   -0.143955
  12 C :   -0.081703
  13 C :    0.068970
  14 C :   -0.133314
  15 C :   -0.020386
  16 N :   -0.057548
  17 C :   -0.014148
  18 N :   -0.069471
  19 C :    0.040726
  20 C :   -0.184305
  21 C :   -0.042121
  22 C :   -0.203666
  23 S :    0.381589
  24 C :   -0.073931
  25 N :   -0.089501
  26 C :   -0.063759
  27 C :   -0.186485
  28 S :    0.522989
  29 C :   -0.190951
  30 C :   -0.048686
  31 C :   -0.041179
  32 N :    0.001780
  33 C :   -0.035526
  34 C :    0.055114
  35 O :   -0.090170
  36 C :   -0.012282
  37 C :   -0.014110
  38 C :    0.055546
  39 O :   -0.098784
  40 C :   -0.037682
  41 N :   -0.005708
  42 C :   -0.190490
  43 S :    0.545243
  44 C :   -0.180471
  45 C :   -0.080855
  46 C :   -0.178345
  47 S :    0.397744
  48 C :   -0.089385
  49 N :   -0.109829
  50 C :   -0.065699
  51 C :   -0.204147
  52 S :    0.556761
  53 C :    0.047009
  54 C :   -0.107210
  55 C :    0.076789
  56 C :   -0.147823
  57 C :   -0.017416
  58 N :   -0.059753
  59 C :   -0.020370
  60 N :   -0.060759
  61 C :   -0.024396
  62 C :   -0.054018
  63 C :    0.032564
  64 C :   -0.009070
  65 C :   -0.009710
  66 C :   -0.013967
  67 C :   -0.014865
  68 C :   -0.005804
  69 C :   -0.006867
  70 C :    0.018254
  71 C :    0.084295
  72 O :   -0.159232
  73 H :    0.030939
  74 H :    0.031320
  75 H :    0.031745
  76 H :    0.032473
  77 H :    0.036323
  78 H :    0.038179
  79 H :    0.047452
  80 H :    0.059023
  81 H :    0.052232
  82 H :    0.037214
  83 H :    0.045355
  84 H :    0.046079
  85 H :    0.046582
  86 H :    0.047771
  87 H :    0.048184
  88 H :    0.044802
  89 H :    0.040776
  90 H :    0.031391
  91 H :    0.031999
  92 H :    0.032436
  93 H :    0.034276
  94 H :    0.038540

  Mayer bond orders larger than 0.100000
B(  0-C ,  1-C ) :   1.4878 B(  0-C ,  9-C ) :   1.2456 B(  0-C , 73-H ) :   0.9976
B(  1-C ,  2-C ) :   1.2610 B(  1-C , 74-H ) :   0.9891 B(  2-C ,  3-C ) :   1.4879
B(  2-C , 75-H ) :   0.9885 B(  3-C ,  4-C ) :   1.2411 B(  3-C , 76-H ) :   0.9976
B(  4-C ,  5-C ) :   1.1962 B(  4-C ,  9-C ) :   1.2622 B(  5-C ,  6-C ) :   1.4603
B(  5-C , 77-H ) :   0.9944 B(  6-C ,  7-C ) :   1.2126 B(  6-C , 13-C ) :   1.0039
B(  7-C ,  8-C ) :   1.4773 B(  7-C , 10-C ) :   0.9175 B(  8-C ,  9-C ) :   1.1799
B(  8-C , 78-H ) :   1.0159 B( 10-C , 11-O ) :   2.2720 B( 10-C , 12-C ) :   0.9394
B( 12-C , 13-C ) :   1.0658 B( 12-C , 19-C ) :   1.6220 B( 13-C , 14-C ) :   1.6275
B( 14-C , 15-C ) :   1.1630 B( 14-C , 17-C ) :   1.1578 B( 15-C , 16-N ) :   3.0073
B( 17-C , 18-N ) :   2.9495 B( 19-C , 20-C ) :   1.1789 B( 19-C , 79-H ) :   0.9307
B( 20-C , 21-C ) :   1.3774 B( 20-C , 27-C ) :   0.1068 B( 20-C , 28-S ) :   1.0844
B( 21-C , 22-C ) :   1.2690 B( 21-C , 25-N ) :   1.3056 B( 22-C , 23-S ) :   1.0549
B( 22-C , 27-C ) :   1.4573 B( 23-S , 24-C ) :   1.0638 B( 23-S , 25-N ) :   0.1006
B( 24-C , 25-N ) :   1.7381 B( 24-C , 26-C ) :   1.0833 B( 26-C , 80-H ) :   0.9362
B( 26-C , 81-H ) :   0.9463 B( 26-C , 82-H ) :   0.9402 B( 27-C , 28-S ) :   1.1584
B( 27-C , 29-C ) :   1.2708 B( 29-C , 30-C ) :   1.2902 B( 29-C , 42-C ) :   0.1215
B( 29-C , 43-S ) :   1.1437 B( 30-C , 31-C ) :   1.1997 B( 30-C , 41-N ) :   1.4405
B( 31-C , 32-N ) :   1.4560 B( 31-C , 42-C ) :   1.2788 B( 32-N , 33-C ) :   1.6943
B( 33-C , 34-C ) :   0.8894 B( 33-C , 40-C ) :   1.1208 B( 34-C , 35-O ) :   2.2603
B( 34-C , 36-C ) :   1.0207 B( 36-C , 37-C ) :   1.6810 B( 36-C , 83-H ) :   0.9970
B( 37-C , 38-C ) :   1.0221 B( 37-C , 84-H ) :   0.9977 B( 38-C , 39-O ) :   2.2527
B( 38-C , 40-C ) :   0.8936 B( 40-C , 41-N ) :   1.6873 B( 42-C , 43-S ) :   1.1666
B( 42-C , 44-C ) :   1.3137 B( 44-C , 45-C ) :   1.3048 B( 44-C , 51-C ) :   0.1014
B( 44-C , 52-S ) :   1.1267 B( 45-C , 46-C ) :   1.3080 B( 45-C , 49-N ) :   1.2863
B( 46-C , 47-S ) :   1.0869 B( 46-C , 51-C ) :   1.3771 B( 47-S , 48-C ) :   1.0652
B( 48-C , 49-N ) :   1.7943 B( 48-C , 50-C ) :   1.0686 B( 50-C , 85-H ) :   0.9442
B( 50-C , 86-H ) :   0.9439 B( 50-C , 87-H ) :   0.9493 B( 51-C , 52-S ) :   1.0575
B( 51-C , 53-C ) :   1.2991 B( 53-C , 54-C ) :   1.4934 B( 53-C , 88-H ) :   0.9393
B( 54-C , 55-C ) :   1.0860 B( 54-C , 71-C ) :   0.9814 B( 55-C , 56-C ) :   1.6101
B( 55-C , 61-C ) :   0.9811 B( 56-C , 57-C ) :   1.1492 B( 56-C , 59-C ) :   1.1504
B( 57-C , 58-N ) :   2.9603 B( 59-C , 60-N ) :   2.9534 B( 61-C , 62-C ) :   1.2161
B( 61-C , 70-C ) :   1.4559 B( 62-C , 63-C ) :   1.4760 B( 62-C , 71-C ) :   0.9574
B( 63-C , 64-C ) :   1.1691 B( 63-C , 89-H ) :   1.0171 B( 64-C , 65-C ) :   1.2461
B( 64-C , 69-C ) :   1.2609 B( 65-C , 66-C ) :   1.4850 B( 65-C , 90-H ) :   0.9975
B( 66-C , 67-C ) :   1.2626 B( 66-C , 91-H ) :   0.9890 B( 67-C , 68-C ) :   1.4862
B( 67-C , 92-H ) :   0.9884 B( 68-C , 69-C ) :   1.2420 B( 68-C , 93-H ) :   0.9971
B( 69-C , 70-C ) :   1.1999 B( 70-C , 94-H ) :   0.9895 B( 71-C , 72-O ) :   2.1167

-----------------------------------------------------------------------------
         ABSORPTION SPECTRUM VIA TRANSITION ELECTRIC DIPOLE MOMENTS
-----------------------------------------------------------------------------
State   Energy  Wavelength   fosc         T2         TX        TY        TZ
        (cm-1)    (nm)                  (au**2)     (au)      (au)      (au)
-----------------------------------------------------------------------------
   0   10798.0    926.1   1.199828909  36.58067  -4.23933  -0.62627  -4.26808
   1   16450.0    607.9   0.068865567   1.37820  -0.55899   0.85851   0.57332
   2   19586.1    510.6   0.680732903  11.44208   2.69924   0.18556   2.03021
   3   20514.9    487.4   0.016528074   0.26523   0.18706  -0.28002  -0.38966
   4   21002.7    476.1   0.027146782   0.42552   0.45022  -0.44206   0.16556
   5   22495.1    444.5   0.018890714   0.27646   0.10895  -0.23429   0.45793
   6   23675.9    422.4   0.001782415   0.02478   0.08308   0.06353  -0.11766
   7   24239.4    412.6   0.010931415   0.14847   0.35037  -0.14530  -0.06780
   8   25054.0    399.1   0.008611515   0.11316  -0.30596  -0.09042  -0.10662
   9   25512.3    392.0   0.028240465   0.36442  -0.29658   0.51297   0.11541
  10   25541.5    391.5   0.006211033   0.08006   0.15355  -0.23616   0.02662
  11   25725.9    388.7   0.050535583   0.64670   0.71647  -0.34543  -0.11853
  12   25911.4    385.9   0.027769239   0.35282   0.48909  -0.33552   0.03209
  13   26250.2    380.9   0.004764440   0.05975   0.21140   0.06618  -0.10336
  14   26760.4    373.7   0.011562636   0.14225   0.24916  -0.25203   0.12902
  15   27006.4    370.3   0.053851579   0.65646   0.76073  -0.16707  -0.22326
  16   27771.6    360.1   0.183207862   2.17180  -0.40357  -0.16610  -1.40760
  17   27889.3    358.6   0.007610762   0.08984  -0.12461   0.07352  -0.26250
  18   28204.3    354.6   0.034074449   0.39773  -0.25709   0.37574   0.43641
  19   29335.1    340.9   0.186759420   2.09590   0.93013  -0.07932   1.10655
  20   30160.9    331.6   0.015815821   0.17263   0.07880  -0.22963   0.33718
  21   30220.5    330.9   0.014277129   0.15553  -0.03414   0.26193  -0.29284
  22   30437.4    328.5   0.038555711   0.41702  -0.23463  -0.17481   0.57568
  23   30974.8    322.8   0.009435131   0.10028   0.20079  -0.09813  -0.22435
  24   31368.1    318.8   0.273032476   2.86551  -1.12737   1.03332   0.72581
  25   31410.4    318.4   0.185897288   1.94839   1.08179  -0.53741   0.69951
  26   31807.6    314.4   0.086478310   0.89506   0.69597  -0.30252  -0.56494
  27   32040.8    312.1   0.118045815   1.21289   0.99579  -0.33440   0.33085
  28   32240.0    310.2   0.012229146   0.12488  -0.16577   0.31085   0.02774
  29   32458.7    308.1   0.131370540   1.33243  -0.16074  -0.24921  -1.11556
  30   32816.4    304.7   0.009010903   0.09040   0.21543  -0.20967   0.00528
  31   32898.0    304.0   0.026875346   0.26894   0.44486  -0.22200  -0.14750
  32   32998.5    303.0   0.078638424   0.78454  -0.44209   0.58743   0.49399
  33   33215.5    301.1   0.008859511   0.08781   0.11269  -0.11767   0.24752
  34   33302.8    300.3   0.056336241   0.55691   0.52824  -0.45658   0.26344
  35   33435.2    299.1   0.144098671   1.41883  -0.73903   0.89683   0.26147
  36   33751.7    296.3   0.077998789   0.76079  -0.66489   0.56437  -0.01422
  37   33814.5    295.7   0.040009532   0.38953   0.19376  -0.11160   0.58269
  38   33932.1    294.7   0.064002309   0.62096   0.56360  -0.43348  -0.33972
  39   34125.0    293.0   0.049801835   0.48045  -0.40564   0.04095   0.56056
  40   34196.6    292.4   0.028429006   0.27369   0.29011  -0.04907   0.43257
  41   34319.0    291.4   0.115186240   1.10495   0.37449  -0.09647   0.97744
  42   34801.1    287.3   0.018856468   0.17838  -0.12565   0.18395   0.35882
  43   35077.1    285.1   0.136954113   1.28537   0.71545  -0.34101   0.81068
  44   35384.9    282.6   0.056080060   0.52175  -0.32046   0.36630  -0.53375
  45   35585.6    281.0   0.123737438   1.14473   0.67663  -0.34039  -0.75567
  46   35962.6    278.1   0.062861490   0.57545   0.51545  -0.55619  -0.02050
  47   36182.4    276.4   0.114456726   1.04140  -0.72008   0.55249   0.46652
  48   36383.2    274.9   0.141335112   1.27887   0.26438   0.18619   1.08365
  49   36622.5    273.1   0.234592275   2.10883   0.73839  -0.74554  -1.00388
  50   36733.8    272.2   0.044171107   0.39587   0.32788  -0.08496   0.53023
  51   36922.4    270.8   0.038813882   0.34608   0.11438   0.17437   0.55008
  52   36987.9    270.4   0.121141273   1.07822  -0.40314   0.38700   0.87517
  53   37149.6    269.2   0.033759696   0.29917  -0.11891   0.44668  -0.29243
  54   37266.6    268.3   0.039364762   0.34775   0.49378  -0.29677  -0.12591
  55   37409.5    267.3   0.303007222   2.66653   0.94508  -0.91475  -0.96777
  56   37607.7    265.9   0.101089978   0.88493   0.77466  -0.46504   0.26186
  57   37684.1    265.4   0.173561852   1.51625   0.90745  -0.78912  -0.26471
  58   38129.6    262.3   0.035934772   0.31026   0.49349  -0.25557  -0.03760
  59   38420.7    260.3   0.005119389   0.04387   0.20943  -0.00175  -0.00189
  60   38925.1    256.9   0.001754302   0.01484   0.04108   0.07862   0.08348
  61   39055.9    256.0   0.172725721   1.45595  -1.01309   0.00402  -0.65543
  62   39202.1    255.1   0.005823085   0.04890   0.21485  -0.04676  -0.02355
  63   39323.1    254.3   0.023631932   0.19785  -0.33157   0.26530   0.13239
  64   39401.0    253.8   0.009813561   0.08200   0.07221  -0.17835  -0.21207
  65   39720.9    251.8   0.063417290   0.52561  -0.63673   0.09262  -0.33408
  66   39937.7    250.4   0.009736291   0.08026  -0.05407   0.20449   0.18846
  67   40105.1    249.3   0.127379710   1.04563   0.69090  -0.34877   0.66831
  68   40322.9    248.0   0.075926101   0.61989   0.48647  -0.57801  -0.22168

FINAL SINGLE POINT ENERGY     -4872.776294025094

DIPOLE MOMENT
-------------
                                X             Y             Z
Electronic contribution:      8.83536      -8.08304      13.96613
Nuclear contribution   :     -8.45071       9.15052     -15.91910
                        -----------------------------------------
Total Dipole Moment    :      0.38465       1.06748      -1.95298
                        -----------------------------------------
Magnitude (a.u.)       :      2.25867
Magnitude (Debye)      :      5.74108

Rotational constants in cm-1:     0.002082     0.000304     0.000271
Rotational constants in MHz :    62.417733     9.122133     8.110254

                             ****ORCA TERMINATED NORMALLY****
TOTAL RUN TIME: 0 days 0 hours 19 minutes 24 seconds 964 msec
