                         Program Version 4.2.0 -  RELEASE  -
|  1> # ORCA input file
|  2> # SCF done       -187.945950096993          0.000701180478
|  3> ! CAM-B3LYP def2-SVP def2/J RIJCOSX Grid4 TightSCF
|  4> %maxcore 5000
|  5> %tddft
|  6>     Mode sTDDFT
|  7>     Ethresh 5.0
|  8>     maxcore 5000
|  9> end
| 10>
| 11> %pal
| 12>   nprocs 6
| 13>   end
| 14> * xyz 0 1
| 15>    C       -3.38249        -0.97482         1.08425
| 16>    C       -4.23757        -1.98685         0.73453
| 17>    C       -3.97667        -3.35431         0.95855
| 18>    N       -3.81400        -4.48082         1.10919
| 19>    C       -5.50796        -1.79521         0.15108
| 20>    N       -6.56174        -1.71589        -0.29793
| 21>    C       -2.12121        -1.12496         1.79711
| 22>    C       -1.62484         0.16437         2.11618
| 23>    C       -0.44594         0.35311         2.79580
| 24>    C        0.27725        -0.78101         3.17916
| 25>    C       -0.22424        -2.06313         2.85130
| 26>    C       -1.41709        -2.25567         2.16401
| 27>    S        0.83725        -3.31590         3.41366
| 28>    C        1.91910        -2.13784         4.07120
| 29>    C        1.51219        -0.86347         3.88221
| 30>    C       -2.54516         1.18898         1.59310
| 31>    O       -2.40407         2.39401         1.65785
| 32>    C       -3.61901         0.44385         0.89890
| 33>    C       -4.52513         0.99832         0.03912
| 34>    C       -4.82598         2.36943        -0.11643
| 35>    C       -4.93194         3.39522         0.81553
| 36>    C       -5.19611         4.65092         0.22886
| 37>    O       -5.43137         5.80892         0.87594
| 38>    C       -5.62119         5.75620         2.27462
| 39>    C       -4.59424         4.88918         2.98003
| 40>    S       -4.87847         3.14571         2.54119
| 41>    C       -5.26586         4.59238        -1.16555
| 42>    S       -5.18120         2.95287        -1.72425
| 43>    C       -5.38089         5.66085        -2.10297
| 44>    C       -5.91177         5.42985        -3.39228
| 45>    C       -6.05726         6.46739        -4.37064
| 46>    N       -6.63218         6.17478        -5.55235
| 47>    C       -7.01841         4.96736        -5.80470
| 48>    C       -6.84046         3.93158        -4.84877
| 49>    N       -6.31376         4.17889        -3.69496
| 50>    F       -7.21649         2.68553        -5.11062
| 51>    F       -7.59188         4.72698        -6.97771
| 52>    C       -5.59799         7.78825        -4.15231
| 53>    C       -5.07835         8.02460        -2.86170
| 54>    C       -4.95683         6.98507        -1.85864
| 55>    N       -4.38910         7.44916        -0.74612
| 56>    S       -4.09779         9.01211        -0.90386
| 57>    N       -4.64882         9.19703        -2.40047
| 58>    C       -5.66076         8.76907        -5.18455
| 59>    C       -4.95058         9.96426        -5.33099
| 60>    C       -5.27918        10.65731        -6.51507
| 61>    O       -4.82253        11.85899        -6.92233
| 62>    C       -3.90038        12.53866        -6.09264
| 63>    C       -2.85233        11.59620        -5.53701
| 64>    S       -3.64956        10.51388        -4.29631
| 65>    C       -6.23402         9.99609        -7.29211
| 66>    S       -6.72360         8.51072        -6.52994
| 67>    C       -6.83709        10.36821        -8.50913
| 68>    C       -6.45107        11.25595        -9.47309
| 69>    C       -5.21233        11.92989        -9.75813
| 70>    C       -3.95237        11.50326        -9.41394
| 71>    C       -2.77085        12.22406        -9.66890
| 72>    N       -1.77753        12.78898        -9.78854
| 73>    C       -3.68548        10.27218        -8.78959
| 74>    N       -3.41126         9.27752        -8.28441
| 75>    C       -5.50632        13.03113       -10.66921
| 76>    C       -6.85322        12.91711       -11.09917
| 77>    C       -7.48015        11.76393       -10.42565
| 78>    O       -8.60210        11.33659       -10.57428
| 79>    C       -7.41284        13.78645       -12.00371
| 80>    C       -6.61136        14.82033       -12.49942
| 81>    C       -5.27251        14.93110       -12.05522
| 82>    C       -4.70209        14.04667       -11.14636
| 83>    S       -4.47422        16.28267       -12.79520
| 84>    C       -5.90804        16.67705       -13.67909
| 85>    C       -6.94110        15.84205       -13.43464
| 86>    H       -0.09192         1.34626         3.02528
| 87>    H       -1.75530        -3.25164         1.93109
| 88>    H        2.80805        -2.47832         4.56585
| 89>    H        2.05712        -0.00113         4.22162
| 90>    H       -5.00469         0.34932        -0.68455
| 91>    H       -6.63180         5.38686         2.49932
| 92>    H       -5.54052         6.79655         2.60192
| 93>    H       -4.69473         4.96131         4.06029
| 94>    H       -3.58055         5.14835         2.67480
| 95>    H       -4.43377        13.03339        -5.27019
| 96>    H       -3.45052        13.30021        -6.73690
| 97>    H       -2.07258        12.13952        -5.01019
| 98>    H       -2.41648        10.98308        -6.32561
| 99>    H       -7.80478         9.90816        -8.69195
|100>    H       -8.43730        13.67102       -12.32198
|101>    H       -3.67746        14.17096       -10.83640
|102>    H       -5.88659        17.52385       -14.33719
|103>    H       -7.90936        15.93229       -13.89275
|104> *
|105>
|106>                          ****END OF INPUT****

CARTESIAN COORDINATES (ANGSTROEM)
---------------------------------
  C     -3.382490   -0.974820    1.084250
  C     -4.237570   -1.986850    0.734530
  C     -3.976670   -3.354310    0.958550
  N     -3.814000   -4.480820    1.109190
  C     -5.507960   -1.795210    0.151080
  N     -6.561740   -1.715890   -0.297930
  C     -2.121210   -1.124960    1.797110
  C     -1.624840    0.164370    2.116180
  C     -0.445940    0.353110    2.795800
  C      0.277250   -0.781010    3.179160
  C     -0.224240   -2.063130    2.851300
  C     -1.417090   -2.255670    2.164010
  S      0.837250   -3.315900    3.413660
  C      1.919100   -2.137840    4.071200
  C      1.512190   -0.863470    3.882210
  C     -2.545160    1.188980    1.593100
  O     -2.404070    2.394010    1.657850
  C     -3.619010    0.443850    0.898900
  C     -4.525130    0.998320    0.039120
  C     -4.825980    2.369430   -0.116430
  C     -4.931940    3.395220    0.815530
  C     -5.196110    4.650920    0.228860
  O     -5.431370    5.808920    0.875940
  C     -5.621190    5.756200    2.274620
  C     -4.594240    4.889180    2.980030
  S     -4.878470    3.145710    2.541190
  C     -5.265860    4.592380   -1.165550
  S     -5.181200    2.952870   -1.724250
  C     -5.380890    5.660850   -2.102970
  C     -5.911770    5.429850   -3.392280
  C     -6.057260    6.467390   -4.370640
  N     -6.632180    6.174780   -5.552350
  C     -7.018410    4.967360   -5.804700
  C     -6.840460    3.931580   -4.848770
  N     -6.313760    4.178890   -3.694960
  F     -7.216490    2.685530   -5.110620
  F     -7.591880    4.726980   -6.977710
  C     -5.597990    7.788250   -4.152310
  C     -5.078350    8.024600   -2.861700
  C     -4.956830    6.985070   -1.858640
  N     -4.389100    7.449160   -0.746120
  S     -4.097790    9.012110   -0.903860
  N     -4.648820    9.197030   -2.400470
  C     -5.660760    8.769070   -5.184550
  C     -4.950580    9.964260   -5.330990
  C     -5.279180   10.657310   -6.515070
  O     -4.822530   11.858990   -6.922330
  C     -3.900380   12.538660   -6.092640
  C     -2.852330   11.596200   -5.537010
  S     -3.649560   10.513880   -4.296310
  C     -6.234020    9.996090   -7.292110
  S     -6.723600    8.510720   -6.529940
  C     -6.837090   10.368210   -8.509130
  C     -6.451070   11.255950   -9.473090
  C     -5.212330   11.929890   -9.758130
  C     -3.952370   11.503260   -9.413940
  C     -2.770850   12.224060   -9.668900
  N     -1.777530   12.788980   -9.788540
  C     -3.685480   10.272180   -8.789590
  N     -3.411260    9.277520   -8.284410
  C     -5.506320   13.031130  -10.669210
  C     -6.853220   12.917110  -11.099170
  C     -7.480150   11.763930  -10.425650
  O     -8.602100   11.336590  -10.574280
  C     -7.412840   13.786450  -12.003710
  C     -6.611360   14.820330  -12.499420
  C     -5.272510   14.931100  -12.055220
  C     -4.702090   14.046670  -11.146360
  S     -4.474220   16.282670  -12.795200
  C     -5.908040   16.677050  -13.679090
  C     -6.941100   15.842050  -13.434640
  H     -0.091920    1.346260    3.025280
  H     -1.755300   -3.251640    1.931090
  H      2.808050   -2.478320    4.565850
  H      2.057120   -0.001130    4.221620
  H     -5.004690    0.349320   -0.684550
  H     -6.631800    5.386860    2.499320
  H     -5.540520    6.796550    2.601920
  H     -4.694730    4.961310    4.060290
  H     -3.580550    5.148350    2.674800
  H     -4.433770   13.033390   -5.270190
  H     -3.450520   13.300210   -6.736900
  H     -2.072580   12.139520   -5.010190
  H     -2.416480   10.983080   -6.325610
  H     -7.804780    9.908160   -8.691950
  H     -8.437300   13.671020  -12.321980
  H     -3.677460   14.170960  -10.836400
  H     -5.886590   17.523850  -14.337190
  H     -7.909360   15.932290  -13.892750

 Total Charge           Charge          ....    0
 Multiplicity           Mult            ....    1
 Number of Electrons    NEL             ....  536
 Basis Dimension        Dim             .... 1112

ORBITAL ENERGIES
----------------

  NO   OCC          E(Eh)            E(eV)
   0   2.0000     -89.040913     -2422.9264
   1   2.0000     -88.962663     -2420.7971
   2   2.0000     -88.960698     -2420.7437
   3   2.0000     -88.959898     -2420.7219
   4   2.0000     -88.957519     -2420.6572
   5   2.0000     -88.936333     -2420.0807
   6   2.0000     -88.932924     -2419.9879
   7   2.0000     -24.817973      -675.3314
   8   2.0000     -24.817468      -675.3176
   9   2.0000     -19.270315      -524.3719
  10   2.0000     -19.257856      -524.0329
  11   2.0000     -19.208906      -522.7009
  12   2.0000     -19.204978      -522.5940
  13   2.0000     -14.458803      -393.4440
  14   2.0000     -14.458026      -393.4229
  15   2.0000     -14.448470      -393.1629
  16   2.0000     -14.445587      -393.0844
  17   2.0000     -14.409950      -392.1147
  18   2.0000     -14.409938      -392.1143
  19   2.0000     -14.408952      -392.0875
  20   2.0000     -14.406319      -392.0159
  21   2.0000     -10.435105      -283.9536
  22   2.0000     -10.434543      -283.9384
  23   2.0000     -10.357072      -281.8302
  24   2.0000     -10.355060      -281.7755
  25   2.0000     -10.354436      -281.7585
  26   2.0000     -10.352240      -281.6988
  27   2.0000     -10.348730      -281.6033
  28   2.0000     -10.347888      -281.5803
  29   2.0000     -10.341790      -281.4144
  30   2.0000     -10.341553      -281.4080
  31   2.0000     -10.339863      -281.3620
  32   2.0000     -10.339055      -281.3400
  33   2.0000     -10.336494      -281.2703
  34   2.0000     -10.334601      -281.2188
  35   2.0000     -10.329935      -281.0918
  36   2.0000     -10.326674      -281.0031
  37   2.0000     -10.323612      -280.9198
  38   2.0000     -10.319691      -280.8131
  39   2.0000     -10.319543      -280.8091
  40   2.0000     -10.317302      -280.7481
  41   2.0000     -10.315943      -280.7111
  42   2.0000     -10.315738      -280.7055
  43   2.0000     -10.315163      -280.6898
  44   2.0000     -10.314809      -280.6802
  45   2.0000     -10.313342      -280.6403
  46   2.0000     -10.313215      -280.6368
  47   2.0000     -10.312777      -280.6249
  48   2.0000     -10.311756      -280.5971
  49   2.0000     -10.311026      -280.5773
  50   2.0000     -10.310843      -280.5723
  51   2.0000     -10.309859      -280.5455
  52   2.0000     -10.309193      -280.5274
  53   2.0000     -10.308700      -280.5140
  54   2.0000     -10.307181      -280.4726
  55   2.0000     -10.301521      -280.3186
  56   2.0000     -10.300656      -280.2951
  57   2.0000     -10.298692      -280.2416
  58   2.0000     -10.297521      -280.2098
  59   2.0000     -10.297433      -280.2074
  60   2.0000     -10.296551      -280.1834
  61   2.0000     -10.294391      -280.1246
  62   2.0000     -10.293824      -280.1092
  63   2.0000     -10.293517      -280.1008
  64   2.0000     -10.293328      -280.0957
  65   2.0000     -10.291331      -280.0414
  66   2.0000     -10.285850      -279.8922
  67   2.0000     -10.285351      -279.8786
  68   2.0000     -10.285242      -279.8757
  69   2.0000     -10.282756      -279.8080
  70   2.0000     -10.281273      -279.7677
  71   2.0000      -8.132267      -221.2902
  72   2.0000      -8.059023      -219.2972
  73   2.0000      -8.056240      -219.2214
  74   2.0000      -8.055032      -219.1886
  75   2.0000      -8.051861      -219.1023
  76   2.0000      -8.031760      -218.5553
  77   2.0000      -8.027156      -218.4300
  78   2.0000      -6.103338      -166.0803
  79   2.0000      -6.095510      -165.8673
  80   2.0000      -6.095138      -165.8571
  81   2.0000      -6.028541      -164.0449
  82   2.0000      -6.025754      -163.9691
  83   2.0000      -6.024616      -163.9381
  84   2.0000      -6.024230      -163.9276
  85   2.0000      -6.021474      -163.8526
  86   2.0000      -6.021400      -163.8506
  87   2.0000      -6.020661      -163.8305
  88   2.0000      -6.020369      -163.8226
  89   2.0000      -6.017873      -163.7546
  90   2.0000      -6.017097      -163.7335
  91   2.0000      -6.016585      -163.7196
  92   2.0000      -6.013495      -163.6355
  93   2.0000      -6.002137      -163.3265
  94   2.0000      -5.998196      -163.2192
  95   2.0000      -5.997611      -163.2033
  96   2.0000      -5.993606      -163.0943
  97   2.0000      -5.991263      -163.0306
  98   2.0000      -5.986557      -162.9025
  99   2.0000      -1.346734       -36.6465
 100   2.0000      -1.332734       -36.2655
 101   2.0000      -1.178625       -32.0720
 102   2.0000      -1.170899       -31.8618
 103   2.0000      -1.139085       -30.9961
 104   2.0000      -1.122461       -30.5437
 105   2.0000      -1.119991       -30.4765
 106   2.0000      -1.119169       -30.4541
 107   2.0000      -1.045756       -28.4565
 108   2.0000      -1.014713       -27.6117
 109   2.0000      -1.011643       -27.5282
 110   2.0000      -1.003305       -27.3013
 111   2.0000      -1.002243       -27.2724
 112   2.0000      -1.000653       -27.2292
 113   2.0000      -0.999512       -27.1981
 114   2.0000      -0.988854       -26.9081
 115   2.0000      -0.987976       -26.8842
 116   2.0000      -0.985798       -26.8249
 117   2.0000      -0.979349       -26.6495
 118   2.0000      -0.975644       -26.5486
 119   2.0000      -0.968567       -26.3561
 120   2.0000      -0.928994       -25.2792
 121   2.0000      -0.926318       -25.2064
 122   2.0000      -0.923724       -25.1358
 123   2.0000      -0.915729       -24.9183
 124   2.0000      -0.903171       -24.5765
 125   2.0000      -0.895465       -24.3668
 126   2.0000      -0.887586       -24.1524
 127   2.0000      -0.887125       -24.1399
 128   2.0000      -0.876777       -23.8583
 129   2.0000      -0.873418       -23.7669
 130   2.0000      -0.871989       -23.7280
 131   2.0000      -0.866218       -23.5710
 132   2.0000      -0.862667       -23.4744
 133   2.0000      -0.852245       -23.1908
 134   2.0000      -0.827092       -22.5063
 135   2.0000      -0.818542       -22.2737
 136   2.0000      -0.815272       -22.1847
 137   2.0000      -0.812725       -22.1154
 138   2.0000      -0.807668       -21.9778
 139   2.0000      -0.782580       -21.2951
 140   2.0000      -0.779038       -21.1987
 141   2.0000      -0.771095       -20.9826
 142   2.0000      -0.767471       -20.8839
 143   2.0000      -0.761038       -20.7089
 144   2.0000      -0.757138       -20.6028
 145   2.0000      -0.751332       -20.4448
 146   2.0000      -0.746358       -20.3094
 147   2.0000      -0.737431       -20.0665
 148   2.0000      -0.728198       -19.8153
 149   2.0000      -0.720089       -19.5946
 150   2.0000      -0.700697       -19.0669
 151   2.0000      -0.689345       -18.7580
 152   2.0000      -0.685570       -18.6553
 153   2.0000      -0.683126       -18.5888
 154   2.0000      -0.682686       -18.5768
 155   2.0000      -0.679124       -18.4799
 156   2.0000      -0.675717       -18.3872
 157   2.0000      -0.668104       -18.1800
 158   2.0000      -0.666680       -18.1413
 159   2.0000      -0.657029       -17.8787
 160   2.0000      -0.654780       -17.8175
 161   2.0000      -0.653174       -17.7738
 162   2.0000      -0.641926       -17.4677
 163   2.0000      -0.635300       -17.2874
 164   2.0000      -0.633781       -17.2461
 165   2.0000      -0.628653       -17.1065
 166   2.0000      -0.621814       -16.9204
 167   2.0000      -0.617725       -16.8092
 168   2.0000      -0.614928       -16.7331
 169   2.0000      -0.611951       -16.6520
 170   2.0000      -0.610574       -16.6146
 171   2.0000      -0.608184       -16.5495
 172   2.0000      -0.596452       -16.2303
 173   2.0000      -0.589247       -16.0342
 174   2.0000      -0.587611       -15.9897
 175   2.0000      -0.578842       -15.7511
 176   2.0000      -0.575778       -15.6677
 177   2.0000      -0.573470       -15.6049
 178   2.0000      -0.571370       -15.5478
 179   2.0000      -0.568354       -15.4657
 180   2.0000      -0.565498       -15.3880
 181   2.0000      -0.561890       -15.2898
 182   2.0000      -0.557202       -15.1622
 183   2.0000      -0.549373       -14.9492
 184   2.0000      -0.544595       -14.8192
 185   2.0000      -0.539963       -14.6931
 186   2.0000      -0.538528       -14.6541
 187   2.0000      -0.534973       -14.5573
 188   2.0000      -0.534298       -14.5390
 189   2.0000      -0.531872       -14.4730
 190   2.0000      -0.528037       -14.3686
 191   2.0000      -0.526991       -14.3402
 192   2.0000      -0.526322       -14.3220
 193   2.0000      -0.522350       -14.2139
 194   2.0000      -0.520350       -14.1594
 195   2.0000      -0.517797       -14.0900
 196   2.0000      -0.515904       -14.0385
 197   2.0000      -0.514327       -13.9955
 198   2.0000      -0.511541       -13.9197
 199   2.0000      -0.509158       -13.8549
 200   2.0000      -0.505534       -13.7563
 201   2.0000      -0.502729       -13.6800
 202   2.0000      -0.498127       -13.5547
 203   2.0000      -0.495215       -13.4755
 204   2.0000      -0.493707       -13.4344
 205   2.0000      -0.492615       -13.4047
 206   2.0000      -0.491523       -13.3750
 207   2.0000      -0.489148       -13.3104
 208   2.0000      -0.488060       -13.2808
 209   2.0000      -0.483371       -13.1532
 210   2.0000      -0.482582       -13.1317
 211   2.0000      -0.481391       -13.0993
 212   2.0000      -0.478919       -13.0320
 213   2.0000      -0.471540       -12.8312
 214   2.0000      -0.467907       -12.7324
 215   2.0000      -0.466374       -12.6907
 216   2.0000      -0.463416       -12.6102
 217   2.0000      -0.459104       -12.4928
 218   2.0000      -0.456824       -12.4308
 219   2.0000      -0.450271       -12.2525
 220   2.0000      -0.449115       -12.2210
 221   2.0000      -0.447222       -12.1695
 222   2.0000      -0.446576       -12.1520
 223   2.0000      -0.442869       -12.0511
 224   2.0000      -0.442763       -12.0482
 225   2.0000      -0.441755       -12.0208
 226   2.0000      -0.437789       -11.9128
 227   2.0000      -0.435975       -11.8635
 228   2.0000      -0.433453       -11.7949
 229   2.0000      -0.430038       -11.7019
 230   2.0000      -0.428337       -11.6556
 231   2.0000      -0.427653       -11.6370
 232   2.0000      -0.425214       -11.5707
 233   2.0000      -0.424045       -11.5388
 234   2.0000      -0.423148       -11.5144
 235   2.0000      -0.420212       -11.4346
 236   2.0000      -0.418567       -11.3898
 237   2.0000      -0.416877       -11.3438
 238   2.0000      -0.414990       -11.2925
 239   2.0000      -0.413131       -11.2419
 240   2.0000      -0.406835       -11.0705
 241   2.0000      -0.405570       -11.0361
 242   2.0000      -0.402794       -10.9606
 243   2.0000      -0.399733       -10.8773
 244   2.0000      -0.396273       -10.7831
 245   2.0000      -0.394366       -10.7312
 246   2.0000      -0.385623       -10.4933
 247   2.0000      -0.382537       -10.4094
 248   2.0000      -0.373871       -10.1736
 249   2.0000      -0.370662       -10.0862
 250   2.0000      -0.364117        -9.9081
 251   2.0000      -0.360608        -9.8127
 252   2.0000      -0.355347        -9.6695
 253   2.0000      -0.347590        -9.4584
 254   2.0000      -0.344330        -9.3697
 255   2.0000      -0.342429        -9.3180
 256   2.0000      -0.336653        -9.1608
 257   2.0000      -0.326875        -8.8947
 258   2.0000      -0.322896        -8.7864
 259   2.0000      -0.315655        -8.5894
 260   2.0000      -0.308568        -8.3966
 261   2.0000      -0.304720        -8.2918
 262   2.0000      -0.291699        -7.9375
 263   2.0000      -0.287481        -7.8228
 264   2.0000      -0.282129        -7.6771
 265   2.0000      -0.273896        -7.4531
 266   2.0000      -0.270503        -7.3607
 267   2.0000      -0.240849        -6.5538
 268   0.0000      -0.118124        -3.2143
 269   0.0000      -0.079585        -2.1656
 270   0.0000      -0.070427        -1.9164
 271   0.0000      -0.051024        -1.3884
 272   0.0000      -0.047031        -1.2798

MULLIKEN ATOMIC CHARGES
-----------------------
   0 C :    0.290840
   1 C :   -0.336572
   2 C :   -0.184419
   3 N :    0.145219
   4 C :   -0.206317
   5 N :    0.162773
   6 C :    0.017345
   7 C :   -0.011651
   8 C :   -0.075760
   9 C :    0.117100
  10 C :   -0.092059
  11 C :   -0.029108
  12 S :    0.138112
  13 C :   -0.050668
  14 C :    0.024159
  15 C :    0.146077
  16 O :   -0.149639
  17 C :   -0.091157
  18 C :   -0.002037
  19 C :   -0.139106
  20 C :   -0.014871
  21 C :    0.204740
  22 O :   -0.278857
  23 C :    0.235142
  24 C :   -0.109663
  25 S :    0.052518
  26 C :   -0.248193
  27 S :    0.191130
  28 C :    0.168909
  29 C :   -0.058608
  30 C :   -0.051653
  31 N :   -0.029486
  32 C :    0.149400
  33 C :    0.145805
  34 N :   -0.024467
  35 F :   -0.132103
  36 F :   -0.132057
  37 C :    0.162259
  38 C :   -0.000600
  39 C :   -0.021907
  40 N :   -0.253913
  41 S :    0.537388
  42 N :   -0.313886
  43 C :   -0.224018
  44 C :   -0.011707
  45 C :    0.169685
  46 O :   -0.292611
  47 C :    0.231745
  48 C :   -0.106660
  49 S :    0.041368
  50 C :   -0.125354
  51 S :    0.187681
  52 C :    0.063468
  53 C :   -0.125440
  54 C :    0.305957
  55 C :   -0.339482
  56 C :   -0.191091
  57 N :    0.136359
  58 C :   -0.197487
  59 N :    0.153971
  60 C :    0.009725
  61 C :   -0.002604
  62 C :    0.129593
  63 O :   -0.146864
  64 C :   -0.066617
  65 C :    0.106085
  66 C :   -0.092029
  67 C :   -0.033580
  68 S :    0.132330
  69 C :   -0.052939
  70 C :    0.026719
  71 H :   -0.018549
  72 H :   -0.007415
  73 H :    0.037016
  74 H :   -0.009626
  75 H :    0.033590
  76 H :    0.031549
  77 H :    0.024843
  78 H :    0.062186
  79 H :    0.079751
  80 H :    0.033037
  81 H :    0.039378
  82 H :    0.054848
  83 H :    0.079962
  84 H :    0.020402
  85 H :   -0.013825
  86 H :   -0.010631
  87 H :    0.036325
  88 H :   -0.009202
Sum of atomic charges:   -0.0000000

LOEWDIN ATOMIC CHARGES
----------------------
   0 C :    0.075414
   1 C :   -0.140422
   2 C :   -0.017975
   3 N :   -0.055286
   4 C :   -0.025929
   5 N :   -0.050768
   6 C :   -0.023638
   7 C :   -0.049288
   8 C :    0.018413
   9 C :   -0.035416
  10 C :   -0.147506
  11 C :   -0.009023
  12 S :    0.427425
  13 C :   -0.151107
  14 C :   -0.059051
  15 C :    0.070244
  16 O :   -0.149759
  17 C :   -0.094648
  18 C :    0.041644
  19 C :   -0.198061
  20 C :   -0.190953
  21 C :    0.016243
  22 O :   -0.075052
  23 C :    0.071239
  24 C :   -0.137896
  25 S :    0.342249
  26 C :   -0.183919
  27 S :    0.486904
  28 C :   -0.037264
  29 C :   -0.012421
  30 C :   -0.010421
  31 N :   -0.051684
  32 C :    0.064804
  33 C :    0.062551
  34 N :   -0.051313
  35 F :   -0.021884
  36 F :   -0.021769
  37 C :   -0.046100
  38 C :   -0.039954
  39 C :   -0.042974
  40 N :   -0.266289
  41 S :    0.669391
  42 N :   -0.293694
  43 C :   -0.166050
  44 C :   -0.201399
  45 C :    0.022780
  46 O :   -0.062423
  47 C :    0.071802
  48 C :   -0.155965
  49 S :    0.339572
  50 C :   -0.209919
  51 S :    0.496334
  52 C :    0.045631
  53 C :   -0.093236
  54 C :    0.067788
  55 C :   -0.144986
  56 C :   -0.021434
  57 N :   -0.067685
  58 C :   -0.017064
  59 N :   -0.063072
  60 C :   -0.016154
  61 C :   -0.056887
  62 C :    0.083693
  63 O :   -0.146193
  64 C :    0.023111
  65 C :   -0.039837
  66 C :   -0.145378
  67 C :   -0.018630
  68 S :    0.422812
  69 C :   -0.154422
  70 C :   -0.057605
  71 H :    0.037858
  72 H :    0.040298
  73 H :    0.028689
  74 H :    0.034151
  75 H :    0.046369
  76 H :    0.019264
  77 H :    0.027824
  78 H :    0.037197
  79 H :    0.035516
  80 H :    0.019713
  81 H :    0.030155
  82 H :    0.034901
  83 H :    0.032369
  84 H :    0.045215
  85 H :    0.039548
  86 H :    0.038333
  87 H :    0.027991
  88 H :    0.034370

  Mayer bond orders larger than 0.100000
B(  0-C ,  1-C ) :   1.6435 B(  0-C ,  6-C ) :   1.0074 B(  0-C , 17-C ) :   1.0629
B(  1-C ,  2-C ) :   1.1373 B(  1-C ,  4-C ) :   1.1396 B(  2-C ,  3-N ) :   2.9738
B(  4-C ,  5-N ) :   3.0008 B(  6-C ,  7-C ) :   1.2677 B(  6-C , 11-C ) :   1.4101
B(  7-C ,  8-C ) :   1.4284 B(  7-C , 15-C ) :   0.9417 B(  8-C ,  9-C ) :   1.2410
B(  8-C , 71-H ) :   1.0175 B(  9-C , 10-C ) :   1.3062 B(  9-C , 14-C ) :   1.1710
B( 10-C , 11-C ) :   1.3203 B( 10-C , 12-S ) :   1.0956 B( 11-C , 72-H ) :   0.9848
B( 12-S , 13-C ) :   1.1279 B( 13-C , 14-C ) :   1.6272 B( 13-C , 73-H ) :   0.9689
B( 14-C , 74-H ) :   0.9997 B( 15-C , 16-O ) :   2.1990 B( 15-C , 17-C ) :   0.9596
B( 17-C , 18-C ) :   1.6019 B( 18-C , 19-C ) :   1.1827 B( 18-C , 75-H ) :   0.9316
B( 19-C , 20-C ) :   1.4836 B( 19-C , 26-C ) :   0.1146 B( 19-C , 27-S ) :   1.0724
B( 20-C , 21-C ) :   1.2452 B( 20-C , 25-S ) :   1.0284 B( 21-C , 22-O ) :   1.1926
B( 21-C , 26-C ) :   1.4528 B( 22-O , 23-C ) :   0.9570 B( 23-C , 24-C ) :   1.0367
B( 23-C , 76-H ) :   0.9512 B( 23-C , 77-H ) :   0.9487 B( 24-C , 25-S ) :   1.0178
B( 24-C , 78-H ) :   0.9488 B( 24-C , 79-H ) :   0.9402 B( 26-C , 27-S ) :   1.1355
B( 26-C , 28-C ) :   1.1126 B( 28-C , 29-C ) :   1.2978 B( 28-C , 37-C ) :   0.1226
B( 28-C , 39-C ) :   1.2194 B( 29-C , 30-C ) :   1.1401 B( 29-C , 34-N ) :   1.3889
B( 30-C , 31-N ) :   1.3805 B( 30-C , 37-C ) :   1.2948 B( 31-N , 32-C ) :   1.6594
B( 32-C , 33-C ) :   1.1065 B( 32-C , 36-F ) :   1.1890 B( 33-C , 34-N ) :   1.6626
B( 33-C , 35-F ) :   1.1889 B( 37-C , 38-C ) :   1.2047 B( 37-C , 43-C ) :   1.1435
B( 38-C , 39-C ) :   1.0981 B( 38-C , 42-N ) :   1.4698 B( 39-C , 40-N ) :   1.5231
B( 40-N , 41-S ) :   1.2981 B( 40-N , 42-N ) :   0.1523 B( 41-S , 42-N ) :   1.2630
B( 43-C , 44-C ) :   1.4931 B( 43-C , 50-C ) :   0.1051 B( 43-C , 51-S ) :   1.1515
B( 44-C , 45-C ) :   1.2613 B( 44-C , 49-S ) :   1.0104 B( 45-C , 46-O ) :   1.1836
B( 45-C , 50-C ) :   1.4274 B( 46-O , 47-C ) :   0.9229 B( 47-C , 48-C ) :   1.0409
B( 47-C , 80-H ) :   0.9531 B( 47-C , 81-H ) :   0.9485 B( 48-C , 49-S ) :   0.9755
B( 48-C , 82-H ) :   0.9473 B( 48-C , 83-H ) :   0.9368 B( 50-C , 51-S ) :   1.0587
B( 50-C , 52-C ) :   1.1715 B( 52-C , 53-C ) :   1.6115 B( 52-C , 84-H ) :   0.9251
B( 53-C , 54-C ) :   1.0815 B( 53-C , 62-C ) :   0.9435 B( 54-C , 55-C ) :   1.5969
B( 54-C , 60-C ) :   1.0138 B( 55-C , 56-C ) :   1.1427 B( 55-C , 58-C ) :   1.1907
B( 56-C , 57-N ) :   2.9667 B( 58-C , 59-N ) :   2.9430 B( 60-C , 61-C ) :   1.2680
B( 60-C , 67-C ) :   1.4225 B( 61-C , 62-C ) :   0.9225 B( 61-C , 64-C ) :   1.4309
B( 62-C , 63-O ) :   2.2619 B( 64-C , 65-C ) :   1.2491 B( 64-C , 85-H ) :   1.0150
B( 65-C , 66-C ) :   1.3109 B( 65-C , 70-C ) :   1.1698 B( 66-C , 67-C ) :   1.3139
B( 66-C , 68-S ) :   1.0967 B( 67-C , 86-H ) :   0.9840 B( 68-S , 69-C ) :   1.1223
B( 69-C , 70-C ) :   1.6335 B( 69-C , 87-H ) :   0.9685 B( 70-C , 88-H ) :   0.9986

-----------------------------------------------------------------------------
         ABSORPTION SPECTRUM VIA TRANSITION ELECTRIC DIPOLE MOMENTS
-----------------------------------------------------------------------------
State   Energy  Wavelength   fosc         T2         TX        TY        TZ
        (cm-1)    (nm)                  (au**2)     (au)      (au)      (au)
-----------------------------------------------------------------------------
   0   10914.6    916.2   0.905553149  27.31384   0.40039  -3.91122   3.44324
   1   16821.5    594.5   0.030798302   0.60275  -0.15975   0.59683   0.47014
   2   16944.2    590.2   0.080170796   1.55765   0.72457  -0.46368   0.90424
   3   19970.0    500.8   0.061702224   1.01718  -0.70204   0.57593   0.43889
   4   20720.8    482.6   0.492311954   7.82187  -0.56994   2.38433  -1.34610
   5   21481.1    465.5   0.171622548   2.63023   0.62242   0.55363  -1.39152
   6   23597.7    423.8   0.028669772   0.39997   0.03492   0.14973  -0.61346
   7   24546.7    407.4   0.014957997   0.20061   0.16603  -0.33469   0.24704
   8   25395.4    393.8   0.070817834   0.91805   0.25902   0.59635  -0.70379
   9   25699.9    389.1   0.056430729   0.72287   0.03900   0.05270   0.84769
  10   26294.1    380.3   0.055774476   0.69832   0.60505  -0.33024   0.47241
  11   26495.8    377.4   0.118323752   1.47018  -1.01507   0.41029  -0.52104
  12   27039.0    369.8   0.030515001   0.37153   0.43041  -0.25996   0.34453
  13   27498.1    363.7   0.095075479   1.13826   0.27902  -0.39582   0.95065
  14   27570.7    362.7   0.012767096   0.15245  -0.33452  -0.17282   0.10333
  15   28014.9    357.0   0.183398984   2.15518  -0.35104   0.98804  -1.02749
  16   28465.7    351.3   0.020728929   0.23973  -0.21229   0.30088   0.32271
  17   28574.9    350.0   0.027388335   0.31554   0.15415   0.41177   0.34960
  18   29137.3    343.2   0.013215943   0.14932   0.12566  -0.21030  -0.29884
  19   29492.9    339.1   0.012424618   0.13869   0.08138   0.31036   0.18906
  20   29926.4    334.2   0.101710016   1.11888  -0.04854  -0.96811  -0.42342
  21   30083.9    332.4   0.009105494   0.09964   0.14138   0.08289   0.26979
  22   30629.2    326.5   0.044554002   0.47888  -0.30579  -0.35607  -0.50852
  23   31082.0    321.7   0.232057787   2.45789  -0.94867   0.87145  -0.89359
  24   31344.3    319.0   0.220352653   2.31438  -1.00022  -1.13984  -0.12124
  25   31565.6    316.8   0.400041239   4.17221  -1.45278   1.12943  -0.88657
  26   31847.0    314.0   0.010511203   0.10866   0.14122   0.27192  -0.12156
  27   31966.0    312.8   0.023460726   0.24162  -0.04459   0.01909  -0.48915
  28   32211.9    310.4   0.040461244   0.41352   0.51348  -0.29325   0.25271
  29   32547.6    307.2   0.025230200   0.25520   0.10466   0.14538  -0.47234
  30   32680.0    306.0   0.029115387   0.29330   0.23687   0.02245  -0.48651
  31   32918.0    303.8   0.032152992   0.32156   0.46295  -0.21853   0.24390
  32   33307.7    300.2   0.024152429   0.23872   0.36044   0.03297   0.32821
  33   33713.5    296.6   0.065479456   0.63941  -0.61622   0.26187  -0.43715
  34   34042.7    293.7   0.017767943   0.17183  -0.17762   0.23007  -0.29554
  35   34335.2    291.2   0.092104234   0.88311   0.06957   0.51483  -0.78308
  36   34741.2    287.8   0.037405418   0.35446   0.53038  -0.02514  -0.26930
  37   35268.3    283.5   0.266614705   2.48872   0.95771   1.23906   0.19037
  38   35354.4    282.9   0.102661909   0.95596   0.82708   0.25652   0.45397
  39   35588.4    281.0   0.022865866   0.21152   0.35855  -0.01698   0.28754
  40   35817.8    279.2   0.446290322   4.10199   1.43628  -1.01250   1.00694
  41   36190.3    276.3   0.248820838   2.26345  -0.70205  -0.91784  -0.96340
  42   36319.0    275.3   0.008211387   0.07443   0.20893  -0.01826   0.17449
  43   36661.1    272.8   0.038457136   0.34534  -0.32610   0.43523  -0.22266
  44   36743.5    272.2   0.045040069   0.40355   0.31224   0.00770   0.55316
  45   36982.5    270.4   0.286792939   2.55298  -0.75680  -0.48375  -1.32144
  46   37812.0    264.5   0.025240418   0.21976  -0.04860   0.43284   0.17334
  47   37959.4    263.4   0.030130373   0.26131   0.01243  -0.51082   0.01474
  48   38152.7    262.1   0.012324378   0.10634   0.24227   0.14382   0.16421
  49   38672.4    258.6   0.053084680   0.45190   0.23429   0.62607  -0.07103
  50   38985.9    256.5   0.008986414   0.07588  -0.05455  -0.14416   0.22831
  51   39058.7    256.0   0.074774682   0.63025  -0.24655  -0.73280  -0.18019
  52   39436.2    253.6   0.076619044   0.63961  -0.31223   0.13433  -0.72393
  53   39476.2    253.3   0.185197586   1.54446  -0.55527  -1.07259   0.29271
  54   39723.4    251.7   0.023926581   0.19829  -0.11214  -0.32385   0.28433
  55   39843.1    251.0   0.260688404   2.15399   0.18057   1.11868   0.93270
  56   39955.4    250.3   0.106248853   0.87544   0.83086  -0.21621   0.37198
  57   40292.5    248.2   0.050359975   0.41147  -0.43488  -0.41807  -0.21810

FINAL SINGLE POINT ENERGY     -5637.599473282296

DIPOLE MOMENT
-------------
                                X             Y             Z
Electronic contribution:    -16.06170     -24.11957      -9.69497
Nuclear contribution   :     17.28403      27.68793      12.03977
                        -----------------------------------------
Total Dipole Moment    :      1.22234       3.56836       2.34480
                        -----------------------------------------
Magnitude (a.u.)       :      4.44133
Magnitude (Debye)      :     11.28895

Rotational constants in cm-1:     0.002264     0.000269     0.000261
Rotational constants in MHz :    67.882746     8.052446     7.834142

                             ****ORCA TERMINATED NORMALLY****
TOTAL RUN TIME: 0 days 0 hours 10 minutes 12 seconds 630 msec
