                         Program Version 4.2.0 -  RELEASE  -
|  1> # ORCA input file
|  2> # SCF done       -199.296431420793          0.000857231583
|  3> ! CAM-B3LYP def2-SVP def2/J RIJCOSX Grid4 TightSCF
|  4> %maxcore 5000
|  5> %tddft
|  6>     Mode sTDDFT
|  7>     Ethresh 5.0
|  8>     maxcore 5000
|  9> end
| 10>
| 11> %pal
| 12>   nprocs 6
| 13>   end
| 14> * xyz 0 1
| 15>    C       -7.55260        -0.90047         2.35022
| 16>    C       -8.80668        -1.44095         2.47281
| 17>    C       -9.26353        -2.12563         3.61667
| 18>    N       -9.68314        -2.68464         4.52731
| 19>    C       -9.77050        -1.42596         1.44294
| 20>    N      -10.57026        -1.48706         0.62150
| 21>    C       -6.46259        -1.02393         3.30941
| 22>    C       -5.28527        -0.48776         2.73124
| 23>    C       -4.07796        -0.47936         3.38569
| 24>    C       -4.02886        -1.02970         4.67114
| 25>    C       -5.21164        -1.55626         5.24318
| 26>    C       -6.43381        -1.56194         4.58230
| 27>    S       -4.92645        -2.18180         6.83879
| 28>    C       -3.24463        -1.73872         6.71579
| 29>    C       -2.91188        -1.15013         5.54234
| 30>   Br       -2.08713        -2.09561         8.14736
| 31>    C       -5.58689         0.02557         1.37794
| 32>    O       -4.82052         0.59102         0.62833
| 33>    C       -7.03976        -0.20987         1.18746
| 34>    C       -7.77404         0.36081         0.18333
| 35>    C       -7.23371         0.94715        -0.98227
| 36>    C       -6.16514         0.58899        -1.79501
| 37>    O       -5.50432        -0.57070        -1.88103
| 38>    C       -6.00871        -1.72896        -1.26677
| 39>    C       -5.86713         1.57634        -2.78797
| 40>    O       -4.92092         1.26280        -3.68698
| 41>    C       -4.96626         1.81622        -4.98181
| 42>    C       -6.71145         2.67592        -2.72707
| 43>    S       -7.99303         2.41427        -1.57707
| 44>    C       -6.64532         3.95262        -3.37373
| 45>    C       -7.82639         4.68272        -3.64522
| 46>    C       -7.80860         5.98554        -4.26295
| 47>    N       -8.96401         6.54790        -4.64994
| 48>    C      -10.09283         5.96665        -4.34572
| 49>    C      -10.11561         4.73566        -3.60234
| 50>    N       -8.99772         4.12171        -3.31482
| 51>    C      -11.35156         4.16764        -3.20685
| 52>    N      -12.37567         3.74787        -2.91207
| 53>    C      -11.30585         6.56986        -4.76412
| 54>    N      -12.29950         7.04732        -5.07474
| 55>    C       -6.60064         6.66582        -4.50623
| 56>    C       -5.42207         5.96398        -4.18591
| 57>    C       -5.43896         4.63099        -3.63085
| 58>    N       -4.20340         4.21774        -3.32595
| 59>    S       -3.14887         5.36611        -3.68127
| 60>    N       -4.17751         6.44644        -4.26474
| 61>    C       -6.51639         8.01688        -4.97460
| 62>    C       -7.31127         9.11326        -4.67122
| 63>    O       -8.38501         8.94208        -3.88392
| 64>    C       -9.22074        10.02753        -3.53599
| 65>    C       -6.78357        10.33522        -5.20073
| 66>    O       -7.41620        11.48923        -4.91295
| 67>    C       -6.89145        12.72888        -5.32681
| 68>    C       -5.58087        10.15705        -5.87765
| 69>    S       -5.13735         8.46969        -5.90844
| 70>    C       -4.67132        11.07764        -6.47187
| 71>    C       -3.31928        10.92126        -6.54372
| 72>    C       -2.42302         9.98903        -5.88796
| 73>    C       -2.59407         9.43653        -4.64375
| 74>    C       -1.77602         8.43630        -4.09433
| 75>    N       -1.19668         7.56011        -3.62802
| 76>    C       -3.64460         9.82405        -3.78609
| 77>    N       -4.45051        10.19468        -3.05715
| 78>    C       -1.20445         9.93435        -6.68151
| 79>    C       -1.24485        10.96937        -7.65125
| 80>    C       -2.53668        11.68063        -7.55363
| 81>    O       -2.90712        12.64313        -8.18614
| 82>    C       -0.20514        11.20343        -8.51805
| 83>    C        0.91801        10.37332        -8.43098
| 84>    C        0.94284         9.33790        -7.46520
| 85>    C       -0.10262         9.10666        -6.58049
| 86>    S        2.42280         8.43104        -7.53852
| 87>    C        2.98367         9.44297        -8.84344
| 88>    C        2.10796        10.40958        -9.20815
| 89>   Br        4.66947         9.12551        -9.60029
| 90>    H       -3.19764        -0.06601         2.91896
| 91>    H       -7.30961        -1.96873         5.05989
| 92>    H       -1.92033        -0.81437         5.29938
| 93>    H       -8.84047         0.49323         0.32334
| 94>    H       -7.09992        -1.77924        -1.33600
| 95>    H       -5.71981        -1.79230        -0.21239
| 96>    H       -5.56307        -2.56466        -1.80623
| 97>    H       -4.34701         2.71273        -5.04782
| 98>    H       -5.98954         2.05962        -5.28103
| 99>    H       -4.56052         1.05374        -5.64774
|100>    H      -10.02111         9.58566        -2.94356
|101>    H       -9.64709        10.50381        -4.42041
|102>    H       -8.68719        10.76895        -2.93863
|103>    H       -7.48318        13.47910        -4.80317
|104>    H       -7.00652        12.87119        -6.40426
|105>    H       -5.83958        12.82901        -5.04516
|106>    H       -5.05785        11.92995        -7.01688
|107>    H       -0.25377        12.00284        -9.24057
|108>    H       -0.04666         8.30665        -5.86051
|109>    H        2.29187        11.11972        -9.99349
|110> *
|111>
|112>                          ****END OF INPUT****

CARTESIAN COORDINATES (ANGSTROEM)
---------------------------------
  C     -7.552600   -0.900470    2.350220
  C     -8.806680   -1.440950    2.472810
  C     -9.263530   -2.125630    3.616670
  N     -9.683140   -2.684640    4.527310
  C     -9.770500   -1.425960    1.442940
  N    -10.570260   -1.487060    0.621500
  C     -6.462590   -1.023930    3.309410
  C     -5.285270   -0.487760    2.731240
  C     -4.077960   -0.479360    3.385690
  C     -4.028860   -1.029700    4.671140
  C     -5.211640   -1.556260    5.243180
  C     -6.433810   -1.561940    4.582300
  S     -4.926450   -2.181800    6.838790
  C     -3.244630   -1.738720    6.715790
  C     -2.911880   -1.150130    5.542340
  Br    -2.087130   -2.095610    8.147360
  C     -5.586890    0.025570    1.377940
  O     -4.820520    0.591020    0.628330
  C     -7.039760   -0.209870    1.187460
  C     -7.774040    0.360810    0.183330
  C     -7.233710    0.947150   -0.982270
  C     -6.165140    0.588990   -1.795010
  O     -5.504320   -0.570700   -1.881030
  C     -6.008710   -1.728960   -1.266770
  C     -5.867130    1.576340   -2.787970
  O     -4.920920    1.262800   -3.686980
  C     -4.966260    1.816220   -4.981810
  C     -6.711450    2.675920   -2.727070
  S     -7.993030    2.414270   -1.577070
  C     -6.645320    3.952620   -3.373730
  C     -7.826390    4.682720   -3.645220
  C     -7.808600    5.985540   -4.262950
  N     -8.964010    6.547900   -4.649940
  C    -10.092830    5.966650   -4.345720
  C    -10.115610    4.735660   -3.602340
  N     -8.997720    4.121710   -3.314820
  C    -11.351560    4.167640   -3.206850
  N    -12.375670    3.747870   -2.912070
  C    -11.305850    6.569860   -4.764120
  N    -12.299500    7.047320   -5.074740
  C     -6.600640    6.665820   -4.506230
  C     -5.422070    5.963980   -4.185910
  C     -5.438960    4.630990   -3.630850
  N     -4.203400    4.217740   -3.325950
  S     -3.148870    5.366110   -3.681270
  N     -4.177510    6.446440   -4.264740
  C     -6.516390    8.016880   -4.974600
  C     -7.311270    9.113260   -4.671220
  O     -8.385010    8.942080   -3.883920
  C     -9.220740   10.027530   -3.535990
  C     -6.783570   10.335220   -5.200730
  O     -7.416200   11.489230   -4.912950
  C     -6.891450   12.728880   -5.326810
  C     -5.580870   10.157050   -5.877650
  S     -5.137350    8.469690   -5.908440
  C     -4.671320   11.077640   -6.471870
  C     -3.319280   10.921260   -6.543720
  C     -2.423020    9.989030   -5.887960
  C     -2.594070    9.436530   -4.643750
  C     -1.776020    8.436300   -4.094330
  N     -1.196680    7.560110   -3.628020
  C     -3.644600    9.824050   -3.786090
  N     -4.450510   10.194680   -3.057150
  C     -1.204450    9.934350   -6.681510
  C     -1.244850   10.969370   -7.651250
  C     -2.536680   11.680630   -7.553630
  O     -2.907120   12.643130   -8.186140
  C     -0.205140   11.203430   -8.518050
  C      0.918010   10.373320   -8.430980
  C      0.942840    9.337900   -7.465200
  C     -0.102620    9.106660   -6.580490
  S      2.422800    8.431040   -7.538520
  C      2.983670    9.442970   -8.843440
  C      2.107960   10.409580   -9.208150
  Br     4.669470    9.125510   -9.600290
  H     -3.197640   -0.066010    2.918960
  H     -7.309610   -1.968730    5.059890
  H     -1.920330   -0.814370    5.299380
  H     -8.840470    0.493230    0.323340
  H     -7.099920   -1.779240   -1.336000
  H     -5.719810   -1.792300   -0.212390
  H     -5.563070   -2.564660   -1.806230
  H     -4.347010    2.712730   -5.047820
  H     -5.989540    2.059620   -5.281030
  H     -4.560520    1.053740   -5.647740
  H    -10.021110    9.585660   -2.943560
  H     -9.647090   10.503810   -4.420410
  H     -8.687190   10.768950   -2.938630
  H     -7.483180   13.479100   -4.803170
  H     -7.006520   12.871190   -6.404260
  H     -5.839580   12.829010   -5.045160
  H     -5.057850   11.929950   -7.016880
  H     -0.253770   12.002840   -9.240570
  H     -0.046660    8.306650   -5.860510
  H      2.291870   11.119720   -9.993490

 Total Charge           Charge          ....    0
 Multiplicity           Mult            ....    1
 Number of Electrons    NEL             ....  600
 Basis Dimension        Dim             .... 1206

ORBITAL ENERGIES
----------------

  NO   OCC          E(Eh)            E(eV)
   0   2.0000    -482.891143    -13140.1360
   1   2.0000    -482.884118    -13139.9449
   2   2.0000     -89.048870     -2423.1429
   3   2.0000     -88.982028     -2421.3241
   4   2.0000     -88.973634     -2421.0957
   5   2.0000     -88.963916     -2420.8312
   6   2.0000     -88.955104     -2420.5914
   7   2.0000     -62.568845     -1702.5848
   8   2.0000     -62.561836     -1702.3941
   9   2.0000     -56.402802     -1534.7983
  10   2.0000     -56.400074     -1534.7240
  11   2.0000     -56.400046     -1534.7233
  12   2.0000     -56.395786     -1534.6073
  13   2.0000     -56.393070     -1534.5335
  14   2.0000     -56.393039     -1534.5326
  15   2.0000     -19.276156      -524.5309
  16   2.0000     -19.260778      -524.1124
  17   2.0000     -19.255565      -523.9706
  18   2.0000     -19.255352      -523.9648
  19   2.0000     -19.221875      -523.0538
  20   2.0000     -19.211666      -522.7760
  21   2.0000     -14.464623      -393.6024
  22   2.0000     -14.459811      -393.4715
  23   2.0000     -14.454527      -393.3277
  24   2.0000     -14.454020      -393.3139
  25   2.0000     -14.429620      -392.6499
  26   2.0000     -14.429425      -392.6446
  27   2.0000     -14.427805      -392.6005
  28   2.0000     -14.417411      -392.3177
  29   2.0000     -14.411803      -392.1651
  30   2.0000     -14.410272      -392.1234
  31   2.0000     -10.383624      -282.5528
  32   2.0000     -10.380493      -282.4676
  33   2.0000     -10.372889      -282.2607
  34   2.0000     -10.367800      -282.1222
  35   2.0000     -10.364926      -282.0440
  36   2.0000     -10.362832      -281.9870
  37   2.0000     -10.357109      -281.8313
  38   2.0000     -10.355144      -281.7778
  39   2.0000     -10.351752      -281.6855
  40   2.0000     -10.350846      -281.6608
  41   2.0000     -10.349828      -281.6331
  42   2.0000     -10.349658      -281.6285
  43   2.0000     -10.347597      -281.5724
  44   2.0000     -10.347464      -281.5688
  45   2.0000     -10.347098      -281.5589
  46   2.0000     -10.346877      -281.5528
  47   2.0000     -10.343597      -281.4636
  48   2.0000     -10.338170      -281.3159
  49   2.0000     -10.337144      -281.2880
  50   2.0000     -10.333329      -281.1842
  51   2.0000     -10.333043      -281.1764
  52   2.0000     -10.331029      -281.1216
  53   2.0000     -10.329468      -281.0791
  54   2.0000     -10.325989      -280.9844
  55   2.0000     -10.325194      -280.9628
  56   2.0000     -10.324181      -280.9352
  57   2.0000     -10.323296      -280.9112
  58   2.0000     -10.323068      -280.9050
  59   2.0000     -10.322565      -280.8913
  60   2.0000     -10.320654      -280.8393
  61   2.0000     -10.320532      -280.8360
  62   2.0000     -10.319539      -280.8089
  63   2.0000     -10.319495      -280.8077
  64   2.0000     -10.317983      -280.7666
  65   2.0000     -10.317263      -280.7470
  66   2.0000     -10.315709      -280.7047
  67   2.0000     -10.314631      -280.6754
  68   2.0000     -10.314116      -280.6614
  69   2.0000     -10.313102      -280.6338
  70   2.0000     -10.313066      -280.6328
  71   2.0000     -10.308314      -280.5035
  72   2.0000     -10.305726      -280.4331
  73   2.0000     -10.305463      -280.4259
  74   2.0000     -10.305391      -280.4239
  75   2.0000     -10.303445      -280.3710
  76   2.0000     -10.303279      -280.3665
  77   2.0000     -10.302760      -280.3523
  78   2.0000     -10.299889      -280.2742
  79   2.0000     -10.298527      -280.2372
  80   2.0000     -10.294910      -280.1388
  81   2.0000     -10.293212      -280.0925
  82   2.0000     -10.290187      -280.0102
  83   2.0000      -8.798264      -239.4129
  84   2.0000      -8.791268      -239.2226
  85   2.0000      -8.139051      -221.4748
  86   2.0000      -8.078095      -219.8161
  87   2.0000      -8.069624      -219.5856
  88   2.0000      -8.058542      -219.2841
  89   2.0000      -8.049722      -219.0441
  90   2.0000      -6.634588      -180.5363
  91   2.0000      -6.627569      -180.3453
  92   2.0000      -6.620001      -180.1394
  93   2.0000      -6.619775      -180.1332
  94   2.0000      -6.613007      -179.9491
  95   2.0000      -6.612801      -179.9435
  96   2.0000      -6.109960      -166.2605
  97   2.0000      -6.102333      -166.0529
  98   2.0000      -6.102035      -166.0448
  99   2.0000      -6.047784      -164.5686
 100   2.0000      -6.043515      -164.4524
 101   2.0000      -6.039321      -164.3383
 102   2.0000      -6.039291      -164.3375
 103   2.0000      -6.035026      -164.2214
 104   2.0000      -6.030856      -164.1079
 105   2.0000      -6.028260      -164.0373
 106   2.0000      -6.024056      -163.9229
 107   2.0000      -6.019741      -163.8055
 108   2.0000      -6.019600      -163.8017
 109   2.0000      -6.015418      -163.6878
 110   2.0000      -6.010572      -163.5560
 111   2.0000      -2.750464       -74.8439
 112   2.0000      -2.746339       -74.7317
 113   2.0000      -2.746214       -74.7283
 114   2.0000      -2.743425       -74.6524
 115   2.0000      -2.739335       -74.5411
 116   2.0000      -2.739233       -74.5383
 117   2.0000      -2.734603       -74.4123
 118   2.0000      -2.734591       -74.4120
 119   2.0000      -2.727637       -74.2228
 120   2.0000      -2.727612       -74.2221
 121   2.0000      -1.184519       -32.2324
 122   2.0000      -1.174510       -31.9601
 123   2.0000      -1.157586       -31.4995
 124   2.0000      -1.153429       -31.3864
 125   2.0000      -1.145123       -31.1604
 126   2.0000      -1.136840       -30.9350
 127   2.0000      -1.126602       -30.6564
 128   2.0000      -1.122960       -30.5573
 129   2.0000      -1.049993       -28.5718
 130   2.0000      -1.030983       -28.0545
 131   2.0000      -1.021783       -27.8041
 132   2.0000      -1.020236       -27.7620
 133   2.0000      -1.015285       -27.6273
 134   2.0000      -1.009915       -27.4812
 135   2.0000      -1.008747       -27.4494
 136   2.0000      -1.004797       -27.3419
 137   2.0000      -1.001385       -27.2491
 138   2.0000      -0.995513       -27.0893
 139   2.0000      -0.995188       -27.0804
 140   2.0000      -0.990031       -26.9401
 141   2.0000      -0.987339       -26.8669
 142   2.0000      -0.984470       -26.7888
 143   2.0000      -0.972172       -26.4541
 144   2.0000      -0.948976       -25.8229
 145   2.0000      -0.940511       -25.5926
 146   2.0000      -0.916838       -24.9484
 147   2.0000      -0.914973       -24.8977
 148   2.0000      -0.909879       -24.7591
 149   2.0000      -0.905892       -24.6506
 150   2.0000      -0.905417       -24.6376
 151   2.0000      -0.894143       -24.3309
 152   2.0000      -0.892763       -24.2933
 153   2.0000      -0.883531       -24.0421
 154   2.0000      -0.875013       -23.8103
 155   2.0000      -0.867013       -23.5926
 156   2.0000      -0.864404       -23.5216
 157   2.0000      -0.850409       -23.1408
 158   2.0000      -0.840014       -22.8579
 159   2.0000      -0.835700       -22.7406
 160   2.0000      -0.832178       -22.6447
 161   2.0000      -0.827129       -22.5073
 162   2.0000      -0.821599       -22.3569
 163   2.0000      -0.812547       -22.1105
 164   2.0000      -0.801880       -21.8203
 165   2.0000      -0.792335       -21.5605
 166   2.0000      -0.778207       -21.1761
 167   2.0000      -0.772688       -21.0259
 168   2.0000      -0.770957       -20.9788
 169   2.0000      -0.766970       -20.8703
 170   2.0000      -0.755657       -20.5625
 171   2.0000      -0.750113       -20.4116
 172   2.0000      -0.741393       -20.1743
 173   2.0000      -0.726986       -19.7823
 174   2.0000      -0.712735       -19.3945
 175   2.0000      -0.707770       -19.2594
 176   2.0000      -0.706300       -19.2194
 177   2.0000      -0.696574       -18.9547
 178   2.0000      -0.690059       -18.7775
 179   2.0000      -0.688824       -18.7438
 180   2.0000      -0.684119       -18.6158
 181   2.0000      -0.676737       -18.4150
 182   2.0000      -0.670841       -18.2545
 183   2.0000      -0.667207       -18.1556
 184   2.0000      -0.660497       -17.9730
 185   2.0000      -0.657015       -17.8783
 186   2.0000      -0.653423       -17.7806
 187   2.0000      -0.649358       -17.6699
 188   2.0000      -0.636872       -17.3302
 189   2.0000      -0.632780       -17.2188
 190   2.0000      -0.631463       -17.1830
 191   2.0000      -0.626790       -17.0558
 192   2.0000      -0.622839       -16.9483
 193   2.0000      -0.618633       -16.8339
 194   2.0000      -0.608751       -16.5650
 195   2.0000      -0.605773       -16.4839
 196   2.0000      -0.603250       -16.4153
 197   2.0000      -0.598638       -16.2898
 198   2.0000      -0.592959       -16.1352
 199   2.0000      -0.592151       -16.1132
 200   2.0000      -0.586892       -15.9702
 201   2.0000      -0.584017       -15.8919
 202   2.0000      -0.580139       -15.7864
 203   2.0000      -0.575374       -15.6567
 204   2.0000      -0.572096       -15.5675
 205   2.0000      -0.567585       -15.4448
 206   2.0000      -0.563006       -15.3202
 207   2.0000      -0.561648       -15.2832
 208   2.0000      -0.554332       -15.0841
 209   2.0000      -0.552682       -15.0393
 210   2.0000      -0.550747       -14.9866
 211   2.0000      -0.548078       -14.9140
 212   2.0000      -0.545629       -14.8473
 213   2.0000      -0.542542       -14.7633
 214   2.0000      -0.539424       -14.6785
 215   2.0000      -0.536536       -14.5999
 216   2.0000      -0.534605       -14.5474
 217   2.0000      -0.533504       -14.5174
 218   2.0000      -0.532135       -14.4801
 219   2.0000      -0.528249       -14.3744
 220   2.0000      -0.526465       -14.3258
 221   2.0000      -0.522205       -14.2099
 222   2.0000      -0.517706       -14.0875
 223   2.0000      -0.516727       -14.0609
 224   2.0000      -0.511266       -13.9123
 225   2.0000      -0.507732       -13.8161
 226   2.0000      -0.506175       -13.7737
 227   2.0000      -0.504845       -13.7375
 228   2.0000      -0.503980       -13.7140
 229   2.0000      -0.499111       -13.5815
 230   2.0000      -0.495135       -13.4733
 231   2.0000      -0.493605       -13.4317
 232   2.0000      -0.492069       -13.3899
 233   2.0000      -0.490553       -13.3486
 234   2.0000      -0.486857       -13.2481
 235   2.0000      -0.484170       -13.1749
 236   2.0000      -0.483235       -13.1495
 237   2.0000      -0.481238       -13.0952
 238   2.0000      -0.476267       -12.9599
 239   2.0000      -0.474198       -12.9036
 240   2.0000      -0.469291       -12.7701
 241   2.0000      -0.466034       -12.6814
 242   2.0000      -0.464228       -12.6323
 243   2.0000      -0.459222       -12.4961
 244   2.0000      -0.456599       -12.4247
 245   2.0000      -0.456204       -12.4139
 246   2.0000      -0.455217       -12.3871
 247   2.0000      -0.453406       -12.3378
 248   2.0000      -0.452894       -12.3239
 249   2.0000      -0.451381       -12.2827
 250   2.0000      -0.447140       -12.1673
 251   2.0000      -0.444954       -12.1078
 252   2.0000      -0.444546       -12.0967
 253   2.0000      -0.444291       -12.0898
 254   2.0000      -0.443503       -12.0683
 255   2.0000      -0.440943       -11.9987
 256   2.0000      -0.439776       -11.9669
 257   2.0000      -0.438275       -11.9261
 258   2.0000      -0.436579       -11.8799
 259   2.0000      -0.436079       -11.8663
 260   2.0000      -0.433636       -11.7998
 261   2.0000      -0.432370       -11.7654
 262   2.0000      -0.430529       -11.7153
 263   2.0000      -0.428710       -11.6658
 264   2.0000      -0.423841       -11.5333
 265   2.0000      -0.423000       -11.5104
 266   2.0000      -0.420423       -11.4403
 267   2.0000      -0.419080       -11.4037
 268   2.0000      -0.418024       -11.3750
 269   2.0000      -0.415608       -11.3093
 270   2.0000      -0.413197       -11.2437
 271   2.0000      -0.411994       -11.2109
 272   2.0000      -0.406460       -11.0603
 273   2.0000      -0.404869       -11.0170
 274   2.0000      -0.401180       -10.9167
 275   2.0000      -0.396749       -10.7961
 276   2.0000      -0.394350       -10.7308
 277   2.0000      -0.393305       -10.7024
 278   2.0000      -0.387481       -10.5439
 279   2.0000      -0.386241       -10.5102
 280   2.0000      -0.384985       -10.4760
 281   2.0000      -0.380476       -10.3533
 282   2.0000      -0.373831       -10.1725
 283   2.0000      -0.373555       -10.1650
 284   2.0000      -0.370087       -10.0706
 285   2.0000      -0.356310        -9.6957
 286   2.0000      -0.353156        -9.6099
 287   2.0000      -0.349032        -9.4977
 288   2.0000      -0.346458        -9.4276
 289   2.0000      -0.337993        -9.1973
 290   2.0000      -0.335431        -9.1276
 291   2.0000      -0.322460        -8.7746
 292   2.0000      -0.317310        -8.6344
 293   2.0000      -0.313345        -8.5266
 294   2.0000      -0.301669        -8.2088
 295   2.0000      -0.293723        -7.9926
 296   2.0000      -0.289628        -7.8812
 297   2.0000      -0.281104        -7.6492
 298   2.0000      -0.276890        -7.5346
 299   2.0000      -0.254381        -6.9221
 300   0.0000      -0.125297        -3.4095
 301   0.0000      -0.093143        -2.5345
 302   0.0000      -0.082172        -2.2360
 303   0.0000      -0.063057        -1.7159
 304   0.0000      -0.055246        -1.5033

MULLIKEN ATOMIC CHARGES
-----------------------
   0 C :    0.300981
   1 C :   -0.343610
   2 C :   -0.182162
   3 N :    0.148593
   4 C :   -0.211460
   5 N :    0.167165
   6 C :    0.021611
   7 C :   -0.020012
   8 C :   -0.071823
   9 C :    0.118901
  10 C :   -0.088614
  11 C :   -0.027053
  12 S :    0.185768
  13 C :   -0.124354
  14 C :    0.038059
  15 Br:    0.022209
  16 C :    0.131832
  17 O :   -0.137965
  18 C :   -0.149645
  19 C :    0.036809
  20 C :   -0.209982
  21 C :    0.233076
  22 O :   -0.264551
  23 C :    0.181206
  24 C :    0.213230
  25 O :   -0.277115
  26 C :    0.187523
  27 C :   -0.282726
  28 S :    0.168373
  29 C :    0.150035
  30 C :   -0.070706
  31 C :   -0.079650
  32 N :    0.090121
  33 C :   -0.159483
  34 C :   -0.113909
  35 N :    0.031561
  36 C :   -0.209626
  37 N :    0.240015
  38 C :   -0.204642
  39 N :    0.234054
  40 C :    0.156475
  41 C :    0.019851
  42 C :   -0.056671
  43 N :   -0.260597
  44 S :    0.580300
  45 N :   -0.297205
  46 C :   -0.252566
  47 C :    0.208928
  48 O :   -0.295568
  49 C :    0.199385
  50 C :    0.250777
  51 O :   -0.305410
  52 C :    0.168972
  53 C :   -0.262372
  54 S :    0.178184
  55 C :    0.052756
  56 C :   -0.146700
  57 C :    0.248376
  58 C :   -0.311009
  59 C :   -0.133722
  60 N :    0.099292
  61 C :   -0.175708
  62 N :    0.149631
  63 C :    0.019096
  64 C :   -0.006680
  65 C :    0.139416
  66 O :   -0.145380
  67 C :   -0.071261
  68 C :    0.114074
  69 C :   -0.084563
  70 C :   -0.031137
  71 S :    0.183338
  72 C :   -0.124048
  73 C :    0.039078
  74 Br:    0.026789
  75 H :   -0.010708
  76 H :   -0.006453
  77 H :   -0.003414
  78 H :    0.036626
  79 H :    0.039663
  80 H :    0.034748
  81 H :    0.038819
  82 H :    0.026023
  83 H :    0.027202
  84 H :    0.037635
  85 H :    0.033504
  86 H :    0.026850
  87 H :    0.031503
  88 H :    0.044393
  89 H :    0.042932
  90 H :    0.050112
  91 H :    0.019029
  92 H :   -0.006404
  93 H :   -0.006919
  94 H :   -0.001299
Sum of atomic charges:   -0.0000000

LOEWDIN ATOMIC CHARGES
----------------------
   0 C :    0.073329
   1 C :   -0.143226
   2 C :   -0.019107
   3 N :   -0.054827
   4 C :   -0.027398
   5 N :   -0.050668
   6 C :   -0.021898
   7 C :   -0.050467
   8 C :    0.020476
   9 C :   -0.033086
  10 C :   -0.145037
  11 C :   -0.010078
  12 S :    0.431925
  13 C :   -0.272218
  14 C :   -0.070500
  15 Br:    0.135841
  16 C :    0.069499
  17 O :   -0.136354
  18 C :   -0.109183
  19 C :    0.046529
  20 C :   -0.218584
  21 C :    0.042075
  22 O :   -0.053246
  23 C :    0.084613
  24 C :    0.027544
  25 O :   -0.071071
  26 C :    0.079721
  27 C :   -0.196931
  28 S :    0.454603
  29 C :   -0.033356
  30 C :   -0.014169
  31 C :   -0.007154
  32 N :    0.021860
  33 C :   -0.031056
  34 C :   -0.023982
  35 N :   -0.011384
  36 C :   -0.037928
  37 N :    0.000531
  38 C :   -0.035446
  39 N :   -0.009609
  40 C :   -0.035556
  41 C :   -0.042825
  42 C :   -0.047012
  43 N :   -0.272767
  44 S :    0.726706
  45 N :   -0.299803
  46 C :   -0.181672
  47 C :    0.027491
  48 O :   -0.081401
  49 C :    0.082320
  50 C :    0.031487
  51 O :   -0.074954
  52 C :    0.085430
  53 C :   -0.227521
  54 S :    0.498355
  55 C :    0.046122
  56 C :   -0.102493
  57 C :    0.060495
  58 C :   -0.144563
  59 C :   -0.006742
  60 N :   -0.088010
  61 C :   -0.025059
  62 N :   -0.059559
  63 C :   -0.016805
  64 C :   -0.053192
  65 C :    0.083100
  66 O :   -0.145261
  67 C :    0.023832
  68 C :   -0.033430
  69 C :   -0.142525
  70 C :   -0.015653
  71 S :    0.430909
  72 C :   -0.271573
  73 C :   -0.069386
  74 Br:    0.139284
  75 H :    0.041021
  76 H :    0.040894
  77 H :    0.038732
  78 H :    0.046264
  79 H :    0.022930
  80 H :    0.018964
  81 H :    0.029380
  82 H :    0.008549
  83 H :    0.017422
  84 H :    0.027868
  85 H :    0.025283
  86 H :    0.018153
  87 H :    0.018588
  88 H :    0.034024
  89 H :    0.020972
  90 H :    0.027189
  91 H :    0.044032
  92 H :    0.042195
  93 H :    0.039578
  94 H :    0.039611

  Mayer bond orders larger than 0.100000
B(  0-C ,  1-C ) :   1.6433 B(  0-C ,  6-C ) :   1.0078 B(  0-C , 18-C ) :   1.0689
B(  1-C ,  2-C ) :   1.1377 B(  1-C ,  4-C ) :   1.1443 B(  2-C ,  3-N ) :   2.9738
B(  4-C ,  5-N ) :   3.0018 B(  6-C ,  7-C ) :   1.2746 B(  6-C , 11-C ) :   1.4092
B(  7-C ,  8-C ) :   1.4309 B(  7-C , 16-C ) :   0.9344 B(  8-C ,  9-C ) :   1.2400
B(  8-C , 75-H ) :   1.0179 B(  9-C , 10-C ) :   1.3087 B(  9-C , 14-C ) :   1.1614
B( 10-C , 11-C ) :   1.3277 B( 10-C , 12-S ) :   1.0844 B( 11-C , 76-H ) :   0.9815
B( 12-S , 13-C ) :   1.0874 B( 13-C , 14-C ) :   1.6181 B( 13-C , 15-Br) :   1.0182
B( 14-C , 77-H ) :   1.0004 B( 16-C , 17-O ) :   2.2222 B( 16-C , 18-C ) :   0.9523
B( 18-C , 19-C ) :   1.5804 B( 19-C , 20-C ) :   1.1908 B( 19-C , 78-H ) :   0.9344
B( 20-C , 21-C ) :   1.4207 B( 20-C , 27-C ) :   0.1117 B( 20-C , 28-S ) :   1.0193
B( 21-C , 22-O ) :   1.2530 B( 21-C , 24-C ) :   1.1974 B( 22-O , 23-C ) :   0.9495
B( 23-C , 79-H ) :   0.9621 B( 23-C , 80-H ) :   0.9590 B( 23-C , 81-H ) :   0.9760
B( 24-C , 25-O ) :   1.2544 B( 24-C , 27-C ) :   1.4530 B( 25-O , 26-C ) :   0.9438
B( 26-C , 82-H ) :   0.9601 B( 26-C , 83-H ) :   0.9624 B( 26-C , 84-H ) :   0.9781
B( 27-C , 28-S ) :   1.0963 B( 27-C , 29-C ) :   1.1030 B( 29-C , 30-C ) :   1.2593
B( 29-C , 40-C ) :   0.1232 B( 29-C , 42-C ) :   1.2344 B( 30-C , 31-C ) :   1.1003
B( 30-C , 35-N ) :   1.4147 B( 31-C , 32-N ) :   1.4492 B( 31-C , 40-C ) :   1.3011
B( 32-N , 33-C ) :   1.7461 B( 33-C , 34-C ) :   1.1900 B( 33-C , 38-C ) :   1.1501
B( 34-C , 35-N ) :   1.7339 B( 34-C , 36-C ) :   1.1464 B( 36-C , 37-N ) :   3.0435
B( 38-C , 39-N ) :   3.0538 B( 40-C , 41-C ) :   1.2402 B( 40-C , 46-C ) :   1.0470
B( 41-C , 42-C ) :   1.1110 B( 41-C , 45-N ) :   1.4735 B( 42-C , 43-N ) :   1.4802
B( 43-N , 44-S ) :   1.2978 B( 43-N , 45-N ) :   0.1516 B( 44-S , 45-N ) :   1.2828
B( 46-C , 47-C ) :   1.5154 B( 46-C , 53-C ) :   0.1217 B( 46-C , 54-S ) :   1.1169
B( 47-C , 48-O ) :   1.2200 B( 47-C , 50-C ) :   1.1924 B( 48-O , 49-C ) :   0.9234
B( 49-C , 85-H ) :   0.9772 B( 49-C , 86-H ) :   0.9751 B( 49-C , 87-H ) :   0.9752
B( 50-C , 51-O ) :   1.1891 B( 50-C , 53-C ) :   1.3820 B( 51-O , 52-C ) :   0.9361
B( 52-C , 88-H ) :   0.9738 B( 52-C , 89-H ) :   0.9701 B( 52-C , 90-H ) :   0.9599
B( 53-C , 54-S ) :   1.0972 B( 53-C , 55-C ) :   1.1053 B( 55-C , 56-C ) :   1.6692
B( 55-C , 91-H ) :   0.9392 B( 56-C , 57-C ) :   1.0294 B( 56-C , 65-C ) :   0.9437
B( 57-C , 58-C ) :   1.6381 B( 57-C , 63-C ) :   1.0335 B( 58-C , 59-C ) :   1.1474
B( 58-C , 61-C ) :   1.1609 B( 59-C , 60-N ) :   2.8999 B( 61-C , 62-N ) :   2.9807
B( 63-C , 64-C ) :   1.2689 B( 63-C , 70-C ) :   1.4125 B( 64-C , 65-C ) :   0.9227
B( 64-C , 67-C ) :   1.4244 B( 65-C , 66-O ) :   2.2605 B( 67-C , 68-C ) :   1.2534
B( 67-C , 92-H ) :   1.0166 B( 68-C , 69-C ) :   1.3043 B( 68-C , 73-C ) :   1.1635
B( 69-C , 70-C ) :   1.3291 B( 69-C , 71-S ) :   1.0845 B( 70-C , 93-H ) :   0.9846
B( 71-S , 72-C ) :   1.0849 B( 72-C , 73-C ) :   1.6190 B( 72-C , 74-Br) :   1.0204
B( 73-C , 94-H ) :   1.0011

-----------------------------------------------------------------------------
         ABSORPTION SPECTRUM VIA TRANSITION ELECTRIC DIPOLE MOMENTS
-----------------------------------------------------------------------------
State   Energy  Wavelength   fosc         T2         TX        TY        TZ
        (cm-1)    (nm)                  (au**2)     (au)      (au)      (au)
-----------------------------------------------------------------------------
   0   10910.0    916.6   0.445596254  13.44594  -0.62825  -3.13416   1.79675
   1   14916.8    670.4   0.009346643   0.20628  -0.28400   0.22305   0.27545
   2   16105.5    620.9   0.126908073   2.59413  -0.36172  -0.84005   1.32574
   3   18504.6    540.4   0.130043877   2.31359  -1.45316  -0.44645  -0.05099
   4   19793.4    505.2   0.086361991   1.43641  -0.87362   0.52474  -0.63076
   5   22227.1    449.9   0.504759579   7.47614   0.65709   1.43518  -2.23263
   6   22415.0    446.1   0.122786173   1.80338  -1.28403   0.39078   0.04382
   7   23812.3    420.0   0.036161454   0.49994  -0.39416   0.48136  -0.33597
   8   24377.2    410.2   0.043374359   0.58577   0.37952  -0.65939  -0.08327
   9   25242.0    396.2   0.044068573   0.57475  -0.75157   0.09182  -0.03837
  10   25736.5    388.6   0.012811078   0.16387   0.00666  -0.15629   0.37337
  11   25789.0    387.8   0.131358692   1.67687   0.90920   0.80783  -0.44458
  12   26528.0    377.0   0.112616835   1.39757  -0.23051   0.68500  -0.93553
  13   26887.2    371.9   0.019060215   0.23338  -0.12190   0.42404   0.19675
  14   27390.5    365.1   0.057281350   0.68847   0.29478   0.73346  -0.25221
  15   27600.8    362.3   0.121272594   1.44649   1.18587   0.12847  -0.15394
  16   27957.7    357.7   0.020373640   0.23991   0.19804   0.14039  -0.42541
  17   28487.9    351.0   0.075266909   0.86980   0.77588  -0.07908  -0.51142
  18   28676.3    348.7   0.006764884   0.07766   0.00481  -0.22099   0.16972
  19   29010.6    344.7   0.002178980   0.02473   0.14976  -0.03107  -0.03650
  20   29261.0    341.8   0.121487110   1.36684   0.36803  -0.21241   1.08916
  21   29666.5    337.1   0.145867652   1.61871   1.24906  -0.01752  -0.24133
  22   29881.6    334.7   0.063566616   0.70033  -0.27013  -0.29874   0.73356
  23   30034.8    332.9   0.017429107   0.19104   0.11959   0.41842   0.04079
  24   30337.3    329.6   0.285079909   3.09360   1.26999   0.43241  -1.13743
  25   30485.8    328.0   0.407155124   4.39681  -2.00970  -0.04249  -0.59675
  26   30709.7    325.6   0.019286329   0.20675  -0.35725   0.28056   0.02020
  27   30905.8    323.6   0.111900858   1.19198   0.07995  -0.08915   1.08519
  28   31568.0    316.8   0.218084222   2.27433   1.29622  -0.03147   0.77016
  29   32012.2    312.4   0.149356933   1.53598  -1.23437   0.00724  -0.11070
  30   32340.3    309.2   0.021166531   0.21547  -0.11873  -0.08764  -0.44010
  31   32466.3    308.0   0.163571407   1.65863   1.10161  -0.09056  -0.66098
  32   32697.5    305.8   0.028275012   0.28468  -0.44106   0.24291  -0.17647
  33   32880.2    304.1   0.012536969   0.12553   0.33977  -0.07916   0.06180
  34   33076.6    302.3   0.034733904   0.34571   0.16909   0.31042  -0.46985
  35   33249.5    300.8   0.360568067   3.57008  -1.88146   0.03472  -0.17021
  36   33517.8    298.3   0.000685822   0.00674   0.03158   0.07301   0.02021
  37   33938.3    294.7   0.022290753   0.21623   0.25019   0.24104  -0.30907
  38   34571.5    289.3   0.173705060   1.65413  -1.02676  -0.20883   0.74584
  39   34618.8    288.9   0.080284164   0.76347  -0.14656   0.50177  -0.70016
  40   34650.0    288.6   0.052504828   0.49885   0.13427  -0.10620   0.68523
  41   34855.3    286.9   0.352491117   3.32932  -1.26179  -0.21216   1.30084
  42   34930.0    286.3   0.307371981   2.89695  -1.61680  -0.34933  -0.40111
  43   35109.6    284.8   0.011474180   0.10759   0.04483   0.11242  -0.30486
  44   35438.5    282.2   0.079320423   0.73686   0.42518  -0.73216  -0.14150
  45   36037.1    277.5   0.009988761   0.09125   0.23005  -0.03816  -0.19202
  46   36329.9    275.3   0.020223500   0.18326  -0.27563  -0.04944  -0.32380
  47   36410.1    274.6   0.081266064   0.73479  -0.56798  -0.55992  -0.31414
  48   36679.0    272.6   0.115380736   1.03560   0.46368   0.85802   0.29052
  49   37291.6    268.2   0.004177397   0.03688  -0.13596  -0.01915   0.13427
  50   37422.4    267.2   0.011401926   0.10030   0.12389  -0.28354   0.06756
  51   37757.8    264.8   0.064617475   0.56340  -0.14610   0.47378  -0.56355
  52   38339.9    260.8   0.032159903   0.27615   0.04261   0.26325  -0.45280
  53   38520.4    259.6   0.052829780   0.45151  -0.54900   0.27971  -0.26809
  54   38848.2    257.4   0.022221688   0.18831   0.38525   0.01067   0.19945
  55   39062.2    256.0   0.066977642   0.56448   0.70846  -0.11619  -0.22150
  56   39462.3    253.4   0.004492705   0.03748  -0.07690  -0.04770   0.17115
  57   39584.4    252.6   0.090593185   0.75344   0.53480   0.53457  -0.42622
  58   39895.1    250.7   0.047730513   0.39387  -0.36479   0.43601  -0.26589
  59   40068.9    249.6   0.184747406   1.51791   0.16535  -0.63710   1.04148
  60   40281.4    248.3   0.015203676   0.12426  -0.18073  -0.06352   0.29590

FINAL SINGLE POINT ENERGY    -10126.759625886765

DIPOLE MOMENT
-------------
                                X             Y             Z
Electronic contribution:    127.51376     -35.62382      44.44680
Nuclear contribution   :   -123.22162      37.81154     -46.57654
                        -----------------------------------------
Total Dipole Moment    :      4.29214       2.18772      -2.12973
                        -----------------------------------------
Magnitude (a.u.)       :      5.26729
Magnitude (Debye)      :     13.38838

Rotational constants in cm-1:     0.000820     0.000270     0.000222
Rotational constants in MHz :    24.577204     8.083028     6.652306

                             ****ORCA TERMINATED NORMALLY****
TOTAL RUN TIME: 0 days 0 hours 10 minutes 44 seconds 364 msec
