                         Program Version 4.2.0 -  RELEASE  -
|  1> # ORCA input file
|  2> # SCF done       -196.050512573390          0.000476087341
|  3> ! CAM-B3LYP def2-SVP def2/J RIJCOSX Grid4 TightSCF
|  4> %maxcore 5000
|  5> %tddft
|  6>     Mode sTDDFT
|  7>     Ethresh 5.0
|  8>     maxcore 5000
|  9> end
| 10>
| 11> %pal
| 12>   nprocs 6
| 13>   end
| 14> * xyz 0 1
| 15>    C        2.06222         4.88409        -0.28394
| 16>    C        1.28013         5.92797         0.12503
| 17>    F       -0.05936         5.80701         0.08582
| 18>    C        1.82013         7.13473         0.59061
| 19>    C        3.17900         7.27600         0.63876
| 20>    C        4.03322         6.23120         0.23013
| 21>    C        3.46443         5.01233        -0.24213
| 22>    C        4.30027         3.95224        -0.66374
| 23>    C        5.65965         4.10556        -0.60963
| 24>    C        6.22160         5.32058        -0.12144
| 25>    C        5.43877         6.36291         0.28393
| 26>    C        7.69245         5.20984        -0.12156
| 27>    O        8.50308         6.05781         0.17247
| 28>    C        7.97922         3.79698        -0.50759
| 29>    C        6.74683         3.20880        -0.98988
| 30>    C        6.62581         2.12472        -1.81632
| 31>    C        7.71224         1.40735        -2.35218
| 32>    N        8.54611         0.79910        -2.85572
| 33>    C        5.39317         1.61648        -2.27400
| 34>    N        4.41952         1.13964        -2.65182
| 35>    C        9.21363         3.29235        -0.26704
| 36>    C        9.67369         1.93222        -0.21756
| 37>    C        8.85133         0.86077         0.19154
| 38>    O        7.55968         1.14019         0.55433
| 39>    C        7.11871         0.65927         1.81481
| 40>    C        9.36086        -0.44249         0.19313
| 41>    O        8.54263        -1.51269         0.50610
| 42>    C        7.61490        -1.84768        -0.50968
| 43>    C       10.69558        -0.68475        -0.14930
| 44>    C       11.51821         0.39214        -0.48227
| 45>    C       11.01610         1.66882        -0.51642
| 46>    C       11.22384        -2.05783        -0.14190
| 47>    C       11.96494        -2.54301        -1.23116
| 48>    O       12.16971        -1.73797        -2.34140
| 49>    C       11.02387        -1.51802        -3.14378
| 50>    C       12.50429        -3.83655        -1.18423
| 51>    O       13.32947        -4.41308        -2.09329
| 52>    C       13.63056        -3.80018        -3.32613
| 53>    C       12.24232        -4.64213        -0.06004
| 54>    C       11.51127        -4.14481         1.00622
| 55>    C       11.00934        -2.86097         0.97123
| 56>    C       12.73004        -6.03017        -0.01685
| 57>    C       12.34919        -6.93742        -1.02549
| 58>    O       11.53176        -6.43839        -1.98505
| 59>    C       10.68061        -7.29447        -2.71623
| 60>    C       12.80451        -8.25549        -0.95598
| 61>    O       12.54449        -9.15481        -1.98636
| 62>    C       13.58832        -9.21684        -2.93595
| 63>    C       13.57077        -8.68803         0.14360
| 64>    C       13.94535        -7.76682         1.11982
| 65>    C       13.52214        -6.45834         1.03711
| 66>    C       13.99715       -10.06200         0.27188
| 67>    C       13.32268       -11.18059        -0.07594
| 68>    C       14.04586       -12.47707        -0.20911
| 69>    O       15.15006       -12.73759         0.21012
| 70>    C       13.15549       -13.33209        -1.01767
| 71>    C       13.39058       -14.57868        -1.52299
| 72>    C       12.39659       -15.20338        -2.30837
| 73>    C       11.17519       -14.51439        -2.56584
| 74>    C       10.19295       -15.13881        -3.35966
| 75>    C       10.42858       -16.38913        -3.85901
| 76>    C       11.62057       -17.08475        -3.61322
| 77>    C       12.58595       -16.49253        -2.84787
| 78>    F        9.49127       -16.98738        -4.61665
| 79>    C       10.95533       -13.22737        -2.02335
| 80>    C       11.92690       -12.64812        -1.25185
| 81>    C       11.95859       -11.37689        -0.53720
| 82>    C       10.86591       -10.63436        -0.18826
| 83>    C       10.89310        -9.56210         0.72824
| 84>    N       10.82497        -8.72974         1.51568
| 85>    C        9.56292       -10.88655        -0.66332
| 86>    N        8.48953       -11.02629        -1.04565
| 87>    H        1.61167         3.97070        -0.63978
| 88>    H        1.15305         7.92352         0.90024
| 89>    H        3.61853         8.19597         0.99382
| 90>    H        3.84302         3.03868        -1.00952
| 91>    H        5.88620         7.27709         0.64448
| 92>    H        9.96208         4.04032        -0.01936
| 93>    H        6.06843         0.93903         1.88026
| 94>    H        7.67793         1.14676         2.61944
| 95>    H        7.22160        -0.42194         1.90880
| 96>    H        8.13105        -2.10087        -1.44045
| 97>    H        6.91053        -1.03338        -0.70607
| 98>    H        7.07483        -2.71845        -0.14331
| 99>    H       12.54998         0.20319        -0.73194
|100>    H       11.65052         2.49236        -0.80697
|101>    H       10.26393        -0.92718        -2.62690
|102>    H       10.58422        -2.46795        -3.46903
|103>    H       11.37232        -0.96252        -4.01237
|104>    H       14.09089        -2.81952        -3.19287
|105>    H       12.74397        -3.70299        -3.95758
|106>    H       14.33933        -4.47428        -3.80868
|107>    H       11.32189        -4.78507         1.85385
|108>    H       10.45005        -2.46824         1.80452
|109>    H        9.90326        -6.64712        -3.12364
|110>    H       10.22131        -8.04967        -2.07432
|111>    H       11.20017        -7.79045        -3.53965
|112>    H       13.77660        -8.23668        -3.38717
|113>    H       13.26185        -9.91898        -3.70185
|114>    H       14.51592        -9.57996        -2.47874
|115>    H       14.53566        -8.10100         1.95887
|116>    H       13.80452        -5.74729         1.79823
|117>    H       14.99784       -10.21976         0.66258
|118>    H       14.32466       -15.08312        -1.32542
|119>    H        9.26161       -14.63466        -3.56537
|120>    H       11.74938       -18.06992        -4.03264
|121>    H       13.51242       -17.00836        -2.64485
|122>    H       10.02525       -12.72532        -2.23795
|123> *
|124>
|125>                          ****END OF INPUT****

CARTESIAN COORDINATES (ANGSTROEM)
---------------------------------
  C      2.062220    4.884090   -0.283940
  C      1.280130    5.927970    0.125030
  F     -0.059360    5.807010    0.085820
  C      1.820130    7.134730    0.590610
  C      3.179000    7.276000    0.638760
  C      4.033220    6.231200    0.230130
  C      3.464430    5.012330   -0.242130
  C      4.300270    3.952240   -0.663740
  C      5.659650    4.105560   -0.609630
  C      6.221600    5.320580   -0.121440
  C      5.438770    6.362910    0.283930
  C      7.692450    5.209840   -0.121560
  O      8.503080    6.057810    0.172470
  C      7.979220    3.796980   -0.507590
  C      6.746830    3.208800   -0.989880
  C      6.625810    2.124720   -1.816320
  C      7.712240    1.407350   -2.352180
  N      8.546110    0.799100   -2.855720
  C      5.393170    1.616480   -2.274000
  N      4.419520    1.139640   -2.651820
  C      9.213630    3.292350   -0.267040
  C      9.673690    1.932220   -0.217560
  C      8.851330    0.860770    0.191540
  O      7.559680    1.140190    0.554330
  C      7.118710    0.659270    1.814810
  C      9.360860   -0.442490    0.193130
  O      8.542630   -1.512690    0.506100
  C      7.614900   -1.847680   -0.509680
  C     10.695580   -0.684750   -0.149300
  C     11.518210    0.392140   -0.482270
  C     11.016100    1.668820   -0.516420
  C     11.223840   -2.057830   -0.141900
  C     11.964940   -2.543010   -1.231160
  O     12.169710   -1.737970   -2.341400
  C     11.023870   -1.518020   -3.143780
  C     12.504290   -3.836550   -1.184230
  O     13.329470   -4.413080   -2.093290
  C     13.630560   -3.800180   -3.326130
  C     12.242320   -4.642130   -0.060040
  C     11.511270   -4.144810    1.006220
  C     11.009340   -2.860970    0.971230
  C     12.730040   -6.030170   -0.016850
  C     12.349190   -6.937420   -1.025490
  O     11.531760   -6.438390   -1.985050
  C     10.680610   -7.294470   -2.716230
  C     12.804510   -8.255490   -0.955980
  O     12.544490   -9.154810   -1.986360
  C     13.588320   -9.216840   -2.935950
  C     13.570770   -8.688030    0.143600
  C     13.945350   -7.766820    1.119820
  C     13.522140   -6.458340    1.037110
  C     13.997150  -10.062000    0.271880
  C     13.322680  -11.180590   -0.075940
  C     14.045860  -12.477070   -0.209110
  O     15.150060  -12.737590    0.210120
  C     13.155490  -13.332090   -1.017670
  C     13.390580  -14.578680   -1.522990
  C     12.396590  -15.203380   -2.308370
  C     11.175190  -14.514390   -2.565840
  C     10.192950  -15.138810   -3.359660
  C     10.428580  -16.389130   -3.859010
  C     11.620570  -17.084750   -3.613220
  C     12.585950  -16.492530   -2.847870
  F      9.491270  -16.987380   -4.616650
  C     10.955330  -13.227370   -2.023350
  C     11.926900  -12.648120   -1.251850
  C     11.958590  -11.376890   -0.537200
  C     10.865910  -10.634360   -0.188260
  C     10.893100   -9.562100    0.728240
  N     10.824970   -8.729740    1.515680
  C      9.562920  -10.886550   -0.663320
  N      8.489530  -11.026290   -1.045650
  H      1.611670    3.970700   -0.639780
  H      1.153050    7.923520    0.900240
  H      3.618530    8.195970    0.993820
  H      3.843020    3.038680   -1.009520
  H      5.886200    7.277090    0.644480
  H      9.962080    4.040320   -0.019360
  H      6.068430    0.939030    1.880260
  H      7.677930    1.146760    2.619440
  H      7.221600   -0.421940    1.908800
  H      8.131050   -2.100870   -1.440450
  H      6.910530   -1.033380   -0.706070
  H      7.074830   -2.718450   -0.143310
  H     12.549980    0.203190   -0.731940
  H     11.650520    2.492360   -0.806970
  H     10.263930   -0.927180   -2.626900
  H     10.584220   -2.467950   -3.469030
  H     11.372320   -0.962520   -4.012370
  H     14.090890   -2.819520   -3.192870
  H     12.743970   -3.702990   -3.957580
  H     14.339330   -4.474280   -3.808680
  H     11.321890   -4.785070    1.853850
  H     10.450050   -2.468240    1.804520
  H      9.903260   -6.647120   -3.123640
  H     10.221310   -8.049670   -2.074320
  H     11.200170   -7.790450   -3.539650
  H     13.776600   -8.236680   -3.387170
  H     13.261850   -9.918980   -3.701850
  H     14.515920   -9.579960   -2.478740
  H     14.535660   -8.101000    1.958870
  H     13.804520   -5.747290    1.798230
  H     14.997840  -10.219760    0.662580
  H     14.324660  -15.083120   -1.325420
  H      9.261610  -14.634660   -3.565370
  H     11.749380  -18.069920   -4.032640
  H     13.512420  -17.008360   -2.644850
  H     10.025250  -12.725320   -2.237950

 Total Charge           Charge          ....    0
 Multiplicity           Mult            ....    1
 Number of Electrons    NEL             ....  494
 Basis Dimension        Dim             .... 1188

ORBITAL ENERGIES
----------------

  NO   OCC          E(Eh)            E(eV)
   0   2.0000     -24.785021      -674.4347
   1   2.0000     -24.784853      -674.4301
   2   2.0000     -19.252435      -523.8854
   3   2.0000     -19.240461      -523.5596
   4   2.0000     -19.237795      -523.4870
   5   2.0000     -19.236062      -523.4399
   6   2.0000     -19.231887      -523.3263
   7   2.0000     -19.224167      -523.1162
   8   2.0000     -19.211157      -522.7621
   9   2.0000     -19.210836      -522.7534
  10   2.0000     -14.416320      -392.2880
  11   2.0000     -14.414289      -392.2328
  12   2.0000     -14.412123      -392.1738
  13   2.0000     -14.405744      -392.0002
  14   2.0000     -10.368571      -282.1431
  15   2.0000     -10.368410      -282.1388
  16   2.0000     -10.361987      -281.9640
  17   2.0000     -10.361891      -281.9614
  18   2.0000     -10.341941      -281.4185
  19   2.0000     -10.338085      -281.3136
  20   2.0000     -10.335667      -281.2478
  21   2.0000     -10.335410      -281.2408
  22   2.0000     -10.334177      -281.2073
  23   2.0000     -10.331739      -281.1409
  24   2.0000     -10.330259      -281.1006
  25   2.0000     -10.328124      -281.0425
  26   2.0000     -10.324397      -280.9411
  27   2.0000     -10.322805      -280.8978
  28   2.0000     -10.320008      -280.8217
  29   2.0000     -10.318775      -280.7881
  30   2.0000     -10.317920      -280.7649
  31   2.0000     -10.317076      -280.7419
  32   2.0000     -10.314570      -280.6737
  33   2.0000     -10.313116      -280.6341
  34   2.0000     -10.311041      -280.5777
  35   2.0000     -10.309675      -280.5405
  36   2.0000     -10.309237      -280.5286
  37   2.0000     -10.308110      -280.4979
  38   2.0000     -10.306102      -280.4433
  39   2.0000     -10.304848      -280.4092
  40   2.0000     -10.304645      -280.4036
  41   2.0000     -10.303616      -280.3756
  42   2.0000     -10.303194      -280.3642
  43   2.0000     -10.299959      -280.2761
  44   2.0000     -10.299758      -280.2707
  45   2.0000     -10.299709      -280.2693
  46   2.0000     -10.298396      -280.2336
  47   2.0000     -10.298188      -280.2279
  48   2.0000     -10.296771      -280.1894
  49   2.0000     -10.296680      -280.1869
  50   2.0000     -10.296150      -280.1725
  51   2.0000     -10.295538      -280.1558
  52   2.0000     -10.293346      -280.0962
  53   2.0000     -10.293342      -280.0961
  54   2.0000     -10.291287      -280.0402
  55   2.0000     -10.290688      -280.0239
  56   2.0000     -10.289374      -279.9881
  57   2.0000     -10.288020      -279.9513
  58   2.0000     -10.287744      -279.9437
  59   2.0000     -10.287707      -279.9427
  60   2.0000     -10.287607      -279.9400
  61   2.0000     -10.287580      -279.9393
  62   2.0000     -10.284497      -279.8554
  63   2.0000     -10.278925      -279.7038
  64   2.0000     -10.277043      -279.6526
  65   2.0000     -10.272810      -279.5374
  66   2.0000     -10.271201      -279.4936
  67   2.0000     -10.270641      -279.4784
  68   2.0000     -10.267883      -279.4033
  69   2.0000     -10.266830      -279.3747
  70   2.0000     -10.258429      -279.1460
  71   2.0000     -10.255393      -279.0634
  72   2.0000      -1.299809       -35.3696
  73   2.0000      -1.299708       -35.3668
  74   2.0000      -1.159822       -31.5604
  75   2.0000      -1.153743       -31.3950
  76   2.0000      -1.141870       -31.0719
  77   2.0000      -1.131527       -30.7904
  78   2.0000      -1.131006       -30.7762
  79   2.0000      -1.126321       -30.6488
  80   2.0000      -1.125856       -30.6361
  81   2.0000      -1.118523       -30.4365
  82   2.0000      -1.016670       -27.6650
  83   2.0000      -1.013098       -27.5678
  84   2.0000      -0.999342       -27.1935
  85   2.0000      -0.996976       -27.1291
  86   2.0000      -0.993868       -27.0445
  87   2.0000      -0.987585       -26.8736
  88   2.0000      -0.974174       -26.5086
  89   2.0000      -0.972788       -26.4709
  90   2.0000      -0.962733       -26.1973
  91   2.0000      -0.956748       -26.0344
  92   2.0000      -0.938593       -25.5404
  93   2.0000      -0.924897       -25.1677
  94   2.0000      -0.922881       -25.1129
  95   2.0000      -0.904183       -24.6041
  96   2.0000      -0.897885       -24.4327
  97   2.0000      -0.889203       -24.1964
  98   2.0000      -0.885447       -24.0942
  99   2.0000      -0.882278       -24.0080
 100   2.0000      -0.876272       -23.8446
 101   2.0000      -0.856624       -23.3099
 102   2.0000      -0.846449       -23.0330
 103   2.0000      -0.842883       -22.9360
 104   2.0000      -0.839859       -22.8537
 105   2.0000      -0.833409       -22.6782
 106   2.0000      -0.831969       -22.6390
 107   2.0000      -0.830980       -22.6121
 108   2.0000      -0.817497       -22.2452
 109   2.0000      -0.799112       -21.7450
 110   2.0000      -0.798111       -21.7177
 111   2.0000      -0.786679       -21.4066
 112   2.0000      -0.781335       -21.2612
 113   2.0000      -0.767529       -20.8855
 114   2.0000      -0.761753       -20.7284
 115   2.0000      -0.759809       -20.6754
 116   2.0000      -0.759108       -20.6564
 117   2.0000      -0.755003       -20.5447
 118   2.0000      -0.747325       -20.3358
 119   2.0000      -0.734005       -19.9733
 120   2.0000      -0.721831       -19.6420
 121   2.0000      -0.716098       -19.4860
 122   2.0000      -0.707584       -19.2543
 123   2.0000      -0.706946       -19.2370
 124   2.0000      -0.701207       -19.0808
 125   2.0000      -0.686307       -18.6754
 126   2.0000      -0.682486       -18.5714
 127   2.0000      -0.680509       -18.5176
 128   2.0000      -0.677255       -18.4291
 129   2.0000      -0.673110       -18.3162
 130   2.0000      -0.671720       -18.2784
 131   2.0000      -0.666542       -18.1375
 132   2.0000      -0.655518       -17.8375
 133   2.0000      -0.638431       -17.3726
 134   2.0000      -0.637358       -17.3434
 135   2.0000      -0.630262       -17.1503
 136   2.0000      -0.629533       -17.1305
 137   2.0000      -0.626218       -17.0403
 138   2.0000      -0.624729       -16.9998
 139   2.0000      -0.613961       -16.7067
 140   2.0000      -0.608812       -16.5666
 141   2.0000      -0.606515       -16.5041
 142   2.0000      -0.600097       -16.3295
 143   2.0000      -0.595482       -16.2039
 144   2.0000      -0.589854       -16.0507
 145   2.0000      -0.587940       -15.9987
 146   2.0000      -0.585128       -15.9221
 147   2.0000      -0.582520       -15.8512
 148   2.0000      -0.574603       -15.6357
 149   2.0000      -0.571326       -15.5466
 150   2.0000      -0.565737       -15.3945
 151   2.0000      -0.563493       -15.3334
 152   2.0000      -0.562787       -15.3142
 153   2.0000      -0.561296       -15.2736
 154   2.0000      -0.558111       -15.1870
 155   2.0000      -0.557384       -15.1672
 156   2.0000      -0.557172       -15.1614
 157   2.0000      -0.556219       -15.1355
 158   2.0000      -0.551020       -14.9940
 159   2.0000      -0.550055       -14.9678
 160   2.0000      -0.547931       -14.9100
 161   2.0000      -0.545439       -14.8421
 162   2.0000      -0.544908       -14.8277
 163   2.0000      -0.540838       -14.7169
 164   2.0000      -0.540198       -14.6995
 165   2.0000      -0.538145       -14.6437
 166   2.0000      -0.534449       -14.5431
 167   2.0000      -0.530834       -14.4447
 168   2.0000      -0.530122       -14.4253
 169   2.0000      -0.525514       -14.3000
 170   2.0000      -0.522373       -14.2145
 171   2.0000      -0.522153       -14.2085
 172   2.0000      -0.519056       -14.1242
 173   2.0000      -0.518974       -14.1220
 174   2.0000      -0.517981       -14.0950
 175   2.0000      -0.515841       -14.0367
 176   2.0000      -0.513499       -13.9730
 177   2.0000      -0.511714       -13.9244
 178   2.0000      -0.509271       -13.8580
 179   2.0000      -0.506570       -13.7845
 180   2.0000      -0.502548       -13.6750
 181   2.0000      -0.498366       -13.5612
 182   2.0000      -0.496784       -13.5182
 183   2.0000      -0.494024       -13.4431
 184   2.0000      -0.491469       -13.3736
 185   2.0000      -0.489922       -13.3315
 186   2.0000      -0.485511       -13.2114
 187   2.0000      -0.484452       -13.1826
 188   2.0000      -0.481854       -13.1119
 189   2.0000      -0.480644       -13.0790
 190   2.0000      -0.477852       -13.0030
 191   2.0000      -0.471408       -12.8277
 192   2.0000      -0.467686       -12.7264
 193   2.0000      -0.465461       -12.6658
 194   2.0000      -0.461077       -12.5466
 195   2.0000      -0.456968       -12.4347
 196   2.0000      -0.456059       -12.4100
 197   2.0000      -0.455659       -12.3991
 198   2.0000      -0.453841       -12.3496
 199   2.0000      -0.451587       -12.2883
 200   2.0000      -0.451155       -12.2765
 201   2.0000      -0.449577       -12.2336
 202   2.0000      -0.445100       -12.1118
 203   2.0000      -0.442507       -12.0412
 204   2.0000      -0.439556       -11.9609
 205   2.0000      -0.438427       -11.9302
 206   2.0000      -0.437064       -11.8931
 207   2.0000      -0.436186       -11.8692
 208   2.0000      -0.434170       -11.8144
 209   2.0000      -0.433237       -11.7890
 210   2.0000      -0.428916       -11.6714
 211   2.0000      -0.427920       -11.6443
 212   2.0000      -0.423788       -11.5318
 213   2.0000      -0.421989       -11.4829
 214   2.0000      -0.421354       -11.4656
 215   2.0000      -0.419795       -11.4232
 216   2.0000      -0.417677       -11.3656
 217   2.0000      -0.417171       -11.3518
 218   2.0000      -0.412636       -11.2284
 219   2.0000      -0.410584       -11.1726
 220   2.0000      -0.408160       -11.1066
 221   2.0000      -0.403539       -10.9809
 222   2.0000      -0.398991       -10.8571
 223   2.0000      -0.394529       -10.7357
 224   2.0000      -0.392147       -10.6709
 225   2.0000      -0.388755       -10.5786
 226   2.0000      -0.383733       -10.4419
 227   2.0000      -0.381510       -10.3814
 228   2.0000      -0.377286       -10.2665
 229   2.0000      -0.376331       -10.2405
 230   2.0000      -0.357805        -9.7364
 231   2.0000      -0.353724        -9.6253
 232   2.0000      -0.346421        -9.4266
 233   2.0000      -0.345325        -9.3968
 234   2.0000      -0.340708        -9.2711
 235   2.0000      -0.331981        -9.0337
 236   2.0000      -0.331116        -9.0101
 237   2.0000      -0.316213        -8.6046
 238   2.0000      -0.312708        -8.5092
 239   2.0000      -0.308811        -8.4032
 240   2.0000      -0.302690        -8.2366
 241   2.0000      -0.300017        -8.1639
 242   2.0000      -0.294930        -8.0255
 243   2.0000      -0.294476        -8.0131
 244   2.0000      -0.285316        -7.7638
 245   2.0000      -0.277666        -7.5557
 246   2.0000      -0.263827        -7.1791
 247   0.0000      -0.085072        -2.3149
 248   0.0000      -0.083124        -2.2619
 249   0.0000      -0.051100        -1.3905
 250   0.0000      -0.049274        -1.3408
 251   0.0000      -0.022457        -0.6111

MULLIKEN ATOMIC CHARGES
-----------------------
   0 C :   -0.099215
   1 C :    0.303548
   2 F :   -0.191066
   3 C :   -0.030341
   4 C :   -0.008930
   5 C :    0.100958
   6 C :    0.105045
   7 C :   -0.093613
   8 C :    0.038761
   9 C :    0.010679
  10 C :   -0.083264
  11 C :    0.134006
  12 O :   -0.144658
  13 C :   -0.119741
  14 C :    0.325853
  15 C :   -0.319474
  16 C :   -0.209581
  17 N :    0.183640
  18 C :   -0.197033
  19 N :    0.153353
  20 C :    0.008687
  21 C :    0.050047
  22 C :    0.128109
  23 O :   -0.342564
  24 C :    0.178554
  25 C :    0.098255
  26 O :   -0.347899
  27 C :    0.202716
  28 C :   -0.018076
  29 C :    0.017565
  30 C :   -0.009348
  31 C :    0.040262
  32 C :    0.038245
  33 O :   -0.362815
  34 C :    0.194537
  35 C :    0.192533
  36 O :   -0.308795
  37 C :    0.203713
  38 C :   -0.019484
  39 C :   -0.016295
  40 C :   -0.001631
  41 C :    0.025429
  42 C :    0.206974
  43 O :   -0.306017
  44 C :    0.207105
  45 C :    0.018914
  46 O :   -0.367028
  47 C :    0.209666
  48 C :    0.073430
  49 C :   -0.011514
  50 C :   -0.000503
  51 C :   -0.005135
  52 C :   -0.121151
  53 C :    0.137496
  54 O :   -0.141833
  55 C :    0.002395
  56 C :   -0.083959
  57 C :    0.100052
  58 C :    0.102363
  59 C :   -0.098272
  60 C :    0.302735
  61 C :   -0.028958
  62 C :   -0.007457
  63 F :   -0.191231
  64 C :   -0.089675
  65 C :    0.039498
  66 C :    0.324070
  67 C :   -0.322075
  68 C :   -0.210941
  69 N :    0.182989
  70 C :   -0.198267
  71 N :    0.153432
  72 H :   -0.003419
  73 H :    0.003070
  74 H :   -0.009621
  75 H :   -0.007021
  76 H :   -0.012527
  77 H :    0.023276
  78 H :    0.031459
  79 H :    0.020560
  80 H :    0.048739
  81 H :    0.019621
  82 H :    0.023357
  83 H :    0.035471
  84 H :   -0.011037
  85 H :   -0.020086
  86 H :    0.048526
  87 H :    0.005189
  88 H :    0.024291
  89 H :    0.031783
  90 H :    0.006287
  91 H :    0.017763
  92 H :   -0.016349
  93 H :   -0.027178
  94 H :    0.026292
  95 H :    0.025533
  96 H :    0.007420
  97 H :    0.021041
  98 H :    0.033422
  99 H :    0.018602
 100 H :   -0.024975
 101 H :   -0.021514
 102 H :    0.023784
 103 H :   -0.012916
 104 H :   -0.003172
 105 H :    0.002764
 106 H :   -0.009805
 107 H :   -0.006406
Sum of atomic charges:    0.0000000

LOEWDIN ATOMIC CHARGES
----------------------
   0 C :   -0.042971
   1 C :    0.092902
   2 F :   -0.065319
   3 C :   -0.037807
   4 C :    0.004584
   5 C :   -0.019341
   6 C :    0.003264
   7 C :    0.008011
   8 C :   -0.015324
   9 C :   -0.059837
  10 C :    0.033937
  11 C :    0.084126
  12 O :   -0.144382
  13 C :   -0.088942
  14 C :    0.077810
  15 C :   -0.133560
  16 C :   -0.004858
  17 N :   -0.051421
  18 C :   -0.018645
  19 N :   -0.058125
  20 C :    0.078144
  21 C :   -0.060160
  22 C :    0.046408
  23 O :   -0.105064
  24 C :    0.080505
  25 C :    0.025249
  26 O :   -0.125086
  27 C :    0.081815
  28 C :   -0.008118
  29 C :   -0.009565
  30 C :    0.000114
  31 C :   -0.036270
  32 C :    0.012018
  33 O :   -0.136726
  34 C :    0.074708
  35 C :    0.051527
  36 O :   -0.095076
  37 C :    0.076785
  38 C :   -0.036044
  39 C :   -0.015387
  40 C :   -0.021288
  41 C :   -0.006852
  42 C :    0.055385
  43 O :   -0.092308
  44 C :    0.080014
  45 C :    0.013622
  46 O :   -0.129806
  47 C :    0.077383
  48 C :   -0.056020
  49 C :   -0.008856
  50 C :   -0.006378
  51 C :    0.078950
  52 C :   -0.086666
  53 C :    0.082165
  54 O :   -0.144657
  55 C :   -0.060559
  56 C :    0.033280
  57 C :   -0.019478
  58 C :    0.003083
  59 C :   -0.042759
  60 C :    0.092793
  61 C :   -0.037668
  62 C :    0.004430
  63 F :   -0.065339
  64 C :    0.009450
  65 C :   -0.014885
  66 C :    0.078860
  67 C :   -0.128181
  68 C :   -0.021925
  69 N :   -0.045426
  70 C :   -0.017123
  71 N :   -0.057742
  72 H :    0.042763
  73 H :    0.041757
  74 H :    0.035544
  75 H :    0.038397
  76 H :    0.039353
  77 H :    0.046690
  78 H :    0.024972
  79 H :    0.016843
  80 H :    0.017084
  81 H :    0.017899
  82 H :    0.010793
  83 H :    0.026872
  84 H :    0.035344
  85 H :    0.032809
  86 H :    0.010995
  87 H :    0.006288
  88 H :    0.024917
  89 H :    0.016922
  90 H :    0.011852
  91 H :    0.018486
  92 H :    0.033595
  93 H :    0.027934
  94 H :    0.022430
  95 H :    0.018482
  96 H :    0.010770
  97 H :    0.015217
  98 H :    0.024034
  99 H :    0.013297
 100 H :    0.030807
 101 H :    0.033081
 102 H :    0.046229
 103 H :    0.039230
 104 H :    0.042888
 105 H :    0.041646
 106 H :    0.035521
 107 H :    0.038877

  Mayer bond orders larger than 0.100000
B(  0-C ,  1-C ) :   1.4425 B(  0-C ,  6-C ) :   1.2009 B(  0-C , 72-H ) :   1.0062
B(  1-C ,  2-F ) :   1.0886 B(  1-C ,  3-C ) :   1.2531 B(  3-C ,  4-C ) :   1.4621
B(  3-C , 73-H ) :   0.9926 B(  4-C ,  5-C ) :   1.2361 B(  4-C , 74-H ) :   0.9962
B(  5-C ,  6-C ) :   1.2535 B(  5-C , 10-C ) :   1.1918 B(  6-C ,  7-C ) :   1.2046
B(  7-C ,  8-C ) :   1.4569 B(  7-C , 75-H ) :   0.9942 B(  8-C ,  9-C ) :   1.2138
B(  8-C , 14-C ) :   1.0055 B(  9-C , 10-C ) :   1.4702 B(  9-C , 11-C ) :   0.9202
B( 10-C , 76-H ) :   1.0148 B( 11-C , 12-O ) :   2.2669 B( 11-C , 13-C ) :   0.9359
B( 13-C , 14-C ) :   1.0251 B( 13-C , 20-C ) :   1.6942 B( 14-C , 15-C ) :   1.6482
B( 15-C , 16-C ) :   1.1684 B( 15-C , 18-C ) :   1.1436 B( 16-C , 17-N ) :   2.9801
B( 18-C , 19-N ) :   2.9769 B( 20-C , 21-C ) :   1.0627 B( 20-C , 77-H ) :   0.9398
B( 21-C , 22-C ) :   1.3207 B( 21-C , 30-C ) :   1.2918 B( 22-C , 23-O ) :   1.1306
B( 22-C , 25-C ) :   1.3074 B( 23-O , 24-C ) :   0.9265 B( 24-C , 78-H ) :   0.9820
B( 24-C , 79-H ) :   0.9705 B( 24-C , 80-H ) :   0.9623 B( 25-C , 26-O ) :   1.1139
B( 25-C , 28-C ) :   1.4055 B( 26-O , 27-C ) :   0.9280 B( 27-C , 81-H ) :   0.9667
B( 27-C , 82-H ) :   0.9689 B( 27-C , 83-H ) :   0.9802 B( 28-C , 29-C ) :   1.3414
B( 28-C , 31-C ) :   0.9351 B( 29-C , 30-C ) :   1.3745 B( 29-C , 84-H ) :   1.0006
B( 30-C , 85-H ) :   1.0050 B( 31-C , 32-C ) :   1.3668 B( 31-C , 38-C ) :   0.1111
B( 31-C , 40-C ) :   1.3782 B( 32-C , 33-O ) :   1.1057 B( 32-C , 35-C ) :   1.3123
B( 33-O , 34-C ) :   0.9266 B( 34-C , 86-H ) :   0.9555 B( 34-C , 87-H ) :   0.9562
B( 34-C , 88-H ) :   0.9767 B( 35-C , 36-O ) :   1.2039 B( 35-C , 38-C ) :   1.3614
B( 36-O , 37-C ) :   0.9441 B( 37-C , 89-H ) :   0.9733 B( 37-C , 90-H ) :   0.9725
B( 37-C , 91-H ) :   0.9761 B( 38-C , 39-C ) :   1.4262 B( 38-C , 41-C ) :   0.9194
B( 39-C , 40-C ) :   1.3253 B( 39-C , 92-H ) :   1.0030 B( 40-C , 93-H ) :   0.9984
B( 41-C , 42-C ) :   1.3606 B( 41-C , 48-C ) :   0.1057 B( 41-C , 50-C ) :   1.4191
B( 42-C , 43-O ) :   1.2122 B( 42-C , 45-C ) :   1.3301 B( 43-O , 44-C ) :   0.9472
B( 44-C , 94-H ) :   0.9766 B( 44-C , 95-H ) :   0.9729 B( 44-C , 96-H ) :   0.9721
B( 45-C , 46-O ) :   1.0634 B( 45-C , 48-C ) :   1.3159 B( 46-O , 47-C ) :   0.9425
B( 47-C , 97-H ) :   0.9656 B( 47-C , 98-H ) :   0.9807 B( 47-C , 99-H ) :   0.9660
B( 48-C , 49-C ) :   1.3335 B( 48-C , 51-C ) :   1.0219 B( 49-C , 50-C ) :   1.3204
B( 49-C ,100-H ) :   1.0036 B( 50-C ,101-H ) :   1.0005 B( 51-C , 52-C ) :   1.7314
B( 51-C ,102-H ) :   0.9444 B( 52-C , 53-C ) :   0.9320 B( 52-C , 66-C ) :   1.0056
B( 53-C , 54-O ) :   2.2785 B( 53-C , 55-C ) :   0.9166 B( 55-C , 56-C ) :   1.4658
B( 55-C , 65-C ) :   1.2156 B( 56-C , 57-C ) :   1.1933 B( 56-C ,103-H ) :   1.0160
B( 57-C , 58-C ) :   1.2550 B( 57-C , 62-C ) :   1.2330 B( 58-C , 59-C ) :   1.2004
B( 58-C , 64-C ) :   1.2030 B( 59-C , 60-C ) :   1.4421 B( 59-C ,104-H ) :   1.0071
B( 60-C , 61-C ) :   1.2520 B( 60-C , 63-F ) :   1.0879 B( 61-C , 62-C ) :   1.4630
B( 61-C ,105-H ) :   0.9926 B( 62-C ,106-H ) :   0.9969 B( 64-C , 65-C ) :   1.4554
B( 64-C ,107-H ) :   0.9958 B( 65-C , 66-C ) :   1.0068 B( 66-C , 67-C ) :   1.6733
B( 67-C , 68-C ) :   1.1617 B( 67-C , 70-C ) :   1.1455 B( 68-C , 69-N ) :   3.0057
B( 70-C , 71-N ) :   2.9729

-----------------------------------------------------------------------------
         ABSORPTION SPECTRUM VIA TRANSITION ELECTRIC DIPOLE MOMENTS
-----------------------------------------------------------------------------
State   Energy  Wavelength   fosc         T2         TX        TY        TZ
        (cm-1)    (nm)                  (au**2)     (au)      (au)      (au)
-----------------------------------------------------------------------------
   0   22879.0    437.1   0.406440726   5.84837  -0.01326   2.41759   0.05885
   1   24340.1    410.8   0.435494495   5.89029  -1.93035   1.36186  -0.55620
   2   25330.3    394.8   0.026013958   0.33810  -0.19893  -0.54447   0.04551
   3   26801.2    373.1   0.042322515   0.51987   0.30263  -0.64796  -0.09178
   4   27685.7    361.2   0.001076477   0.01280   0.10121   0.00625   0.05018
   5   28034.8    356.7   0.041223148   0.48408   0.44141   0.48184   0.23890
   6   28832.1    346.8   0.056525436   0.64542  -0.04412  -0.58680  -0.54694
   7   28879.0    346.3   0.030475426   0.34741   0.57024  -0.06654  -0.13347
   8   29215.6    342.3   0.022740448   0.25625  -0.45466   0.15048   0.16397
   9   29812.6    335.4   0.014285355   0.15775   0.06283  -0.10695  -0.37731
  10   30588.6    326.9   0.009515425   0.10241   0.06986   0.10883  -0.29272
  11   30864.0    324.0   0.014276610   0.15228  -0.20940  -0.26448   0.19617
  12   31491.6    317.5   0.172282551   1.80103   0.04165  -1.13711  -0.71153
  13   31836.1    314.1   0.213762306   2.21048   0.88057  -1.16003  -0.29902
  14   32468.2    308.0   0.421419546   4.27299   0.28453  -1.96896  -0.56146
  15   32867.4    304.3   0.142080426   1.42313  -0.85345   0.82510  -0.11813
  16   33655.3    297.1   0.632404429   6.18611   1.26273  -1.99537  -0.78111
  17   33865.1    295.3   0.127670577   1.24112  -0.31177   0.94135   0.50772
  18   34886.3    286.6   0.029248367   0.27601  -0.30441  -0.36407  -0.22538
  19   35074.6    285.1   0.170383851   1.59923  -0.70631   1.01363   0.27003
  20   35377.9    282.7   0.638721599   5.94368   1.58330  -1.62600  -0.89049
  21   35428.0    282.3   0.113911030   1.05851  -0.22205   0.50522   0.86831
  22   35922.6    278.4   0.091801547   0.84131  -0.78548   0.31783   0.35117
  23   36376.7    274.9   0.584228693   5.28732   0.00794   2.13560   0.85234
  24   36452.0    274.3   0.068090786   0.61495   0.40181  -0.59080  -0.32320
  25   37012.0    270.2   0.011062228   0.09840   0.22609   0.05987   0.20903
  26   37269.3    268.3   0.001067161   0.00943   0.01736  -0.08985  -0.03245
  27   37741.7    265.0   0.000087942   0.00077   0.02498  -0.01017   0.00630
  28   37938.1    263.6   0.003185376   0.02764   0.15172   0.02064   0.06477
  29   38803.4    257.7   0.009057064   0.07684   0.18582   0.10934   0.17423
  30   39113.3    255.7   0.228975719   1.92726  -0.07028   1.38621   0.02741
  31   39275.1    254.6   0.088079126   0.73830  -0.79076   0.33541  -0.02229
  32   39519.2    253.0   0.027963801   0.23295  -0.38134   0.12219  -0.26945
  33   39618.9    252.4   0.001052121   0.00874  -0.02667  -0.02025   0.08730
  34   39792.7    251.3   0.150395599   1.24425   0.08818  -1.10605   0.11458

FINAL SINGLE POINT ENERGY     -3248.168558466813

DIPOLE MOMENT
-------------
                                X             Y             Z
Electronic contribution:    -23.50744      -5.90102       5.84194
Nuclear contribution   :     24.38516       6.21031      -6.22753
                        -----------------------------------------
Total Dipole Moment    :      0.87771       0.30929      -0.38559
                        -----------------------------------------
Magnitude (a.u.)       :      1.00734
Magnitude (Debye)      :      2.56044

Rotational constants in cm-1:     0.002451     0.000288     0.000271
Rotational constants in MHz :    73.485401     8.625757     8.113321

                             ****ORCA TERMINATED NORMALLY****
TOTAL RUN TIME: 0 days 0 hours 9 minutes 48 seconds 65 msec
