                         Program Version 4.2.0 -  RELEASE  -
|  1> # ORCA input file
|  2> # SCF done       -125.134874680221          0.000849227197
|  3> ! CAM-B3LYP def2-SVP def2/J RIJCOSX Grid4 TightSCF
|  4> %maxcore 5000
|  5> %tddft
|  6>     Mode sTDDFT
|  7>     Ethresh 5.0
|  8>     maxcore 5000
|  9> end
| 10>
| 11> %pal
| 12>   nprocs 6
| 13>   end
| 14> * xyz 0 1
| 15>    C        0.53166         0.25167         3.53853
| 16>    N        0.97116         0.01210         2.31787
| 17>    N        0.78179        -1.13389         1.75630
| 18>    C        0.13468        -2.11090         2.39782
| 19>    C       -0.36276        -1.92953         3.69997
| 20>    C       -0.15558        -0.70362         4.28927
| 21>    C       -0.01744        -3.34838         1.67643
| 22>    C        0.44950        -3.61850         0.40937
| 23>    C        0.13296        -4.91800         0.00301
| 24>    C       -0.58187        -5.63179         0.97908
| 25>    S       -0.86266        -4.71357         2.38575
| 26>    C       -0.85926        -6.93244         0.48151
| 27>    C       -0.31862        -7.04014        -0.80837
| 28>    C        0.32217        -5.77779        -1.15350
| 29>    C        0.95796        -5.47563        -2.32107
| 30>    C        1.06780        -6.40968        -3.37318
| 31>    N        1.15545        -7.16873        -4.22810
| 32>    C        1.54800        -4.21666        -2.56473
| 33>    N        2.03226        -3.20051        -2.78026
| 34>    C       -0.54140        -8.29008        -1.38715
| 35>    C       -1.24777        -9.12989        -0.54665
| 36>    S       -1.64227        -8.36454         0.98500
| 37>    C       -1.65797       -10.46406        -0.80107
| 38>    C       -2.37251       -11.30199         0.03461
| 39>    C       -2.60537       -12.54708        -0.55075
| 40>    C       -2.06181       -12.65347        -1.83976
| 41>    S       -1.26446       -11.22612        -2.33452
| 42>    C       -2.35445       -13.94613        -2.34698
| 43>    C       -3.08398       -14.65716        -1.37859
| 44>    C       -3.26518       -13.80253        -0.21686
| 45>    C       -3.91470       -14.10133         0.94428
| 46>    C       -4.52629       -15.35226         1.17438
| 47>    N       -5.02740       -16.36290         1.37757
| 48>    C       -4.01919       -13.17175         2.00068
| 49>    N       -4.10527       -12.41656         2.85918
| 50>    C       -3.42137       -15.94651        -1.79784
| 51>    C       -2.95469       -16.21332        -3.06696
| 52>    S       -2.08335       -14.85544        -3.76074
| 53>    C       -3.12489       -17.43443        -3.80586
| 54>    N       -3.81670       -18.40324        -3.19502
| 55>    N       -4.02748       -19.53114        -3.77553
| 56>    C       -3.56863       -19.77644        -4.99942
| 57>    C       -2.82925       -18.81936        -5.71524
| 58>    C       -2.60104       -17.61459        -5.10021
| 59>    C       -3.86734       -21.08903        -5.57396
| 60>    N       -3.39310       -21.33064        -6.79226
| 61>    N       -3.61247       -22.46353        -7.37677
| 62>    C       -4.31293       -23.40589        -6.77487
| 63>    C       -4.84945       -23.24510        -5.49634
| 64>    C       -4.61960       -22.04060        -4.86852
| 65>    H        0.73903         1.23926         3.92322
| 66>    H       -0.88390        -2.72956         4.20564
| 67>    H       -0.50647        -0.48540         5.28636
| 68>    H        0.98870        -2.88515        -0.16135
| 69>    H       -0.21403        -8.58789        -2.36706
| 70>    H       -2.70002       -11.00529         1.01485
| 71>    H       -3.97569       -16.67454        -1.23471
| 72>    H       -2.47129       -19.05464        -6.70443
| 73>    H       -2.04183       -16.82388        -5.57957
| 74>    H       -4.44502       -24.31701        -7.34052
| 75>    H       -5.41822       -24.03371        -5.02746
| 76>    H       -4.98576       -21.80593        -3.88188
| 77> *
| 78>
| 79>                          ****END OF INPUT****

CARTESIAN COORDINATES (ANGSTROEM)
---------------------------------
  C      0.531660    0.251670    3.538530
  N      0.971160    0.012100    2.317870
  N      0.781790   -1.133890    1.756300
  C      0.134680   -2.110900    2.397820
  C     -0.362760   -1.929530    3.699970
  C     -0.155580   -0.703620    4.289270
  C     -0.017440   -3.348380    1.676430
  C      0.449500   -3.618500    0.409370
  C      0.132960   -4.918000    0.003010
  C     -0.581870   -5.631790    0.979080
  S     -0.862660   -4.713570    2.385750
  C     -0.859260   -6.932440    0.481510
  C     -0.318620   -7.040140   -0.808370
  C      0.322170   -5.777790   -1.153500
  C      0.957960   -5.475630   -2.321070
  C      1.067800   -6.409680   -3.373180
  N      1.155450   -7.168730   -4.228100
  C      1.548000   -4.216660   -2.564730
  N      2.032260   -3.200510   -2.780260
  C     -0.541400   -8.290080   -1.387150
  C     -1.247770   -9.129890   -0.546650
  S     -1.642270   -8.364540    0.985000
  C     -1.657970  -10.464060   -0.801070
  C     -2.372510  -11.301990    0.034610
  C     -2.605370  -12.547080   -0.550750
  C     -2.061810  -12.653470   -1.839760
  S     -1.264460  -11.226120   -2.334520
  C     -2.354450  -13.946130   -2.346980
  C     -3.083980  -14.657160   -1.378590
  C     -3.265180  -13.802530   -0.216860
  C     -3.914700  -14.101330    0.944280
  C     -4.526290  -15.352260    1.174380
  N     -5.027400  -16.362900    1.377570
  C     -4.019190  -13.171750    2.000680
  N     -4.105270  -12.416560    2.859180
  C     -3.421370  -15.946510   -1.797840
  C     -2.954690  -16.213320   -3.066960
  S     -2.083350  -14.855440   -3.760740
  C     -3.124890  -17.434430   -3.805860
  N     -3.816700  -18.403240   -3.195020
  N     -4.027480  -19.531140   -3.775530
  C     -3.568630  -19.776440   -4.999420
  C     -2.829250  -18.819360   -5.715240
  C     -2.601040  -17.614590   -5.100210
  C     -3.867340  -21.089030   -5.573960
  N     -3.393100  -21.330640   -6.792260
  N     -3.612470  -22.463530   -7.376770
  C     -4.312930  -23.405890   -6.774870
  C     -4.849450  -23.245100   -5.496340
  C     -4.619600  -22.040600   -4.868520
  H      0.739030    1.239260    3.923220
  H     -0.883900   -2.729560    4.205640
  H     -0.506470   -0.485400    5.286360
  H      0.988700   -2.885150   -0.161350
  H     -0.214030   -8.587890   -2.367060
  H     -2.700020  -11.005290    1.014850
  H     -3.975690  -16.674540   -1.234710
  H     -2.471290  -19.054640   -6.704430
  H     -2.041830  -16.823880   -5.579570
  H     -4.445020  -24.317010   -7.340520
  H     -5.418220  -24.033710   -5.027460
  H     -4.985760  -21.805930   -3.881880

 Total Charge           Charge          ....    0
 Multiplicity           Mult            ....    1
 Number of Electrons    NEL             ....  362
 Basis Dimension        Dim             ....  776

ORBITAL ENERGIES
----------------

  NO   OCC          E(Eh)            E(eV)
   0   2.0000     -88.995542     -2421.6918
   1   2.0000     -88.995289     -2421.6849
   2   2.0000     -88.994385     -2421.6603
   3   2.0000     -88.993627     -2421.6397
   4   2.0000     -14.447596      -393.1391
   5   2.0000     -14.445002      -393.0685
   6   2.0000     -14.440764      -392.9532
   7   2.0000     -14.440118      -392.9356
   8   2.0000     -14.440065      -392.9341
   9   2.0000     -14.436637      -392.8409
  10   2.0000     -14.433570      -392.7574
  11   2.0000     -14.432635      -392.7320
  12   2.0000     -14.429994      -392.6601
  13   2.0000     -14.428530      -392.6203
  14   2.0000     -10.367453      -282.1127
  15   2.0000     -10.366582      -282.0890
  16   2.0000     -10.354266      -281.7539
  17   2.0000     -10.353156      -281.7237
  18   2.0000     -10.337178      -281.2889
  19   2.0000     -10.336187      -281.2619
  20   2.0000     -10.336140      -281.2607
  21   2.0000     -10.335481      -281.2427
  22   2.0000     -10.335251      -281.2365
  23   2.0000     -10.334982      -281.2292
  24   2.0000     -10.334639      -281.2198
  25   2.0000     -10.334436      -281.2143
  26   2.0000     -10.333873      -281.1990
  27   2.0000     -10.332909      -281.1728
  28   2.0000     -10.329652      -281.0841
  29   2.0000     -10.328058      -281.0408
  30   2.0000     -10.323424      -280.9147
  31   2.0000     -10.322331      -280.8849
  32   2.0000     -10.320848      -280.8446
  33   2.0000     -10.319654      -280.8121
  34   2.0000     -10.314079      -280.6604
  35   2.0000     -10.312968      -280.6301
  36   2.0000     -10.309859      -280.5455
  37   2.0000     -10.308780      -280.5162
  38   2.0000     -10.308665      -280.5130
  39   2.0000     -10.308356      -280.5046
  40   2.0000     -10.307625      -280.4847
  41   2.0000     -10.306673      -280.4588
  42   2.0000     -10.306363      -280.4504
  43   2.0000     -10.304348      -280.3956
  44   2.0000     -10.303681      -280.3774
  45   2.0000     -10.303383      -280.3693
  46   2.0000     -10.301726      -280.3242
  47   2.0000     -10.300455      -280.2896
  48   2.0000     -10.298690      -280.2416
  49   2.0000     -10.298346      -280.2322
  50   2.0000      -8.089957      -220.1389
  51   2.0000      -8.089702      -220.1320
  52   2.0000      -8.088887      -220.1098
  53   2.0000      -8.088159      -220.0900
  54   2.0000      -6.059252      -164.8806
  55   2.0000      -6.058999      -164.8737
  56   2.0000      -6.058055      -164.8481
  57   2.0000      -6.057318      -164.8280
  58   2.0000      -6.055095      -164.7675
  59   2.0000      -6.054842      -164.7606
  60   2.0000      -6.053938      -164.7360
  61   2.0000      -6.053220      -164.7165
  62   2.0000      -6.052222      -164.6893
  63   2.0000      -6.051969      -164.6824
  64   2.0000      -6.051404      -164.6671
  65   2.0000      -6.050678      -164.6473
  66   2.0000      -1.130645       -30.7664
  67   2.0000      -1.124252       -30.5925
  68   2.0000      -1.120010       -30.4770
  69   2.0000      -1.049382       -28.5551
  70   2.0000      -1.045992       -28.4629
  71   2.0000      -1.024366       -27.8744
  72   2.0000      -1.022943       -27.8357
  73   2.0000      -1.010297       -27.4916
  74   2.0000      -1.008473       -27.4420
  75   2.0000      -1.007090       -27.4043
  76   2.0000      -0.996150       -27.1066
  77   2.0000      -0.969207       -26.3735
  78   2.0000      -0.959414       -26.1070
  79   2.0000      -0.953414       -25.9437
  80   2.0000      -0.935045       -25.4439
  81   2.0000      -0.932531       -25.3755
  82   2.0000      -0.919767       -25.0281
  83   2.0000      -0.914266       -24.8784
  84   2.0000      -0.911263       -24.7967
  85   2.0000      -0.900227       -24.4964
  86   2.0000      -0.894387       -24.3375
  87   2.0000      -0.872062       -23.7300
  88   2.0000      -0.871625       -23.7181
  89   2.0000      -0.859291       -23.3825
  90   2.0000      -0.854148       -23.2425
  91   2.0000      -0.833214       -22.6729
  92   2.0000      -0.804201       -21.8834
  93   2.0000      -0.785953       -21.3869
  94   2.0000      -0.783972       -21.3330
  95   2.0000      -0.775374       -21.0990
  96   2.0000      -0.767474       -20.8840
  97   2.0000      -0.752378       -20.4732
  98   2.0000      -0.750219       -20.4145
  99   2.0000      -0.734131       -19.9767
 100   2.0000      -0.726847       -19.7785
 101   2.0000      -0.714359       -19.4387
 102   2.0000      -0.702509       -19.1162
 103   2.0000      -0.701070       -19.0771
 104   2.0000      -0.688348       -18.7309
 105   2.0000      -0.677441       -18.4341
 106   2.0000      -0.674800       -18.3622
 107   2.0000      -0.656296       -17.8587
 108   2.0000      -0.634216       -17.2579
 109   2.0000      -0.631981       -17.1971
 110   2.0000      -0.631227       -17.1765
 111   2.0000      -0.627712       -17.0809
 112   2.0000      -0.621068       -16.9001
 113   2.0000      -0.617461       -16.8020
 114   2.0000      -0.615549       -16.7499
 115   2.0000      -0.606080       -16.4923
 116   2.0000      -0.602911       -16.4060
 117   2.0000      -0.590080       -16.0569
 118   2.0000      -0.588567       -16.0157
 119   2.0000      -0.573972       -15.6186
 120   2.0000      -0.572361       -15.5747
 121   2.0000      -0.553346       -15.0573
 122   2.0000      -0.552551       -15.0357
 123   2.0000      -0.549683       -14.9576
 124   2.0000      -0.543593       -14.7919
 125   2.0000      -0.539420       -14.6784
 126   2.0000      -0.532087       -14.4788
 127   2.0000      -0.528851       -14.3908
 128   2.0000      -0.522543       -14.2191
 129   2.0000      -0.521353       -14.1867
 130   2.0000      -0.520066       -14.1517
 131   2.0000      -0.511449       -13.9172
 132   2.0000      -0.511082       -13.9073
 133   2.0000      -0.506866       -13.7925
 134   2.0000      -0.503724       -13.7070
 135   2.0000      -0.502401       -13.6710
 136   2.0000      -0.500678       -13.6241
 137   2.0000      -0.497899       -13.5485
 138   2.0000      -0.494663       -13.4605
 139   2.0000      -0.494110       -13.4454
 140   2.0000      -0.487972       -13.2784
 141   2.0000      -0.486301       -13.2329
 142   2.0000      -0.483247       -13.1498
 143   2.0000      -0.474192       -12.9034
 144   2.0000      -0.474005       -12.8983
 145   2.0000      -0.463626       -12.6159
 146   2.0000      -0.462540       -12.5864
 147   2.0000      -0.459708       -12.5093
 148   2.0000      -0.457892       -12.4599
 149   2.0000      -0.456324       -12.4172
 150   2.0000      -0.449202       -12.2234
 151   2.0000      -0.444935       -12.1073
 152   2.0000      -0.443482       -12.0678
 153   2.0000      -0.441778       -12.0214
 154   2.0000      -0.440496       -11.9865
 155   2.0000      -0.439903       -11.9704
 156   2.0000      -0.438157       -11.9229
 157   2.0000      -0.435410       -11.8481
 158   2.0000      -0.427694       -11.6382
 159   2.0000      -0.425836       -11.5876
 160   2.0000      -0.419479       -11.4146
 161   2.0000      -0.416414       -11.3312
 162   2.0000      -0.405889       -11.0448
 163   2.0000      -0.401309       -10.9202
 164   2.0000      -0.396169       -10.7803
 165   2.0000      -0.393806       -10.7160
 166   2.0000      -0.391941       -10.6653
 167   2.0000      -0.387242       -10.5374
 168   2.0000      -0.380455       -10.3527
 169   2.0000      -0.377133       -10.2623
 170   2.0000      -0.354969        -9.6592
 171   2.0000      -0.353518        -9.6197
 172   2.0000      -0.348497        -9.4831
 173   2.0000      -0.329431        -8.9643
 174   2.0000      -0.324340        -8.8257
 175   2.0000      -0.322184        -8.7671
 176   2.0000      -0.307298        -8.3620
 177   2.0000      -0.299393        -8.1469
 178   2.0000      -0.297167        -8.0863
 179   2.0000      -0.288653        -7.8546
 180   2.0000      -0.249604        -6.7921
 181   0.0000      -0.110273        -3.0007
 182   0.0000      -0.104488        -2.8433
 183   0.0000      -0.057788        -1.5725
 184   0.0000      -0.042247        -1.1496
 185   0.0000      -0.022682        -0.6172

MULLIKEN ATOMIC CHARGES
-----------------------
   0 C :    0.033515
   1 N :   -0.049228
   2 N :   -0.066932
   3 C :    0.008067
   4 C :   -0.012202
   5 C :    0.038550
   6 C :   -0.046361
   7 C :   -0.052843
   8 C :    0.030055
   9 C :   -0.092346
  10 S :    0.170913
  11 C :   -0.099576
  12 C :    0.016907
  13 C :    0.298058
  14 C :   -0.299461
  15 C :   -0.184034
  16 N :    0.169522
  17 C :   -0.195937
  18 N :    0.194065
  19 C :   -0.067225
  20 C :   -0.048917
  21 S :    0.194136
  22 C :   -0.048341
  23 C :   -0.067593
  24 C :    0.017022
  25 C :   -0.099761
  26 S :    0.195717
  27 C :   -0.090549
  28 C :    0.030936
  29 C :    0.298039
  30 C :   -0.299768
  31 C :   -0.195572
  32 N :    0.191309
  33 C :   -0.183670
  34 N :    0.169592
  35 C :   -0.056711
  36 C :   -0.048219
  37 S :    0.175225
  38 C :    0.041175
  39 N :   -0.061897
  40 N :   -0.045298
  41 C :    0.015529
  42 C :    0.014310
  43 C :   -0.009726
  44 C :   -0.015554
  45 N :   -0.063821
  46 N :   -0.061091
  47 C :    0.038127
  48 C :    0.040608
  49 C :    0.020677
  50 H :    0.013512
  51 H :    0.003157
  52 H :    0.008502
  53 H :    0.027589
  54 H :    0.011401
  55 H :    0.011054
  56 H :    0.025331
  57 H :    0.016765
  58 H :    0.003370
  59 H :    0.012829
  60 H :    0.010446
  61 H :    0.016628
Sum of atomic charges:    0.0000000

LOEWDIN ATOMIC CHARGES
----------------------
   0 C :   -0.008003
   1 N :   -0.031148
   2 N :   -0.046225
   3 C :   -0.024648
   4 C :   -0.021873
   5 C :   -0.006291
   6 C :   -0.179792
   7 C :    0.000834
   8 C :   -0.071938
   9 C :   -0.175804
  10 S :    0.474740
  11 C :   -0.182224
  12 C :   -0.064686
  13 C :    0.080222
  14 C :   -0.097010
  15 C :   -0.014538
  16 N :   -0.034662
  17 C :   -0.021050
  18 N :   -0.019884
  19 C :   -0.039086
  20 C :   -0.179146
  21 S :    0.483752
  22 C :   -0.177642
  23 C :   -0.039863
  24 C :   -0.064219
  25 C :   -0.183067
  26 S :    0.485137
  27 C :   -0.174371
  28 C :   -0.072638
  29 C :    0.080814
  30 C :   -0.097904
  31 C :   -0.020347
  32 N :   -0.022023
  33 C :   -0.014643
  34 N :   -0.034817
  35 C :    0.000982
  36 C :   -0.179836
  37 S :    0.478249
  38 C :   -0.022728
  39 N :   -0.045461
  40 N :   -0.033940
  41 C :   -0.025923
  42 C :    0.022867
  43 C :   -0.018940
  44 C :   -0.021457
  45 N :   -0.048124
  46 N :   -0.041738
  47 C :   -0.000481
  48 C :   -0.010313
  49 C :    0.013940
  50 H :    0.029434
  51 H :    0.027849
  52 H :    0.039265
  53 H :    0.048784
  54 H :    0.035386
  55 H :    0.035356
  56 H :    0.048143
  57 H :    0.043957
  58 H :    0.029215
  59 H :    0.028979
  60 H :    0.038782
  61 H :    0.041796

  Mayer bond orders larger than 0.100000
B(  0-C ,  1-N ) :   1.5720 B(  0-C ,  5-C ) :   1.3046 B(  0-C , 50-H ) :   0.9932
B(  1-N ,  2-N ) :   1.3260 B(  2-N ,  3-C ) :   1.5930 B(  3-C ,  4-C ) :   1.3011
B(  3-C ,  6-C ) :   1.0688 B(  4-C ,  5-C ) :   1.4563 B(  4-C , 51-H ) :   0.9774
B(  5-C , 52-H ) :   0.9792 B(  6-C ,  7-C ) :   1.4964 B(  6-C , 10-S ) :   1.1016
B(  7-C ,  8-C ) :   1.2287 B(  7-C , 53-H ) :   1.0131 B(  8-C ,  9-C ) :   1.4406
B(  8-C , 13-C ) :   0.9942 B(  9-C , 10-S ) :   1.1361 B(  9-C , 11-C ) :   1.1816
B( 11-C , 12-C ) :   1.4586 B( 11-C , 21-S ) :   1.1164 B( 12-C , 13-C ) :   0.9916
B( 12-C , 19-C ) :   1.2968 B( 13-C , 14-C ) :   1.7213 B( 14-C , 15-C ) :   1.1311
B( 14-C , 17-C ) :   1.1348 B( 15-C , 16-N ) :   2.9898 B( 17-C , 18-N ) :   3.0047
B( 19-C , 20-C ) :   1.4615 B( 19-C , 54-H ) :   0.9862 B( 20-C , 21-S ) :   1.1107
B( 20-C , 22-C ) :   1.1661 B( 22-C , 23-C ) :   1.4614 B( 22-C , 26-S ) :   1.1119
B( 23-C , 24-C ) :   1.2966 B( 23-C , 55-H ) :   0.9864 B( 24-C , 25-C ) :   1.4576
B( 24-C , 29-C ) :   0.9920 B( 25-C , 26-S ) :   1.1160 B( 25-C , 27-C ) :   1.1828
B( 27-C , 28-C ) :   1.4361 B( 27-C , 37-S ) :   1.1382 B( 28-C , 29-C ) :   0.9928
B( 28-C , 35-C ) :   1.2321 B( 29-C , 30-C ) :   1.7207 B( 30-C , 31-C ) :   1.1355
B( 30-C , 33-C ) :   1.1308 B( 31-C , 32-N ) :   3.0038 B( 33-C , 34-N ) :   2.9900
B( 35-C , 36-C ) :   1.4870 B( 35-C , 56-H ) :   1.0138 B( 36-C , 37-S ) :   1.1015
B( 36-C , 38-C ) :   1.0777 B( 38-C , 39-N ) :   1.5735 B( 38-C , 43-C ) :   1.2746
B( 39-N , 40-N ) :   1.3303 B( 40-N , 41-C ) :   1.6021 B( 41-C , 42-C ) :   1.3216
B( 41-C , 44-C ) :   0.9837 B( 42-C , 43-C ) :   1.4082 B( 42-C , 57-H ) :   0.9838
B( 43-C , 58-H ) :   0.9797 B( 44-C , 45-N ) :   1.6316 B( 44-C , 49-C ) :   1.3408
B( 45-N , 46-N ) :   1.3167 B( 46-N , 47-C ) :   1.5801 B( 47-C , 48-C ) :   1.3006
B( 47-C , 59-H ) :   0.9935 B( 48-C , 49-C ) :   1.4078 B( 48-C , 60-H ) :   0.9829
B( 49-C , 61-H ) :   0.9849

-----------------------------------------------------------------------------
         ABSORPTION SPECTRUM VIA TRANSITION ELECTRIC DIPOLE MOMENTS
-----------------------------------------------------------------------------
State   Energy  Wavelength   fosc         T2         TX        TY        TZ
        (cm-1)    (nm)                  (au**2)     (au)      (au)      (au)
-----------------------------------------------------------------------------
   0   12536.8    797.7   0.282917258   7.42933  -0.61300  -2.51524  -0.85272
   1   13200.1    757.6   0.007460521   0.18607   0.09743   0.40374   0.11649
   2   23492.3    425.7   0.011051599   0.15487   0.09849   0.37177   0.08343
   3   24246.1    412.4   0.731530183   9.93267   0.73377   2.91633   0.94301
   4   24766.6    403.8   0.000206540   0.00275  -0.04755   0.00860  -0.02025
   5   25149.4    397.6   0.000031890   0.00042   0.00426  -0.01964  -0.00366
   6   26596.7    376.0   1.624693843  20.11033   1.01881   4.13427   1.40720
   7   27731.3    360.6   0.003003041   0.03565   0.15120  -0.08543   0.07410
   8   28656.0    349.0   0.009266747   0.10646  -0.28268   0.10558  -0.12411
   9   29598.3    337.9   0.002568423   0.02857   0.14166  -0.06532   0.06506
  10   29779.2    335.8   0.002546974   0.02816  -0.14648   0.05748  -0.05827
  11   30399.8    328.9   0.076207757   0.82528  -0.43607  -0.48275   0.63410
  12   30498.1    327.9   0.015742203   0.16993   0.34967  -0.15171   0.15699
  13   31217.8    320.3   0.042755127   0.45088   0.19866  -0.19372  -0.61146
  14   31232.1    320.2   0.001937929   0.02043  -0.13002   0.05068  -0.03088
  15   31538.1    317.1   0.694544887   7.25004   1.00087  -0.26438  -2.48564
  16   32196.5    310.6   0.752606204   7.69546  -1.33230  -0.68104   2.33594
  17   32435.7    308.3   0.000480428   0.00488   0.04425  -0.03236   0.04326
  18   32942.8    303.6   0.053651521   0.53616   0.30151   0.66727  -0.00350
  19   33394.0    299.5   0.341084129   3.36255   0.48357   1.72143   0.40667
  20   33688.4    296.8   0.016566359   0.16189   0.05497   0.34895   0.19262
  21   33924.8    294.8   0.000006323   0.00006  -0.00495  -0.00496  -0.00350
  22   34577.2    289.2   0.263227055   2.50620  -0.11185  -1.30449  -0.88994
  23   34705.1    288.1   0.000033019   0.00031  -0.00676   0.01570   0.00459
  24   35374.0    282.7   0.002282146   0.02124  -0.07889  -0.06216   0.10560
  25   35661.5    280.4   0.011352873   0.10480  -0.00821  -0.25318  -0.20159
  26   35925.0    278.4   0.041984326   0.38474  -0.20171  -0.58139  -0.07768
  27   36404.0    274.7   0.000012550   0.00011  -0.00895   0.00468   0.00340
  28   36543.4    273.6   0.027889484   0.25125   0.01438  -0.32012  -0.38544
  29   37015.7    270.2   0.010699094   0.09516   0.04439  -0.18225  -0.24489
  30   39004.7    256.4   0.005867566   0.04952   0.03715   0.19750   0.09560
  31   39788.3    251.3   0.081392044   0.67345   0.14221  -0.42243  -0.68904
  32   40035.4    249.8   0.094303343   0.77546  -0.12085   0.50153   0.71366

FINAL SINGLE POINT ENERGY     -3516.201432191549

DIPOLE MOMENT
-------------
                                X             Y             Z
Electronic contribution:      3.71122      12.29921       3.61868
Nuclear contribution   :     -4.44506     -12.69469      -2.30876
                        -----------------------------------------
Total Dipole Moment    :     -0.73384      -0.39548       1.30992
                        -----------------------------------------
Magnitude (a.u.)       :      1.55268
Magnitude (Debye)      :      3.94660

Rotational constants in cm-1:     0.005209     0.000448     0.000412
Rotational constants in MHz :   156.151797    13.418007    12.357063

                             ****ORCA TERMINATED NORMALLY****
TOTAL RUN TIME: 0 days 0 hours 4 minutes 3 seconds 184 msec
