                         Program Version 4.2.0 -  RELEASE  -
|  1> # ORCA input file
|  2> # SCF done       -179.091506745045          0.000676095681
|  3> ! CAM-B3LYP def2-SVP def2/J RIJCOSX Grid4 TightSCF
|  4> %maxcore 5000
|  5> %tddft
|  6>     Mode sTDDFT
|  7>     Ethresh 5.0
|  8>     maxcore 5000
|  9> end
| 10>
| 11> %pal
| 12>   nprocs 6
| 13>   end
| 14> * xyz 0 1
| 15>    C        3.14221       -15.21285        -5.70933
| 16>    C        3.75384       -13.96972        -5.74501
| 17>    C        3.71553       -13.06439        -4.61494
| 18>    N        4.32703       -11.88046        -4.70514
| 19>    C        4.95066       -11.54998        -5.81658
| 20>    C        4.98170       -12.44512        -6.93514
| 21>    N        4.39807       -13.61184        -6.88022
| 22>    C        5.65695       -12.05464        -8.12031
| 23>    N        6.21149       -11.69351        -9.05534
| 24>    C        5.58929       -10.29122        -5.88484
| 25>    N        6.11314        -9.27320        -5.95581
| 26>    C        3.03776       -13.39981        -3.40431
| 27>    C        2.42155       -14.68175        -3.39551
| 28>    C        2.48077       -15.56901        -4.53982
| 29>    N        1.83751       -16.71996        -4.31727
| 30>    S        1.22653       -16.69366        -2.83588
| 31>    N        1.73697       -15.23273        -2.39383
| 32>    C        2.97070       -12.52411        -2.29438
| 33>    C        2.30025       -12.77059        -1.09968
| 34>    C        2.44605       -11.66615        -0.25906
| 35>    C        3.21206       -10.68840        -0.88109
| 36>    C        3.60970       -11.15629        -2.22887
| 37>    C        3.34468        -9.57225        -0.04079
| 38>    C        2.66133        -9.80642         1.13652
| 39>    C        2.03148       -11.18407         1.08436
| 40>    C        2.50882        -8.91959         2.24956
| 41>    C        1.72324        -9.27280         3.33287
| 42>    C        1.52141        -8.38085         4.39977
| 43>    C        0.75917        -8.47883         5.55961
| 44>    C       -0.06429        -9.62090         6.05067
| 45>    C       -1.32979        -9.80349         5.19022
| 46>    N       -2.25406        -8.70927         5.43987
| 47>    C        0.72882       -10.93671         6.12887
| 48>    N       -0.03401       -11.92251         6.87745
| 49>    C        0.85642        -7.20464         6.22695
| 50>    C        0.24879        -6.73202         7.33163
| 51>    C        0.42993        -5.32770         7.78433
| 52>    C        1.43053        -4.53918         6.98969
| 53>    C        2.03890        -5.03078         5.89633
| 54>    C        1.75827        -6.34507         5.44929
| 55>    C        2.15287        -7.06655         4.34409
| 56>    C        2.98544        -6.74127         3.24705
| 57>    C        3.15497        -7.63409         2.24325
| 58>    C        0.76479        -5.21078         9.24642
| 59>    C        1.35384        -6.17639         9.96535
| 60>    C        1.68888        -6.07783        11.35130
| 61>    C        1.47122        -5.03181        12.21756
| 62>    C        1.94826        -5.39185        13.49228
| 63>    C        2.47757        -6.67356        13.46046
| 64>    C        2.35933        -7.21818        12.08298
| 65>    C        2.94071        -7.03265        14.73124
| 66>    C        2.71538        -5.98067        15.61011
| 67>    C        2.05944        -4.84324        14.86280
| 68>    C        3.03906        -5.96428        16.99062
| 69>    C        2.78195        -4.84175        17.83188
| 70>    C        3.11685        -4.84870        19.24089
| 71>    N        2.85501        -3.76417        20.00673
| 72>    C        2.30062        -2.71921        19.45607
| 73>    C        1.97006        -2.70837        18.06047
| 74>    N        2.21582        -3.75324        17.30131
| 75>    C        1.37104        -1.57157        17.47081
| 76>    N        0.88283        -0.64416        17.00572
| 77>    C        2.01955        -1.57491        20.24666
| 78>    N        1.77084        -0.62961        20.84351
| 79>    C        3.70630        -5.94635        19.84842
| 80>    C        3.96893        -7.05413        19.05176
| 81>    C        3.64397        -7.07427        17.63946
| 82>    N        3.98446        -8.23803        17.08422
| 83>    S        4.63570        -9.19208        18.20213
| 84>    N        4.52879        -8.20051        19.45414
| 85>    H        3.18299       -15.86966        -6.56054
| 86>    H        1.75838       -13.67091        -0.88118
| 87>    H        4.69145       -11.21286        -2.35300
| 88>    H        3.24356       -10.50356        -3.02170
| 89>    H        3.88722        -8.68077        -0.29533
| 90>    H        0.94533       -11.13389         1.17669
| 91>    H        2.40659       -11.82598         1.88342
| 92>    H        1.23320       -10.23286         3.34924
| 93>    H       -0.40020        -9.38896         7.06758
| 94>    H       -1.74885       -10.79551         5.41902
| 95>    H       -1.05764        -9.77356         4.13313
| 96>    H       -2.65722        -8.79692         6.36716
| 97>    H       -3.01523        -8.72831         4.77112
| 98>    H        1.72000       -10.72476         6.56485
| 99>    H        0.88398       -11.34252         5.12818
|100>    H       -0.12930       -11.63550         7.84634
|101>    H        0.43709       -12.82011         6.86678
|102>    H       -0.43521        -7.33460         7.91313
|103>    H       -0.54994        -4.83726         7.64635
|104>    H        1.63058        -3.53896         7.34200
|105>    H        2.74089        -4.42640         5.34022
|106>    H        3.47138        -5.77702         3.21821
|107>    H        3.78666        -7.38294         1.40696
|108>    H        0.53969        -4.25635         9.69915
|109>    H        1.59881        -7.11496         9.48276
|110>    H        1.01086        -4.09242        11.97349
|111>    H        1.75613        -8.12707        12.04292
|112>    H        3.33045        -7.45182        11.64222
|113>    H        3.39693        -7.96574        15.00165
|114>    H        2.66340        -3.93653        14.90252
|115>    H        1.09046        -4.58610        15.29099
|116>    H        3.94673        -5.93089        20.89706
|117> *
|118>
|119>                          ****END OF INPUT****

CARTESIAN COORDINATES (ANGSTROEM)
---------------------------------
  C      3.142210  -15.212850   -5.709330
  C      3.753840  -13.969720   -5.745010
  C      3.715530  -13.064390   -4.614940
  N      4.327030  -11.880460   -4.705140
  C      4.950660  -11.549980   -5.816580
  C      4.981700  -12.445120   -6.935140
  N      4.398070  -13.611840   -6.880220
  C      5.656950  -12.054640   -8.120310
  N      6.211490  -11.693510   -9.055340
  C      5.589290  -10.291220   -5.884840
  N      6.113140   -9.273200   -5.955810
  C      3.037760  -13.399810   -3.404310
  C      2.421550  -14.681750   -3.395510
  C      2.480770  -15.569010   -4.539820
  N      1.837510  -16.719960   -4.317270
  S      1.226530  -16.693660   -2.835880
  N      1.736970  -15.232730   -2.393830
  C      2.970700  -12.524110   -2.294380
  C      2.300250  -12.770590   -1.099680
  C      2.446050  -11.666150   -0.259060
  C      3.212060  -10.688400   -0.881090
  C      3.609700  -11.156290   -2.228870
  C      3.344680   -9.572250   -0.040790
  C      2.661330   -9.806420    1.136520
  C      2.031480  -11.184070    1.084360
  C      2.508820   -8.919590    2.249560
  C      1.723240   -9.272800    3.332870
  C      1.521410   -8.380850    4.399770
  C      0.759170   -8.478830    5.559610
  C     -0.064290   -9.620900    6.050670
  C     -1.329790   -9.803490    5.190220
  N     -2.254060   -8.709270    5.439870
  C      0.728820  -10.936710    6.128870
  N     -0.034010  -11.922510    6.877450
  C      0.856420   -7.204640    6.226950
  C      0.248790   -6.732020    7.331630
  C      0.429930   -5.327700    7.784330
  C      1.430530   -4.539180    6.989690
  C      2.038900   -5.030780    5.896330
  C      1.758270   -6.345070    5.449290
  C      2.152870   -7.066550    4.344090
  C      2.985440   -6.741270    3.247050
  C      3.154970   -7.634090    2.243250
  C      0.764790   -5.210780    9.246420
  C      1.353840   -6.176390    9.965350
  C      1.688880   -6.077830   11.351300
  C      1.471220   -5.031810   12.217560
  C      1.948260   -5.391850   13.492280
  C      2.477570   -6.673560   13.460460
  C      2.359330   -7.218180   12.082980
  C      2.940710   -7.032650   14.731240
  C      2.715380   -5.980670   15.610110
  C      2.059440   -4.843240   14.862800
  C      3.039060   -5.964280   16.990620
  C      2.781950   -4.841750   17.831880
  C      3.116850   -4.848700   19.240890
  N      2.855010   -3.764170   20.006730
  C      2.300620   -2.719210   19.456070
  C      1.970060   -2.708370   18.060470
  N      2.215820   -3.753240   17.301310
  C      1.371040   -1.571570   17.470810
  N      0.882830   -0.644160   17.005720
  C      2.019550   -1.574910   20.246660
  N      1.770840   -0.629610   20.843510
  C      3.706300   -5.946350   19.848420
  C      3.968930   -7.054130   19.051760
  C      3.643970   -7.074270   17.639460
  N      3.984460   -8.238030   17.084220
  S      4.635700   -9.192080   18.202130
  N      4.528790   -8.200510   19.454140
  H      3.182990  -15.869660   -6.560540
  H      1.758380  -13.670910   -0.881180
  H      4.691450  -11.212860   -2.353000
  H      3.243560  -10.503560   -3.021700
  H      3.887220   -8.680770   -0.295330
  H      0.945330  -11.133890    1.176690
  H      2.406590  -11.825980    1.883420
  H      1.233200  -10.232860    3.349240
  H     -0.400200   -9.388960    7.067580
  H     -1.748850  -10.795510    5.419020
  H     -1.057640   -9.773560    4.133130
  H     -2.657220   -8.796920    6.367160
  H     -3.015230   -8.728310    4.771120
  H      1.720000  -10.724760    6.564850
  H      0.883980  -11.342520    5.128180
  H     -0.129300  -11.635500    7.846340
  H      0.437090  -12.820110    6.866780
  H     -0.435210   -7.334600    7.913130
  H     -0.549940   -4.837260    7.646350
  H      1.630580   -3.538960    7.342000
  H      2.740890   -4.426400    5.340220
  H      3.471380   -5.777020    3.218210
  H      3.786660   -7.382940    1.406960
  H      0.539690   -4.256350    9.699150
  H      1.598810   -7.114960    9.482760
  H      1.010860   -4.092420   11.973490
  H      1.756130   -8.127070   12.042920
  H      3.330450   -7.451820   11.642220
  H      3.396930   -7.965740   15.001650
  H      2.663400   -3.936530   14.902520
  H      1.090460   -4.586100   15.290990
  H      3.946730   -5.930890   20.897060

 Total Charge           Charge          ....    0
 Multiplicity           Mult            ....    1
 Number of Electrons    NEL             ....  486
 Basis Dimension        Dim             .... 1148

ORBITAL ENERGIES
----------------

  NO   OCC          E(Eh)            E(eV)
   0   2.0000     -89.038378     -2422.8574
   1   2.0000     -89.032252     -2422.6908
   2   2.0000     -14.454134      -393.3170
   3   2.0000     -14.450237      -393.2109
   4   2.0000     -14.449330      -393.1863
   5   2.0000     -14.448745      -393.1703
   6   2.0000     -14.445343      -393.0778
   7   2.0000     -14.443965      -393.0403
   8   2.0000     -14.443574      -393.0296
   9   2.0000     -14.438323      -392.8867
  10   2.0000     -14.423407      -392.4808
  11   2.0000     -14.421656      -392.4332
  12   2.0000     -14.418991      -392.3607
  13   2.0000     -14.416465      -392.2920
  14   2.0000     -14.391378      -391.6093
  15   2.0000     -14.380938      -391.3252
  16   2.0000     -10.373464      -282.2763
  17   2.0000     -10.368180      -282.1325
  18   2.0000     -10.367864      -282.1239
  19   2.0000     -10.361689      -281.9559
  20   2.0000     -10.338402      -281.3222
  21   2.0000     -10.336924      -281.2820
  22   2.0000     -10.336738      -281.2769
  23   2.0000     -10.333508      -281.1890
  24   2.0000     -10.333088      -281.1776
  25   2.0000     -10.331688      -281.1395
  26   2.0000     -10.331484      -281.1340
  27   2.0000     -10.328223      -281.0452
  28   2.0000     -10.318941      -280.7927
  29   2.0000     -10.316575      -280.7283
  30   2.0000     -10.316436      -280.7245
  31   2.0000     -10.313681      -280.6495
  32   2.0000     -10.312280      -280.6114
  33   2.0000     -10.311440      -280.5886
  34   2.0000     -10.304883      -280.4101
  35   2.0000     -10.302220      -280.3377
  36   2.0000     -10.298712      -280.2422
  37   2.0000     -10.296385      -280.1789
  38   2.0000     -10.294926      -280.1392
  39   2.0000     -10.294278      -280.1216
  40   2.0000     -10.292847      -280.0826
  41   2.0000     -10.290005      -280.0053
  42   2.0000     -10.289443      -279.9900
  43   2.0000     -10.289012      -279.9782
  44   2.0000     -10.287766      -279.9443
  45   2.0000     -10.286849      -279.9194
  46   2.0000     -10.286002      -279.8963
  47   2.0000     -10.285910      -279.8938
  48   2.0000     -10.285885      -279.8932
  49   2.0000     -10.285234      -279.8754
  50   2.0000     -10.285167      -279.8736
  51   2.0000     -10.282868      -279.8111
  52   2.0000     -10.282232      -279.7937
  53   2.0000     -10.281656      -279.7781
  54   2.0000     -10.280691      -279.7518
  55   2.0000     -10.279406      -279.7169
  56   2.0000     -10.278153      -279.6828
  57   2.0000     -10.277065      -279.6532
  58   2.0000     -10.276955      -279.6502
  59   2.0000     -10.276843      -279.6471
  60   2.0000     -10.276399      -279.6350
  61   2.0000     -10.275585      -279.6129
  62   2.0000     -10.273631      -279.5597
  63   2.0000     -10.273202      -279.5480
  64   2.0000     -10.272866      -279.5389
  65   2.0000     -10.271160      -279.4925
  66   2.0000     -10.268997      -279.4336
  67   2.0000     -10.265760      -279.3455
  68   2.0000     -10.265349      -279.3343
  69   2.0000     -10.265344      -279.3342
  70   2.0000      -8.129876      -221.2252
  71   2.0000      -8.123834      -221.0608
  72   2.0000      -6.100914      -166.0143
  73   2.0000      -6.094921      -165.8512
  74   2.0000      -6.093136      -165.8027
  75   2.0000      -6.092735      -165.7917
  76   2.0000      -6.087117      -165.6389
  77   2.0000      -6.086597      -165.6247
  78   2.0000      -1.134800       -30.8795
  79   2.0000      -1.128964       -30.7207
  80   2.0000      -1.109687       -30.1961
  81   2.0000      -1.103996       -30.0413
  82   2.0000      -1.037013       -28.2185
  83   2.0000      -1.031301       -28.0631
  84   2.0000      -1.006863       -27.3981
  85   2.0000      -1.001987       -27.2655
  86   2.0000      -1.000925       -27.2366
  87   2.0000      -0.997037       -27.1308
  88   2.0000      -0.996206       -27.1081
  89   2.0000      -0.991459       -26.9790
  90   2.0000      -0.988096       -26.8874
  91   2.0000      -0.987362       -26.8675
  92   2.0000      -0.982233       -26.7279
  93   2.0000      -0.974007       -26.5041
  94   2.0000      -0.966647       -26.3038
  95   2.0000      -0.961552       -26.1652
  96   2.0000      -0.956491       -26.0274
  97   2.0000      -0.951367       -25.8880
  98   2.0000      -0.935719       -25.4622
  99   2.0000      -0.926981       -25.2244
 100   2.0000      -0.906232       -24.6598
 101   2.0000      -0.897881       -24.4326
 102   2.0000      -0.892416       -24.2839
 103   2.0000      -0.884812       -24.0770
 104   2.0000      -0.874211       -23.7885
 105   2.0000      -0.867182       -23.5972
 106   2.0000      -0.855954       -23.2917
 107   2.0000      -0.843189       -22.9443
 108   2.0000      -0.837996       -22.8030
 109   2.0000      -0.837789       -22.7974
 110   2.0000      -0.831375       -22.6229
 111   2.0000      -0.826033       -22.4775
 112   2.0000      -0.822010       -22.3680
 113   2.0000      -0.818858       -22.2823
 114   2.0000      -0.796806       -21.6822
 115   2.0000      -0.792098       -21.5541
 116   2.0000      -0.783557       -21.3217
 117   2.0000      -0.778211       -21.1762
 118   2.0000      -0.773774       -21.0555
 119   2.0000      -0.763360       -20.7721
 120   2.0000      -0.758744       -20.6465
 121   2.0000      -0.745468       -20.2852
 122   2.0000      -0.730586       -19.8803
 123   2.0000      -0.727030       -19.7835
 124   2.0000      -0.722873       -19.6704
 125   2.0000      -0.711061       -19.3489
 126   2.0000      -0.699835       -19.0435
 127   2.0000      -0.692183       -18.8353
 128   2.0000      -0.687702       -18.7133
 129   2.0000      -0.686503       -18.6807
 130   2.0000      -0.681738       -18.5510
 131   2.0000      -0.676512       -18.4088
 132   2.0000      -0.674674       -18.3588
 133   2.0000      -0.669364       -18.2143
 134   2.0000      -0.661350       -17.9962
 135   2.0000      -0.654110       -17.7993
 136   2.0000      -0.650614       -17.7041
 137   2.0000      -0.644427       -17.5357
 138   2.0000      -0.639496       -17.4016
 139   2.0000      -0.634681       -17.2705
 140   2.0000      -0.634285       -17.2598
 141   2.0000      -0.624963       -17.0061
 142   2.0000      -0.615350       -16.7445
 143   2.0000      -0.609595       -16.5879
 144   2.0000      -0.607699       -16.5363
 145   2.0000      -0.602814       -16.4034
 146   2.0000      -0.599781       -16.3209
 147   2.0000      -0.599529       -16.3140
 148   2.0000      -0.592986       -16.1360
 149   2.0000      -0.583958       -15.8903
 150   2.0000      -0.580388       -15.7932
 151   2.0000      -0.574750       -15.6397
 152   2.0000      -0.571638       -15.5551
 153   2.0000      -0.569544       -15.4981
 154   2.0000      -0.566296       -15.4097
 155   2.0000      -0.563649       -15.3377
 156   2.0000      -0.560798       -15.2601
 157   2.0000      -0.554782       -15.0964
 158   2.0000      -0.552297       -15.0288
 159   2.0000      -0.550517       -14.9803
 160   2.0000      -0.549595       -14.9552
 161   2.0000      -0.544106       -14.8059
 162   2.0000      -0.541596       -14.7376
 163   2.0000      -0.531209       -14.4549
 164   2.0000      -0.530611       -14.4386
 165   2.0000      -0.526694       -14.3321
 166   2.0000      -0.524305       -14.2671
 167   2.0000      -0.523404       -14.2425
 168   2.0000      -0.522251       -14.2112
 169   2.0000      -0.519955       -14.1487
 170   2.0000      -0.519279       -14.1303
 171   2.0000      -0.518174       -14.1002
 172   2.0000      -0.515238       -14.0203
 173   2.0000      -0.515079       -14.0160
 174   2.0000      -0.512778       -13.9534
 175   2.0000      -0.507028       -13.7969
 176   2.0000      -0.500347       -13.6151
 177   2.0000      -0.490056       -13.3351
 178   2.0000      -0.480996       -13.0886
 179   2.0000      -0.479564       -13.0496
 180   2.0000      -0.479198       -13.0396
 181   2.0000      -0.476043       -12.9538
 182   2.0000      -0.475215       -12.9313
 183   2.0000      -0.474275       -12.9057
 184   2.0000      -0.474044       -12.8994
 185   2.0000      -0.470666       -12.8075
 186   2.0000      -0.470076       -12.7914
 187   2.0000      -0.468874       -12.7587
 188   2.0000      -0.464750       -12.6465
 189   2.0000      -0.464054       -12.6275
 190   2.0000      -0.458871       -12.4865
 191   2.0000      -0.457741       -12.4558
 192   2.0000      -0.452719       -12.3191
 193   2.0000      -0.450391       -12.2558
 194   2.0000      -0.448636       -12.2080
 195   2.0000      -0.447394       -12.1742
 196   2.0000      -0.445262       -12.1162
 197   2.0000      -0.443726       -12.0744
 198   2.0000      -0.442547       -12.0423
 199   2.0000      -0.442379       -12.0377
 200   2.0000      -0.441024       -12.0009
 201   2.0000      -0.437142       -11.8952
 202   2.0000      -0.436751       -11.8846
 203   2.0000      -0.436224       -11.8702
 204   2.0000      -0.434979       -11.8364
 205   2.0000      -0.432393       -11.7660
 206   2.0000      -0.432321       -11.7640
 207   2.0000      -0.430225       -11.7070
 208   2.0000      -0.425991       -11.5918
 209   2.0000      -0.421131       -11.4595
 210   2.0000      -0.421010       -11.4563
 211   2.0000      -0.414507       -11.2793
 212   2.0000      -0.413446       -11.2504
 213   2.0000      -0.408816       -11.1245
 214   2.0000      -0.408534       -11.1168
 215   2.0000      -0.406731       -11.0677
 216   2.0000      -0.406030       -11.0486
 217   2.0000      -0.401651       -10.9295
 218   2.0000      -0.401171       -10.9164
 219   2.0000      -0.398659       -10.8481
 220   2.0000      -0.398295       -10.8382
 221   2.0000      -0.393351       -10.7036
 222   2.0000      -0.391484       -10.6528
 223   2.0000      -0.386774       -10.5246
 224   2.0000      -0.386501       -10.5172
 225   2.0000      -0.375392       -10.2149
 226   2.0000      -0.370893       -10.0925
 227   2.0000      -0.370417       -10.0796
 228   2.0000      -0.370171       -10.0729
 229   2.0000      -0.353377        -9.6159
 230   2.0000      -0.349498        -9.5103
 231   2.0000      -0.344344        -9.3701
 232   2.0000      -0.340942        -9.2775
 233   2.0000      -0.338263        -9.2046
 234   2.0000      -0.335930        -9.1411
 235   2.0000      -0.327299        -8.9063
 236   2.0000      -0.320755        -8.7282
 237   2.0000      -0.304728        -8.2921
 238   2.0000      -0.297128        -8.0853
 239   2.0000      -0.293722        -7.9926
 240   2.0000      -0.242796        -6.6068
 241   2.0000      -0.238050        -6.4777
 242   2.0000      -0.218731        -5.9520
 243   0.0000      -0.114636        -3.1194
 244   0.0000      -0.111682        -3.0390
 245   0.0000      -0.072672        -1.9775
 246   0.0000      -0.048520        -1.3203
 247   0.0000      -0.039311        -1.0697

MULLIKEN ATOMIC CHARGES
-----------------------
   0 C :   -0.114516
   1 C :    0.036554
   2 C :   -0.102886
   3 N :    0.017773
   4 C :   -0.138506
   5 C :   -0.145702
   6 N :    0.045366
   7 C :   -0.207494
   8 N :    0.231630
   9 C :   -0.227497
  10 N :    0.225641
  11 C :    0.264523
  12 C :   -0.047592
  13 C :    0.109271
  14 N :   -0.276506
  15 S :    0.520317
  16 N :   -0.296788
  17 C :   -0.314263
  18 C :   -0.036511
  19 C :   -0.091985
  20 C :   -0.047923
  21 C :    0.327563
  22 C :   -0.072422
  23 C :   -0.131958
  24 C :    0.299324
  25 C :    0.162343
  26 C :   -0.145144
  27 C :    0.056740
  28 C :    0.023798
  29 C :   -0.071045
  30 C :    0.153847
  31 N :   -0.224752
  32 C :    0.146032
  33 N :   -0.217030
  34 C :    0.110627
  35 C :   -0.152706
  36 C :    0.177919
  37 C :   -0.036394
  38 C :    0.018017
  39 C :    0.015172
  40 C :    0.025451
  41 C :    0.003807
  42 C :   -0.032334
  43 C :   -0.086572
  44 C :    0.041182
  45 C :   -0.079805
  46 C :   -0.047335
  47 C :   -0.064288
  48 C :   -0.108163
  49 C :    0.284463
  50 C :   -0.031313
  51 C :   -0.313476
  52 C :    0.328832
  53 C :    0.267286
  54 C :   -0.104594
  55 C :    0.031599
  56 N :    0.051068
  57 C :   -0.144507
  58 C :   -0.136303
  59 N :    0.021526
  60 C :   -0.231436
  61 N :    0.231533
  62 C :   -0.207728
  63 N :    0.231222
  64 C :   -0.104989
  65 C :    0.103450
  66 C :   -0.047795
  67 N :   -0.299400
  68 S :    0.527040
  69 N :   -0.271387
  70 H :   -0.028684
  71 H :   -0.010692
  72 H :    0.040133
  73 H :    0.041207
  74 H :   -0.022643
  75 H :    0.041577
  76 H :    0.036725
  77 H :   -0.035978
  78 H :   -0.048091
  79 H :   -0.002020
  80 H :   -0.017002
  81 H :    0.082099
  82 H :    0.091345
  83 H :   -0.004958
  84 H :   -0.018650
  85 H :    0.087263
  86 H :    0.092622
  87 H :   -0.012317
  88 H :    0.046556
  89 H :   -0.013936
  90 H :   -0.033620
  91 H :   -0.037823
  92 H :   -0.032517
  93 H :    0.001637
  94 H :   -0.013244
  95 H :   -0.026603
  96 H :    0.033201
  97 H :    0.039937
  98 H :   -0.009729
  99 H :    0.040981
 100 H :    0.039227
 101 H :   -0.025870
Sum of atomic charges:    0.0000000

LOEWDIN ATOMIC CHARGES
----------------------
   0 C :   -0.043988
   1 C :   -0.005826
   2 C :   -0.025215
   3 N :    0.006887
   4 C :   -0.053784
   5 C :   -0.027416
   6 N :   -0.010126
   7 C :   -0.032865
   8 N :   -0.010951
   9 C :   -0.041055
  10 N :   -0.025147
  11 C :   -0.004747
  12 C :   -0.045086
  13 C :   -0.044954
  14 N :   -0.291417
  15 S :    0.654598
  16 N :   -0.282679
  17 C :   -0.036562
  18 C :    0.028035
  19 C :   -0.040430
  20 C :    0.014379
  21 C :   -0.016462
  22 C :   -0.028614
  23 C :    0.013449
  24 C :   -0.016085
  25 C :   -0.031670
  26 C :   -0.012634
  27 C :   -0.020298
  28 C :   -0.020930
  29 C :   -0.040687
  30 C :    0.026187
  31 N :   -0.121473
  32 C :    0.026718
  33 N :   -0.116824
  34 C :   -0.011986
  35 C :    0.064947
  36 C :   -0.032463
  37 C :   -0.028025
  38 C :   -0.018019
  39 C :   -0.035025
  40 C :   -0.029293
  41 C :   -0.005189
  42 C :   -0.025277
  43 C :    0.014242
  44 C :   -0.042884
  45 C :   -0.000522
  46 C :   -0.024369
  47 C :    0.012355
  48 C :   -0.045959
  49 C :   -0.012806
  50 C :    0.028578
  51 C :   -0.038278
  52 C :   -0.016755
  53 C :   -0.002772
  54 C :   -0.025071
  55 C :   -0.006384
  56 N :   -0.007286
  57 C :   -0.027194
  58 C :   -0.050831
  59 N :    0.008247
  60 C :   -0.041062
  61 N :   -0.022404
  62 C :   -0.033317
  63 N :   -0.008836
  64 C :   -0.038463
  65 C :   -0.045349
  66 C :   -0.044723
  67 N :   -0.283264
  68 S :    0.661755
  69 N :   -0.289074
  70 H :    0.043158
  71 H :    0.025661
  72 H :    0.058951
  73 H :    0.058906
  74 H :    0.026887
  75 H :    0.055685
  76 H :    0.055082
  77 H :    0.018208
  78 H :    0.015839
  79 H :   -0.000049
  80 H :    0.014504
  81 H :    0.047952
  82 H :    0.055029
  83 H :    0.003177
  84 H :    0.014410
  85 H :    0.050333
  86 H :    0.055821
  87 H :    0.026581
  88 H :    0.067598
  89 H :    0.024147
  90 H :    0.030411
  91 H :    0.028015
  92 H :    0.025151
  93 H :    0.025688
  94 H :    0.028543
  95 H :    0.025715
  96 H :    0.054332
  97 H :    0.057608
  98 H :    0.025760
  99 H :    0.058969
 100 H :    0.058049
 101 H :    0.044306

  Mayer bond orders larger than 0.100000
B(  0-C ,  1-C ) :   1.3296 B(  0-C , 11-C ) :   0.1155 B(  0-C , 13-C ) :   1.1591
B(  0-C , 70-H ) :   1.0593 B(  1-C ,  2-C ) :   1.1221 B(  1-C ,  6-N ) :   1.3300
B(  2-C ,  3-N ) :   1.4693 B(  2-C , 11-C ) :   1.1782 B(  3-N ,  4-C ) :   1.6883
B(  4-C ,  5-C ) :   1.2009 B(  4-C ,  9-C ) :   1.1580 B(  5-C ,  6-N ) :   1.7784
B(  5-C ,  7-C ) :   1.1589 B(  7-C ,  8-N ) :   3.0516 B(  9-C , 10-N ) :   3.0429
B( 11-C , 12-C ) :   1.1647 B( 11-C , 17-C ) :   1.2148 B( 12-C , 13-C ) :   1.1220
B( 12-C , 16-N ) :   1.5253 B( 13-C , 14-N ) :   1.4753 B( 14-N , 15-S ) :   1.2820
B( 14-N , 16-N ) :   0.1508 B( 15-S , 16-N ) :   1.2637 B( 17-C , 18-C ) :   1.4690
B( 17-C , 21-C ) :   1.0487 B( 18-C , 19-C ) :   1.1614 B( 18-C , 71-H ) :   0.9986
B( 19-C , 20-C ) :   1.5964 B( 19-C , 24-C ) :   0.9800 B( 20-C , 21-C ) :   0.9483
B( 20-C , 22-C ) :   1.1384 B( 21-C , 72-H ) :   0.8637 B( 21-C , 73-H ) :   0.8637
B( 22-C , 23-C ) :   1.5591 B( 22-C , 74-H ) :   1.0113 B( 23-C , 24-C ) :   1.0555
B( 23-C , 25-C ) :   1.0631 B( 24-C , 75-H ) :   0.8582 B( 24-C , 76-H ) :   0.8561
B( 25-C , 26-C ) :   1.5001 B( 25-C , 42-C ) :   1.1064 B( 26-C , 27-C ) :   1.1236
B( 26-C , 77-H ) :   0.9813 B( 27-C , 28-C ) :   1.4705 B( 27-C , 40-C ) :   1.1192
B( 28-C , 29-C ) :   1.0009 B( 28-C , 34-C ) :   1.1211 B( 29-C , 30-C ) :   1.0333
B( 29-C , 32-C ) :   1.0364 B( 29-C , 78-H ) :   0.8925 B( 30-C , 31-N ) :   1.0821
B( 30-C , 79-H ) :   0.9374 B( 30-C , 80-H ) :   0.9348 B( 31-N , 81-H ) :   0.9733
B( 31-N , 82-H ) :   0.9695 B( 32-C , 33-N ) :   1.0737 B( 32-C , 83-H ) :   0.9474
B( 32-C , 84-H ) :   0.9284 B( 33-N , 85-H ) :   0.9713 B( 33-N , 86-H ) :   0.9671
B( 34-C , 35-C ) :   1.6362 B( 34-C , 39-C ) :   1.0568 B( 35-C , 36-C ) :   0.9706
B( 35-C , 87-H ) :   0.9716 B( 36-C , 37-C ) :   0.9845 B( 36-C , 43-C ) :   0.9607
B( 36-C , 88-H ) :   0.8401 B( 37-C , 38-C ) :   1.7375 B( 37-C , 89-H ) :   0.9673
B( 38-C , 39-C ) :   1.1222 B( 38-C , 90-H ) :   0.9873 B( 39-C , 40-C ) :   1.4499
B( 40-C , 41-C ) :   1.1326 B( 41-C , 42-C ) :   1.6228 B( 41-C , 91-H ) :   0.9890
B( 42-C , 92-H ) :   0.9876 B( 43-C , 44-C ) :   1.8134 B( 43-C , 93-H ) :   0.9683
B( 44-C , 45-C ) :   1.0896 B( 44-C , 94-H ) :   0.9566 B( 45-C , 46-C ) :   1.5977
B( 45-C , 49-C ) :   1.0389 B( 46-C , 47-C ) :   1.1416 B( 46-C , 95-H ) :   1.0133
B( 47-C , 48-C ) :   1.6065 B( 47-C , 52-C ) :   0.9493 B( 48-C , 49-C ) :   1.0054
B( 48-C , 50-C ) :   1.1460 B( 49-C , 96-H ) :   0.8680 B( 49-C , 97-H ) :   0.8643
B( 50-C , 51-C ) :   1.4939 B( 50-C , 98-H ) :   0.9970 B( 51-C , 52-C ) :   1.0477
B( 51-C , 53-C ) :   1.2014 B( 52-C , 99-H ) :   0.8633 B( 52-C ,100-H ) :   0.8657
B( 53-C , 54-C ) :   1.1886 B( 53-C , 64-C ) :   0.1182 B( 53-C , 66-C ) :   1.1715
B( 54-C , 55-C ) :   1.1202 B( 54-C , 59-N ) :   1.4637 B( 55-C , 56-N ) :   1.3306
B( 55-C , 64-C ) :   1.3312 B( 56-N , 57-C ) :   1.7845 B( 57-C , 58-C ) :   1.1956
B( 57-C , 62-C ) :   1.1566 B( 58-C , 59-N ) :   1.6990 B( 58-C , 60-C ) :   1.1589
B( 60-C , 61-N ) :   3.0469 B( 62-C , 63-N ) :   3.0510 B( 64-C , 65-C ) :   1.1632
B( 64-C ,101-H ) :   1.0583 B( 65-C , 66-C ) :   1.1211 B( 65-C , 69-N ) :   1.4732
B( 66-C , 67-N ) :   1.5183 B( 67-N , 68-S ) :   1.2693 B( 67-N , 69-N ) :   0.1526
B( 68-S , 69-N ) :   1.2899

-----------------------------------------------------------------------------
         ABSORPTION SPECTRUM VIA TRANSITION ELECTRIC DIPOLE MOMENTS
-----------------------------------------------------------------------------
State   Energy  Wavelength   fosc         T2         TX        TY        TZ
        (cm-1)    (nm)                  (au**2)     (au)      (au)      (au)
-----------------------------------------------------------------------------
   0    9757.3   1024.9   0.752777547  25.39867   0.68036  -2.19051  -4.48748
   1   11327.4    882.8   0.365474118  10.62190  -0.73326  -0.18988  -3.16989
   2   13688.4    730.5   0.080974801   1.94748  -0.26171  -1.16061  -0.72937
   3   14443.5    692.4   0.003134389   0.07144  -0.03269   0.26221   0.04028
   4   16687.4    599.3   0.024689087   0.48707  -0.37260  -0.30143   0.50733
   5   20484.1    488.2   0.002548855   0.04096  -0.02567   0.14698   0.13676
   6   20511.3    487.5   0.011944097   0.19171  -0.01558   0.21267   0.38241
   7   21799.3    458.7   0.677790980  10.23597  -0.59958   1.54894   2.73446
   8   24290.1    411.7   0.079838509   1.08208   0.20080  -0.18736  -1.00332
   9   24706.4    404.8   0.204189087   2.72081   0.16170   0.65355   1.50583
  10   24817.1    402.9   0.028825433   0.38238   0.08385  -0.33490  -0.51302
  11   25054.5    399.1   0.042531321   0.55886  -0.05865   0.35523   0.65515
  12   25187.3    397.0   0.084646621   1.10638  -0.36932   0.27767  -0.94492
  13   26018.0    384.3   0.061956100   0.78395   0.36532   0.77213   0.23304
  14   26267.6    380.7   0.013969946   0.17509   0.00006   0.26762   0.32166
  15   26335.1    379.7   0.042023354   0.52533   0.11106   0.17562  -0.69437
  16   26545.8    376.7   0.003123751   0.03874  -0.17482  -0.06613   0.06168
  17   26639.1    375.4   0.003232262   0.03994   0.15636  -0.10222   0.07105
  18   26763.2    373.6   0.053267482   0.65524   0.39743  -0.65751   0.25490
  19   27093.1    369.1   0.147296597   1.78982  -0.23481   0.71835   1.10392
  20   28635.2    349.2   0.303516873   3.48946  -0.33025  -0.17663  -1.83008
  21   30398.2    329.0   0.000079761   0.00086  -0.02703   0.01044   0.00494
  22   31202.3    320.5   0.138836301   1.46485   0.47232   1.10209   0.16481
  23   31585.7    316.6   0.279206690   2.91012  -1.08675  -0.74693   1.08222
  24   31692.7    315.5   0.053259867   0.55324   0.35155   0.54981  -0.35688
  25   31946.6    313.0   0.350676838   3.61375   0.25700  -1.82561   0.46351
  26   31971.0    312.8   0.000896372   0.00923   0.05197   0.06007  -0.05404
  27   32076.0    311.8   0.016085663   0.16509  -0.20472   0.34851  -0.04157
  28   32120.5    311.3   0.085494552   0.87626   0.74582  -0.56428  -0.04000
  29   32171.1    310.8   0.062644037   0.64105  -0.07885  -0.77746   0.17432
  30   32716.8    305.7   0.469761640   4.72696  -0.81375   2.00759  -0.18532
  31   32933.8    303.6   0.032063240   0.32051  -0.15744   0.53403   0.10262
  32   34039.1    293.8   0.019439772   0.18801   0.06864   0.37305  -0.21009
  33   34271.9    291.8   0.001299098   0.01248   0.00849   0.11111   0.00777
  34   34558.2    289.4   0.104758426   0.99796   0.28513   0.83138  -0.47484
  35   34669.7    288.4   0.203051721   1.92811   0.90766   0.94534  -0.45892
  36   34701.2    288.2   0.036705695   0.34823   0.04064   0.21771  -0.54697
  37   34773.7    287.6   0.015213717   0.14403  -0.28896  -0.06464  -0.23740
  38   35550.0    281.3   0.080968697   0.74981   0.50771   0.61826  -0.33136
  39   35857.6    278.9   0.008951725   0.08219  -0.14631  -0.12343   0.21341
  40   36019.5    277.6   0.001110096   0.01015  -0.04363   0.02544  -0.08715
  41   36724.0    272.3   0.002188353   0.01962  -0.03594   0.04701   0.12695
  42   37275.9    268.3   0.037049597   0.32721  -0.22851   0.32705   0.40992
  43   37855.3    264.2   0.070619115   0.61415   0.05352  -0.76555  -0.15881
  44   37978.0    263.3   0.015542744   0.13473   0.19525   0.29353   0.10221
  45   38133.8    262.2   0.063865137   0.55135  -0.12964   0.63033   0.37044
  46   38437.2    260.2   0.059213702   0.50716  -0.11495  -0.61123  -0.34691
  47   38554.5    259.4   0.016736773   0.14291   0.20945   0.06492   0.30794
  48   39013.3    256.3   0.066344397   0.55984  -0.14854  -0.46692  -0.56548
  49   39473.0    253.3   0.014419852   0.12026   0.31508   0.10504  -0.09979
  50   40092.7    249.4   0.065556136   0.53830  -0.27378   0.61361  -0.29467
  51   40260.4    248.4   0.001295198   0.01059  -0.03937   0.09506   0.00231

FINAL SINGLE POINT ENERGY     -3635.798641930593

DIPOLE MOMENT
-------------
                                X             Y             Z
Electronic contribution:     30.57846      -8.84459       5.11988
Nuclear contribution   :    -32.30123       5.58443      -2.91831
                        -----------------------------------------
Total Dipole Moment    :     -1.72278      -3.26016       2.20156
                        -----------------------------------------
Magnitude (a.u.)       :      4.29459
Magnitude (Debye)      :     10.91598

Rotational constants in cm-1:     0.002328     0.000183     0.000178
Rotational constants in MHz :    69.795270     5.485472     5.348634

                             ****ORCA TERMINATED NORMALLY****
TOTAL RUN TIME: 0 days 0 hours 10 minutes 26 seconds 923 msec
