                         Program Version 4.2.0 -  RELEASE  -
|  1> # ORCA input file
|  2> # SCF done       -194.699538680187          0.000714812998
|  3> ! CAM-B3LYP def2-SVP def2/J RIJCOSX Grid4 TightSCF
|  4> %maxcore 5000
|  5> %tddft
|  6>     Mode sTDDFT
|  7>     Ethresh 5.0
|  8>     maxcore 5000
|  9> end
| 10>
| 11> %pal
| 12>   nprocs 6
| 13>   end
| 14> * xyz 0 1
| 15>    C        3.80522        -1.13636         4.57945
| 16>    C        4.49231        -0.79520         5.71036
| 17>    C        4.57098        -1.54846         6.89831
| 18>    N        4.66879        -2.11869         7.88983
| 19>    C        5.21601         0.41834         5.76257
| 20>    N        5.81782         1.38998         5.84759
| 21>    N        3.06907        -2.25942         4.37678
| 22>    C        2.87550        -3.31107         5.34770
| 23>    C        2.47351        -2.35832         3.13183
| 24>    O        1.78655        -3.29132         2.78485
| 25>    C        2.80056        -1.17725         2.32883
| 26>    S        3.80962        -0.05098         3.15155
| 27>    C        2.35692        -0.95520         1.05684
| 28>    C        2.76156         0.24773         0.45249
| 29>    N        3.55234         1.04855         1.17458
| 30>    C        3.79293         2.13377         0.41758
| 31>    C        3.11047         2.02130        -0.87149
| 32>    C        3.36837         3.21862        -1.68903
| 33>    O        2.95795         3.47829        -2.80229
| 34>    C        4.24045         4.02702        -0.81869
| 35>    C        4.47507         3.33039         0.45952
| 36>    N        5.27223         4.06385         1.26874
| 37>    C        5.54362         5.15263         0.58697
| 38>    C        4.93077         5.19436        -0.72479
| 39>    C        2.44641         0.81093        -0.86464
| 40>    C        1.62675         0.17824        -1.83881
| 41>    C        1.33549         0.75539        -3.02843
| 42>    C        0.50689         0.22032        -4.07025
| 43>    C        0.24268         1.02727        -5.16347
| 44>    C       -0.58161         0.57496        -6.20651
| 45>    C       -1.01374         1.18163        -7.38468
| 46>    C       -0.72172         2.53146        -7.93463
| 47>    C       -0.74172         3.66744        -6.89738
| 48>    N       -0.87729         4.93512        -7.59249
| 49>    C        0.63481         2.53522        -8.67585
| 50>    N        0.56806         1.66031        -9.83300
| 51>    C       -1.81747         0.20297        -8.08219
| 52>    C       -2.41852         0.25754        -9.28506
| 53>    C       -3.21668        -0.89284        -9.80407
| 54>    C       -3.21213        -2.10154        -8.92781
| 55>    C       -2.58002        -2.14619        -7.74016
| 56>    C       -1.87373        -1.01459        -7.26668
| 57>    C       -1.12523        -0.77663        -6.12961
| 58>    C       -0.83307        -1.58632        -5.00904
| 59>    C       -0.05009        -1.09861        -4.01319
| 60>    C       -4.60225        -0.34806       -10.06056
| 61>    C       -5.67146        -0.65420        -9.32086
| 62>    C       -6.99837        -0.15466        -9.54581
| 63>    N       -8.03947        -0.88839        -9.20292
| 64>    C       -9.13125        -0.19585        -9.59362
| 65>    C       -8.75334         1.07412       -10.22968
| 66>    C       -9.95490         1.85523       -10.58136
| 67>    O      -10.02249         2.96096       -11.06769
| 68>    C      -11.04959         0.96216       -10.15566
| 69>    C      -10.50154        -0.27586        -9.55726
| 70>    N      -11.50207        -1.08539        -9.13409
| 71>    C      -12.60753        -0.44144        -9.41928
| 72>    C      -12.39748         0.84812       -10.04884
| 73>    C       -7.38160         1.12898       -10.18103
| 74>    C       -6.50534         2.19221       -10.54037
| 75>    C       -6.83723         3.16565       -11.42509
| 76>    C       -5.98303         4.26452       -11.68917
| 77>    C       -6.21718         5.22052       -12.62602
| 78>    C       -7.29989         5.23874       -13.61271
| 79>    O       -8.11225         4.37179       -13.82616
| 80>    N       -7.25754         6.42272       -14.34513
| 81>    C       -6.24299         7.27762       -14.05887
| 82>    C       -5.97955         8.49354       -14.63340
| 83>    C       -6.73354         9.11003       -15.64841
| 84>    N       -7.30325         9.66481       -16.47640
| 85>    C       -4.86153         9.23882       -14.20185
| 86>    N       -3.95576         9.84970       -13.85325
| 87>    S       -5.20925         6.64217       -12.79558
| 88>    C       -8.25730         6.66546       -15.35748
| 89>    H        2.38875        -2.92502         6.24360
| 90>    H        3.82840        -3.76262         5.62432
| 91>    H        2.23769        -4.06085         4.87912
| 92>    H        1.72359        -1.67659         0.56775
| 93>    H        6.17119         5.91624         1.01170
| 94>    H        5.02775         5.99239        -1.43414
| 95>    H        1.23394        -0.79293        -1.57319
| 96>    H        1.74950         1.73602        -3.22603
| 97>    H        0.67976         2.01225        -5.20139
| 98>    H       -1.48113         2.76428        -8.68747
| 99>    H        0.20642         3.69960        -6.35844
|100>    H       -1.54649         3.47489        -6.16815
|101>    H       -1.80932         5.03798        -7.97922
|102>    H       -0.71382         5.71082        -6.96198
|103>    H        1.42670         2.26107        -7.96191
|104>    H        0.81199         3.55503        -9.02206
|105>    H        0.58922         0.68776        -9.54331
|106>    H        1.35825         1.82150       -10.44631
|107>    H       -2.35409         1.13304        -9.91527
|108>    H       -2.80140        -1.17347       -10.78508
|109>    H       -3.75284        -2.95603        -9.30516
|110>    H       -2.59531        -3.04435        -7.14069
|111>    H       -1.23788        -2.58622        -4.95722
|112>    H        0.17302        -1.71895        -3.15978
|113>    H       -4.68196         0.32678       -10.90151
|114>    H       -5.59899        -1.38824        -8.52998
|115>    H      -13.56425        -0.87595        -9.18652
|116>    H      -13.16941         1.52790       -10.35076
|117>    H       -5.53814         2.21513       -10.05168
|118>    H       -7.78411         3.12689       -11.94309
|119>    H       -5.09628         4.37162       -11.07449
|120>    H       -8.91852         5.79820       -15.35707
|121>    H       -7.79689         6.77514       -16.33971
|122>    H       -8.83107         7.56335       -15.12720
|123> *
|124>
|125>                          ****END OF INPUT****

CARTESIAN COORDINATES (ANGSTROEM)
---------------------------------
  C      3.805220   -1.136360    4.579450
  C      4.492310   -0.795200    5.710360
  C      4.570980   -1.548460    6.898310
  N      4.668790   -2.118690    7.889830
  C      5.216010    0.418340    5.762570
  N      5.817820    1.389980    5.847590
  N      3.069070   -2.259420    4.376780
  C      2.875500   -3.311070    5.347700
  C      2.473510   -2.358320    3.131830
  O      1.786550   -3.291320    2.784850
  C      2.800560   -1.177250    2.328830
  S      3.809620   -0.050980    3.151550
  C      2.356920   -0.955200    1.056840
  C      2.761560    0.247730    0.452490
  N      3.552340    1.048550    1.174580
  C      3.792930    2.133770    0.417580
  C      3.110470    2.021300   -0.871490
  C      3.368370    3.218620   -1.689030
  O      2.957950    3.478290   -2.802290
  C      4.240450    4.027020   -0.818690
  C      4.475070    3.330390    0.459520
  N      5.272230    4.063850    1.268740
  C      5.543620    5.152630    0.586970
  C      4.930770    5.194360   -0.724790
  C      2.446410    0.810930   -0.864640
  C      1.626750    0.178240   -1.838810
  C      1.335490    0.755390   -3.028430
  C      0.506890    0.220320   -4.070250
  C      0.242680    1.027270   -5.163470
  C     -0.581610    0.574960   -6.206510
  C     -1.013740    1.181630   -7.384680
  C     -0.721720    2.531460   -7.934630
  C     -0.741720    3.667440   -6.897380
  N     -0.877290    4.935120   -7.592490
  C      0.634810    2.535220   -8.675850
  N      0.568060    1.660310   -9.833000
  C     -1.817470    0.202970   -8.082190
  C     -2.418520    0.257540   -9.285060
  C     -3.216680   -0.892840   -9.804070
  C     -3.212130   -2.101540   -8.927810
  C     -2.580020   -2.146190   -7.740160
  C     -1.873730   -1.014590   -7.266680
  C     -1.125230   -0.776630   -6.129610
  C     -0.833070   -1.586320   -5.009040
  C     -0.050090   -1.098610   -4.013190
  C     -4.602250   -0.348060  -10.060560
  C     -5.671460   -0.654200   -9.320860
  C     -6.998370   -0.154660   -9.545810
  N     -8.039470   -0.888390   -9.202920
  C     -9.131250   -0.195850   -9.593620
  C     -8.753340    1.074120  -10.229680
  C     -9.954900    1.855230  -10.581360
  O    -10.022490    2.960960  -11.067690
  C    -11.049590    0.962160  -10.155660
  C    -10.501540   -0.275860   -9.557260
  N    -11.502070   -1.085390   -9.134090
  C    -12.607530   -0.441440   -9.419280
  C    -12.397480    0.848120  -10.048840
  C     -7.381600    1.128980  -10.181030
  C     -6.505340    2.192210  -10.540370
  C     -6.837230    3.165650  -11.425090
  C     -5.983030    4.264520  -11.689170
  C     -6.217180    5.220520  -12.626020
  C     -7.299890    5.238740  -13.612710
  O     -8.112250    4.371790  -13.826160
  N     -7.257540    6.422720  -14.345130
  C     -6.242990    7.277620  -14.058870
  C     -5.979550    8.493540  -14.633400
  C     -6.733540    9.110030  -15.648410
  N     -7.303250    9.664810  -16.476400
  C     -4.861530    9.238820  -14.201850
  N     -3.955760    9.849700  -13.853250
  S     -5.209250    6.642170  -12.795580
  C     -8.257300    6.665460  -15.357480
  H      2.388750   -2.925020    6.243600
  H      3.828400   -3.762620    5.624320
  H      2.237690   -4.060850    4.879120
  H      1.723590   -1.676590    0.567750
  H      6.171190    5.916240    1.011700
  H      5.027750    5.992390   -1.434140
  H      1.233940   -0.792930   -1.573190
  H      1.749500    1.736020   -3.226030
  H      0.679760    2.012250   -5.201390
  H     -1.481130    2.764280   -8.687470
  H      0.206420    3.699600   -6.358440
  H     -1.546490    3.474890   -6.168150
  H     -1.809320    5.037980   -7.979220
  H     -0.713820    5.710820   -6.961980
  H      1.426700    2.261070   -7.961910
  H      0.811990    3.555030   -9.022060
  H      0.589220    0.687760   -9.543310
  H      1.358250    1.821500  -10.446310
  H     -2.354090    1.133040   -9.915270
  H     -2.801400   -1.173470  -10.785080
  H     -3.752840   -2.956030   -9.305160
  H     -2.595310   -3.044350   -7.140690
  H     -1.237880   -2.586220   -4.957220
  H      0.173020   -1.718950   -3.159780
  H     -4.681960    0.326780  -10.901510
  H     -5.598990   -1.388240   -8.529980
  H    -13.564250   -0.875950   -9.186520
  H    -13.169410    1.527900  -10.350760
  H     -5.538140    2.215130  -10.051680
  H     -7.784110    3.126890  -11.943090
  H     -5.096280    4.371620  -11.074490
  H     -8.918520    5.798200  -15.357070
  H     -7.796890    6.775140  -16.339710
  H     -8.831070    7.563350  -15.127200

 Total Charge           Charge          ....    0
 Multiplicity           Mult            ....    1
 Number of Electrons    NEL             ....  518
 Basis Dimension        Dim             .... 1214

ORBITAL ENERGIES
----------------

  NO   OCC          E(Eh)            E(eV)
   0   2.0000     -88.996133     -2421.7079
   1   2.0000     -88.990599     -2421.5573
   2   2.0000     -19.235819      -523.4332
   3   2.0000     -19.231122      -523.3054
   4   2.0000     -19.220274      -523.0103
   5   2.0000     -19.218656      -522.9662
   6   2.0000     -14.503798      -394.6684
   7   2.0000     -14.501721      -394.6119
   8   2.0000     -14.434653      -392.7869
   9   2.0000     -14.418628      -392.3508
  10   2.0000     -14.414875      -392.2487
  11   2.0000     -14.413526      -392.2120
  12   2.0000     -14.411304      -392.1515
  13   2.0000     -14.411160      -392.1476
  14   2.0000     -14.409893      -392.1131
  15   2.0000     -14.407874      -392.0582
  16   2.0000     -14.387748      -391.5105
  17   2.0000     -14.384843      -391.4315
  18   2.0000     -10.420990      -283.5696
  19   2.0000     -10.418774      -283.5092
  20   2.0000     -10.404710      -283.1266
  21   2.0000     -10.382826      -282.5311
  22   2.0000     -10.380978      -282.4808
  23   2.0000     -10.378150      -282.4038
  24   2.0000     -10.356194      -281.8064
  25   2.0000     -10.352821      -281.7146
  26   2.0000     -10.352077      -281.6943
  27   2.0000     -10.346054      -281.5304
  28   2.0000     -10.344883      -281.4986
  29   2.0000     -10.343018      -281.4478
  30   2.0000     -10.342025      -281.4208
  31   2.0000     -10.341512      -281.4069
  32   2.0000     -10.335394      -281.2404
  33   2.0000     -10.335073      -281.2316
  34   2.0000     -10.329378      -281.0767
  35   2.0000     -10.328591      -281.0552
  36   2.0000     -10.327136      -281.0157
  37   2.0000     -10.323690      -280.9219
  38   2.0000     -10.323657      -280.9210
  39   2.0000     -10.320594      -280.8377
  40   2.0000     -10.319621      -280.8112
  41   2.0000     -10.318388      -280.7776
  42   2.0000     -10.317539      -280.7545
  43   2.0000     -10.317422      -280.7513
  44   2.0000     -10.316724      -280.7323
  45   2.0000     -10.315854      -280.7087
  46   2.0000     -10.314846      -280.6812
  47   2.0000     -10.314183      -280.6632
  48   2.0000     -10.311640      -280.5940
  49   2.0000     -10.310803      -280.5712
  50   2.0000     -10.303786      -280.3803
  51   2.0000     -10.300071      -280.2792
  52   2.0000     -10.299885      -280.2741
  53   2.0000     -10.299394      -280.2608
  54   2.0000     -10.298244      -280.2295
  55   2.0000     -10.296042      -280.1696
  56   2.0000     -10.294254      -280.1209
  57   2.0000     -10.292930      -280.0849
  58   2.0000     -10.290519      -280.0193
  59   2.0000     -10.288216      -279.9566
  60   2.0000     -10.287500      -279.9371
  61   2.0000     -10.286725      -279.9160
  62   2.0000     -10.285564      -279.8844
  63   2.0000     -10.285433      -279.8809
  64   2.0000     -10.283356      -279.8243
  65   2.0000     -10.282738      -279.8075
  66   2.0000     -10.281882      -279.7842
  67   2.0000     -10.279896      -279.7302
  68   2.0000     -10.277949      -279.6772
  69   2.0000     -10.276772      -279.6452
  70   2.0000     -10.275850      -279.6201
  71   2.0000     -10.274491      -279.5831
  72   2.0000     -10.272710      -279.5347
  73   2.0000     -10.271429      -279.4998
  74   2.0000      -8.087320      -220.0672
  75   2.0000      -8.086896      -220.0556
  76   2.0000      -6.057972      -164.8458
  77   2.0000      -6.056791      -164.8137
  78   2.0000      -6.052851      -164.7065
  79   2.0000      -6.052227      -164.6895
  80   2.0000      -6.048341      -164.5837
  81   2.0000      -6.047139      -164.5510
  82   2.0000      -1.178095       -32.0576
  83   2.0000      -1.177391       -32.0385
  84   2.0000      -1.135424       -30.8964
  85   2.0000      -1.132128       -30.8068
  86   2.0000      -1.105396       -30.0794
  87   2.0000      -1.103226       -30.0203
  88   2.0000      -1.096209       -29.8294
  89   2.0000      -1.088246       -29.6127
  90   2.0000      -1.069279       -29.0966
  91   2.0000      -1.067552       -29.0496
  92   2.0000      -1.007709       -27.4211
  93   2.0000      -1.006854       -27.3979
  94   2.0000      -0.996331       -27.1116
  95   2.0000      -0.991209       -26.9722
  96   2.0000      -0.989912       -26.9369
  97   2.0000      -0.980656       -26.6850
  98   2.0000      -0.975506       -26.5449
  99   2.0000      -0.973955       -26.5027
 100   2.0000      -0.962666       -26.1955
 101   2.0000      -0.957859       -26.0647
 102   2.0000      -0.947398       -25.7800
 103   2.0000      -0.941816       -25.6281
 104   2.0000      -0.941146       -25.6099
 105   2.0000      -0.934901       -25.4400
 106   2.0000      -0.928152       -25.2563
 107   2.0000      -0.926528       -25.2121
 108   2.0000      -0.914503       -24.8849
 109   2.0000      -0.896970       -24.4078
 110   2.0000      -0.886687       -24.1280
 111   2.0000      -0.885127       -24.0855
 112   2.0000      -0.878636       -23.9089
 113   2.0000      -0.867250       -23.5991
 114   2.0000      -0.859876       -23.3984
 115   2.0000      -0.853278       -23.2189
 116   2.0000      -0.846271       -23.0282
 117   2.0000      -0.837938       -22.8015
 118   2.0000      -0.836506       -22.7625
 119   2.0000      -0.830857       -22.6088
 120   2.0000      -0.828940       -22.5566
 121   2.0000      -0.814886       -22.1742
 122   2.0000      -0.807538       -21.9742
 123   2.0000      -0.796301       -21.6685
 124   2.0000      -0.780301       -21.2331
 125   2.0000      -0.770786       -20.9742
 126   2.0000      -0.769308       -20.9339
 127   2.0000      -0.766914       -20.8688
 128   2.0000      -0.763891       -20.7865
 129   2.0000      -0.742635       -20.2081
 130   2.0000      -0.729390       -19.8477
 131   2.0000      -0.727312       -19.7912
 132   2.0000      -0.725173       -19.7330
 133   2.0000      -0.716474       -19.4963
 134   2.0000      -0.708575       -19.2813
 135   2.0000      -0.708333       -19.2747
 136   2.0000      -0.702168       -19.1070
 137   2.0000      -0.697191       -18.9715
 138   2.0000      -0.688919       -18.7464
 139   2.0000      -0.685757       -18.6604
 140   2.0000      -0.674018       -18.3410
 141   2.0000      -0.669020       -18.2049
 142   2.0000      -0.666914       -18.1476
 143   2.0000      -0.656209       -17.8564
 144   2.0000      -0.648142       -17.6368
 145   2.0000      -0.644282       -17.5318
 146   2.0000      -0.642678       -17.4881
 147   2.0000      -0.639914       -17.4130
 148   2.0000      -0.637930       -17.3589
 149   2.0000      -0.634925       -17.2772
 150   2.0000      -0.629537       -17.1306
 151   2.0000      -0.619920       -16.8689
 152   2.0000      -0.613348       -16.6901
 153   2.0000      -0.611253       -16.6330
 154   2.0000      -0.604316       -16.4443
 155   2.0000      -0.602541       -16.3960
 156   2.0000      -0.601712       -16.3734
 157   2.0000      -0.600830       -16.3494
 158   2.0000      -0.595295       -16.1988
 159   2.0000      -0.589118       -16.0307
 160   2.0000      -0.586454       -15.9582
 161   2.0000      -0.582405       -15.8480
 162   2.0000      -0.574755       -15.6399
 163   2.0000      -0.571918       -15.5627
 164   2.0000      -0.569782       -15.5045
 165   2.0000      -0.568004       -15.4562
 166   2.0000      -0.564271       -15.3546
 167   2.0000      -0.558428       -15.1956
 168   2.0000      -0.558154       -15.1881
 169   2.0000      -0.554769       -15.0960
 170   2.0000      -0.552286       -15.0285
 171   2.0000      -0.546449       -14.8696
 172   2.0000      -0.545863       -14.8537
 173   2.0000      -0.544305       -14.8113
 174   2.0000      -0.542217       -14.7545
 175   2.0000      -0.540678       -14.7126
 176   2.0000      -0.537673       -14.6308
 177   2.0000      -0.533845       -14.5267
 178   2.0000      -0.531190       -14.4544
 179   2.0000      -0.527238       -14.3469
 180   2.0000      -0.524552       -14.2738
 181   2.0000      -0.523009       -14.2318
 182   2.0000      -0.521574       -14.1928
 183   2.0000      -0.519830       -14.1453
 184   2.0000      -0.516634       -14.0583
 185   2.0000      -0.514737       -14.0067
 186   2.0000      -0.513476       -13.9724
 187   2.0000      -0.508813       -13.8455
 188   2.0000      -0.506603       -13.7854
 189   2.0000      -0.505697       -13.7607
 190   2.0000      -0.504065       -13.7163
 191   2.0000      -0.503116       -13.6905
 192   2.0000      -0.501974       -13.6594
 193   2.0000      -0.501201       -13.6384
 194   2.0000      -0.501154       -13.6371
 195   2.0000      -0.498159       -13.5556
 196   2.0000      -0.492834       -13.4107
 197   2.0000      -0.490473       -13.3464
 198   2.0000      -0.487993       -13.2790
 199   2.0000      -0.484502       -13.1840
 200   2.0000      -0.482621       -13.1328
 201   2.0000      -0.479719       -13.0538
 202   2.0000      -0.477468       -12.9926
 203   2.0000      -0.476345       -12.9620
 204   2.0000      -0.474268       -12.9055
 205   2.0000      -0.472645       -12.8613
 206   2.0000      -0.467847       -12.7308
 207   2.0000      -0.467180       -12.7126
 208   2.0000      -0.466057       -12.6821
 209   2.0000      -0.458614       -12.4795
 210   2.0000      -0.453547       -12.3416
 211   2.0000      -0.449627       -12.2350
 212   2.0000      -0.446957       -12.1623
 213   2.0000      -0.445498       -12.1226
 214   2.0000      -0.445146       -12.1130
 215   2.0000      -0.444827       -12.1044
 216   2.0000      -0.443369       -12.0647
 217   2.0000      -0.440683       -11.9916
 218   2.0000      -0.440427       -11.9846
 219   2.0000      -0.437893       -11.9157
 220   2.0000      -0.435956       -11.8630
 221   2.0000      -0.431700       -11.7471
 222   2.0000      -0.427242       -11.6258
 223   2.0000      -0.426755       -11.6126
 224   2.0000      -0.426020       -11.5926
 225   2.0000      -0.424492       -11.5510
 226   2.0000      -0.421133       -11.4596
 227   2.0000      -0.420252       -11.4356
 228   2.0000      -0.409981       -11.1562
 229   2.0000      -0.408845       -11.1252
 230   2.0000      -0.402898       -10.9634
 231   2.0000      -0.401882       -10.9358
 232   2.0000      -0.400131       -10.8881
 233   2.0000      -0.398373       -10.8403
 234   2.0000      -0.392700       -10.6859
 235   2.0000      -0.384396       -10.4600
 236   2.0000      -0.376238       -10.2380
 237   2.0000      -0.375715       -10.2237
 238   2.0000      -0.367194        -9.9919
 239   2.0000      -0.362719        -9.8701
 240   2.0000      -0.361442        -9.8353
 241   2.0000      -0.361006        -9.8235
 242   2.0000      -0.355523        -9.6743
 243   2.0000      -0.355065        -9.6618
 244   2.0000      -0.348766        -9.4904
 245   2.0000      -0.343311        -9.3420
 246   2.0000      -0.339893        -9.2490
 247   2.0000      -0.338420        -9.2089
 248   2.0000      -0.335490        -9.1292
 249   2.0000      -0.335000        -9.1158
 250   2.0000      -0.327276        -8.9056
 251   2.0000      -0.323627        -8.8063
 252   2.0000      -0.317904        -8.6506
 253   2.0000      -0.310202        -8.4410
 254   2.0000      -0.309858        -8.4317
 255   2.0000      -0.302422        -8.2293
 256   2.0000      -0.282326        -7.6825
 257   2.0000      -0.280103        -7.6220
 258   2.0000      -0.232941        -6.3386
 259   0.0000      -0.132194        -3.5972
 260   0.0000      -0.124229        -3.3804
 261   0.0000      -0.088394        -2.4053
 262   0.0000      -0.081870        -2.2278
 263   0.0000      -0.059624        -1.6224

MULLIKEN ATOMIC CHARGES
-----------------------
   0 C :    0.136637
   1 C :   -0.327384
   2 C :   -0.196710
   3 N :    0.177605
   4 C :   -0.204117
   5 N :    0.162587
   6 N :   -0.229802
   7 C :    0.115013
   8 C :    0.209626
   9 O :   -0.161487
  10 C :   -0.071125
  11 S :    0.248061
  12 C :   -0.078263
  13 C :    0.124462
  14 N :   -0.143112
  15 C :    0.080187
  16 C :   -0.178713
  17 C :    0.222355
  18 O :   -0.146008
  19 C :   -0.013271
  20 C :   -0.046870
  21 N :   -0.047183
  22 C :    0.091947
  23 C :   -0.094617
  24 C :    0.084232
  25 C :   -0.034416
  26 C :    0.007467
  27 C :    0.125536
  28 C :   -0.095888
  29 C :    0.055123
  30 C :   -0.036272
  31 C :   -0.029611
  32 C :    0.119317
  33 N :   -0.214861
  34 C :    0.138080
  35 N :   -0.232040
  36 C :    0.079285
  37 C :   -0.118478
  38 C :    0.170122
  39 C :   -0.059258
  40 C :    0.019316
  41 C :    0.011482
  42 C :    0.034233
  43 C :   -0.000850
  44 C :   -0.009463
  45 C :   -0.102311
  46 C :    0.031811
  47 C :    0.043502
  48 N :   -0.033127
  49 C :    0.070783
  50 C :   -0.148844
  51 C :    0.207807
  52 O :   -0.124093
  53 C :   -0.026658
  54 C :   -0.017728
  55 N :   -0.054852
  56 C :    0.095179
  57 C :   -0.089470
  58 C :    0.048388
  59 C :   -0.059378
  60 C :    0.028538
  61 C :    0.005562
  62 C :   -0.123268
  63 C :    0.232045
  64 O :   -0.163774
  65 N :   -0.240767
  66 C :    0.126623
  67 C :   -0.304659
  68 C :   -0.193599
  69 N :    0.171890
  70 C :   -0.219795
  71 N :    0.148349
  72 S :    0.159154
  73 C :    0.113634
  74 H :    0.065290
  75 H :    0.065374
  76 H :    0.065701
  77 H :    0.022516
  78 H :    0.013620
  79 H :   -0.002598
  80 H :   -0.035186
  81 H :   -0.001691
  82 H :   -0.028350
  83 H :   -0.036690
  84 H :    0.008018
  85 H :   -0.001137
  86 H :    0.087818
  87 H :    0.096142
  88 H :   -0.017037
  89 H :    0.008847
  90 H :    0.099004
  91 H :    0.096352
  92 H :    0.004747
  93 H :    0.044202
  94 H :   -0.000515
  95 H :   -0.031626
  96 H :   -0.036345
  97 H :   -0.031407
  98 H :    0.022891
  99 H :    0.030372
 100 H :    0.013800
 101 H :   -0.001045
 102 H :   -0.002549
 103 H :    0.055661
 104 H :   -0.000732
 105 H :    0.070508
 106 H :    0.065459
 107 H :    0.066771
Sum of atomic charges:   -0.0000000

LOEWDIN ATOMIC CHARGES
----------------------
   0 C :   -0.052355
   1 C :   -0.189528
   2 C :   -0.031199
   3 N :   -0.052598
   4 C :   -0.041555
   5 N :   -0.037594
   6 N :   -0.005232
   7 C :    0.037500
   8 C :    0.068868
   9 O :   -0.153753
  10 C :   -0.148719
  11 S :    0.528166
  12 C :   -0.037746
  13 C :    0.066265
  14 N :   -0.131055
  15 C :    0.052755
  16 C :   -0.062324
  17 C :    0.072393
  18 O :   -0.145170
  19 C :   -0.042677
  20 C :    0.018700
  21 N :   -0.092284
  22 C :    0.076318
  23 C :   -0.029181
  24 C :   -0.012149
  25 C :   -0.059069
  26 C :    0.037000
  27 C :   -0.035016
  28 C :    0.010108
  29 C :   -0.026785
  30 C :   -0.021952
  31 C :   -0.041954
  32 C :    0.026045
  33 N :   -0.113041
  34 C :    0.031455
  35 N :   -0.120515
  36 C :   -0.020029
  37 C :    0.074263
  38 C :   -0.029377
  39 C :   -0.038056
  40 C :   -0.011173
  41 C :   -0.043211
  42 C :   -0.025048
  43 C :   -0.007182
  44 C :   -0.023250
  45 C :    0.032549
  46 C :   -0.033722
  47 C :    0.071943
  48 N :   -0.095091
  49 C :    0.044624
  50 C :   -0.033444
  51 C :    0.065680
  52 O :   -0.129430
  53 C :   -0.038144
  54 C :    0.030700
  55 N :   -0.094282
  56 C :    0.081677
  57 C :   -0.031966
  58 C :   -0.035828
  59 C :   -0.011479
  60 C :    0.003928
  61 C :    0.008599
  62 C :   -0.204019
  63 C :    0.075239
  64 O :   -0.146845
  65 N :   -0.006684
  66 C :   -0.030071
  67 C :   -0.207471
  68 C :   -0.033942
  69 N :   -0.057750
  70 C :   -0.041338
  71 N :   -0.048030
  72 S :    0.429020
  73 C :    0.038729
  74 H :    0.040962
  75 H :    0.040922
  76 H :    0.043104
  77 H :    0.047069
  78 H :    0.025619
  79 H :    0.035200
  80 H :    0.022351
  81 H :    0.033573
  82 H :    0.030436
  83 H :    0.021582
  84 H :    0.019101
  85 H :    0.003048
  86 H :    0.050879
  87 H :    0.057475
  88 H :    0.000078
  89 H :    0.019464
  90 H :    0.051689
  91 H :    0.056697
  92 H :    0.030476
  93 H :    0.063264
  94 H :    0.027702
  95 H :    0.031937
  96 H :    0.028277
  97 H :    0.024648
  98 H :    0.030072
  99 H :    0.046915
 100 H :    0.025607
 101 H :    0.036102
 102 H :    0.028765
 103 H :    0.041099
 104 H :    0.036229
 105 H :    0.044888
 106 H :    0.040863
 107 H :    0.041699

  Mayer bond orders larger than 0.100000
B(  0-C ,  1-C ) :   1.6465 B(  0-C ,  6-N ) :   1.1832 B(  0-C , 11-S ) :   0.9187
B(  1-C ,  2-C ) :   1.1555 B(  1-C ,  4-C ) :   1.1447 B(  2-C ,  3-N ) :   3.0170
B(  4-C ,  5-N ) :   3.0339 B(  6-N ,  7-C ) :   0.9324 B(  6-N ,  8-C ) :   1.0772
B(  7-C , 74-H ) :   0.9693 B(  7-C , 75-H ) :   0.9694 B(  7-C , 76-H ) :   0.9461
B(  8-C ,  9-O ) :   2.1853 B(  8-C , 10-C ) :   0.9204 B( 10-C , 11-S ) :   1.1210
B( 10-C , 12-C ) :   1.6188 B( 11-S , 14-N ) :   0.1965 B( 12-C , 13-C ) :   1.1602
B( 12-C , 77-H ) :   0.9793 B( 13-C , 14-N ) :   1.4336 B( 13-C , 24-C ) :   1.0039
B( 14-N , 15-C ) :   1.3556 B( 15-C , 16-C ) :   1.0819 B( 15-C , 20-C ) :   1.4245
B( 16-C , 17-C ) :   0.9030 B( 16-C , 24-C ) :   1.5198 B( 17-C , 18-O ) :   2.1741
B( 17-C , 19-C ) :   0.9349 B( 18-O , 81-H ) :   0.1099 B( 19-C , 20-C ) :   1.0673
B( 19-C , 23-C ) :   1.6062 B( 20-C , 21-N ) :   1.3179 B( 21-N , 22-C ) :   1.6507
B( 22-C , 23-C ) :   1.0648 B( 22-C , 78-H ) :   0.9903 B( 23-C , 79-H ) :   1.0111
B( 24-C , 25-C ) :   1.1469 B( 25-C , 26-C ) :   1.6093 B( 25-C , 80-H ) :   0.9603
B( 26-C , 27-C ) :   1.0866 B( 26-C , 81-H ) :   0.9708 B( 27-C , 28-C ) :   1.4767
B( 27-C , 44-C ) :   1.1168 B( 28-C , 29-C ) :   1.1158 B( 28-C , 82-H ) :   1.0095
B( 29-C , 30-C ) :   1.4566 B( 29-C , 42-C ) :   1.1185 B( 30-C , 31-C ) :   1.0121
B( 30-C , 36-C ) :   1.1163 B( 31-C , 32-C ) :   1.0321 B( 31-C , 34-C ) :   1.0180
B( 31-C , 83-H ) :   0.8851 B( 32-C , 33-N ) :   1.0903 B( 32-C , 84-H ) :   0.9241
B( 32-C , 85-H ) :   0.9573 B( 33-N , 86-H ) :   0.9718 B( 33-N , 87-H ) :   0.9673
B( 34-C , 35-N ) :   1.1011 B( 34-C , 88-H ) :   0.9393 B( 34-C , 89-H ) :   0.9340
B( 35-N , 90-H ) :   0.9655 B( 35-N , 91-H ) :   0.9694 B( 36-C , 37-C ) :   1.6950
B( 36-C , 41-C ) :   1.0442 B( 37-C , 38-C ) :   0.9514 B( 37-C , 92-H ) :   0.9541
B( 38-C , 39-C ) :   1.0070 B( 38-C , 45-C ) :   0.9559 B( 38-C , 93-H ) :   0.8550
B( 39-C , 40-C ) :   1.7202 B( 39-C , 94-H ) :   0.9690 B( 40-C , 41-C ) :   1.1242
B( 40-C , 95-H ) :   0.9928 B( 41-C , 42-C ) :   1.4452 B( 42-C , 43-C ) :   1.1376
B( 43-C , 44-C ) :   1.6244 B( 43-C , 96-H ) :   0.9897 B( 44-C , 97-H ) :   0.9835
B( 45-C , 46-C ) :   1.8113 B( 45-C , 98-H ) :   0.9712 B( 46-C , 47-C ) :   1.0687
B( 46-C , 99-H ) :   0.9406 B( 47-C , 48-N ) :   1.6200 B( 47-C , 49-C ) :   0.1080
B( 47-C , 58-C ) :   1.0207 B( 48-N , 49-C ) :   1.3259 B( 49-C , 50-C ) :   1.0535
B( 49-C , 54-C ) :   1.4304 B( 50-C , 51-C ) :   0.8902 B( 50-C , 58-C ) :   1.5733
B( 51-C , 52-O ) :   2.2501 B( 51-C , 53-C ) :   0.9107 B( 53-C , 54-C ) :   1.0556
B( 53-C , 57-C ) :   1.6164 B( 54-C , 55-N ) :   1.3088 B( 55-N , 56-C ) :   1.6589
B( 56-C , 57-C ) :   1.0656 B( 56-C ,100-H ) :   0.9892 B( 57-C ,101-H ) :   1.0103
B( 58-C , 59-C ) :   1.0667 B( 59-C , 60-C ) :   1.6453 B( 59-C ,102-H ) :   0.9669
B( 60-C , 61-C ) :   1.1526 B( 60-C ,103-H ) :   0.9584 B( 61-C , 62-C ) :   1.6656
B( 61-C ,104-H ) :   0.9705 B( 62-C , 63-C ) :   0.9510 B( 62-C , 72-S ) :   1.0132
B( 63-C , 64-O ) :   2.1227 B( 63-C , 65-N ) :   1.0496 B( 65-N , 66-C ) :   1.2055
B( 65-N , 73-C ) :   0.9321 B( 66-C , 67-C ) :   1.5621 B( 66-C , 72-S ) :   1.0793
B( 67-C , 68-C ) :   1.1688 B( 67-C , 70-C ) :   1.1475 B( 68-C , 69-N ) :   3.0122
B( 70-C , 71-N ) :   3.0334 B( 73-C ,105-H ) :   0.9437 B( 73-C ,106-H ) :   0.9694
B( 73-C ,107-H ) :   0.9690

-----------------------------------------------------------------------------
         ABSORPTION SPECTRUM VIA TRANSITION ELECTRIC DIPOLE MOMENTS
-----------------------------------------------------------------------------
State   Energy  Wavelength   fosc         T2         TX        TY        TZ
        (cm-1)    (nm)                  (au**2)     (au)      (au)      (au)
-----------------------------------------------------------------------------
   0    9419.6   1061.6   0.094118422   3.28941   1.12976   0.48679   1.33270
   1   10916.8    916.0   0.008553369   0.25794  -0.02498   0.50576   0.03900
   2   14809.1    675.3   0.064954299   1.44396   0.41288   1.05768  -0.39345
   3   16806.7    595.0   0.028914109   0.56637   0.19299   0.59309  -0.42116
   4   18180.6    550.0   0.199289956   3.60872   1.09628   1.32221  -0.81157
   5   20158.0    496.1   0.002796750   0.04568  -0.16221  -0.05549   0.12761
   6   20607.9    485.3   0.702562062  11.22347   0.67340  -1.46802   2.93512
   7   20708.2    482.9   0.019703801   0.31324   0.20782  -0.28528   0.43436
   8   21501.3    465.1   0.002654312   0.04064  -0.16551  -0.11501  -0.00468
   9   22806.8    438.5   0.319551726   4.61267   1.41926   1.07924   1.19733
  10   23594.6    423.8   0.533335727   7.44156  -2.07097  -0.40731  -1.72822
  11   23794.1    420.3   0.009915503   0.13719  -0.00368   0.03498   0.36872
  12   23883.1    418.7   0.000676994   0.00933  -0.07699   0.04597  -0.03594
  13   24810.6    403.1   0.275356685   3.65371   1.06153   1.17117  -1.07481
  14   25379.7    394.0   0.730849586   9.48019   0.87014   2.37350  -1.75771
  15   25609.4    390.5   0.075857019   0.97515  -0.63535  -0.54817  -0.52056
  16   25774.1    388.0   0.036203818   0.46243  -0.06317   0.56742  -0.36942
  17   25931.1    385.6   0.003575440   0.04539   0.07969  -0.16958  -0.10142
  18   26082.3    383.4   0.201339598   2.54132   0.81683  -0.10962   1.36458
  19   26183.4    381.9   0.033563471   0.42200   0.22243   0.27371  -0.54554
  20   26514.0    377.2   0.252256717   3.13215  -1.06985  -1.39245  -0.22057
  21   26709.8    374.4   0.320769859   3.95365  -1.68360   0.54613  -0.90602
  22   27064.3    369.5   0.197502498   2.40244  -0.92320  -1.08680  -0.60745
  23   27157.6    368.2   0.097830311   1.18593   0.95878   0.50942   0.08461
  24   27321.1    366.0   0.100694208   1.21334   0.45271  -0.73232  -0.68709
  25   28490.1    351.0   0.010697223   0.12361   0.24107   0.17822   0.18366
  26   28870.8    346.4   0.065498676   0.74688  -0.75171  -0.27162   0.32868
  27   28973.3    345.1   0.002634185   0.02993   0.17026   0.01675  -0.02572
  28   29364.7    340.5   0.022625410   0.25366   0.28252   0.20295   0.36421
  29   29746.7    336.2   0.013802570   0.15276  -0.03710   0.34347  -0.18277
  30   30323.8    329.8   0.001057521   0.01148   0.09473   0.04942  -0.00811
  31   30619.9    326.6   0.005759261   0.06192   0.17182   0.13969  -0.11351
  32   30862.8    324.0   0.000114087   0.00122  -0.03216   0.01285  -0.00419
  33   31039.2    322.2   0.001034776   0.01098  -0.04108  -0.05737   0.07744
  34   31505.0    317.4   0.010580253   0.11056   0.09062   0.04980   0.31602
  35   31703.7    315.4   0.013758714   0.14287  -0.21222  -0.27318  -0.15232
  36   31841.6    314.1   0.027280983   0.28206   0.20227   0.18821   0.45357
  37   32291.6    309.7   0.036709258   0.37425  -0.18393   0.48307  -0.32721
  38   32485.0    307.8   0.000181884   0.00184  -0.03392   0.00832   0.02498
  39   32507.2    307.6   0.034960574   0.35406   0.11197   0.58072   0.06544
  40   32581.9    306.9   0.186129336   1.88068   0.52254   0.27284   1.23822
  41   32847.8    304.4   0.169052802   1.69431  -1.02778  -0.46695  -0.64802
  42   33233.1    300.9   0.205577965   2.03649   1.03061   0.41387   0.89613
  43   33494.5    298.6   0.049272602   0.48429   0.27461   0.32556  -0.55036
  44   33770.1    296.1   0.036042090   0.35136   0.09907   0.50743   0.28994
  45   34087.9    293.4   0.075717301   0.73126  -0.53750  -0.56137   0.35667
  46   34222.3    292.2   0.011310334   0.10880   0.07492  -0.26998   0.17407
  47   34271.9    291.8   0.039183929   0.37640  -0.44829   0.33196  -0.25541
  48   34562.2    289.3   0.011386775   0.10846  -0.28824  -0.03742  -0.15485
  49   35230.6    283.8   0.334814733   3.12867  -1.57585   0.37676  -0.70952
  50   35433.6    282.2   0.098710932   0.91712  -0.83105  -0.00377  -0.47589
  51   35679.3    280.3   0.065437411   0.60379  -0.39547   0.00903  -0.66882
  52   36139.5    276.7   0.128888393   1.17411  -0.75973   0.49362  -0.59436
  53   36517.3    273.8   0.002638078   0.02378  -0.08977   0.12401   0.01862
  54   36776.3    271.9   0.261646987   2.34220   1.39904  -0.57044   0.24391
  55   36923.1    270.8   0.001903757   0.01697  -0.08363   0.05706  -0.08200
  56   37326.5    267.9   0.075600881   0.66678   0.21009  -0.36824  -0.69789
  57   37659.1    265.5   0.064790339   0.56639   0.52298  -0.29045   0.45664
  58   38164.7    262.0   0.044781964   0.38629  -0.02343  -0.10036   0.61292
  59   38257.0    261.4   0.320508798   2.75807  -0.88714  -0.99267  -0.99280
  60   38465.9    260.0   0.000614865   0.00526   0.04582   0.04945   0.02679
  61   38669.9    258.6   0.012855572   0.10944   0.22419   0.08006   0.22972
  62   38708.0    258.3   0.001011939   0.00861  -0.09271  -0.00323   0.00036
  63   38930.5    256.9   0.082855190   0.70066  -0.69676  -0.46093  -0.05228
  64   39114.9    255.7   0.072202210   0.60769   0.13894   0.51958  -0.56429
  65   39304.5    254.4   0.009806068   0.08214   0.11072   0.24027  -0.11021
  66   39321.2    254.3   0.000815162   0.00682   0.06741   0.04701   0.00840
  67   39739.9    251.6   0.092827131   0.76899  -0.47749  -0.68794  -0.26027
  68   39766.5    251.5   0.043212548   0.35774   0.34243   0.48456  -0.07538
  69   39997.6    250.0   0.003578123   0.02945   0.09816  -0.08052   0.11546
  70   40078.8    249.5   0.001942512   0.01596   0.06746   0.10206   0.03145
  71   40154.0    249.0   0.000454822   0.00373   0.01507  -0.01975  -0.05578
  72   40170.0    248.9   0.020112321   0.16483  -0.11576   0.38448  -0.06006
  73   40288.8    248.2   0.092892735   0.75906   0.45103   0.51832   0.53570

FINAL SINGLE POINT ENERGY     -3904.269182515129

DIPOLE MOMENT
-------------
                                X             Y             Z
Electronic contribution:      1.87027       8.71279      32.47367
Nuclear contribution   :     -3.36554     -11.20037     -34.24563
                        -----------------------------------------
Total Dipole Moment    :     -1.49528      -2.48758      -1.77196
                        -----------------------------------------
Magnitude (a.u.)       :      3.40055
Magnitude (Debye)      :      8.64351

Rotational constants in cm-1:     0.001292     0.000237     0.000212
Rotational constants in MHz :    38.745188     7.107245     6.365078

                             ****ORCA TERMINATED NORMALLY****
TOTAL RUN TIME: 0 days 0 hours 10 minutes 47 seconds 721 msec
