                         Program Version 4.2.0 -  RELEASE  -
|  1> # ORCA input file
|  2> # SCF done       -196.874178156294          0.000481908286
|  3> ! CAM-B3LYP def2-SVP def2/J RIJCOSX Grid4 TightSCF
|  4> %maxcore 5000
|  5> %tddft
|  6>     Mode sTDDFT
|  7>     Ethresh 5.0
|  8>     maxcore 5000
|  9> end
| 10>
| 11> %pal
| 12>   nprocs 6
| 13>   end
| 14> * xyz 0 1
| 15>    C       -0.16143         8.37668         3.04742
| 16>    C       -1.33578         9.04947         3.23245
| 17>    C       -1.41063        10.42308         3.55081
| 18>    N       -1.52229        11.53661         3.80248
| 19>    C       -2.60625         8.43724         3.23035
| 20>    N       -3.65948         7.98734         3.30909
| 21>    C        1.17782         8.89311         3.29399
| 22>    C        2.08556         7.79552         3.39927
| 23>    C        3.40990         7.98395         3.67730
| 24>    C        3.89653         9.29733         3.85791
| 25>    C        2.99917        10.39886         3.73514
| 26>    C        1.63324        10.17573         3.45020
| 27>    C        3.49974        11.70514         3.91112
| 28>    C        4.82100        11.91538         4.19800
| 29>    C        5.70283        10.83067         4.32075
| 30>    C        5.25069         9.54977         4.15447
| 31>    C        1.36661         6.53715         3.15755
| 32>    O        1.77685         5.40383         3.20209
| 33>    C       -0.01968         6.95762         2.76673
| 34>    C       -0.84512         6.08461         2.15902
| 35>    C       -2.07613         6.37476         1.48157
| 36>    N       -2.18549         7.33361         0.58785
| 37>    C       -3.44237         7.23877         0.08778
| 38>    C       -4.17684         6.13712         0.72441
| 39>    C       -5.54510         6.04265         0.19262
| 40>    O       -6.41953         5.26106         0.50004
| 41>    C       -5.57166         7.12279        -0.80829
| 42>    C       -4.26536         7.83214        -0.83168
| 43>    N       -4.28490         8.82890        -1.74988
| 44>    C       -5.47522         8.77813        -2.28863
| 45>    C       -6.33283         7.73649        -1.74546
| 46>    C       -3.31696         5.57431         1.63023
| 47>    C       -3.56579         4.51503         2.53755
| 48>    C       -2.80541         4.20181         3.61404
| 49>    C       -3.10606         3.08953         4.44303
| 50>    C       -2.59061         2.71937         5.69328
| 51>    N       -1.63209         3.51179         6.38868
| 52>    O       -1.41331         4.63731         5.97839
| 53>    O       -1.08185         3.02470         7.35299
| 54>    C       -3.12623         1.51415         6.20884
| 55>    C       -2.77785         0.90929         7.51387
| 56>    C       -4.03400         0.94080         5.31981
| 57>    S       -4.21843         1.90610         3.87853
| 58>    C       -4.81725        -0.23326         5.46078
| 59>    N       -5.02254        -0.85505         6.61215
| 60>    C       -5.91458        -1.82856         6.35831
| 61>    C       -6.31057        -1.83165         4.93297
| 62>    C       -7.27315        -2.92229         4.66193
| 63>    O       -7.78306        -3.23063         3.61200
| 64>    C       -7.43275        -3.53463         5.99416
| 65>    C       -6.58767        -2.83981         6.99297
| 66>    N       -6.71856        -3.41591         8.21283
| 67>    C       -7.56497        -4.40018         8.03767
| 68>    C       -8.04595        -4.53491         6.67624
| 69>    C       -5.59599        -0.84173         4.34243
| 70>    C       -5.44886        -0.40361         2.97887
| 71>    C       -6.40201         0.14882         2.20121
| 72>    C       -5.99365         0.83277         1.01972
| 73>    C       -6.71711         1.76989         0.35532
| 74>    C       -6.21650         2.66020        -0.67573
| 75>    C       -4.90004         2.98616        -0.88170
| 76>    C       -4.47552         3.97968        -1.78606
| 77>    N       -4.07439         4.80245        -2.48017
| 78>    C       -3.82506         2.51442        -0.10399
| 79>    N       -2.91206         2.22896         0.53365
| 80>    C       -7.35785         3.31759        -1.28967
| 81>    C       -8.52516         2.98601        -0.54256
| 82>    C       -8.17029         2.05177         0.54157
| 83>    O       -8.90120         1.59925         1.39244
| 84>    C       -9.74227         3.52680        -0.84011
| 85>    C       -9.84912         4.43278        -1.91950
| 86>    C       -8.68960         4.74736        -2.68590
| 87>    C       -7.44253         4.17187        -2.35677
| 88>    C       -8.80984         5.65353        -3.76012
| 89>    C      -10.01463         6.22864        -4.06010
| 90>    C      -11.15535         5.91992        -3.30354
| 91>    C      -11.07428         5.04050        -2.25785
| 92>    H        4.07786         7.13957         3.76032
| 93>    H        0.97752        11.02690         3.35386
| 94>    H        2.81659        12.53649         3.81883
| 95>    H        5.19448        12.91929         4.33279
| 96>    H        6.74203        11.01545         4.54763
| 97>    H        5.92474         8.71107         4.24804
| 98>    H       -0.51942         5.04822         2.12576
| 99>    H       -5.74919         9.46991        -3.06645
|100>    H       -7.34082         7.53501        -2.05173
|101>    H       -4.47856         3.96015         2.35232
|102>    H       -1.96337         4.81633         3.89770
|103>    H       -1.73714         0.58532         7.50666
|104>    H       -3.42995         0.06611         7.71959
|105>    H       -2.86260         1.64946         8.30815
|106>    H       -7.84685        -5.02698         8.86588
|107>    H       -8.73713        -5.27728         6.32974
|108>    H       -4.42776        -0.43162         2.60691
|109>    H       -7.42956         0.22213         2.52330
|110>    H       -4.97343         0.65080         0.70056
|111>    H      -10.61293         3.27618        -0.25243
|112>    H       -6.58086         4.42519        -2.95514
|113>    H       -7.92779         5.88673        -4.33970
|114>    H      -10.09583         6.92416        -4.88221
|115>    H      -12.09829         6.38212        -3.55447
|116>    H      -11.94991         4.79956        -1.67316
|117> *
|118>
|119>                          ****END OF INPUT****

CARTESIAN COORDINATES (ANGSTROEM)
---------------------------------
  C     -0.161430    8.376680    3.047420
  C     -1.335780    9.049470    3.232450
  C     -1.410630   10.423080    3.550810
  N     -1.522290   11.536610    3.802480
  C     -2.606250    8.437240    3.230350
  N     -3.659480    7.987340    3.309090
  C      1.177820    8.893110    3.293990
  C      2.085560    7.795520    3.399270
  C      3.409900    7.983950    3.677300
  C      3.896530    9.297330    3.857910
  C      2.999170   10.398860    3.735140
  C      1.633240   10.175730    3.450200
  C      3.499740   11.705140    3.911120
  C      4.821000   11.915380    4.198000
  C      5.702830   10.830670    4.320750
  C      5.250690    9.549770    4.154470
  C      1.366610    6.537150    3.157550
  O      1.776850    5.403830    3.202090
  C     -0.019680    6.957620    2.766730
  C     -0.845120    6.084610    2.159020
  C     -2.076130    6.374760    1.481570
  N     -2.185490    7.333610    0.587850
  C     -3.442370    7.238770    0.087780
  C     -4.176840    6.137120    0.724410
  C     -5.545100    6.042650    0.192620
  O     -6.419530    5.261060    0.500040
  C     -5.571660    7.122790   -0.808290
  C     -4.265360    7.832140   -0.831680
  N     -4.284900    8.828900   -1.749880
  C     -5.475220    8.778130   -2.288630
  C     -6.332830    7.736490   -1.745460
  C     -3.316960    5.574310    1.630230
  C     -3.565790    4.515030    2.537550
  C     -2.805410    4.201810    3.614040
  C     -3.106060    3.089530    4.443030
  C     -2.590610    2.719370    5.693280
  N     -1.632090    3.511790    6.388680
  O     -1.413310    4.637310    5.978390
  O     -1.081850    3.024700    7.352990
  C     -3.126230    1.514150    6.208840
  C     -2.777850    0.909290    7.513870
  C     -4.034000    0.940800    5.319810
  S     -4.218430    1.906100    3.878530
  C     -4.817250   -0.233260    5.460780
  N     -5.022540   -0.855050    6.612150
  C     -5.914580   -1.828560    6.358310
  C     -6.310570   -1.831650    4.932970
  C     -7.273150   -2.922290    4.661930
  O     -7.783060   -3.230630    3.612000
  C     -7.432750   -3.534630    5.994160
  C     -6.587670   -2.839810    6.992970
  N     -6.718560   -3.415910    8.212830
  C     -7.564970   -4.400180    8.037670
  C     -8.045950   -4.534910    6.676240
  C     -5.595990   -0.841730    4.342430
  C     -5.448860   -0.403610    2.978870
  C     -6.402010    0.148820    2.201210
  C     -5.993650    0.832770    1.019720
  C     -6.717110    1.769890    0.355320
  C     -6.216500    2.660200   -0.675730
  C     -4.900040    2.986160   -0.881700
  C     -4.475520    3.979680   -1.786060
  N     -4.074390    4.802450   -2.480170
  C     -3.825060    2.514420   -0.103990
  N     -2.912060    2.228960    0.533650
  C     -7.357850    3.317590   -1.289670
  C     -8.525160    2.986010   -0.542560
  C     -8.170290    2.051770    0.541570
  O     -8.901200    1.599250    1.392440
  C     -9.742270    3.526800   -0.840110
  C     -9.849120    4.432780   -1.919500
  C     -8.689600    4.747360   -2.685900
  C     -7.442530    4.171870   -2.356770
  C     -8.809840    5.653530   -3.760120
  C    -10.014630    6.228640   -4.060100
  C    -11.155350    5.919920   -3.303540
  C    -11.074280    5.040500   -2.257850
  H      4.077860    7.139570    3.760320
  H      0.977520   11.026900    3.353860
  H      2.816590   12.536490    3.818830
  H      5.194480   12.919290    4.332790
  H      6.742030   11.015450    4.547630
  H      5.924740    8.711070    4.248040
  H     -0.519420    5.048220    2.125760
  H     -5.749190    9.469910   -3.066450
  H     -7.340820    7.535010   -2.051730
  H     -4.478560    3.960150    2.352320
  H     -1.963370    4.816330    3.897700
  H     -1.737140    0.585320    7.506660
  H     -3.429950    0.066110    7.719590
  H     -2.862600    1.649460    8.308150
  H     -7.846850   -5.026980    8.865880
  H     -8.737130   -5.277280    6.329740
  H     -4.427760   -0.431620    2.606910
  H     -7.429560    0.222130    2.523300
  H     -4.973430    0.650800    0.700560
  H    -10.612930    3.276180   -0.252430
  H     -6.580860    4.425190   -2.955140
  H     -7.927790    5.886730   -4.339700
  H    -10.095830    6.924160   -4.882210
  H    -12.098290    6.382120   -3.554470
  H    -11.949910    4.799560   -1.673160

 Total Charge           Charge          ....    0
 Multiplicity           Mult            ....    1
 Number of Electrons    NEL             ....  518
 Basis Dimension        Dim             .... 1207

ORBITAL ENERGIES
----------------

  NO   OCC          E(Eh)            E(eV)
   0   2.0000     -88.985960     -2421.4311
   1   2.0000     -19.244050      -523.6572
   2   2.0000     -19.241948      -523.6000
   3   2.0000     -19.224428      -523.1233
   4   2.0000     -19.223112      -523.0875
   5   2.0000     -19.219948      -523.0014
   6   2.0000     -19.210684      -522.7493
   7   2.0000     -14.653584      -398.7443
   8   2.0000     -14.425957      -392.5502
   9   2.0000     -14.424411      -392.5082
  10   2.0000     -14.423276      -392.4773
  11   2.0000     -14.422213      -392.4484
  12   2.0000     -14.421228      -392.4216
  13   2.0000     -14.413689      -392.2164
  14   2.0000     -14.413207      -392.2033
  15   2.0000     -14.405183      -391.9850
  16   2.0000     -10.381534      -282.4959
  17   2.0000     -10.373890      -282.2879
  18   2.0000     -10.372626      -282.2535
  19   2.0000     -10.370824      -282.2045
  20   2.0000     -10.356075      -281.8031
  21   2.0000     -10.355069      -281.7758
  22   2.0000     -10.352163      -281.6967
  23   2.0000     -10.346843      -281.5519
  24   2.0000     -10.346681      -281.5475
  25   2.0000     -10.345784      -281.5231
  26   2.0000     -10.345356      -281.5114
  27   2.0000     -10.338869      -281.3349
  28   2.0000     -10.337582      -281.2999
  29   2.0000     -10.335743      -281.2499
  30   2.0000     -10.335067      -281.2315
  31   2.0000     -10.334789      -281.2239
  32   2.0000     -10.329564      -281.0817
  33   2.0000     -10.327227      -281.0181
  34   2.0000     -10.324284      -280.9381
  35   2.0000     -10.324261      -280.9374
  36   2.0000     -10.324087      -280.9327
  37   2.0000     -10.323821      -280.9254
  38   2.0000     -10.323045      -280.9043
  39   2.0000     -10.322956      -280.9019
  40   2.0000     -10.322621      -280.8928
  41   2.0000     -10.320904      -280.8461
  42   2.0000     -10.316387      -280.7232
  43   2.0000     -10.313827      -280.6535
  44   2.0000     -10.313554      -280.6461
  45   2.0000     -10.311466      -280.5893
  46   2.0000     -10.309000      -280.5222
  47   2.0000     -10.306697      -280.4595
  48   2.0000     -10.304686      -280.4048
  49   2.0000     -10.304532      -280.4006
  50   2.0000     -10.302053      -280.3331
  51   2.0000     -10.301974      -280.3310
  52   2.0000     -10.301493      -280.3179
  53   2.0000     -10.301338      -280.3137
  54   2.0000     -10.301049      -280.3058
  55   2.0000     -10.300679      -280.2957
  56   2.0000     -10.300393      -280.2880
  57   2.0000     -10.300385      -280.2877
  58   2.0000     -10.299769      -280.2710
  59   2.0000     -10.298840      -280.2457
  60   2.0000     -10.298054      -280.2243
  61   2.0000     -10.298037      -280.2238
  62   2.0000     -10.297990      -280.2226
  63   2.0000     -10.297215      -280.2015
  64   2.0000     -10.294936      -280.1395
  65   2.0000     -10.291362      -280.0422
  66   2.0000     -10.290784      -280.0265
  67   2.0000     -10.290287      -280.0130
  68   2.0000     -10.290217      -280.0110
  69   2.0000     -10.289740      -279.9981
  70   2.0000     -10.289622      -279.9948
  71   2.0000     -10.289204      -279.9835
  72   2.0000     -10.288980      -279.9774
  73   2.0000     -10.288949      -279.9765
  74   2.0000     -10.288423      -279.9622
  75   2.0000     -10.288284      -279.9585
  76   2.0000     -10.257082      -279.1094
  77   2.0000      -8.080460      -219.8805
  78   2.0000      -6.049654      -164.6195
  79   2.0000      -6.045379      -164.5031
  80   2.0000      -6.042848      -164.4343
  81   2.0000      -1.325569       -36.0706
  82   2.0000      -1.142571       -31.0909
  83   2.0000      -1.139729       -31.0136
  84   2.0000      -1.137315       -30.9479
  85   2.0000      -1.134812       -30.8798
  86   2.0000      -1.126770       -30.6610
  87   2.0000      -1.088343       -29.6153
  88   2.0000      -1.083376       -29.4802
  89   2.0000      -1.068746       -29.0821
  90   2.0000      -1.060888       -28.8682
  91   2.0000      -1.026357       -27.9286
  92   2.0000      -1.023980       -27.8639
  93   2.0000      -1.021347       -27.7923
  94   2.0000      -1.004551       -27.3352
  95   2.0000      -1.004300       -27.3284
  96   2.0000      -1.002598       -27.2821
  97   2.0000      -0.999799       -27.2059
  98   2.0000      -0.976939       -26.5839
  99   2.0000      -0.976432       -26.5701
 100   2.0000      -0.947210       -25.7749
 101   2.0000      -0.944393       -25.6982
 102   2.0000      -0.941773       -25.6269
 103   2.0000      -0.933603       -25.4046
 104   2.0000      -0.928313       -25.2607
 105   2.0000      -0.927204       -25.2305
 106   2.0000      -0.913998       -24.8711
 107   2.0000      -0.909464       -24.7478
 108   2.0000      -0.900323       -24.4990
 109   2.0000      -0.892291       -24.2805
 110   2.0000      -0.885650       -24.0998
 111   2.0000      -0.884982       -24.0816
 112   2.0000      -0.879972       -23.9453
 113   2.0000      -0.879654       -23.9366
 114   2.0000      -0.863504       -23.4972
 115   2.0000      -0.859774       -23.3956
 116   2.0000      -0.845706       -23.0128
 117   2.0000      -0.841038       -22.8858
 118   2.0000      -0.832650       -22.6575
 119   2.0000      -0.831936       -22.6381
 120   2.0000      -0.815845       -22.2003
 121   2.0000      -0.813696       -22.1418
 122   2.0000      -0.795101       -21.6358
 123   2.0000      -0.782035       -21.2803
 124   2.0000      -0.771375       -20.9902
 125   2.0000      -0.765773       -20.8377
 126   2.0000      -0.765380       -20.8271
 127   2.0000      -0.761298       -20.7160
 128   2.0000      -0.759400       -20.6643
 129   2.0000      -0.752756       -20.4835
 130   2.0000      -0.732893       -19.9430
 131   2.0000      -0.726090       -19.7579
 132   2.0000      -0.722398       -19.6575
 133   2.0000      -0.712285       -19.3823
 134   2.0000      -0.707454       -19.2508
 135   2.0000      -0.704971       -19.1832
 136   2.0000      -0.700571       -19.0635
 137   2.0000      -0.689374       -18.7588
 138   2.0000      -0.684886       -18.6367
 139   2.0000      -0.682317       -18.5668
 140   2.0000      -0.677546       -18.4370
 141   2.0000      -0.675316       -18.3763
 142   2.0000      -0.663834       -18.0638
 143   2.0000      -0.658292       -17.9130
 144   2.0000      -0.651621       -17.7315
 145   2.0000      -0.647352       -17.6153
 146   2.0000      -0.643090       -17.4994
 147   2.0000      -0.640394       -17.4260
 148   2.0000      -0.636984       -17.3332
 149   2.0000      -0.634218       -17.2580
 150   2.0000      -0.630727       -17.1630
 151   2.0000      -0.623426       -16.9643
 152   2.0000      -0.617201       -16.7949
 153   2.0000      -0.612953       -16.6793
 154   2.0000      -0.611196       -16.6315
 155   2.0000      -0.610995       -16.6260
 156   2.0000      -0.601821       -16.3764
 157   2.0000      -0.600626       -16.3439
 158   2.0000      -0.598619       -16.2893
 159   2.0000      -0.595166       -16.1953
 160   2.0000      -0.590406       -16.0658
 161   2.0000      -0.578709       -15.7475
 162   2.0000      -0.574734       -15.6393
 163   2.0000      -0.567957       -15.4549
 164   2.0000      -0.565732       -15.3944
 165   2.0000      -0.564450       -15.3595
 166   2.0000      -0.560450       -15.2506
 167   2.0000      -0.553828       -15.0704
 168   2.0000      -0.552025       -15.0214
 169   2.0000      -0.550116       -14.9694
 170   2.0000      -0.549604       -14.9555
 171   2.0000      -0.548605       -14.9283
 172   2.0000      -0.546430       -14.8691
 173   2.0000      -0.544503       -14.8167
 174   2.0000      -0.540718       -14.7137
 175   2.0000      -0.540111       -14.6972
 176   2.0000      -0.535649       -14.5758
 177   2.0000      -0.530477       -14.4350
 178   2.0000      -0.528272       -14.3750
 179   2.0000      -0.526088       -14.3156
 180   2.0000      -0.524594       -14.2749
 181   2.0000      -0.523723       -14.2512
 182   2.0000      -0.522581       -14.2202
 183   2.0000      -0.520835       -14.1726
 184   2.0000      -0.517808       -14.0903
 185   2.0000      -0.516636       -14.0584
 186   2.0000      -0.515524       -14.0281
 187   2.0000      -0.511513       -13.9190
 188   2.0000      -0.510462       -13.8904
 189   2.0000      -0.509302       -13.8588
 190   2.0000      -0.505654       -13.7595
 191   2.0000      -0.504561       -13.7298
 192   2.0000      -0.503376       -13.6976
 193   2.0000      -0.499737       -13.5985
 194   2.0000      -0.497005       -13.5242
 195   2.0000      -0.493388       -13.4258
 196   2.0000      -0.491383       -13.3712
 197   2.0000      -0.488978       -13.3058
 198   2.0000      -0.484660       -13.1883
 199   2.0000      -0.483450       -13.1553
 200   2.0000      -0.481593       -13.1048
 201   2.0000      -0.478023       -13.0077
 202   2.0000      -0.475996       -12.9525
 203   2.0000      -0.473282       -12.8787
 204   2.0000      -0.473004       -12.8711
 205   2.0000      -0.471083       -12.8188
 206   2.0000      -0.469384       -12.7726
 207   2.0000      -0.468212       -12.7407
 208   2.0000      -0.465675       -12.6717
 209   2.0000      -0.462733       -12.5916
 210   2.0000      -0.459200       -12.4955
 211   2.0000      -0.457787       -12.4570
 212   2.0000      -0.456412       -12.4196
 213   2.0000      -0.453966       -12.3530
 214   2.0000      -0.449706       -12.2371
 215   2.0000      -0.448712       -12.2101
 216   2.0000      -0.444858       -12.1052
 217   2.0000      -0.443878       -12.0785
 218   2.0000      -0.439976       -11.9724
 219   2.0000      -0.438772       -11.9396
 220   2.0000      -0.437480       -11.9044
 221   2.0000      -0.435199       -11.8424
 222   2.0000      -0.433459       -11.7950
 223   2.0000      -0.430637       -11.7182
 224   2.0000      -0.426511       -11.6060
 225   2.0000      -0.423938       -11.5359
 226   2.0000      -0.421163       -11.4604
 227   2.0000      -0.415862       -11.3162
 228   2.0000      -0.413638       -11.2556
 229   2.0000      -0.412010       -11.2114
 230   2.0000      -0.404287       -11.0012
 231   2.0000      -0.394642       -10.7387
 232   2.0000      -0.384480       -10.4622
 233   2.0000      -0.382225       -10.4009
 234   2.0000      -0.381207       -10.3732
 235   2.0000      -0.376982       -10.2582
 236   2.0000      -0.375133       -10.2079
 237   2.0000      -0.368975       -10.0403
 238   2.0000      -0.366506        -9.9731
 239   2.0000      -0.360918        -9.8211
 240   2.0000      -0.360708        -9.8154
 241   2.0000      -0.358108        -9.7446
 242   2.0000      -0.353205        -9.6112
 243   2.0000      -0.349004        -9.4969
 244   2.0000      -0.343956        -9.3595
 245   2.0000      -0.342801        -9.3281
 246   2.0000      -0.341379        -9.2894
 247   2.0000      -0.340284        -9.2596
 248   2.0000      -0.337288        -9.1781
 249   2.0000      -0.332402        -9.0451
 250   2.0000      -0.329332        -8.9616
 251   2.0000      -0.328184        -8.9303
 252   2.0000      -0.321410        -8.7460
 253   2.0000      -0.320046        -8.7089
 254   2.0000      -0.317593        -8.6422
 255   2.0000      -0.304132        -8.2759
 256   2.0000      -0.297425        -8.0933
 257   2.0000      -0.294549        -8.0151
 258   2.0000      -0.275731        -7.5030
 259   0.0000      -0.125295        -3.4095
 260   0.0000      -0.115659        -3.1473
 261   0.0000      -0.096581        -2.6281
 262   0.0000      -0.087847        -2.3904
 263   0.0000      -0.073128        -1.9899

MULLIKEN ATOMIC CHARGES
-----------------------
   0 C :    0.300525
   1 C :   -0.303323
   2 C :   -0.188238
   3 N :    0.163608
   4 C :   -0.174102
   5 N :    0.162634
   6 C :    0.039653
   7 C :    0.001543
   8 C :   -0.071847
   9 C :    0.095101
  10 C :    0.096439
  11 C :   -0.075927
  12 C :   -0.016906
  13 C :    0.036468
  14 C :    0.037174
  15 C :   -0.014864
  16 C :    0.147005
  17 O :   -0.123730
  18 C :   -0.077914
  19 C :   -0.032759
  20 C :   -0.052129
  21 N :   -0.010564
  22 C :    0.084551
  23 C :   -0.104002
  24 C :    0.230113
  25 O :   -0.151323
  26 C :   -0.018780
  27 C :   -0.004925
  28 N :   -0.043269
  29 C :    0.101874
  30 C :   -0.100064
  31 C :    0.085900
  32 C :    0.017636
  33 C :   -0.035935
  34 C :   -0.059582
  35 C :    0.138535
  36 N :    0.260803
  37 O :   -0.245958
  38 O :   -0.233998
  39 C :   -0.080304
  40 C :    0.168098
  41 C :   -0.173370
  42 S :    0.127587
  43 C :    0.067355
  44 N :   -0.033482
  45 C :    0.078645
  46 C :   -0.117843
  47 C :    0.202000
  48 O :   -0.111676
  49 C :   -0.051580
  50 C :   -0.023616
  51 N :   -0.057753
  52 C :    0.089991
  53 C :   -0.090087
  54 C :   -0.012733
  55 C :   -0.080992
  56 C :    0.068986
  57 C :   -0.060127
  58 C :   -0.067384
  59 C :    0.328346
  60 C :   -0.337690
  61 C :   -0.200665
  62 N :    0.151457
  63 C :   -0.214414
  64 N :    0.150507
  65 C :    0.074524
  66 C :    0.008267
  67 C :    0.164870
  68 O :   -0.137750
  69 C :   -0.075395
  70 C :    0.098382
  71 C :    0.093650
  72 C :   -0.090191
  73 C :   -0.023907
  74 C :    0.028286
  75 C :    0.037820
  76 C :   -0.014694
  77 H :   -0.006936
  78 H :   -0.002827
  79 H :   -0.007144
  80 H :   -0.002694
  81 H :   -0.002497
  82 H :   -0.014112
  83 H :    0.059386
  84 H :    0.013073
  85 H :   -0.009440
  86 H :    0.018813
  87 H :    0.040709
  88 H :    0.035083
  89 H :    0.034179
  90 H :    0.027829
  91 H :    0.010030
  92 H :   -0.005189
  93 H :    0.052752
  94 H :    0.042864
  95 H :    0.027668
  96 H :   -0.011849
  97 H :   -0.007092
  98 H :   -0.012620
  99 H :   -0.003817
 100 H :   -0.004120
 101 H :   -0.014589
Sum of atomic charges:   -0.0000000

LOEWDIN ATOMIC CHARGES
----------------------
   0 C :    0.074770
   1 C :   -0.110981
   2 C :   -0.015445
   3 N :   -0.040446
   4 C :   -0.012013
   5 N :   -0.043805
   6 C :   -0.021269
   7 C :   -0.058500
   8 C :    0.038526
   9 C :   -0.007358
  10 C :   -0.003099
  11 C :    0.021116
  12 C :   -0.004773
  13 C :   -0.010009
  14 C :   -0.010335
  15 C :   -0.007449
  16 C :    0.087604
  17 O :   -0.123792
  18 C :   -0.036313
  19 C :    0.042345
  20 C :    0.064184
  21 N :   -0.081022
  22 C :    0.049570
  23 C :   -0.024685
  24 C :    0.074006
  25 O :   -0.141725
  26 C :   -0.030370
  27 C :    0.048613
  28 N :   -0.087393
  29 C :    0.088612
  30 C :   -0.031474
  31 C :   -0.022958
  32 C :    0.019454
  33 C :   -0.035868
  34 C :   -0.115786
  35 C :   -0.075455
  36 N :    0.287956
  37 O :   -0.209246
  38 O :   -0.187704
  39 C :    0.020262
  40 C :   -0.052496
  41 C :   -0.201504
  42 S :    0.528895
  43 C :    0.059153
  44 N :   -0.099174
  45 C :    0.044309
  46 C :   -0.026800
  47 C :    0.063931
  48 O :   -0.128970
  49 C :   -0.043772
  50 C :    0.021492
  51 N :   -0.096286
  52 C :    0.074259
  53 C :   -0.036678
  54 C :   -0.041020
  55 C :   -0.009797
  56 C :   -0.000360
  57 C :    0.062877
  58 C :   -0.075296
  59 C :    0.088723
  60 C :   -0.146318
  61 C :   -0.017049
  62 N :   -0.058184
  63 C :   -0.018938
  64 N :   -0.064705
  65 C :   -0.016664
  66 C :   -0.046327
  67 C :    0.090529
  68 O :   -0.132849
  69 C :    0.036518
  70 C :   -0.005851
  71 C :   -0.006816
  72 C :    0.018376
  73 C :   -0.013901
  74 C :   -0.015901
  75 C :   -0.013141
  76 C :   -0.006045
  77 H :    0.041341
  78 H :    0.040108
  79 H :    0.035498
  80 H :    0.034113
  81 H :    0.033838
  82 H :    0.033072
  83 H :    0.060133
  84 H :    0.025663
  85 H :    0.033418
  86 H :    0.029436
  87 H :    0.037222
  88 H :    0.047129
  89 H :    0.033283
  90 H :    0.043399
  91 H :    0.023917
  92 H :    0.034546
  93 H :    0.037439
  94 H :    0.043033
  95 H :    0.042828
  96 H :    0.039964
  97 H :    0.036786
  98 H :    0.032208
  99 H :    0.033148
 100 H :    0.033330
 101 H :    0.033183

  Mayer bond orders larger than 0.100000
B(  0-C ,  1-C ) :   1.6873 B(  0-C ,  6-C ) :   1.0092 B(  0-C , 18-C ) :   1.0030
B(  1-C ,  2-C ) :   1.1340 B(  1-C ,  4-C ) :   1.1650 B(  2-C ,  3-N ) :   2.9852
B(  4-C ,  5-N ) :   2.9663 B(  6-C ,  7-C ) :   1.2098 B(  6-C , 11-C ) :   1.4507
B(  7-C ,  8-C ) :   1.4665 B(  7-C , 16-C ) :   0.9280 B(  8-C ,  9-C ) :   1.1924
B(  8-C , 77-H ) :   1.0157 B(  9-C , 10-C ) :   1.2516 B(  9-C , 15-C ) :   1.2420
B( 10-C , 11-C ) :   1.2108 B( 10-C , 12-C ) :   1.2380 B( 11-C , 78-H ) :   0.9918
B( 12-C , 13-C ) :   1.4915 B( 12-C , 79-H ) :   0.9982 B( 13-C , 14-C ) :   1.2572
B( 13-C , 80-H ) :   0.9892 B( 14-C , 15-C ) :   1.4916 B( 14-C , 81-H ) :   0.9889
B( 15-C , 82-H ) :   0.9981 B( 16-C , 17-O ) :   2.2929 B( 16-C , 18-C ) :   0.9048
B( 18-C , 19-C ) :   1.8082 B( 19-C , 20-C ) :   0.9853 B( 19-C , 83-H ) :   0.9204
B( 20-C , 21-N ) :   1.6478 B( 20-C , 22-C ) :   0.1146 B( 20-C , 31-C ) :   1.0051
B( 21-N , 22-C ) :   1.2839 B( 22-C , 23-C ) :   1.0562 B( 22-C , 27-C ) :   1.4546
B( 23-C , 24-C ) :   0.9097 B( 23-C , 31-C ) :   1.5450 B( 24-C , 25-O ) :   2.1899
B( 24-C , 26-C ) :   0.8994 B( 26-C , 27-C ) :   1.0461 B( 26-C , 30-C ) :   1.6297
B( 27-C , 28-N ) :   1.3055 B( 28-N , 29-C ) :   1.6686 B( 29-C , 30-C ) :   1.0493
B( 29-C , 84-H ) :   0.9888 B( 30-C , 85-H ) :   1.0078 B( 31-C , 32-C ) :   1.1446
B( 32-C , 33-C ) :   1.5810 B( 32-C , 86-H ) :   0.9504 B( 33-C , 34-C ) :   1.1590
B( 33-C , 87-H ) :   0.9589 B( 34-C , 35-C ) :   1.3845 B( 34-C , 42-S ) :   1.1834
B( 35-C , 36-N ) :   0.9346 B( 35-C , 39-C ) :   1.2675 B( 36-N , 37-O ) :   1.5045
B( 36-N , 38-O ) :   1.5287 B( 37-O , 38-O ) :   0.2598 B( 39-C , 40-C ) :   1.1485
B( 39-C , 41-C ) :   1.4518 B( 40-C , 88-H ) :   0.9180 B( 40-C , 89-H ) :   0.9035
B( 40-C , 90-H ) :   0.9168 B( 41-C , 42-S ) :   1.0902 B( 41-C , 43-C ) :   1.1419
B( 43-C , 44-N ) :   1.5900 B( 43-C , 45-C ) :   0.1201 B( 43-C , 54-C ) :   1.0412
B( 44-N , 45-C ) :   1.3641 B( 45-C , 46-C ) :   1.0313 B( 45-C , 50-C ) :   1.4070
B( 46-C , 47-C ) :   0.8717 B( 46-C , 54-C ) :   1.6904 B( 47-C , 48-O ) :   2.3282
B( 47-C , 49-C ) :   0.8882 B( 49-C , 50-C ) :   1.0501 B( 49-C , 53-C ) :   1.6070
B( 50-C , 51-N ) :   1.3156 B( 51-N , 52-C ) :   1.6526 B( 52-C , 53-C ) :   1.0788
B( 52-C , 91-H ) :   0.9888 B( 53-C , 92-H ) :   1.0103 B( 54-C , 55-C ) :   0.9883
B( 55-C , 56-C ) :   1.7045 B( 55-C , 93-H ) :   0.9423 B( 56-C , 57-C ) :   1.1192
B( 56-C , 94-H ) :   0.9827 B( 57-C , 58-C ) :   1.6129 B( 57-C , 95-H ) :   0.9626
B( 58-C , 59-C ) :   1.0579 B( 58-C , 67-C ) :   0.9280 B( 59-C , 60-C ) :   1.6281
B( 59-C , 65-C ) :   0.9959 B( 60-C , 61-C ) :   1.1447 B( 60-C , 63-C ) :   1.1628
B( 61-C , 62-N ) :   2.9522 B( 63-C , 64-N ) :   2.9510 B( 65-C , 66-C ) :   1.2192
B( 65-C , 72-C ) :   1.4382 B( 66-C , 67-C ) :   0.9384 B( 66-C , 69-C ) :   1.4715
B( 67-C , 68-O ) :   2.2313 B( 69-C , 70-C ) :   1.1839 B( 69-C , 96-H ) :   1.0139
B( 70-C , 71-C ) :   1.2605 B( 70-C , 76-C ) :   1.2418 B( 71-C , 72-C ) :   1.2053
B( 71-C , 73-C ) :   1.2338 B( 72-C , 97-H ) :   0.9938 B( 73-C , 74-C ) :   1.4828
B( 73-C , 98-H ) :   0.9966 B( 74-C , 75-C ) :   1.2584 B( 74-C , 99-H ) :   0.9905
B( 75-C , 76-C ) :   1.4895 B( 75-C ,100-H ) :   0.9891 B( 76-C ,101-H ) :   0.9966

-----------------------------------------------------------------------------
         ABSORPTION SPECTRUM VIA TRANSITION ELECTRIC DIPOLE MOMENTS
-----------------------------------------------------------------------------
State   Energy  Wavelength   fosc         T2         TX        TY        TZ
        (cm-1)    (nm)                  (au**2)     (au)      (au)      (au)
-----------------------------------------------------------------------------
   0   17069.0    585.9   0.191460806   3.69274  -0.22192   1.39855  -1.29906
   1   19095.9    523.7   0.577498555   9.95601  -1.24601  -2.63075   1.21764
   2   20744.7    482.1   0.130544100   2.07170   0.69868   1.15644  -0.49617
   3   21840.8    457.9   0.063803421   0.96173  -0.09539  -0.62125   0.75278
   4   22219.8    450.0   0.001773471   0.02628  -0.00408   0.03387   0.15847
   5   22360.7    447.2   0.058618648   0.86303  -0.37986  -0.08698  -0.84331
   6   22601.3    442.5   0.249032920   3.62743  -0.94674  -1.55843   0.54992
   7   22989.4    435.0   0.208536614   2.98628   0.54431   1.47391  -0.71944
   8   24804.6    403.2   0.009520443   0.12636  -0.18834  -0.16545   0.25201
   9   24957.2    400.7   0.001853949   0.02446  -0.08294   0.13225  -0.00926
  10   25389.0    393.9   0.047612090   0.61737  -0.61947  -0.09144  -0.47463
  11   25591.0    390.8   0.021361643   0.27480   0.49090   0.13218  -0.12784
  12   25703.7    389.0   0.005023040   0.06433  -0.11254   0.20287  -0.10254
  13   25915.3    385.9   0.110584676   1.40480   1.00333   0.29125   0.55974
  14   26233.6    381.2   0.015862696   0.19906  -0.41920  -0.10008  -0.11542
  15   26392.1    378.9   0.010028219   0.12509  -0.22789   0.08311  -0.25739
  16   26860.9    372.3   0.119371555   1.46304  -0.22023  -0.94921   0.71662
  17   27152.1    368.3   0.304814727   3.69579  -0.03469  -1.22256   1.48322
  18   27362.4    365.5   0.142152867   1.71032   0.04895  -0.88573   0.96094
  19   27442.1    364.4   0.020882952   0.25052  -0.09232  -0.43660   0.22668
  20   27520.2    363.4   0.156227031   1.86887   0.25122  -1.01841   0.87670
  21   27674.9    361.3   0.142513122   1.69529   0.68585   0.89914  -0.64533
  22   28060.0    356.4   0.008446427   0.09910  -0.30123  -0.07642  -0.05016
  23   28281.6    353.6   0.196419482   2.28642  -0.80321   0.48248  -1.18680
  24   28398.9    352.1   0.081481566   0.94457  -0.74643  -0.46282  -0.41618
  25   28646.9    349.1   0.037821552   0.43465   0.59561  -0.24758   0.13637
  26   28905.2    346.0   0.153334271   1.74638   0.55683  -0.62809   1.02070
  27   29217.3    342.3   0.298539892   3.36386  -0.88606   0.35176  -1.56686
  28   29860.0    334.9   0.017386566   0.19169   0.40598   0.06737   0.14944
  29   30259.1    330.5   0.051428030   0.55952  -0.53282  -0.50555  -0.14159
  30   30545.2    327.4   0.006477566   0.06981  -0.23952  -0.10489  -0.03798
  31   30667.2    326.1   0.135663423   1.45634  -0.96535  -0.72058  -0.07220
  32   30875.3    323.9   0.041591691   0.44348   0.56588  -0.10462   0.33513
  33   31093.9    321.6   0.310402956   3.28644  -1.07539   0.78593  -1.22975
  34   31349.9    319.0   0.060553664   0.63589  -0.76171  -0.07888  -0.22241
  35   31571.9    316.7   0.124262448   1.29573  -1.09660  -0.21124  -0.22037
  36   31735.0    315.1   0.023923014   0.24817  -0.34900  -0.31904   0.15680
  37   31983.1    312.7   0.056966808   0.58638   0.17034   0.23411   0.70891
  38   32137.1    311.2   0.002806077   0.02875   0.05327   0.03599   0.15688
  39   32496.1    307.7   0.112434655   1.13905   0.92605  -0.33262   0.41333
  40   32870.8    304.2   0.031229748   0.31278  -0.38400  -0.32992   0.23763
  41   33059.4    302.5   0.409595090   4.07883  -1.84786   0.20844  -0.78792
  42   33247.6    300.8   0.058500479   0.57926  -0.55642  -0.24364  -0.45859
  43   33467.8    298.8   0.011204565   0.11022  -0.31997   0.00119  -0.08851
  44   33571.1    297.9   0.020563259   0.20165  -0.39199  -0.14015  -0.16838
  45   33623.9    297.4   0.064215810   0.62874  -0.78730   0.02645  -0.09051
  46   33742.5    296.4   0.038488239   0.37551   0.49673   0.33110  -0.13834
  47   33855.2    295.4   0.092738655   0.90180   0.00608  -0.85648   0.41012
  48   34009.2    294.0   0.086710454   0.83937   0.89190   0.09012   0.18912
  49   34089.0    293.3   0.224149603   2.16471  -1.31305  -0.28824  -0.59794
  50   34163.5    292.7   0.090199402   0.86919   0.74727  -0.25913   0.49360
  51   34289.3    291.6   0.008246831   0.07918   0.07451   0.24619  -0.11410
  52   34408.9    290.6   0.136117863   1.30233   0.67976  -0.68545   0.60862
  53   34848.2    287.0   0.060354391   0.57017   0.72173  -0.22196  -0.00306
  54   34925.4    286.3   0.028305839   0.26682   0.34141  -0.33519   0.19468
  55   34989.2    285.8   0.031027115   0.29193   0.50545   0.07971   0.17349
  56   35061.5    285.2   0.109282746   1.02612  -0.98442  -0.12081  -0.20599
  57   35163.3    284.4   0.276062535   2.58460  -1.44160  -0.08445  -0.70659
  58   35242.6    283.7   0.153676382   1.43554   1.07724  -0.50400   0.14517
  59   35543.0    281.3   0.073444398   0.68027   0.66191   0.49152   0.02355
  60   35618.4    280.8   0.006889455   0.06368  -0.21892  -0.08450  -0.09279
  61   35961.2    278.1   0.005715772   0.05233  -0.19748  -0.09517   0.06535
  62   36010.9    277.7   0.015053604   0.13762   0.12207  -0.34961  -0.02212
  63   36080.8    277.2   0.035173164   0.32093  -0.29295   0.44526  -0.19196
  64   36187.2    276.3   0.032215968   0.29308  -0.35840  -0.34845   0.20789
  65   36392.4    274.8   0.030445338   0.27541   0.51307  -0.04561   0.10047
  66   36605.2    273.2   0.010086720   0.09072  -0.11946  -0.24799   0.12226
  67   36685.8    272.6   0.199234324   1.78790  -1.30021   0.21090  -0.22994
  68   36991.6    270.3   0.075200705   0.66926   0.00781   0.50888  -0.64050
  69   37125.8    269.4   0.056819396   0.50384   0.64242  -0.27674   0.12063
  70   37277.6    268.3   0.051842681   0.45784   0.28591  -0.46175   0.40359
  71   37389.3    267.5   0.008930703   0.07863   0.06927   0.22121  -0.15781
  72   37675.9    265.4   0.017722402   0.15486   0.29319   0.10178  -0.24195
  73   37900.8    263.8   0.047055989   0.40874  -0.46128   0.18033  -0.40427
  74   38049.5    262.8   0.032651122   0.28250  -0.05244  -0.41511   0.32778
  75   38100.3    262.5   0.061345260   0.53006   0.70221   0.03626  -0.18881
  76   38332.5    260.9   0.102097518   0.87685   0.41260   0.71811  -0.43696
  77   38403.3    260.4   0.022775636   0.19524   0.22845   0.29522  -0.23642
  78   38519.7    259.6   0.017541261   0.14992   0.20605  -0.32360  -0.05238
  79   38672.1    258.6   0.002405462   0.02048  -0.05610   0.09954  -0.08616
  80   38764.7    258.0   0.077710887   0.65996  -0.75125   0.21133  -0.22569
  81   38886.5    257.2   0.119122297   1.00849   1.00037   0.06208   0.06240
  82   38943.9    256.8   0.013620179   0.11514   0.05724   0.16771  -0.28937
  83   38957.3    256.7   0.068034513   0.57493  -0.18949  -0.66674   0.30738
  84   39086.0    255.8   0.012803048   0.10784   0.08343   0.08202  -0.30684
  85   39125.7    255.6   0.033739863   0.28389   0.47104   0.17005   0.18193
  86   39277.6    254.6   0.016105767   0.13499   0.01828   0.02149  -0.36633
  87   39365.7    254.0   0.002882148   0.02410  -0.03721   0.10860   0.10452
  88   39534.9    252.9   0.068094410   0.56703  -0.52113   0.19354  -0.50793
  89   39637.4    252.3   0.036397263   0.30230  -0.39388  -0.33215  -0.19192
  90   39825.1    251.1   0.106875207   0.88348   0.74913   0.07335   0.56295
  91   40044.7    249.7   0.010944699   0.08998   0.13378   0.26344  -0.05177
  92   40220.3    248.6   0.088400124   0.72357  -0.46123  -0.52620  -0.48369

FINAL SINGLE POINT ENERGY     -3677.258697075309

DIPOLE MOMENT
-------------
                                X             Y             Z
Electronic contribution:     -1.64622      -9.79197       3.09073
Nuclear contribution   :      1.44408      10.47861      -4.89913
                        -----------------------------------------
Total Dipole Moment    :     -0.20213       0.68663      -1.80841
                        -----------------------------------------
Magnitude (a.u.)       :      1.94490
Magnitude (Debye)      :      4.94356

Rotational constants in cm-1:     0.001022     0.000610     0.000408
Rotational constants in MHz :    30.637221    18.283830    12.230160

                             ****ORCA TERMINATED NORMALLY****
TOTAL RUN TIME: 0 days 0 hours 12 minutes 8 seconds 788 msec
