                         Program Version 4.2.0 -  RELEASE  -
|  1> # ORCA input file
|  2> # SCF done       -161.122593363235          0.000398812620
|  3> ! CAM-B3LYP def2-SVP def2/J RIJCOSX Grid4 TightSCF
|  4> %maxcore 5000
|  5> %tddft
|  6>     Mode sTDDFT
|  7>     Ethresh 5.0
|  8>     maxcore 5000
|  9> end
| 10>
| 11> %pal
| 12>   nprocs 6
| 13>   end
| 14> * xyz 0 1
| 15>    C       -2.40160        -4.34178         6.06972
| 16>    N       -1.46542        -4.44707         5.16730
| 17>    N       -1.70936        -4.85080         3.94750
| 18>    C       -2.91789        -5.18450         3.52756
| 19>    C       -4.02043        -5.10930         4.42615
| 20>    C       -3.74020        -4.66550         5.75993
| 21>    N       -4.83754        -4.63152         6.51547
| 22>    S       -6.08694        -5.11081         5.62773
| 23>    N       -5.30827        -5.38546         4.24638
| 24>    C       -3.04545        -5.60796         2.17133
| 25>    C       -4.17864        -6.00668         1.49359
| 26>    C       -3.88999        -6.34646         0.17186
| 27>    C       -2.51967        -6.19875        -0.14009
| 28>    S       -1.59698        -5.64657         1.18373
| 29>    C       -2.33002        -6.56488        -1.49463
| 30>    C       -3.57106        -6.94057        -2.03667
| 31>    C       -4.59125        -6.81882        -1.00312
| 32>    C       -5.92165        -7.10242        -1.13182
| 33>    C       -6.46882        -7.56894        -2.34420
| 34>    N       -6.91004        -7.95415        -3.33121
| 35>    C       -6.83352        -6.95411        -0.06634
| 36>    N       -7.58665        -6.83895         0.79078
| 37>    C       -3.49504        -7.32045        -3.37160
| 38>    C       -2.20031        -7.23964        -3.86503
| 39>    S       -1.06661        -6.68564        -2.64136
| 40>    C       -1.75303        -7.55781        -5.17965
| 41>    C       -2.62445        -7.89094        -6.19178
| 42>    C       -2.25264        -8.22696        -7.49024
| 43>    C       -0.85034        -8.12637        -7.91928
| 44>    C        0.17405        -7.82319        -7.09314
| 45>    S       -0.01148        -7.50568        -5.41708
| 46>    C       -0.86129        -8.39245        -9.31616
| 47>    C       -2.16832        -8.64653        -9.73414
| 48>    C       -2.24137        -8.92223       -11.11739
| 49>    C       -1.01564        -8.86785       -11.70054
| 50>    S        0.27086        -8.48807       -10.60433
| 51>    C       -3.05117        -8.57711        -8.59943
| 52>    C       -4.44062        -8.83441        -8.68093
| 53>    C       -5.26371        -9.16091        -7.64776
| 54>    C       -6.66015        -9.36202        -7.75431
| 55>    C       -7.49274        -9.22907        -8.85909
| 56>    C       -8.82013        -9.49873        -8.54757
| 57>    C       -9.01279        -9.83861        -7.19446
| 58>    S       -7.55345        -9.82514        -6.31166
| 59>    C      -10.38912       -10.08869        -6.98295
| 60>    C      -11.07260        -9.90536        -8.20525
| 61>    C      -10.11027        -9.53171        -9.22494
| 62>    C      -10.34738        -9.26844       -10.54253
| 63>    C      -11.63688        -9.32367       -11.11265
| 64>    N      -12.67467        -9.36288       -11.59797
| 65>    C       -9.30816        -8.92315       -11.43115
| 66>    N       -8.46235        -8.64612       -12.15498
| 67>    C      -12.44182       -10.13225        -8.09210
| 68>    C      -12.79575       -10.48495        -6.80272
| 69>    S      -11.42727       -10.53853        -5.70796
| 70>    C      -14.10782       -10.78913        -6.32983
| 71>    N      -15.12276       -10.72976        -7.17781
| 72>    N      -16.35250       -10.99307        -6.82097
| 73>    C      -16.68320       -11.33495        -5.60546
| 74>    C      -15.70128       -11.43933        -4.59723
| 75>    C      -14.35056       -11.15371        -4.97498
| 76>    N      -13.50042       -11.27978        -3.96215
| 77>    S      -14.33296       -11.71799        -2.65297
| 78>    N      -15.79809       -11.76781        -3.30880
| 79>    H       -2.10648        -4.00012         7.04933
| 80>    H       -5.14783        -6.03916         1.95796
| 81>    H       -4.33756        -7.64687        -3.95155
| 82>    H       -3.67639        -7.84723        -5.96024
| 83>    H        1.19667        -7.76716        -7.43122
| 84>    H       -3.14410        -9.14577       -11.65602
| 85>    H       -0.77126        -9.03096       -12.73193
| 86>    H       -4.85601        -8.79992        -9.67933
| 87>    H       -4.85198        -9.32125        -6.66245
| 88>    H       -7.13854        -8.94723        -9.83304
| 89>    H      -13.17160       -10.05635        -8.87713
| 90>    H      -17.72671       -11.53033        -5.41469
| 91> *
| 92>
| 93>                          ****END OF INPUT****

CARTESIAN COORDINATES (ANGSTROEM)
---------------------------------
  C     -2.401600   -4.341780    6.069720
  N     -1.465420   -4.447070    5.167300
  N     -1.709360   -4.850800    3.947500
  C     -2.917890   -5.184500    3.527560
  C     -4.020430   -5.109300    4.426150
  C     -3.740200   -4.665500    5.759930
  N     -4.837540   -4.631520    6.515470
  S     -6.086940   -5.110810    5.627730
  N     -5.308270   -5.385460    4.246380
  C     -3.045450   -5.607960    2.171330
  C     -4.178640   -6.006680    1.493590
  C     -3.889990   -6.346460    0.171860
  C     -2.519670   -6.198750   -0.140090
  S     -1.596980   -5.646570    1.183730
  C     -2.330020   -6.564880   -1.494630
  C     -3.571060   -6.940570   -2.036670
  C     -4.591250   -6.818820   -1.003120
  C     -5.921650   -7.102420   -1.131820
  C     -6.468820   -7.568940   -2.344200
  N     -6.910040   -7.954150   -3.331210
  C     -6.833520   -6.954110   -0.066340
  N     -7.586650   -6.838950    0.790780
  C     -3.495040   -7.320450   -3.371600
  C     -2.200310   -7.239640   -3.865030
  S     -1.066610   -6.685640   -2.641360
  C     -1.753030   -7.557810   -5.179650
  C     -2.624450   -7.890940   -6.191780
  C     -2.252640   -8.226960   -7.490240
  C     -0.850340   -8.126370   -7.919280
  C      0.174050   -7.823190   -7.093140
  S     -0.011480   -7.505680   -5.417080
  C     -0.861290   -8.392450   -9.316160
  C     -2.168320   -8.646530   -9.734140
  C     -2.241370   -8.922230  -11.117390
  C     -1.015640   -8.867850  -11.700540
  S      0.270860   -8.488070  -10.604330
  C     -3.051170   -8.577110   -8.599430
  C     -4.440620   -8.834410   -8.680930
  C     -5.263710   -9.160910   -7.647760
  C     -6.660150   -9.362020   -7.754310
  C     -7.492740   -9.229070   -8.859090
  C     -8.820130   -9.498730   -8.547570
  C     -9.012790   -9.838610   -7.194460
  S     -7.553450   -9.825140   -6.311660
  C    -10.389120  -10.088690   -6.982950
  C    -11.072600   -9.905360   -8.205250
  C    -10.110270   -9.531710   -9.224940
  C    -10.347380   -9.268440  -10.542530
  C    -11.636880   -9.323670  -11.112650
  N    -12.674670   -9.362880  -11.597970
  C     -9.308160   -8.923150  -11.431150
  N     -8.462350   -8.646120  -12.154980
  C    -12.441820  -10.132250   -8.092100
  C    -12.795750  -10.484950   -6.802720
  S    -11.427270  -10.538530   -5.707960
  C    -14.107820  -10.789130   -6.329830
  N    -15.122760  -10.729760   -7.177810
  N    -16.352500  -10.993070   -6.820970
  C    -16.683200  -11.334950   -5.605460
  C    -15.701280  -11.439330   -4.597230
  C    -14.350560  -11.153710   -4.974980
  N    -13.500420  -11.279780   -3.962150
  S    -14.332960  -11.717990   -2.652970
  N    -15.798090  -11.767810   -3.308800
  H     -2.106480   -4.000120    7.049330
  H     -5.147830   -6.039160    1.957960
  H     -4.337560   -7.646870   -3.951550
  H     -3.676390   -7.847230   -5.960240
  H      1.196670   -7.767160   -7.431220
  H     -3.144100   -9.145770  -11.656020
  H     -0.771260   -9.030960  -12.731930
  H     -4.856010   -8.799920   -9.679330
  H     -4.851980   -9.321250   -6.662450
  H     -7.138540   -8.947230   -9.833040
  H    -13.171600  -10.056350   -8.877130
  H    -17.726710  -11.530330   -5.414690

 Total Charge           Charge          ....    0
 Multiplicity           Mult            ....    1
 Number of Electrons    NEL             ....  488
 Basis Dimension        Dim             ....  988

ORBITAL ENERGIES
----------------

  NO   OCC          E(Eh)            E(eV)
   0   2.0000     -89.049604     -2423.1629
   1   2.0000     -89.044089     -2423.0128
   2   2.0000     -88.995282     -2421.6847
   3   2.0000     -88.988978     -2421.5132
   4   2.0000     -88.982935     -2421.3488
   5   2.0000     -88.979576     -2421.2573
   6   2.0000     -88.977385     -2421.1977
   7   2.0000     -88.960028     -2420.7254
   8   2.0000     -14.465328      -393.6216
   9   2.0000     -14.462594      -393.5472
  10   2.0000     -14.460558      -393.4918
  11   2.0000     -14.457033      -393.3959
  12   2.0000     -14.447569      -393.1383
  13   2.0000     -14.445828      -393.0910
  14   2.0000     -14.438065      -392.8797
  15   2.0000     -14.436661      -392.8415
  16   2.0000     -14.433687      -392.7606
  17   2.0000     -14.432662      -392.7327
  18   2.0000     -14.422211      -392.4483
  19   2.0000     -14.418703      -392.3529
  20   2.0000     -10.367101      -282.1031
  21   2.0000     -10.355572      -281.7894
  22   2.0000     -10.353907      -281.7441
  23   2.0000     -10.349024      -281.6113
  24   2.0000     -10.347586      -281.5721
  25   2.0000     -10.344417      -281.4859
  26   2.0000     -10.342090      -281.4226
  27   2.0000     -10.339697      -281.3575
  28   2.0000     -10.339194      -281.3438
  29   2.0000     -10.337843      -281.3070
  30   2.0000     -10.337584      -281.3000
  31   2.0000     -10.337151      -281.2882
  32   2.0000     -10.335790      -281.2511
  33   2.0000     -10.334157      -281.2067
  34   2.0000     -10.333605      -281.1917
  35   2.0000     -10.333008      -281.1754
  36   2.0000     -10.332348      -281.1575
  37   2.0000     -10.326439      -280.9967
  38   2.0000     -10.323921      -280.9282
  39   2.0000     -10.323179      -280.9080
  40   2.0000     -10.319388      -280.8048
  41   2.0000     -10.318757      -280.7877
  42   2.0000     -10.317804      -280.7617
  43   2.0000     -10.317054      -280.7413
  44   2.0000     -10.314500      -280.6718
  45   2.0000     -10.309182      -280.5271
  46   2.0000     -10.309165      -280.5267
  47   2.0000     -10.306143      -280.4444
  48   2.0000     -10.304094      -280.3887
  49   2.0000     -10.303805      -280.3808
  50   2.0000     -10.303569      -280.3744
  51   2.0000     -10.302060      -280.3333
  52   2.0000     -10.299548      -280.2649
  53   2.0000     -10.295348      -280.1507
  54   2.0000     -10.292804      -280.0814
  55   2.0000     -10.291016      -280.0328
  56   2.0000     -10.290896      -280.0295
  57   2.0000     -10.290811      -280.0272
  58   2.0000     -10.289108      -279.9809
  59   2.0000     -10.287136      -279.9272
  60   2.0000     -10.285385      -279.8796
  61   2.0000     -10.282179      -279.7923
  62   2.0000     -10.277466      -279.6641
  63   2.0000     -10.276928      -279.6494
  64   2.0000      -8.141318      -221.5365
  65   2.0000      -8.135801      -221.3864
  66   2.0000      -8.089713      -220.1323
  67   2.0000      -8.082793      -219.9440
  68   2.0000      -8.078474      -219.8264
  69   2.0000      -8.073373      -219.6876
  70   2.0000      -8.072068      -219.6521
  71   2.0000      -8.055396      -219.1985
  72   2.0000      -6.112392      -166.3267
  73   2.0000      -6.106885      -166.1768
  74   2.0000      -6.104529      -166.1127
  75   2.0000      -6.104026      -166.0990
  76   2.0000      -6.099142      -165.9661
  77   2.0000      -6.098382      -165.9454
  78   2.0000      -6.059050      -164.8751
  79   2.0000      -6.054765      -164.7585
  80   2.0000      -6.052081      -164.6855
  81   2.0000      -6.052042      -164.6844
  82   2.0000      -6.048121      -164.5777
  83   2.0000      -6.047672      -164.5655
  84   2.0000      -6.045349      -164.5023
  85   2.0000      -6.043578      -164.4541
  86   2.0000      -6.042645      -164.4287
  87   2.0000      -6.041193      -164.3892
  88   2.0000      -6.040183      -164.3617
  89   2.0000      -6.038246      -164.3090
  90   2.0000      -6.037064      -164.2769
  91   2.0000      -6.035891      -164.2449
  92   2.0000      -6.034571      -164.2090
  93   2.0000      -6.024842      -163.9443
  94   2.0000      -6.020600      -163.8288
  95   2.0000      -6.017429      -163.7426
  96   2.0000      -1.152092       -31.3500
  97   2.0000      -1.145865       -31.1806
  98   2.0000      -1.122742       -30.5514
  99   2.0000      -1.112460       -30.2716
 100   2.0000      -1.047765       -28.5111
 101   2.0000      -1.033899       -28.1338
 102   2.0000      -1.026439       -27.9308
 103   2.0000      -1.013704       -27.5843
 104   2.0000      -1.012483       -27.5511
 105   2.0000      -1.011579       -27.5265
 106   2.0000      -1.006919       -27.3996
 107   2.0000      -1.000921       -27.2364
 108   2.0000      -0.998620       -27.1738
 109   2.0000      -0.997774       -27.1508
 110   2.0000      -0.984817       -26.7982
 111   2.0000      -0.977889       -26.6097
 112   2.0000      -0.961274       -26.1576
 113   2.0000      -0.952169       -25.9098
 114   2.0000      -0.939394       -25.5622
 115   2.0000      -0.932484       -25.3742
 116   2.0000      -0.928380       -25.2625
 117   2.0000      -0.920921       -25.0595
 118   2.0000      -0.914103       -24.8740
 119   2.0000      -0.913120       -24.8472
 120   2.0000      -0.902083       -24.5469
 121   2.0000      -0.891060       -24.2470
 122   2.0000      -0.878580       -23.9074
 123   2.0000      -0.867586       -23.6082
 124   2.0000      -0.859326       -23.3835
 125   2.0000      -0.854646       -23.2561
 126   2.0000      -0.845552       -23.0086
 127   2.0000      -0.843864       -22.9627
 128   2.0000      -0.828016       -22.5315
 129   2.0000      -0.811198       -22.0738
 130   2.0000      -0.809167       -22.0185
 131   2.0000      -0.794220       -21.6118
 132   2.0000      -0.782034       -21.2802
 133   2.0000      -0.779862       -21.2211
 134   2.0000      -0.770459       -20.9653
 135   2.0000      -0.763517       -20.7764
 136   2.0000      -0.750136       -20.4122
 137   2.0000      -0.744405       -20.2563
 138   2.0000      -0.739642       -20.1267
 139   2.0000      -0.736330       -20.0365
 140   2.0000      -0.721123       -19.6228
 141   2.0000      -0.711533       -19.3618
 142   2.0000      -0.701081       -19.0774
 143   2.0000      -0.692760       -18.8510
 144   2.0000      -0.685422       -18.6513
 145   2.0000      -0.684208       -18.6183
 146   2.0000      -0.672528       -18.3004
 147   2.0000      -0.666118       -18.1260
 148   2.0000      -0.661126       -17.9902
 149   2.0000      -0.653569       -17.7845
 150   2.0000      -0.647926       -17.6310
 151   2.0000      -0.644682       -17.5427
 152   2.0000      -0.639171       -17.3927
 153   2.0000      -0.632823       -17.2200
 154   2.0000      -0.622833       -16.9481
 155   2.0000      -0.619213       -16.8496
 156   2.0000      -0.616975       -16.7887
 157   2.0000      -0.614286       -16.7156
 158   2.0000      -0.609616       -16.5885
 159   2.0000      -0.604998       -16.4628
 160   2.0000      -0.593794       -16.1580
 161   2.0000      -0.593349       -16.1458
 162   2.0000      -0.582164       -15.8415
 163   2.0000      -0.577152       -15.7051
 164   2.0000      -0.576108       -15.6767
 165   2.0000      -0.570692       -15.5293
 166   2.0000      -0.568458       -15.4685
 167   2.0000      -0.563148       -15.3240
 168   2.0000      -0.560207       -15.2440
 169   2.0000      -0.552934       -15.0461
 170   2.0000      -0.550539       -14.9809
 171   2.0000      -0.546107       -14.8603
 172   2.0000      -0.539174       -14.6717
 173   2.0000      -0.536643       -14.6028
 174   2.0000      -0.526972       -14.3396
 175   2.0000      -0.522356       -14.2140
 176   2.0000      -0.519883       -14.1467
 177   2.0000      -0.518444       -14.1076
 178   2.0000      -0.516924       -14.0662
 179   2.0000      -0.506608       -13.7855
 180   2.0000      -0.506294       -13.7770
 181   2.0000      -0.505885       -13.7658
 182   2.0000      -0.501624       -13.6499
 183   2.0000      -0.498878       -13.5752
 184   2.0000      -0.496646       -13.5144
 185   2.0000      -0.494625       -13.4594
 186   2.0000      -0.493979       -13.4419
 187   2.0000      -0.492140       -13.3918
 188   2.0000      -0.489562       -13.3217
 189   2.0000      -0.485435       -13.2094
 190   2.0000      -0.481372       -13.0988
 191   2.0000      -0.475970       -12.9518
 192   2.0000      -0.471345       -12.8259
 193   2.0000      -0.469245       -12.7688
 194   2.0000      -0.467873       -12.7315
 195   2.0000      -0.465516       -12.6673
 196   2.0000      -0.463997       -12.6260
 197   2.0000      -0.460524       -12.5315
 198   2.0000      -0.454830       -12.3766
 199   2.0000      -0.453574       -12.3424
 200   2.0000      -0.450252       -12.2520
 201   2.0000      -0.448326       -12.1996
 202   2.0000      -0.447447       -12.1757
 203   2.0000      -0.445802       -12.1309
 204   2.0000      -0.445412       -12.1203
 205   2.0000      -0.444009       -12.0821
 206   2.0000      -0.441895       -12.0246
 207   2.0000      -0.439404       -11.9568
 208   2.0000      -0.437690       -11.9101
 209   2.0000      -0.433740       -11.8027
 210   2.0000      -0.431725       -11.7478
 211   2.0000      -0.430934       -11.7263
 212   2.0000      -0.430489       -11.7142
 213   2.0000      -0.428101       -11.6492
 214   2.0000      -0.426086       -11.5944
 215   2.0000      -0.422843       -11.5061
 216   2.0000      -0.420806       -11.4507
 217   2.0000      -0.416946       -11.3457
 218   2.0000      -0.415941       -11.3183
 219   2.0000      -0.412934       -11.2365
 220   2.0000      -0.402682       -10.9575
 221   2.0000      -0.400587       -10.9005
 222   2.0000      -0.395057       -10.7500
 223   2.0000      -0.391855       -10.6629
 224   2.0000      -0.386499       -10.5172
 225   2.0000      -0.384685       -10.4678
 226   2.0000      -0.382288       -10.4026
 227   2.0000      -0.378973       -10.3124
 228   2.0000      -0.373321       -10.1586
 229   2.0000      -0.369901       -10.0655
 230   2.0000      -0.364604        -9.9214
 231   2.0000      -0.351508        -9.5650
 232   2.0000      -0.344424        -9.3723
 233   2.0000      -0.338170        -9.2021
 234   2.0000      -0.336246        -9.1497
 235   2.0000      -0.323929        -8.8146
 236   2.0000      -0.318683        -8.6718
 237   2.0000      -0.310951        -8.4614
 238   2.0000      -0.310451        -8.4478
 239   2.0000      -0.297979        -8.1084
 240   2.0000      -0.291583        -7.9344
 241   2.0000      -0.279164        -7.5964
 242   2.0000      -0.259232        -7.0541
 243   2.0000      -0.222902        -6.0655
 244   0.0000      -0.112299        -3.0558
 245   0.0000      -0.098000        -2.6667
 246   0.0000      -0.088614        -2.4113
 247   0.0000      -0.079827        -2.1722
 248   0.0000      -0.065800        -1.7905

MULLIKEN ATOMIC CHARGES
-----------------------
   0 C :   -0.022360
   1 N :   -0.034215
   2 N :   -0.081500
   3 C :    0.030858
   4 C :    0.003377
   5 C :    0.050774
   6 N :   -0.252889
   7 S :    0.545841
   8 N :   -0.255283
   9 C :   -0.133933
  10 C :   -0.040809
  11 C :    0.000122
  12 C :   -0.084999
  13 S :    0.246885
  14 C :   -0.111814
  15 C :    0.019387
  16 C :    0.313461
  17 C :   -0.305826
  18 C :   -0.181619
  19 N :    0.159575
  20 C :   -0.192396
  21 N :    0.176825
  22 C :   -0.051892
  23 C :   -0.055552
  24 S :    0.193018
  25 C :   -0.034639
  26 C :   -0.076426
  27 C :    0.047898
  28 C :    0.066500
  29 C :   -0.131066
  30 S :    0.122164
  31 C :   -0.108960
  32 C :    0.052965
  33 C :    0.007879
  34 C :   -0.067516
  35 S :    0.131237
  36 C :    0.088615
  37 C :   -0.027565
  38 C :    0.029747
  39 C :   -0.080054
  40 C :   -0.043430
  41 C :    0.012763
  42 C :   -0.111752
  43 S :    0.215886
  44 C :   -0.076692
  45 C :    0.022389
  46 C :    0.305778
  47 C :   -0.303358
  48 C :   -0.195428
  49 N :    0.184031
  50 C :   -0.183305
  51 N :    0.159552
  52 C :   -0.053634
  53 C :   -0.120757
  54 S :    0.217880
  55 C :    0.020805
  56 N :   -0.053749
  57 N :   -0.034350
  58 C :   -0.027945
  59 C :    0.059039
  60 C :   -0.006854
  61 N :   -0.288441
  62 S :    0.536775
  63 N :   -0.254080
  64 H :    0.004390
  65 H :    0.017396
  66 H :    0.003462
  67 H :   -0.018497
  68 H :    0.038233
  69 H :   -0.009440
  70 H :    0.030283
  71 H :   -0.013220
  72 H :   -0.022382
  73 H :    0.002892
  74 H :    0.026429
  75 H :    0.003512
Sum of atomic charges:    0.0000000

LOEWDIN ATOMIC CHARGES
----------------------
   0 C :    0.000125
   1 N :   -0.032786
   2 N :   -0.081140
   3 C :   -0.016052
   4 C :   -0.060474
   5 C :   -0.067716
   6 N :   -0.269002
   7 S :    0.679594
   8 N :   -0.268562
   9 C :   -0.187611
  10 C :   -0.004918
  11 C :   -0.084587
  12 C :   -0.162799
  13 S :    0.520464
  14 C :   -0.193534
  15 C :   -0.059080
  16 C :    0.084703
  17 C :   -0.107494
  18 C :   -0.010924
  19 N :   -0.047170
  20 C :   -0.018344
  21 N :   -0.032122
  22 C :   -0.032806
  23 C :   -0.174526
  24 S :    0.471620
  25 C :   -0.190761
  26 C :   -0.013859
  27 C :   -0.024177
  28 C :   -0.044528
  29 C :   -0.140805
  30 S :    0.435082
  31 C :   -0.203248
  32 C :   -0.038496
  33 C :   -0.061404
  34 C :   -0.161337
  35 S :    0.423879
  36 C :   -0.043981
  37 C :   -0.007570
  38 C :   -0.056407
  39 C :   -0.156164
  40 C :   -0.034655
  41 C :   -0.059408
  42 C :   -0.197267
  43 S :    0.496020
  44 C :   -0.166360
  45 C :   -0.080558
  46 C :    0.082558
  47 C :   -0.105527
  48 C :   -0.020745
  49 N :   -0.027729
  50 C :   -0.013348
  51 N :   -0.042365
  52 C :    0.012318
  53 C :   -0.192931
  54 S :    0.509556
  55 C :   -0.017375
  56 N :   -0.062547
  57 N :   -0.030613
  58 C :   -0.005576
  59 C :   -0.067199
  60 C :   -0.070361
  61 N :   -0.289730
  62 S :    0.669540
  63 N :   -0.269726
  64 H :    0.035117
  65 H :    0.041461
  66 H :    0.036907
  67 H :    0.037150
  68 H :    0.037538
  69 H :    0.033287
  70 H :    0.024890
  71 H :    0.032554
  72 H :    0.024105
  73 H :    0.036991
  74 H :    0.048959
  75 H :    0.033981

  Mayer bond orders larger than 0.100000
B(  0-C ,  1-N ) :   1.7390 B(  0-C ,  3-C ) :   0.1030 B(  0-C ,  5-C ) :   1.1233
B(  0-C , 64-H ) :   1.0164 B(  1-N ,  2-N ) :   1.2003 B(  2-N ,  3-C ) :   1.7405
B(  3-C ,  4-C ) :   1.1160 B(  3-C ,  9-C ) :   1.1506 B(  4-C ,  5-C ) :   1.1993
B(  4-C ,  8-N ) :   1.5540 B(  5-C ,  6-N ) :   1.5038 B(  6-N ,  7-S ) :   1.2965
B(  6-N ,  8-N ) :   0.1461 B(  7-S ,  8-N ) :   1.2690 B(  9-C , 10-C ) :   1.4930
B(  9-C , 13-S ) :   1.0763 B( 10-C , 11-C ) :   1.2600 B( 10-C , 65-H ) :   0.9837
B( 11-C , 12-C ) :   1.4152 B( 11-C , 16-C ) :   1.0085 B( 12-C , 13-S ) :   1.1372
B( 12-C , 14-C ) :   1.2030 B( 14-C , 15-C ) :   1.4396 B( 14-C , 24-S ) :   1.1093
B( 15-C , 16-C ) :   0.9936 B( 15-C , 22-C ) :   1.3119 B( 16-C , 17-C ) :   1.6974
B( 17-C , 18-C ) :   1.1367 B( 17-C , 20-C ) :   1.1392 B( 18-C , 19-N ) :   2.9829
B( 20-C , 21-N ) :   2.9945 B( 22-C , 23-C ) :   1.4688 B( 22-C , 66-H ) :   0.9825
B( 23-C , 24-S ) :   1.1128 B( 23-C , 25-C ) :   1.1244 B( 25-C , 26-C ) :   1.5469
B( 25-C , 30-S ) :   1.0369 B( 26-C , 27-C ) :   1.2376 B( 26-C , 67-H ) :   0.9654
B( 27-C , 28-C ) :   1.0507 B( 27-C , 36-C ) :   1.3773 B( 28-C , 29-C ) :   1.6154
B( 28-C , 31-C ) :   1.1751 B( 29-C , 30-S ) :   1.1314 B( 29-C , 68-H ) :   0.9409
B( 31-C , 32-C ) :   1.4385 B( 31-C , 35-S ) :   1.0781 B( 32-C , 33-C ) :   1.2202
B( 32-C , 36-C ) :   1.1009 B( 33-C , 34-C ) :   1.5879 B( 33-C , 69-H ) :   0.9984
B( 34-C , 35-S ) :   1.1535 B( 34-C , 70-H ) :   0.9656 B( 36-C , 37-C ) :   1.1627
B( 37-C , 38-C ) :   1.6429 B( 37-C , 71-H ) :   0.9611 B( 38-C , 39-C ) :   1.1320
B( 38-C , 72-H ) :   0.9554 B( 39-C , 40-C ) :   1.4324 B( 39-C , 43-S ) :   1.1217
B( 40-C , 41-C ) :   1.3174 B( 40-C , 73-H ) :   0.9886 B( 41-C , 42-C ) :   1.4190
B( 41-C , 46-C ) :   0.9962 B( 42-C , 43-S ) :   1.1261 B( 42-C , 44-C ) :   1.2026
B( 44-C , 45-C ) :   1.4009 B( 44-C , 54-S ) :   1.1297 B( 45-C , 46-C ) :   0.9966
B( 45-C , 52-C ) :   1.2563 B( 46-C , 47-C ) :   1.7102 B( 47-C , 48-C ) :   1.1313
B( 47-C , 50-C ) :   1.1361 B( 48-C , 49-N ) :   3.0051 B( 50-C , 51-N ) :   2.9826
B( 52-C , 53-C ) :   1.4311 B( 52-C , 74-H ) :   1.0157 B( 53-C , 54-S ) :   1.1017
B( 53-C , 55-C ) :   1.1481 B( 55-C , 56-N ) :   1.7441 B( 55-C , 58-C ) :   0.1015
B( 55-C , 60-C ) :   1.0811 B( 56-N , 57-N ) :   1.1936 B( 57-N , 58-C ) :   1.7301
B( 58-C , 59-C ) :   1.1245 B( 58-C , 75-H ) :   1.0172 B( 59-C , 60-C ) :   1.2091
B( 59-C , 63-N ) :   1.5031 B( 60-C , 61-N ) :   1.5281 B( 61-N , 62-S ) :   1.2618
B( 61-N , 63-N ) :   0.1482 B( 62-S , 63-N ) :   1.2953

-----------------------------------------------------------------------------
         ABSORPTION SPECTRUM VIA TRANSITION ELECTRIC DIPOLE MOMENTS
-----------------------------------------------------------------------------
State   Energy  Wavelength   fosc         T2         TX        TY        TZ
        (cm-1)    (nm)                  (au**2)     (au)      (au)      (au)
-----------------------------------------------------------------------------
   0    9394.5   1064.4   0.246987973   8.65519  -1.21349  -1.02380  -2.47678
   1   11427.7    875.1   0.184832564   5.32469   2.22216   0.45333  -0.42564
   2   16087.8    621.6   0.172406314   3.52804  -1.63462  -0.59324  -0.71002
   3   16924.4    590.9   0.458319856   8.91519   1.87667   1.13346   2.02696
   4   18624.2    536.9   0.586492901  10.36716   1.76145  -0.13452  -2.69191
   5   19807.2    504.9   0.046804642   0.77793  -0.41264  -0.08511   0.77487
   6   19810.9    504.8   0.029321217   0.48725  -0.32632  -0.08333   0.61141
   7   20366.2    491.0   0.094919378   1.53433  -1.14654  -0.17376   0.43541
   8   21060.5    474.8   0.000000475   0.00001  -0.00106   0.00175   0.00181
   9   22318.5    448.1   0.056782234   0.83758   0.89006   0.14448   0.15649
  10   22900.2    436.7   0.068191975   0.98032  -0.71836   0.04916   0.67961
  11   24106.5    414.8   0.337763423   4.61269  -0.62746   0.46489   2.00072
  12   25357.2    394.4   0.084824955   1.10128   0.51542   0.31285   0.85892
  13   25797.2    387.6   0.170585677   2.17693  -1.35868  -0.33173   0.46998
  14   27038.6    369.8   0.024198970   0.29464  -0.50386   0.10704  -0.17119
  15   27768.5    360.1   0.175317192   2.07849  -1.39229  -0.01452   0.37392
  16   28326.3    353.0   0.000078828   0.00092  -0.00116   0.03024  -0.00078
  17   28683.7    348.6   0.000136510   0.00157   0.00913  -0.03516  -0.01573
  18   29149.7    343.1   0.622736476   7.03309   2.60215   0.17675  -0.48025
  19   30013.7    333.2   0.231170553   2.53564   1.37613   0.05849  -0.79906
  20   30146.6    331.7   0.411076516   4.48911   0.82627  -0.03979   1.95059
  21   30592.3    326.9   0.248207297   2.67103   1.43936   0.77376  -0.02360
  22   31035.6    322.2   0.060886237   0.64585   0.38489  -0.01334   0.70536
  23   31240.9    320.1   0.029008034   0.30568  -0.30912  -0.12942   0.43975
  24   31936.1    313.1   0.042719776   0.44038  -0.36507  -0.02008  -0.55380
  25   32311.2    309.5   0.141831213   1.44509  -1.14210   0.03389   0.37358
  26   32426.5    308.4   0.050992758   0.51771   0.17964  -0.16662   0.67651
  27   32631.0    306.5   0.000035577   0.00036  -0.00174  -0.01688  -0.00842
  28   32714.2    305.7   0.189377329   1.90576   0.40676   0.05551  -1.31804
  29   32839.1    304.5   0.184215283   1.84676   0.93873   0.16663   0.96839
  30   33304.3    300.3   0.517671211   5.11716  -1.26582  -0.09921   1.87217
  31   33567.4    297.9   0.300726326   2.94937   0.01671  -0.61104  -1.60490
  32   33985.5    294.2   0.057209789   0.55418   0.21973  -0.33725  -0.62623
  33   34245.9    292.0   0.297606484   2.86095  -0.75855  -0.36128  -1.46800
  34   34406.7    290.6   0.141721039   1.35602   0.81562   0.51063  -0.65578
  35   34835.4    287.1   0.170958666   1.61565   0.18656  -0.02729  -1.25702
  36   35200.7    284.1   0.068817369   0.64361   0.57901   0.13244  -0.53927
  37   35523.5    281.5   0.042240629   0.39146   0.34513   0.18899   0.48645
  38   35749.8    279.7   0.022370379   0.20600  -0.07823  -0.09728  -0.43637
  39   36426.1    274.5   0.005711989   0.05162   0.21162   0.01114   0.08196
  40   36790.1    271.8   0.007241162   0.06480  -0.03326   0.24490   0.06095
  41   37222.0    268.7   0.062495642   0.55275   0.56889  -0.05735  -0.47521
  42   37379.0    267.5   0.016992299   0.14966   0.16904  -0.14361  -0.31695
  43   37532.0    266.4   0.021592341   0.18940  -0.38050  -0.06806   0.19995
  44   37835.6    264.3   0.046133673   0.40141  -0.09036  -0.09572  -0.61975
  45   37857.9    264.1   0.078910390   0.68620   0.11782   0.16877   0.80239
  46   38155.3    262.1   0.003561163   0.03073   0.14349  -0.09671   0.02802
  47   38632.0    258.9   0.000697551   0.00594  -0.00757   0.07269  -0.02455
  48   38727.9    258.2   0.003716037   0.03159  -0.03247   0.00345  -0.17471
  49   38786.5    257.8   0.008398525   0.07128  -0.21533  -0.12032  -0.10219
  50   38817.5    257.6   0.000556220   0.00472  -0.00827  -0.06695  -0.01290
  51   38868.9    257.3   0.047659626   0.40367  -0.61343  -0.11498   0.11894
  52   39565.9    252.7   0.005580243   0.04643   0.21254   0.03298   0.01299
  53   39662.4    252.1   0.002448741   0.02033   0.00768  -0.02527   0.14010
  54   39897.0    250.6   0.036938451   0.30480   0.45100   0.19945   0.24822
  55   39963.2    250.2   0.029016785   0.23904  -0.37271  -0.04551   0.31314
  56   40057.8    249.6   0.007257555   0.05965   0.14221   0.01283  -0.19813
  57   40120.3    249.3   0.001516710   0.01245  -0.01416   0.10692  -0.02850
  58   40210.8    248.7   0.001087222   0.00890  -0.01674   0.09027   0.02172
  59   40271.2    248.3   0.014309389   0.11698   0.20404  -0.01509  -0.27407

FINAL SINGLE POINT ENERGY     -5522.269669683767

DIPOLE MOMENT
-------------
                                X             Y             Z
Electronic contribution:     -7.28810       1.57069      25.50387
Nuclear contribution   :      9.95798      -1.80358     -22.77282
                        -----------------------------------------
Total Dipole Moment    :      2.66988      -0.23289       2.73104
                        -----------------------------------------
Magnitude (a.u.)       :      3.82637
Magnitude (Debye)      :      9.72585

Rotational constants in cm-1:     0.000841     0.000495     0.000317
Rotational constants in MHz :    25.216589    14.830371     9.508705

                             ****ORCA TERMINATED NORMALLY****
TOTAL RUN TIME: 0 days 0 hours 7 minutes 21 seconds 132 msec
