                         Program Version 4.2.0 -  RELEASE  -
|  1> # ORCA input file
|  2> # SCF done       -149.536185000500          0.000797586634
|  3> ! CAM-B3LYP def2-SVP def2/J RIJCOSX Grid4 TightSCF
|  4> %maxcore 5000
|  5> %tddft
|  6>     Mode sTDDFT
|  7>     Ethresh 5.0
|  8>     maxcore 5000
|  9> end
| 10>
| 11> %pal
| 12>   nprocs 6
| 13>   end
| 14> * xyz 0 1
| 15>    C        4.66846        -0.83789        -1.25866
| 16>    C        4.55658        -0.53513         0.06382
| 17>    C        3.72115         0.58090         0.26481
| 18>    C        3.21920         1.09530        -0.93432
| 19>    S        3.76539         0.22016        -2.29312
| 20>    C        2.39078         2.21854        -0.63566
| 21>    C        2.37677         2.40260         0.74956
| 22>    C        3.21187         1.38005         1.36579
| 23>    C        3.46094         1.21389         2.69696
| 24>    C        2.90451         2.06333         3.67563
| 25>    N        2.45466         2.75307         4.47397
| 26>    C        4.29193         0.18413         3.18509
| 27>    N        4.96449        -0.65243         3.58880
| 28>    C        1.58837         3.48947         1.14554
| 29>    C        1.00357         4.13163         0.07632
| 30>    S        1.43735         3.37340        -1.44895
| 31>    C        0.13748         5.28813         0.08961
| 32>    C       -0.45799         5.73298        -1.10787
| 33>    C       -1.28603         6.82861        -1.16686
| 34>    C       -1.53091         7.51012         0.02015
| 35>    C       -0.93692         7.06441         1.22258
| 36>    C       -0.10635         5.96863         1.28614
| 37>    O       -1.33926         7.90164         2.20816
| 38>    C       -2.14481         8.80638         1.58239
| 39>    N       -2.28367         8.61441         0.30529
| 40>    C       -2.76040         9.86790         2.34373
| 41>    C       -2.55078         9.95165         3.73194
| 42>    C       -3.12100        10.94644         4.49238
| 43>    C       -3.91932        11.87737         3.83533
| 44>    C       -4.12247        11.78498         2.43742
| 45>    C       -3.55761        10.79299         1.66917
| 46>    O       -4.93033        12.81096         2.07762
| 47>    C       -5.18413        13.47353         3.24139
| 48>    N       -4.61416        12.96267         4.29059
| 49>    C       -6.03145        14.64256         3.22488
| 50>    C       -6.29619        15.30317         4.43891
| 51>    C       -7.09597        16.42003         4.49663
| 52>    C       -7.64067        16.88081         3.30081
| 53>    C       -7.36683        16.20890         2.08537
| 54>    C       -6.56817        15.09043         2.01759
| 55>    O       -8.02091        16.87004         1.09836
| 56>    C       -8.65250        17.89419         1.74046
| 57>    N       -8.45880        17.93975         3.02552
| 58>    C       -9.44814        18.80064         0.98726
| 59>    C      -10.15492        19.88279         1.47040
| 60>    C      -10.82779        20.54789         0.44376
| 61>    C      -10.62147        19.95818        -0.81309
| 62>    S       -9.60578        18.59208        -0.74152
| 63>    C      -11.34765        20.70481        -1.78637
| 64>    C      -12.00642        21.75719        -1.14230
| 65>    C      -11.70576        21.69962         0.27816
| 66>    C      -12.15134        22.54415         1.25144
| 67>    C      -13.00720        23.62981         0.96773
| 68>    N      -13.69831        24.51663         0.74251
| 69>    C      -11.79460        22.39389         2.60876
| 70>    N      -11.51144        22.28846         3.71458
| 71>    C      -12.75319        22.54984        -2.03474
| 72>    C      -12.64635        22.09005        -3.31249
| 73>    S      -11.64127        20.68884        -3.46764
| 74>    H        5.23408        -1.62996        -1.70676
| 75>    H        5.04797        -1.08439         0.84591
| 76>    H        1.44827         3.78549         2.16818
| 77>    H       -0.25239         5.18388        -2.01552
| 78>    H       -1.73220         7.15407        -2.09178
| 79>    H        0.33470         5.66434         2.21990
| 80>    H       -1.92419         9.20793         4.19957
| 81>    H       -2.96317        11.01247         5.55601
| 82>    H       -3.70703        10.71377         0.60593
| 83>    H       -5.84590        14.89811         5.33081
| 84>    H       -7.30291        16.92929         5.42284
| 85>    H       -6.36506        14.58462         1.08812
| 86>    H      -10.15902        20.14349         2.51234
| 87>    H      -13.33592        23.40858        -1.75620
| 88>    H      -13.10319        22.49213        -4.19456
| 89> *
| 90>
| 91>                          ****END OF INPUT****

CARTESIAN COORDINATES (ANGSTROEM)
---------------------------------
  C      4.668460   -0.837890   -1.258660
  C      4.556580   -0.535130    0.063820
  C      3.721150    0.580900    0.264810
  C      3.219200    1.095300   -0.934320
  S      3.765390    0.220160   -2.293120
  C      2.390780    2.218540   -0.635660
  C      2.376770    2.402600    0.749560
  C      3.211870    1.380050    1.365790
  C      3.460940    1.213890    2.696960
  C      2.904510    2.063330    3.675630
  N      2.454660    2.753070    4.473970
  C      4.291930    0.184130    3.185090
  N      4.964490   -0.652430    3.588800
  C      1.588370    3.489470    1.145540
  C      1.003570    4.131630    0.076320
  S      1.437350    3.373400   -1.448950
  C      0.137480    5.288130    0.089610
  C     -0.457990    5.732980   -1.107870
  C     -1.286030    6.828610   -1.166860
  C     -1.530910    7.510120    0.020150
  C     -0.936920    7.064410    1.222580
  C     -0.106350    5.968630    1.286140
  O     -1.339260    7.901640    2.208160
  C     -2.144810    8.806380    1.582390
  N     -2.283670    8.614410    0.305290
  C     -2.760400    9.867900    2.343730
  C     -2.550780    9.951650    3.731940
  C     -3.121000   10.946440    4.492380
  C     -3.919320   11.877370    3.835330
  C     -4.122470   11.784980    2.437420
  C     -3.557610   10.792990    1.669170
  O     -4.930330   12.810960    2.077620
  C     -5.184130   13.473530    3.241390
  N     -4.614160   12.962670    4.290590
  C     -6.031450   14.642560    3.224880
  C     -6.296190   15.303170    4.438910
  C     -7.095970   16.420030    4.496630
  C     -7.640670   16.880810    3.300810
  C     -7.366830   16.208900    2.085370
  C     -6.568170   15.090430    2.017590
  O     -8.020910   16.870040    1.098360
  C     -8.652500   17.894190    1.740460
  N     -8.458800   17.939750    3.025520
  C     -9.448140   18.800640    0.987260
  C    -10.154920   19.882790    1.470400
  C    -10.827790   20.547890    0.443760
  C    -10.621470   19.958180   -0.813090
  S     -9.605780   18.592080   -0.741520
  C    -11.347650   20.704810   -1.786370
  C    -12.006420   21.757190   -1.142300
  C    -11.705760   21.699620    0.278160
  C    -12.151340   22.544150    1.251440
  C    -13.007200   23.629810    0.967730
  N    -13.698310   24.516630    0.742510
  C    -11.794600   22.393890    2.608760
  N    -11.511440   22.288460    3.714580
  C    -12.753190   22.549840   -2.034740
  C    -12.646350   22.090050   -3.312490
  S    -11.641270   20.688840   -3.467640
  H      5.234080   -1.629960   -1.706760
  H      5.047970   -1.084390    0.845910
  H      1.448270    3.785490    2.168180
  H     -0.252390    5.183880   -2.015520
  H     -1.732200    7.154070   -2.091780
  H      0.334700    5.664340    2.219900
  H     -1.924190    9.207930    4.199570
  H     -2.963170   11.012470    5.556010
  H     -3.707030   10.713770    0.605930
  H     -5.845900   14.898110    5.330810
  H     -7.302910   16.929290    5.422840
  H     -6.365060   14.584620    1.088120
  H    -10.159020   20.143490    2.512340
  H    -13.335920   23.408580   -1.756200
  H    -13.103190   22.492130   -4.194560

 Total Charge           Charge          ....    0
 Multiplicity           Mult            ....    1
 Number of Electrons    NEL             ....  422
 Basis Dimension        Dim             ....  917

ORBITAL ENERGIES
----------------

  NO   OCC          E(Eh)            E(eV)
   0   2.0000     -88.996978     -2421.7309
   1   2.0000     -88.991469     -2421.5810
   2   2.0000     -88.982666     -2421.3414
   3   2.0000     -88.981762     -2421.3168
   4   2.0000     -19.309755      -525.4451
   5   2.0000     -19.301561      -525.2222
   6   2.0000     -19.299110      -525.1555
   7   2.0000     -14.430615      -392.6770
   8   2.0000     -14.429439      -392.6450
   9   2.0000     -14.424834      -392.5197
  10   2.0000     -14.424001      -392.4970
  11   2.0000     -14.414498      -392.2384
  12   2.0000     -14.408272      -392.0690
  13   2.0000     -14.405810      -392.0020
  14   2.0000     -10.387184      -282.6496
  15   2.0000     -10.375297      -282.3262
  16   2.0000     -10.371457      -282.2217
  17   2.0000     -10.365570      -282.0615
  18   2.0000     -10.357095      -281.8309
  19   2.0000     -10.353005      -281.7196
  20   2.0000     -10.345268      -281.5091
  21   2.0000     -10.342478      -281.4331
  22   2.0000     -10.338213      -281.3171
  23   2.0000     -10.337039      -281.2851
  24   2.0000     -10.335644      -281.2472
  25   2.0000     -10.332428      -281.1596
  26   2.0000     -10.330805      -281.1155
  27   2.0000     -10.329277      -281.0739
  28   2.0000     -10.327661      -281.0299
  29   2.0000     -10.325680      -280.9760
  30   2.0000     -10.324630      -280.9475
  31   2.0000     -10.324087      -280.9327
  32   2.0000     -10.322344      -280.8853
  33   2.0000     -10.316403      -280.7236
  34   2.0000     -10.315572      -280.7010
  35   2.0000     -10.312539      -280.6184
  36   2.0000     -10.308318      -280.5036
  37   2.0000     -10.307487      -280.4810
  38   2.0000     -10.306376      -280.4507
  39   2.0000     -10.305922      -280.4384
  40   2.0000     -10.304192      -280.3913
  41   2.0000     -10.303202      -280.3644
  42   2.0000     -10.300855      -280.3005
  43   2.0000     -10.298186      -280.2279
  44   2.0000     -10.297907      -280.2203
  45   2.0000     -10.295291      -280.1491
  46   2.0000     -10.294397      -280.1248
  47   2.0000     -10.293938      -280.1123
  48   2.0000     -10.293047      -280.0880
  49   2.0000     -10.292409      -280.0707
  50   2.0000     -10.291058      -280.0339
  51   2.0000     -10.288482      -279.9638
  52   2.0000     -10.287016      -279.9239
  53   2.0000     -10.282717      -279.8070
  54   2.0000     -10.282183      -279.7924
  55   2.0000     -10.281581      -279.7761
  56   2.0000     -10.281126      -279.7637
  57   2.0000     -10.280663      -279.7511
  58   2.0000     -10.279975      -279.7323
  59   2.0000      -8.091369      -220.1774
  60   2.0000      -8.086458      -220.0437
  61   2.0000      -8.077652      -219.8041
  62   2.0000      -8.076212      -219.7649
  63   2.0000      -6.060542      -164.9157
  64   2.0000      -6.056377      -164.8024
  65   2.0000      -6.055712      -164.7843
  66   2.0000      -6.053885      -164.7346
  67   2.0000      -6.051263      -164.6632
  68   2.0000      -6.049073      -164.6037
  69   2.0000      -6.046894      -164.5444
  70   2.0000      -6.045392      -164.5035
  71   2.0000      -6.042457      -164.4236
  72   2.0000      -6.041263      -164.3911
  73   2.0000      -6.040302      -164.3650
  74   2.0000      -6.038738      -164.3224
  75   2.0000      -1.238160       -33.6920
  76   2.0000      -1.230571       -33.4855
  77   2.0000      -1.227948       -33.4142
  78   2.0000      -1.046896       -28.4875
  79   2.0000      -1.036397       -28.2018
  80   2.0000      -1.029336       -28.0096
  81   2.0000      -1.022773       -27.8311
  82   2.0000      -1.022051       -27.8114
  83   2.0000      -1.020076       -27.7577
  84   2.0000      -1.015747       -27.6399
  85   2.0000      -1.007424       -27.4134
  86   2.0000      -1.002117       -27.2690
  87   2.0000      -1.000113       -27.2145
  88   2.0000      -0.990460       -26.9518
  89   2.0000      -0.972079       -26.4516
  90   2.0000      -0.964201       -26.2372
  91   2.0000      -0.958613       -26.0852
  92   2.0000      -0.953238       -25.9389
  93   2.0000      -0.944337       -25.6967
  94   2.0000      -0.914778       -24.8924
  95   2.0000      -0.903101       -24.5746
  96   2.0000      -0.887978       -24.1631
  97   2.0000      -0.872549       -23.7433
  98   2.0000      -0.865495       -23.5513
  99   2.0000      -0.862400       -23.4671
 100   2.0000      -0.859545       -23.3894
 101   2.0000      -0.854230       -23.2448
 102   2.0000      -0.850649       -23.1473
 103   2.0000      -0.845438       -23.0055
 104   2.0000      -0.843060       -22.9408
 105   2.0000      -0.832914       -22.6648
 106   2.0000      -0.809394       -22.0247
 107   2.0000      -0.782857       -21.3026
 108   2.0000      -0.780187       -21.2300
 109   2.0000      -0.771699       -20.9990
 110   2.0000      -0.762774       -20.7561
 111   2.0000      -0.749310       -20.3897
 112   2.0000      -0.738237       -20.0884
 113   2.0000      -0.726502       -19.7691
 114   2.0000      -0.714669       -19.4471
 115   2.0000      -0.708580       -19.2814
 116   2.0000      -0.702657       -19.1203
 117   2.0000      -0.698074       -18.9955
 118   2.0000      -0.696315       -18.9477
 119   2.0000      -0.694174       -18.8894
 120   2.0000      -0.689896       -18.7730
 121   2.0000      -0.682452       -18.5705
 122   2.0000      -0.675820       -18.3900
 123   2.0000      -0.668223       -18.1833
 124   2.0000      -0.659621       -17.9492
 125   2.0000      -0.645735       -17.5713
 126   2.0000      -0.636009       -17.3067
 127   2.0000      -0.627151       -17.0656
 128   2.0000      -0.621174       -16.9030
 129   2.0000      -0.618090       -16.8191
 130   2.0000      -0.617857       -16.8128
 131   2.0000      -0.611606       -16.6426
 132   2.0000      -0.610305       -16.6072
 133   2.0000      -0.606973       -16.5166
 134   2.0000      -0.605270       -16.4702
 135   2.0000      -0.601503       -16.3677
 136   2.0000      -0.588399       -16.0112
 137   2.0000      -0.584440       -15.9034
 138   2.0000      -0.580251       -15.7894
 139   2.0000      -0.575652       -15.6643
 140   2.0000      -0.575514       -15.6605
 141   2.0000      -0.562636       -15.3101
 142   2.0000      -0.553064       -15.0496
 143   2.0000      -0.548769       -14.9328
 144   2.0000      -0.547417       -14.8960
 145   2.0000      -0.542052       -14.7500
 146   2.0000      -0.538945       -14.6654
 147   2.0000      -0.535767       -14.5790
 148   2.0000      -0.534681       -14.5494
 149   2.0000      -0.530651       -14.4397
 150   2.0000      -0.526484       -14.3263
 151   2.0000      -0.514381       -13.9970
 152   2.0000      -0.512165       -13.9367
 153   2.0000      -0.508257       -13.8304
 154   2.0000      -0.505455       -13.7541
 155   2.0000      -0.504857       -13.7379
 156   2.0000      -0.498673       -13.5696
 157   2.0000      -0.497885       -13.5481
 158   2.0000      -0.496095       -13.4994
 159   2.0000      -0.494911       -13.4672
 160   2.0000      -0.486437       -13.2366
 161   2.0000      -0.485083       -13.1998
 162   2.0000      -0.483590       -13.1592
 163   2.0000      -0.481554       -13.1038
 164   2.0000      -0.478255       -13.0140
 165   2.0000      -0.475602       -12.9418
 166   2.0000      -0.470575       -12.8050
 167   2.0000      -0.467451       -12.7200
 168   2.0000      -0.465978       -12.6799
 169   2.0000      -0.461022       -12.5451
 170   2.0000      -0.460422       -12.5287
 171   2.0000      -0.457402       -12.4465
 172   2.0000      -0.456267       -12.4157
 173   2.0000      -0.455316       -12.3898
 174   2.0000      -0.454252       -12.3608
 175   2.0000      -0.452169       -12.3042
 176   2.0000      -0.447961       -12.1896
 177   2.0000      -0.445983       -12.1358
 178   2.0000      -0.444522       -12.0961
 179   2.0000      -0.442451       -12.0397
 180   2.0000      -0.439964       -11.9720
 181   2.0000      -0.439541       -11.9605
 182   2.0000      -0.439027       -11.9465
 183   2.0000      -0.435152       -11.8411
 184   2.0000      -0.434927       -11.8350
 185   2.0000      -0.432654       -11.7731
 186   2.0000      -0.432337       -11.7645
 187   2.0000      -0.427920       -11.6443
 188   2.0000      -0.426199       -11.5975
 189   2.0000      -0.425598       -11.5811
 190   2.0000      -0.418992       -11.4013
 191   2.0000      -0.416871       -11.3436
 192   2.0000      -0.409091       -11.1319
 193   2.0000      -0.400187       -10.8896
 194   2.0000      -0.379809       -10.3351
 195   2.0000      -0.373797       -10.1715
 196   2.0000      -0.369245       -10.0477
 197   2.0000      -0.368454       -10.0261
 198   2.0000      -0.363415        -9.8890
 199   2.0000      -0.350808        -9.5460
 200   2.0000      -0.342313        -9.3148
 201   2.0000      -0.340673        -9.2702
 202   2.0000      -0.327640        -8.9155
 203   2.0000      -0.323872        -8.8130
 204   2.0000      -0.322969        -8.7884
 205   2.0000      -0.322102        -8.7648
 206   2.0000      -0.316162        -8.6032
 207   2.0000      -0.313714        -8.5366
 208   2.0000      -0.290545        -7.9061
 209   2.0000      -0.266572        -7.2538
 210   2.0000      -0.250108        -6.8058
 211   0.0000      -0.104594        -2.8461
 212   0.0000      -0.095525        -2.5994
 213   0.0000      -0.056435        -1.5357
 214   0.0000      -0.036358        -0.9893
 215   0.0000      -0.013805        -0.3756

MULLIKEN ATOMIC CHARGES
-----------------------
   0 C :   -0.085757
   1 C :    0.038090
   2 C :   -0.035127
   3 C :   -0.116391
   4 S :    0.176918
   5 C :   -0.100055
   6 C :    0.015714
   7 C :    0.304110
   8 C :   -0.301639
   9 C :   -0.184276
  10 N :    0.164499
  11 C :   -0.190608
  12 N :    0.169582
  13 C :   -0.050296
  14 C :   -0.071461
  15 S :    0.161144
  16 C :    0.157340
  17 C :   -0.055288
  18 C :   -0.046777
  19 C :    0.029212
  20 C :    0.248148
  21 C :   -0.159088
  22 O :   -0.202262
  23 C :    0.113841
  24 N :   -0.049268
  25 C :    0.019563
  26 C :    0.004887
  27 C :   -0.042922
  28 C :    0.035636
  29 C :    0.259564
  30 C :   -0.126886
  31 O :   -0.205855
  32 C :    0.119003
  33 N :   -0.042103
  34 C :    0.012927
  35 C :    0.013359
  36 C :   -0.037521
  37 C :    0.040419
  38 C :    0.250079
  39 C :   -0.125882
  40 O :   -0.208051
  41 C :    0.134591
  42 N :   -0.042987
  43 C :   -0.131941
  44 C :   -0.028091
  45 C :    0.008757
  46 C :   -0.094119
  47 S :    0.229196
  48 C :   -0.117610
  49 C :   -0.024164
  50 C :    0.293809
  51 C :   -0.294573
  52 C :   -0.190640
  53 N :    0.173268
  54 C :   -0.191469
  55 N :    0.184201
  56 C :    0.033200
  57 C :   -0.075651
  58 S :    0.185404
  59 H :    0.034482
  60 H :    0.011051
  61 H :    0.001764
  62 H :   -0.010460
  63 H :   -0.021305
  64 H :   -0.014940
  65 H :   -0.001741
  66 H :   -0.015556
  67 H :    0.000153
  68 H :    0.005496
  69 H :   -0.012957
  70 H :   -0.003300
  71 H :    0.027670
  72 H :    0.013938
  73 H :    0.038005
Sum of atomic charges:   -0.0000000

LOEWDIN ATOMIC CHARGES
----------------------
   0 C :   -0.181214
   1 C :   -0.034282
   2 C :   -0.079710
   3 C :   -0.182293
   4 S :    0.474597
   5 C :   -0.185249
   6 C :   -0.071458
   7 C :    0.085661
   8 C :   -0.107349
   9 C :   -0.015242
  10 N :   -0.039154
  11 C :   -0.016924
  12 N :   -0.036265
  13 C :   -0.035005
  14 C :   -0.153706
  15 S :    0.476842
  16 C :   -0.039201
  17 C :   -0.035780
  18 C :   -0.016749
  19 C :   -0.030270
  20 C :    0.035557
  21 C :   -0.032278
  22 O :   -0.006244
  23 C :    0.077775
  24 N :   -0.109736
  25 C :   -0.055681
  26 C :   -0.008812
  27 C :   -0.020347
  28 C :   -0.019992
  29 C :    0.030040
  30 C :   -0.007588
  31 O :   -0.008090
  32 C :    0.080434
  33 N :   -0.106359
  34 C :   -0.054656
  35 C :    0.008111
  36 C :   -0.017986
  37 C :   -0.018522
  38 C :    0.029138
  39 C :   -0.021120
  40 O :   -0.017189
  41 C :    0.050730
  42 N :   -0.104559
  43 C :   -0.202972
  44 C :    0.009161
  45 C :   -0.073332
  46 C :   -0.171382
  47 S :    0.501237
  48 C :   -0.189039
  49 C :   -0.070431
  50 C :    0.080258
  51 C :   -0.099136
  52 C :   -0.016278
  53 N :   -0.031599
  54 C :   -0.019628
  55 N :   -0.025991
  56 C :   -0.034387
  57 C :   -0.172870
  58 S :    0.480591
  59 H :    0.026700
  60 H :    0.042079
  61 H :    0.036963
  62 H :    0.018892
  63 H :    0.036675
  64 H :    0.037798
  65 H :    0.033810
  66 H :    0.038074
  67 H :    0.043488
  68 H :    0.038816
  69 H :    0.039735
  70 H :    0.040161
  71 H :    0.050750
  72 H :    0.043283
  73 H :    0.028702

  Mayer bond orders larger than 0.100000
B(  0-C ,  1-C ) :   1.5503 B(  0-C ,  4-S ) :   1.1473 B(  0-C , 59-H ) :   0.9646
B(  1-C ,  2-C ) :   1.2750 B(  1-C , 60-H ) :   0.9966 B(  2-C ,  3-C ) :   1.4640
B(  2-C ,  7-C ) :   1.0138 B(  3-C ,  4-S ) :   1.1380 B(  3-C ,  5-C ) :   1.1697
B(  5-C ,  6-C ) :   1.4735 B(  5-C , 15-S ) :   1.1229 B(  6-C ,  7-C ) :   1.0007
B(  6-C , 13-C ) :   1.2598 B(  7-C ,  8-C ) :   1.7043 B(  8-C ,  9-C ) :   1.1344
B(  8-C , 11-C ) :   1.1294 B(  9-C , 10-N ) :   2.9867 B( 11-C , 12-N ) :   3.0021
B( 13-C , 14-C ) :   1.5042 B( 13-C , 61-H ) :   0.9908 B( 14-C , 15-S ) :   1.1078
B( 14-C , 16-C ) :   1.0739 B( 16-C , 17-C ) :   1.2976 B( 16-C , 21-C ) :   1.3308
B( 17-C , 18-C ) :   1.4136 B( 17-C , 62-H ) :   0.9796 B( 18-C , 19-C ) :   1.3007
B( 18-C , 21-C ) :   0.1004 B( 18-C , 63-H ) :   1.0175 B( 19-C , 20-C ) :   1.2711
B( 19-C , 24-N ) :   1.2925 B( 20-C , 21-C ) :   1.3322 B( 20-C , 22-O ) :   1.1002
B( 21-C , 64-H ) :   1.0192 B( 22-O , 23-C ) :   1.1571 B( 23-C , 24-N ) :   1.7709
B( 23-C , 25-C ) :   1.0258 B( 25-C , 26-C ) :   1.3158 B( 25-C , 30-C ) :   1.3354
B( 26-C , 27-C ) :   1.3834 B( 26-C , 65-H ) :   0.9906 B( 27-C , 28-C ) :   1.2969
B( 27-C , 30-C ) :   0.1021 B( 27-C , 66-H ) :   1.0201 B( 28-C , 29-C ) :   1.2603
B( 28-C , 33-N ) :   1.2934 B( 29-C , 30-C ) :   1.3022 B( 29-C , 31-O ) :   1.0899
B( 30-C , 67-H ) :   1.0294 B( 31-O , 32-C ) :   1.1631 B( 32-C , 33-N ) :   1.7664
B( 32-C , 34-C ) :   1.0279 B( 34-C , 35-C ) :   1.3437 B( 34-C , 39-C ) :   1.3076
B( 35-C , 36-C ) :   1.3837 B( 35-C , 68-H ) :   0.9876 B( 36-C , 37-C ) :   1.2834
B( 36-C , 69-H ) :   1.0231 B( 37-C , 38-C ) :   1.2654 B( 37-C , 42-N ) :   1.2947
B( 38-C , 39-C ) :   1.3160 B( 38-C , 40-O ) :   1.0862 B( 39-C , 70-H ) :   1.0254
B( 40-O , 41-C ) :   1.1874 B( 41-C , 42-N ) :   1.7750 B( 41-C , 43-C ) :   1.0606
B( 43-C , 44-C ) :   1.4879 B( 43-C , 47-S ) :   1.0988 B( 44-C , 45-C ) :   1.2687
B( 44-C , 71-H ) :   1.0084 B( 45-C , 46-C ) :   1.4473 B( 45-C , 50-C ) :   0.9875
B( 46-C , 47-S ) :   1.1417 B( 46-C , 48-C ) :   1.1827 B( 48-C , 49-C ) :   1.4606
B( 48-C , 58-S ) :   1.1330 B( 49-C , 50-C ) :   1.0154 B( 49-C , 56-C ) :   1.2770
B( 50-C , 51-C ) :   1.7188 B( 51-C , 52-C ) :   1.1315 B( 51-C , 54-C ) :   1.1317
B( 52-C , 53-N ) :   2.9999 B( 54-C , 55-N ) :   3.0005 B( 56-C , 57-C ) :   1.5469
B( 56-C , 72-H ) :   0.9965 B( 57-C , 58-S ) :   1.1552 B( 57-C , 73-H ) :   0.9643

-----------------------------------------------------------------------------
         ABSORPTION SPECTRUM VIA TRANSITION ELECTRIC DIPOLE MOMENTS
-----------------------------------------------------------------------------
State   Energy  Wavelength   fosc         T2         TX        TY        TZ
        (cm-1)    (nm)                  (au**2)     (au)      (au)      (au)
-----------------------------------------------------------------------------
   0   14594.7    685.2   0.070299606   1.58574   0.73147  -1.00487  -0.20231
   1   16209.2    616.9   0.088926534   1.80612   0.76234  -0.87710   0.67503
   2   25293.0    395.4   0.356042735   4.63422  -1.27907   1.72405  -0.16081
   3   26912.1    371.6   0.771148746   9.43336  -1.79454   2.48790   0.15277
   4   27959.5    357.7   2.196883824  25.86744   3.02079  -4.06763   0.44348
   5   28945.5    345.5   0.036829920   0.41889  -0.27671   0.47064   0.34758
   6   30541.6    327.4   0.104357981   1.12489  -0.00333  -0.27757  -1.02364
   7   31625.7    316.2   0.127009694   1.32212  -0.51286   0.59114  -0.84240
   8   32118.6    311.3   0.447337703   4.58516   0.49999  -1.15094  -1.73508
   9   32341.1    309.2   0.838365555   8.53403   0.04077   0.36804   2.89774
  10   33310.6    300.2   0.193837344   1.91571   0.61390  -0.97367  -0.76863
  11   33694.7    296.8   0.127338963   1.24416   0.56262  -0.61931   0.73761
  12   34559.3    289.4   0.119947132   1.14262   0.37797  -0.34625   0.93801
  13   34637.5    288.7   0.025412653   0.24153   0.18213  -0.30184  -0.34243
  14   34856.4    286.9   0.283632604   2.67886  -1.01877   1.22153  -0.38578
  15   35540.9    281.4   0.120922302   1.12009  -0.56184   0.82612   0.34922
  16   36229.7    276.0   0.209545775   1.90410  -0.19499  -0.13043  -1.35980
  17   37034.5    270.0   0.015088962   0.13413   0.00325   0.02379   0.36545
  18   38403.6    260.4   0.099560217   0.85347   0.52464  -0.72534  -0.22828
  19   38422.3    260.3   0.020379710   0.17462  -0.15092   0.10388  -0.37556
  20   39606.1    252.5   0.016213705   0.13477   0.16054  -0.10422   0.31327
  21   39934.3    250.4   0.014149946   0.11665  -0.00926   0.09854   0.32688

FINAL SINGLE POINT ENERGY     -3922.051969298489

DIPOLE MOMENT
-------------
                                X             Y             Z
Electronic contribution:     -7.47677       8.66797      -8.13880
Nuclear contribution   :      7.21288      -9.02067       4.22112
                        -----------------------------------------
Total Dipole Moment    :     -0.26389      -0.35270      -3.91768
                        -----------------------------------------
Magnitude (a.u.)       :      3.94236
Magnitude (Debye)      :     10.02070

Rotational constants in cm-1:     0.004178     0.000207     0.000197
Rotational constants in MHz :   125.258349     6.206949     5.914648

                             ****ORCA TERMINATED NORMALLY****
TOTAL RUN TIME: 0 days 0 hours 5 minutes 45 seconds 402 msec
