                         Program Version 4.2.0 -  RELEASE  -
|  1> # ORCA input file
|  2> # SCF done       -222.298909291816          0.000369480669
|  3> ! CAM-B3LYP def2-SVP def2/J RIJCOSX Grid4 TightSCF
|  4> %maxcore 5000
|  5> %tddft
|  6>     Mode sTDDFT
|  7>     Ethresh 5.0
|  8>     maxcore 5000
|  9> end
| 10>
| 11> %pal
| 12>   nprocs 6
| 13>   end
| 14> * xyz 0 1
| 15>    C       -1.66732         3.23944         1.34288
| 16>    C       -0.91071         4.02036         0.51514
| 17>    F       -0.70948         5.31218         0.80639
| 18>    C       -0.33356         3.48035        -0.65205
| 19>    F        0.40345         4.27023        -1.44425
| 20>    C       -0.52184         2.16597        -0.97578
| 21>    C       -1.29704         1.33569        -0.14312
| 22>    C       -1.88009         1.87970         1.03808
| 23>    C       -2.65913         1.06537         1.89150
| 24>    C       -2.85039        -0.25420         1.57367
| 25>    C       -2.26998        -0.78411         0.39006
| 26>    C       -1.51154        -0.02509        -0.45363
| 27>    C       -2.62555        -2.20932         0.25908
| 28>    O       -2.28530        -2.93808        -0.64846
| 29>    C       -3.47885        -2.52179         1.42996
| 30>    C       -3.58194        -1.32325         2.24855
| 31>    C       -4.20890        -1.19139         3.46117
| 32>    C       -4.87821        -2.20604         4.17793
| 33>    N       -5.43325        -2.96599         4.83724
| 34>    C       -4.25805         0.01244         4.19707
| 35>    N       -4.34265         0.95388         4.84839
| 36>    C       -4.13577        -3.69055         1.71273
| 37>    C       -4.13833        -4.94411         1.07410
| 38>    C       -3.43422        -5.46636        -0.00580
| 39>    C       -3.77100        -6.78669        -0.26262
| 40>    C       -4.74768        -7.29604         0.62643
| 41>    S       -5.23688        -6.14815         1.77650
| 42>    C       -5.02563        -8.63496         0.26845
| 43>    C       -4.23298        -8.98033        -0.84035
| 44>    C       -3.41343        -7.83319        -1.20654
| 45>    C       -2.50270        -7.77197        -2.21826
| 46>    C       -2.25822        -8.87601        -3.06427
| 47>    N       -2.06012        -9.77259        -3.75065
| 48>    C       -1.72864        -6.62435        -2.50028
| 49>    N       -1.07586        -5.71786        -2.75535
| 50>    C       -4.44555       -10.28768        -1.27232
| 51>    C       -5.39310       -10.93987        -0.50240
| 52>    S       -6.02950        -9.92310         0.77837
| 53>    C       -5.86344       -12.26763        -0.66781
| 54>    C       -6.80853       -12.93121         0.08675
| 55>    C       -7.03288       -14.22455        -0.38473
| 56>    C       -6.25809       -14.55720        -1.50388
| 57>    S       -5.23488       -13.25489        -1.97755
| 58>    C       -6.51764       -15.85099        -1.96217
| 59>    C       -7.49054       -16.50253        -1.19236
| 60>    S       -8.08732       -15.51750         0.11349
| 61>    C       -7.78545       -17.79128        -1.63688
| 62>    C       -7.04126       -18.13304        -2.74696
| 63>    S       -5.95455       -16.84752        -3.24925
| 64>    C       -7.08256       -19.34209        -3.48686
| 65>    C       -6.32245       -19.66458        -4.59822
| 66>    C       -6.63637       -20.92708        -5.09496
| 67>    C       -7.64389       -21.57245        -4.35645
| 68>    S       -8.19919       -20.62246        -3.04703
| 69>    C       -7.90586       -22.82814        -4.95194
| 70>    C       -7.05518       -22.98458        -6.06706
| 71>    C       -6.22863       -21.79630        -6.18981
| 72>    C       -5.27173       -21.54410        -7.12716
| 73>    C       -4.94931       -22.47194        -8.14100
| 74>    N       -4.67866       -23.22631        -8.96045
| 75>    C       -4.53296       -20.34140        -7.13824
| 76>    N       -3.92914       -19.36703        -7.14645
| 77>    C       -7.24214       -24.19624        -6.71983
| 78>    C       -8.25323       -24.95584        -6.14695
| 79>    S       -8.93665       -24.16180        -4.72637
| 80>    C       -8.63937       -26.24643        -6.56740
| 81>    C       -9.75297       -26.97181        -6.26803
| 82>    C       -9.71684       -28.45236        -6.42637
| 83>    O       -8.88051       -29.09769        -7.01322
| 84>    C      -10.87827       -28.94933        -5.66003
| 85>    C      -11.23600       -30.23724        -5.38405
| 86>    C      -12.38670       -30.47705        -4.59973
| 87>    C      -13.14312       -29.37255        -4.11015
| 88>    C      -14.28492       -29.61984        -3.32192
| 89>    C      -14.66040       -30.90252        -3.03650
| 90>    C      -13.91311       -31.99403        -3.52319
| 91>    C      -12.79991       -31.78715        -4.28868
| 92>    F      -14.30404       -33.24039        -3.22666
| 93>    F      -15.74616       -31.13512        -2.28790
| 94>    C      -12.75311       -28.04924        -4.41949
| 95>    C      -11.64053       -27.84193        -5.18935
| 96>    C      -11.03429       -26.61527        -5.70065
| 97>    C      -11.69114       -25.42391        -5.87110
| 98>    C      -11.17929       -24.36562        -6.64910
| 99>    N      -10.80781       -23.50466        -7.31154
|100>    C      -12.98324       -25.16374        -5.37274
|101>    N      -14.02314       -24.89838        -4.96593
|102>    H       -2.10081         3.66869         2.23269
|103>    H       -0.07392         1.76698        -1.87235
|104>    H       -3.08601         1.51123         2.77479
|105>    H       -1.08277        -0.45976        -1.34373
|106>    H       -4.78471        -3.66647         2.58027
|107>    H       -2.72240        -4.88308        -0.56276
|108>    H       -3.94964       -10.75843        -2.10202
|109>    H       -7.30716       -12.49208         0.93142
|110>    H       -8.50534       -18.44671        -1.18184
|111>    H       -5.58690       -18.99785        -5.01113
|112>    H       -6.70330       -24.51977        -7.59210
|113>    H       -7.89770       -26.77510        -7.16004
|114>    H      -10.65017       -31.06231        -5.75954
|115>    H      -14.87079       -28.79609        -2.94509
|116>    H      -12.23870       -32.63304        -4.65365
|117>    H      -13.33863       -27.23059        -4.03201
|118> *
|119>
|120>                          ****END OF INPUT****

CARTESIAN COORDINATES (ANGSTROEM)
---------------------------------
  C     -1.667320    3.239440    1.342880
  C     -0.910710    4.020360    0.515140
  F     -0.709480    5.312180    0.806390
  C     -0.333560    3.480350   -0.652050
  F      0.403450    4.270230   -1.444250
  C     -0.521840    2.165970   -0.975780
  C     -1.297040    1.335690   -0.143120
  C     -1.880090    1.879700    1.038080
  C     -2.659130    1.065370    1.891500
  C     -2.850390   -0.254200    1.573670
  C     -2.269980   -0.784110    0.390060
  C     -1.511540   -0.025090   -0.453630
  C     -2.625550   -2.209320    0.259080
  O     -2.285300   -2.938080   -0.648460
  C     -3.478850   -2.521790    1.429960
  C     -3.581940   -1.323250    2.248550
  C     -4.208900   -1.191390    3.461170
  C     -4.878210   -2.206040    4.177930
  N     -5.433250   -2.965990    4.837240
  C     -4.258050    0.012440    4.197070
  N     -4.342650    0.953880    4.848390
  C     -4.135770   -3.690550    1.712730
  C     -4.138330   -4.944110    1.074100
  C     -3.434220   -5.466360   -0.005800
  C     -3.771000   -6.786690   -0.262620
  C     -4.747680   -7.296040    0.626430
  S     -5.236880   -6.148150    1.776500
  C     -5.025630   -8.634960    0.268450
  C     -4.232980   -8.980330   -0.840350
  C     -3.413430   -7.833190   -1.206540
  C     -2.502700   -7.771970   -2.218260
  C     -2.258220   -8.876010   -3.064270
  N     -2.060120   -9.772590   -3.750650
  C     -1.728640   -6.624350   -2.500280
  N     -1.075860   -5.717860   -2.755350
  C     -4.445550  -10.287680   -1.272320
  C     -5.393100  -10.939870   -0.502400
  S     -6.029500   -9.923100    0.778370
  C     -5.863440  -12.267630   -0.667810
  C     -6.808530  -12.931210    0.086750
  C     -7.032880  -14.224550   -0.384730
  C     -6.258090  -14.557200   -1.503880
  S     -5.234880  -13.254890   -1.977550
  C     -6.517640  -15.850990   -1.962170
  C     -7.490540  -16.502530   -1.192360
  S     -8.087320  -15.517500    0.113490
  C     -7.785450  -17.791280   -1.636880
  C     -7.041260  -18.133040   -2.746960
  S     -5.954550  -16.847520   -3.249250
  C     -7.082560  -19.342090   -3.486860
  C     -6.322450  -19.664580   -4.598220
  C     -6.636370  -20.927080   -5.094960
  C     -7.643890  -21.572450   -4.356450
  S     -8.199190  -20.622460   -3.047030
  C     -7.905860  -22.828140   -4.951940
  C     -7.055180  -22.984580   -6.067060
  C     -6.228630  -21.796300   -6.189810
  C     -5.271730  -21.544100   -7.127160
  C     -4.949310  -22.471940   -8.141000
  N     -4.678660  -23.226310   -8.960450
  C     -4.532960  -20.341400   -7.138240
  N     -3.929140  -19.367030   -7.146450
  C     -7.242140  -24.196240   -6.719830
  C     -8.253230  -24.955840   -6.146950
  S     -8.936650  -24.161800   -4.726370
  C     -8.639370  -26.246430   -6.567400
  C     -9.752970  -26.971810   -6.268030
  C     -9.716840  -28.452360   -6.426370
  O     -8.880510  -29.097690   -7.013220
  C    -10.878270  -28.949330   -5.660030
  C    -11.236000  -30.237240   -5.384050
  C    -12.386700  -30.477050   -4.599730
  C    -13.143120  -29.372550   -4.110150
  C    -14.284920  -29.619840   -3.321920
  C    -14.660400  -30.902520   -3.036500
  C    -13.913110  -31.994030   -3.523190
  C    -12.799910  -31.787150   -4.288680
  F    -14.304040  -33.240390   -3.226660
  F    -15.746160  -31.135120   -2.287900
  C    -12.753110  -28.049240   -4.419490
  C    -11.640530  -27.841930   -5.189350
  C    -11.034290  -26.615270   -5.700650
  C    -11.691140  -25.423910   -5.871100
  C    -11.179290  -24.365620   -6.649100
  N    -10.807810  -23.504660   -7.311540
  C    -12.983240  -25.163740   -5.372740
  N    -14.023140  -24.898380   -4.965930
  H     -2.100810    3.668690    2.232690
  H     -0.073920    1.766980   -1.872350
  H     -3.086010    1.511230    2.774790
  H     -1.082770   -0.459760   -1.343730
  H     -4.784710   -3.666470    2.580270
  H     -2.722400   -4.883080   -0.562760
  H     -3.949640  -10.758430   -2.102020
  H     -7.307160  -12.492080    0.931420
  H     -8.505340  -18.446710   -1.181840
  H     -5.586900  -18.997850   -5.011130
  H     -6.703300  -24.519770   -7.592100
  H     -7.897700  -26.775100   -7.160040
  H    -10.650170  -31.062310   -5.759540
  H    -14.870790  -28.796090   -2.945090
  H    -12.238700  -32.633040   -4.653650
  H    -13.338630  -27.230590   -4.032010

 Total Charge           Charge          ....    0
 Multiplicity           Mult            ....    1
 Number of Electrons    NEL             ....  632
 Basis Dimension        Dim             .... 1326

ORBITAL ENERGIES
----------------

  NO   OCC          E(Eh)            E(eV)
   0   2.0000     -89.003138     -2421.8985
   1   2.0000     -89.002994     -2421.8946
   2   2.0000     -89.002230     -2421.8738
   3   2.0000     -89.000637     -2421.8305
   4   2.0000     -88.984157     -2421.3820
   5   2.0000     -88.983906     -2421.3752
   6   2.0000     -88.978482     -2421.2276
   7   2.0000     -24.801667      -674.8877
   8   2.0000     -24.801363      -674.8794
   9   2.0000     -24.798434      -674.7997
  10   2.0000     -24.797600      -674.7770
  11   2.0000     -19.222553      -523.0723
  12   2.0000     -19.220388      -523.0134
  13   2.0000     -14.438692      -392.8968
  14   2.0000     -14.438335      -392.8871
  15   2.0000     -14.438093      -392.8805
  16   2.0000     -14.434069      -392.7710
  17   2.0000     -14.422992      -392.4696
  18   2.0000     -14.421816      -392.4376
  19   2.0000     -14.421651      -392.4331
  20   2.0000     -14.417086      -392.3088
  21   2.0000     -10.385188      -282.5953
  22   2.0000     -10.384792      -282.5845
  23   2.0000     -10.381861      -282.5048
  24   2.0000     -10.381059      -282.4830
  25   2.0000     -10.375160      -282.3224
  26   2.0000     -10.374481      -282.3040
  27   2.0000     -10.373580      -282.2795
  28   2.0000     -10.372341      -282.2457
  29   2.0000     -10.361854      -281.9604
  30   2.0000     -10.360374      -281.9201
  31   2.0000     -10.352738      -281.7123
  32   2.0000     -10.352499      -281.7058
  33   2.0000     -10.350789      -281.6593
  34   2.0000     -10.349910      -281.6354
  35   2.0000     -10.345938      -281.5273
  36   2.0000     -10.345412      -281.5130
  37   2.0000     -10.345007      -281.5020
  38   2.0000     -10.344707      -281.4938
  39   2.0000     -10.342343      -281.4295
  40   2.0000     -10.342232      -281.4264
  41   2.0000     -10.338581      -281.3271
  42   2.0000     -10.338001      -281.3113
  43   2.0000     -10.337916      -281.3090
  44   2.0000     -10.336501      -281.2705
  45   2.0000     -10.336404      -281.2679
  46   2.0000     -10.334071      -281.2044
  47   2.0000     -10.333415      -281.1865
  48   2.0000     -10.332811      -281.1701
  49   2.0000     -10.332218      -281.1539
  50   2.0000     -10.331302      -281.1290
  51   2.0000     -10.329008      -281.0666
  52   2.0000     -10.328646      -281.0567
  53   2.0000     -10.325526      -280.9719
  54   2.0000     -10.325042      -280.9587
  55   2.0000     -10.324991      -280.9573
  56   2.0000     -10.324874      -280.9541
  57   2.0000     -10.323583      -280.9190
  58   2.0000     -10.320576      -280.8372
  59   2.0000     -10.320507      -280.8353
  60   2.0000     -10.320424      -280.8330
  61   2.0000     -10.319797      -280.8160
  62   2.0000     -10.315100      -280.6881
  63   2.0000     -10.314603      -280.6746
  64   2.0000     -10.314058      -280.6598
  65   2.0000     -10.313471      -280.6438
  66   2.0000     -10.313332      -280.6400
  67   2.0000     -10.313057      -280.6326
  68   2.0000     -10.313010      -280.6313
  69   2.0000     -10.311047      -280.5779
  70   2.0000     -10.310957      -280.5754
  71   2.0000     -10.310793      -280.5709
  72   2.0000     -10.310141      -280.5532
  73   2.0000     -10.309761      -280.5428
  74   2.0000     -10.308499      -280.5085
  75   2.0000     -10.307511      -280.4816
  76   2.0000     -10.307161      -280.4721
  77   2.0000     -10.305748      -280.4337
  78   2.0000     -10.304938      -280.4116
  79   2.0000     -10.304435      -280.3979
  80   2.0000     -10.304338      -280.3953
  81   2.0000     -10.303329      -280.3678
  82   2.0000     -10.302605      -280.3481
  83   2.0000     -10.301306      -280.3128
  84   2.0000     -10.300775      -280.2983
  85   2.0000     -10.298718      -280.2424
  86   2.0000     -10.293639      -280.1042
  87   2.0000      -8.097700      -220.3496
  88   2.0000      -8.097641      -220.3480
  89   2.0000      -8.096470      -220.3161
  90   2.0000      -8.095472      -220.2890
  91   2.0000      -8.079183      -219.8457
  92   2.0000      -8.078935      -219.8390
  93   2.0000      -8.073735      -219.6975
  94   2.0000      -6.067022      -165.0921
  95   2.0000      -6.066972      -165.0907
  96   2.0000      -6.065726      -165.0568
  97   2.0000      -6.064550      -165.0248
  98   2.0000      -6.062838      -164.9782
  99   2.0000      -6.062788      -164.9769
 100   2.0000      -6.061493      -164.9416
 101   2.0000      -6.060437      -164.9129
 102   2.0000      -6.059896      -164.8982
 103   2.0000      -6.059803      -164.8956
 104   2.0000      -6.058863      -164.8700
 105   2.0000      -6.058005      -164.8467
 106   2.0000      -6.048801      -164.5962
 107   2.0000      -6.048559      -164.5897
 108   2.0000      -6.044713      -164.4850
 109   2.0000      -6.044472      -164.4785
 110   2.0000      -6.043487      -164.4517
 111   2.0000      -6.040576      -164.3724
 112   2.0000      -6.040335      -164.3659
 113   2.0000      -6.039617      -164.3463
 114   2.0000      -6.034651      -164.2112
 115   2.0000      -1.324577       -36.0436
 116   2.0000      -1.321032       -35.9471
 117   2.0000      -1.309713       -35.6391
 118   2.0000      -1.306134       -35.5417
 119   2.0000      -1.138303       -30.9748
 120   2.0000      -1.136295       -30.9202
 121   2.0000      -1.057674       -28.7808
 122   2.0000      -1.056808       -28.7572
 123   2.0000      -1.041161       -28.3314
 124   2.0000      -1.031039       -28.0560
 125   2.0000      -1.028999       -28.0005
 126   2.0000      -1.027085       -27.9484
 127   2.0000      -1.023546       -27.8521
 128   2.0000      -1.017239       -27.6805
 129   2.0000      -1.015592       -27.6357
 130   2.0000      -1.012794       -27.5595
 131   2.0000      -1.010371       -27.4936
 132   2.0000      -1.009265       -27.4635
 133   2.0000      -1.006772       -27.3957
 134   2.0000      -1.000965       -27.2376
 135   2.0000      -0.997856       -27.1531
 136   2.0000      -0.995971       -27.1017
 137   2.0000      -0.986721       -26.8500
 138   2.0000      -0.983358       -26.7585
 139   2.0000      -0.972022       -26.4501
 140   2.0000      -0.967502       -26.3271
 141   2.0000      -0.947080       -25.7713
 142   2.0000      -0.938562       -25.5396
 143   2.0000      -0.935867       -25.4662
 144   2.0000      -0.926207       -25.2034
 145   2.0000      -0.923327       -25.1250
 146   2.0000      -0.907435       -24.6926
 147   2.0000      -0.904066       -24.6009
 148   2.0000      -0.897447       -24.4208
 149   2.0000      -0.893545       -24.3146
 150   2.0000      -0.889499       -24.2045
 151   2.0000      -0.886163       -24.1137
 152   2.0000      -0.884271       -24.0622
 153   2.0000      -0.879684       -23.9374
 154   2.0000      -0.872154       -23.7325
 155   2.0000      -0.870440       -23.6859
 156   2.0000      -0.867337       -23.6014
 157   2.0000      -0.854497       -23.2521
 158   2.0000      -0.845815       -23.0158
 159   2.0000      -0.844939       -22.9920
 160   2.0000      -0.841369       -22.8948
 161   2.0000      -0.830644       -22.6030
 162   2.0000      -0.817054       -22.2332
 163   2.0000      -0.811098       -22.0711
 164   2.0000      -0.797543       -21.7022
 165   2.0000      -0.787397       -21.4262
 166   2.0000      -0.785367       -21.3709
 167   2.0000      -0.775373       -21.0990
 168   2.0000      -0.770405       -20.9638
 169   2.0000      -0.770133       -20.9564
 170   2.0000      -0.757732       -20.6189
 171   2.0000      -0.744070       -20.2472
 172   2.0000      -0.735226       -20.0065
 173   2.0000      -0.724282       -19.7087
 174   2.0000      -0.722705       -19.6658
 175   2.0000      -0.718034       -19.5387
 176   2.0000      -0.714955       -19.4549
 177   2.0000      -0.710655       -19.3379
 178   2.0000      -0.701097       -19.0778
 179   2.0000      -0.697099       -18.9690
 180   2.0000      -0.694570       -18.9002
 181   2.0000      -0.693942       -18.8831
 182   2.0000      -0.689384       -18.7591
 183   2.0000      -0.685369       -18.6498
 184   2.0000      -0.674717       -18.3600
 185   2.0000      -0.671510       -18.2727
 186   2.0000      -0.667186       -18.1550
 187   2.0000      -0.659240       -17.9388
 188   2.0000      -0.657551       -17.8929
 189   2.0000      -0.649747       -17.6805
 190   2.0000      -0.647085       -17.6081
 191   2.0000      -0.646308       -17.5869
 192   2.0000      -0.642959       -17.4958
 193   2.0000      -0.642189       -17.4748
 194   2.0000      -0.636801       -17.3282
 195   2.0000      -0.634265       -17.2592
 196   2.0000      -0.629925       -17.1411
 197   2.0000      -0.627399       -17.0724
 198   2.0000      -0.625679       -17.0256
 199   2.0000      -0.620920       -16.8961
 200   2.0000      -0.619415       -16.8551
 201   2.0000      -0.611689       -16.6449
 202   2.0000      -0.599600       -16.3159
 203   2.0000      -0.597490       -16.2585
 204   2.0000      -0.591475       -16.0948
 205   2.0000      -0.590336       -16.0639
 206   2.0000      -0.589038       -16.0285
 207   2.0000      -0.585579       -15.9344
 208   2.0000      -0.583367       -15.8742
 209   2.0000      -0.580023       -15.7832
 210   2.0000      -0.575115       -15.6497
 211   2.0000      -0.571326       -15.5466
 212   2.0000      -0.559904       -15.2358
 213   2.0000      -0.559759       -15.2318
 214   2.0000      -0.558979       -15.2106
 215   2.0000      -0.557976       -15.1833
 216   2.0000      -0.555007       -15.1025
 217   2.0000      -0.553740       -15.0680
 218   2.0000      -0.550610       -14.9829
 219   2.0000      -0.547140       -14.8884
 220   2.0000      -0.545997       -14.8573
 221   2.0000      -0.543839       -14.7986
 222   2.0000      -0.542586       -14.7645
 223   2.0000      -0.541686       -14.7400
 224   2.0000      -0.539388       -14.6775
 225   2.0000      -0.539186       -14.6720
 226   2.0000      -0.536192       -14.5905
 227   2.0000      -0.533720       -14.5233
 228   2.0000      -0.530639       -14.4394
 229   2.0000      -0.528723       -14.3873
 230   2.0000      -0.523336       -14.2407
 231   2.0000      -0.521243       -14.1837
 232   2.0000      -0.517650       -14.0860
 233   2.0000      -0.517125       -14.0717
 234   2.0000      -0.516594       -14.0572
 235   2.0000      -0.516055       -14.0426
 236   2.0000      -0.512922       -13.9573
 237   2.0000      -0.511681       -13.9236
 238   2.0000      -0.511099       -13.9077
 239   2.0000      -0.509902       -13.8752
 240   2.0000      -0.506250       -13.7758
 241   2.0000      -0.505083       -13.7440
 242   2.0000      -0.502482       -13.6732
 243   2.0000      -0.500642       -13.6232
 244   2.0000      -0.500154       -13.6099
 245   2.0000      -0.497384       -13.5345
 246   2.0000      -0.496142       -13.5007
 247   2.0000      -0.493168       -13.4198
 248   2.0000      -0.488962       -13.3053
 249   2.0000      -0.488753       -13.2997
 250   2.0000      -0.487517       -13.2660
 251   2.0000      -0.486092       -13.2272
 252   2.0000      -0.479373       -13.0444
 253   2.0000      -0.476809       -12.9746
 254   2.0000      -0.473619       -12.8878
 255   2.0000      -0.470803       -12.8112
 256   2.0000      -0.470076       -12.7914
 257   2.0000      -0.468750       -12.7553
 258   2.0000      -0.467618       -12.7245
 259   2.0000      -0.467263       -12.7149
 260   2.0000      -0.464975       -12.6526
 261   2.0000      -0.463898       -12.6233
 262   2.0000      -0.460711       -12.5366
 263   2.0000      -0.457447       -12.4478
 264   2.0000      -0.456780       -12.4296
 265   2.0000      -0.454989       -12.3809
 266   2.0000      -0.453553       -12.3418
 267   2.0000      -0.451867       -12.2959
 268   2.0000      -0.451509       -12.2862
 269   2.0000      -0.450631       -12.2623
 270   2.0000      -0.449325       -12.2268
 271   2.0000      -0.448180       -12.1956
 272   2.0000      -0.448128       -12.1942
 273   2.0000      -0.447797       -12.1852
 274   2.0000      -0.447114       -12.1666
 275   2.0000      -0.446072       -12.1382
 276   2.0000      -0.445383       -12.1195
 277   2.0000      -0.445235       -12.1155
 278   2.0000      -0.439400       -11.9567
 279   2.0000      -0.436942       -11.8898
 280   2.0000      -0.435096       -11.8396
 281   2.0000      -0.434270       -11.8171
 282   2.0000      -0.433495       -11.7960
 283   2.0000      -0.432220       -11.7613
 284   2.0000      -0.431611       -11.7447
 285   2.0000      -0.429556       -11.6888
 286   2.0000      -0.429382       -11.6841
 287   2.0000      -0.426106       -11.5949
 288   2.0000      -0.425878       -11.5887
 289   2.0000      -0.418330       -11.3833
 290   2.0000      -0.413652       -11.2560
 291   2.0000      -0.410827       -11.1792
 292   2.0000      -0.408846       -11.1253
 293   2.0000      -0.405443       -11.0327
 294   2.0000      -0.397453       -10.8152
 295   2.0000      -0.392698       -10.6858
 296   2.0000      -0.388368       -10.5680
 297   2.0000      -0.382864       -10.4183
 298   2.0000      -0.372415       -10.1339
 299   2.0000      -0.362896        -9.8749
 300   2.0000      -0.360386        -9.8066
 301   2.0000      -0.355221        -9.6661
 302   2.0000      -0.353724        -9.6253
 303   2.0000      -0.344436        -9.3726
 304   2.0000      -0.342730        -9.3262
 305   2.0000      -0.335675        -9.1342
 306   2.0000      -0.332334        -9.0433
 307   2.0000      -0.328275        -8.9328
 308   2.0000      -0.321833        -8.7575
 309   2.0000      -0.319048        -8.6817
 310   2.0000      -0.308501        -8.3948
 311   2.0000      -0.305641        -8.3169
 312   2.0000      -0.303995        -8.2721
 313   2.0000      -0.297593        -8.0979
 314   2.0000      -0.275011        -7.4834
 315   2.0000      -0.249342        -6.7849
 316   0.0000      -0.123480        -3.3601
 317   0.0000      -0.118126        -3.2144
 318   0.0000      -0.096607        -2.6288
 319   0.0000      -0.095579        -2.6008
 320   0.0000      -0.067981        -1.8499

MULLIKEN ATOMIC CHARGES
-----------------------
   0 C :   -0.108442
   1 C :    0.242032
   2 F :   -0.170960
   3 C :    0.239208
   4 F :   -0.171190
   5 C :   -0.104975
   6 C :    0.117738
   7 C :    0.114668
   8 C :   -0.084734
   9 C :    0.048929
  10 C :   -0.001574
  11 C :   -0.082051
  12 C :    0.157189
  13 O :   -0.148135
  14 C :   -0.089214
  15 C :    0.326117
  16 C :   -0.365842
  17 C :   -0.183671
  18 N :    0.148092
  19 C :   -0.181205
  20 N :    0.144834
  21 C :    0.037906
  22 C :   -0.114114
  23 C :   -0.014342
  24 C :   -0.004545
  25 C :   -0.076417
  26 S :    0.205262
  27 C :   -0.108871
  28 C :    0.028015
  29 C :    0.310431
  30 C :   -0.291571
  31 C :   -0.190903
  32 N :    0.174186
  33 C :   -0.191471
  34 N :    0.197213
  35 C :   -0.071298
  36 C :   -0.030743
  37 S :    0.195575
  38 C :   -0.053963
  39 C :   -0.063642
  40 C :   -0.021667
  41 C :   -0.071006
  42 S :    0.168948
  43 C :   -0.070575
  44 C :   -0.020873
  45 S :    0.167933
  46 C :   -0.065380
  47 C :   -0.052626
  48 S :    0.167933
  49 C :   -0.033143
  50 C :   -0.070426
  51 C :    0.027095
  52 C :   -0.104340
  53 S :    0.197933
  54 C :   -0.076838
  55 C :    0.022950
  56 C :    0.299086
  57 C :   -0.286998
  58 C :   -0.189471
  59 N :    0.179739
  60 C :   -0.188564
  61 N :    0.179422
  62 C :    0.003196
  63 C :   -0.088315
  64 S :    0.207419
  65 C :    0.040362
  66 C :   -0.139354
  67 C :    0.141341
  68 O :   -0.138387
  69 C :    0.011119
  70 C :   -0.079021
  71 C :    0.109266
  72 C :    0.110331
  73 C :   -0.104798
  74 C :    0.241115
  75 C :    0.238840
  76 C :   -0.102023
  77 F :   -0.170966
  78 F :   -0.170280
  79 C :   -0.079416
  80 C :    0.038677
  81 C :    0.251829
  82 C :   -0.330664
  83 C :   -0.211305
  84 N :    0.173901
  85 C :   -0.171434
  86 N :    0.155800
  87 H :    0.007331
  88 H :    0.000888
  89 H :   -0.006099
  90 H :   -0.005985
  91 H :    0.002791
  92 H :    0.040368
  93 H :    0.018760
  94 H :   -0.003967
  95 H :   -0.003291
  96 H :    0.019770
  97 H :    0.019780
  98 H :    0.035190
  99 H :   -0.007625
 100 H :    0.005700
 101 H :    0.000764
 102 H :   -0.004264
Sum of atomic charges:   -0.0000000

LOEWDIN ATOMIC CHARGES
----------------------
   0 C :   -0.029165
   1 C :    0.066650
   2 F :   -0.048825
   3 C :    0.068086
   4 F :   -0.048769
   5 C :   -0.032562
   6 C :   -0.008316
   7 C :   -0.006765
   8 C :    0.017920
   9 C :   -0.024151
  10 C :   -0.052159
  11 C :    0.031498
  12 C :    0.086954
  13 O :   -0.136338
  14 C :   -0.099306
  15 C :    0.077543
  16 C :   -0.144151
  17 C :   -0.023411
  18 N :   -0.054806
  19 C :   -0.016939
  20 N :   -0.054908
  21 C :    0.042702
  22 C :   -0.177266
  23 C :    0.018891
  24 C :   -0.076842
  25 C :   -0.155593
  26 S :    0.496552
  27 C :   -0.194302
  28 C :   -0.047795
  29 C :    0.074423
  30 C :   -0.090065
  31 C :   -0.015467
  32 N :   -0.027819
  33 C :   -0.023577
  34 N :   -0.011054
  35 C :   -0.040515
  36 C :   -0.162703
  37 S :    0.481046
  38 C :   -0.178768
  39 C :   -0.064889
  40 C :   -0.188752
  41 C :   -0.212275
  42 S :    0.446517
  43 C :   -0.212820
  44 C :   -0.188170
  45 S :    0.414956
  46 C :   -0.065790
  47 C :   -0.177423
  48 S :    0.446389
  49 C :   -0.164177
  50 C :   -0.039010
  51 C :   -0.049171
  52 C :   -0.191100
  53 S :    0.483279
  54 C :   -0.147352
  55 C :   -0.075645
  56 C :    0.079058
  57 C :   -0.093610
  58 C :   -0.017194
  59 N :   -0.024092
  60 C :   -0.016843
  61 N :   -0.026176
  62 C :    0.017835
  63 C :   -0.180459
  64 S :    0.510485
  65 C :    0.053601
  66 C :   -0.104987
  67 C :    0.082761
  68 O :   -0.140685
  69 C :   -0.053664
  70 C :    0.031341
  71 C :   -0.009285
  72 C :   -0.005926
  73 C :   -0.030421
  74 C :    0.067243
  75 C :    0.067402
  76 C :   -0.032271
  77 F :   -0.048542
  78 F :   -0.048155
  79 C :    0.013583
  80 C :   -0.020399
  81 C :    0.061094
  82 C :   -0.146195
  83 C :   -0.038116
  84 N :   -0.048056
  85 C :   -0.020192
  86 N :   -0.050914
  87 H :    0.047700
  88 H :    0.045496
  89 H :    0.039903
  90 H :    0.041868
  91 H :    0.042138
  92 H :    0.043267
  93 H :    0.037790
  94 H :    0.032015
  95 H :    0.032234
  96 H :    0.037952
  97 H :    0.047883
  98 H :    0.055879
  99 H :    0.041319
 100 H :    0.047128
 101 H :    0.045309
 102 H :    0.039410

  Mayer bond orders larger than 0.100000
B(  0-C ,  1-C ) :   1.4408 B(  0-C ,  5-C ) :   0.1085 B(  0-C ,  7-C ) :   1.1871
B(  0-C , 87-H ) :   1.0072 B(  1-C ,  2-F ) :   1.1344 B(  1-C ,  3-C ) :   1.1917
B(  3-C ,  4-F ) :   1.1331 B(  3-C ,  5-C ) :   1.4425 B(  5-C ,  6-C ) :   1.1912
B(  5-C , 88-H ) :   1.0078 B(  6-C ,  7-C ) :   1.2558 B(  6-C , 11-C ) :   1.1849
B(  7-C ,  8-C ) :   1.2182 B(  8-C ,  9-C ) :   1.4469 B(  8-C , 89-H ) :   0.9892
B(  9-C , 10-C ) :   1.2227 B(  9-C , 15-C ) :   0.9789 B( 10-C , 11-C ) :   1.4706
B( 10-C , 12-C ) :   0.9524 B( 11-C , 90-H ) :   1.0177 B( 12-C , 13-O ) :   2.1646
B( 12-C , 14-C ) :   0.9387 B( 13-O , 92-H ) :   0.1010 B( 14-C , 15-C ) :   1.0893
B( 14-C , 21-C ) :   1.5778 B( 15-C , 16-C ) :   1.6124 B( 16-C , 17-C ) :   1.1395
B( 16-C , 19-C ) :   1.1534 B( 17-C , 18-N ) :   2.9600 B( 19-C , 20-N ) :   2.9571
B( 21-C , 22-C ) :   1.2346 B( 21-C , 91-H ) :   0.9041 B( 22-C , 23-C ) :   1.3879
B( 22-C , 26-S ) :   1.0709 B( 23-C , 24-C ) :   1.3124 B( 23-C , 92-H ) :   0.9697
B( 24-C , 25-C ) :   1.3683 B( 24-C , 29-C ) :   0.9973 B( 25-C , 26-S ) :   1.1702
B( 25-C , 27-C ) :   1.2102 B( 27-C , 28-C ) :   1.4363 B( 27-C , 37-S ) :   1.1028
B( 28-C , 29-C ) :   0.9912 B( 28-C , 35-C ) :   1.3047 B( 29-C , 30-C ) :   1.7188
B( 30-C , 31-C ) :   1.1343 B( 30-C , 33-C ) :   1.1348 B( 31-C , 32-N ) :   2.9872
B( 33-C , 34-N ) :   2.9980 B( 35-C , 36-C ) :   1.4442 B( 35-C , 93-H ) :   0.9884
B( 36-C , 37-S ) :   1.1202 B( 36-C , 38-C ) :   1.1779 B( 38-C , 39-C ) :   1.5031
B( 38-C , 42-S ) :   1.0984 B( 39-C , 40-C ) :   1.2784 B( 39-C , 94-H ) :   0.9956
B( 40-C , 41-C ) :   1.4577 B( 40-C , 45-S ) :   1.0526 B( 41-C , 42-S ) :   1.0741
B( 41-C , 43-C ) :   1.3052 B( 43-C , 44-C ) :   1.4578 B( 43-C , 48-S ) :   1.0741
B( 44-C , 45-S ) :   1.0531 B( 44-C , 46-C ) :   1.2788 B( 46-C , 47-C ) :   1.5037
B( 46-C , 95-H ) :   0.9950 B( 47-C , 48-S ) :   1.0986 B( 47-C , 49-C ) :   1.1794
B( 49-C , 50-C ) :   1.4433 B( 49-C , 53-S ) :   1.1203 B( 50-C , 51-C ) :   1.3088
B( 50-C , 96-H ) :   0.9871 B( 51-C , 52-C ) :   1.4358 B( 51-C , 56-C ) :   0.9953
B( 52-C , 53-S ) :   1.1049 B( 52-C , 54-C ) :   1.2164 B( 54-C , 55-C ) :   1.3891
B( 54-C , 64-S ) :   1.1620 B( 55-C , 56-C ) :   0.9930 B( 55-C , 62-C ) :   1.3095
B( 56-C , 57-C ) :   1.7201 B( 57-C , 58-C ) :   1.1327 B( 57-C , 60-C ) :   1.1338
B( 58-C , 59-N ) :   2.9928 B( 60-C , 61-N ) :   2.9896 B( 62-C , 63-C ) :   1.3871
B( 62-C , 97-H ) :   1.0024 B( 63-C , 64-S ) :   1.0767 B( 63-C , 65-C ) :   1.1632
B( 65-C , 66-C ) :   1.6163 B( 65-C , 98-H ) :   0.9447 B( 66-C , 67-C ) :   0.9420
B( 66-C , 81-C ) :   1.0417 B( 67-C , 68-O ) :   2.2735 B( 67-C , 69-C ) :   0.9184
B( 69-C , 70-C ) :   1.4771 B( 69-C , 80-C ) :   1.2223 B( 70-C , 71-C ) :   1.1940
B( 70-C , 99-H ) :   1.0160 B( 71-C , 72-C ) :   1.2578 B( 71-C , 76-C ) :   1.1934
B( 72-C , 73-C ) :   1.1905 B( 72-C , 79-C ) :   1.2135 B( 73-C , 74-C ) :   1.4418
B( 73-C , 76-C ) :   0.1084 B( 73-C ,100-H ) :   1.0065 B( 74-C , 75-C ) :   1.1913
B( 74-C , 78-F ) :   1.1354 B( 75-C , 76-C ) :   1.4434 B( 75-C , 77-F ) :   1.1339
B( 76-C ,101-H ) :   1.0068 B( 79-C , 80-C ) :   1.4581 B( 79-C ,102-H ) :   0.9941
B( 80-C , 81-C ) :   1.0009 B( 81-C , 82-C ) :   1.6473 B( 82-C , 83-C ) :   1.1554
B( 82-C , 85-C ) :   1.1367 B( 83-C , 84-N ) :   3.0215 B( 85-C , 86-N ) :   2.9881

-----------------------------------------------------------------------------
         ABSORPTION SPECTRUM VIA TRANSITION ELECTRIC DIPOLE MOMENTS
-----------------------------------------------------------------------------
State   Energy  Wavelength   fosc         T2         TX        TY        TZ
        (cm-1)    (nm)                  (au**2)     (au)      (au)      (au)
-----------------------------------------------------------------------------
   0   11926.1    838.5   0.880456700  24.30445   1.36485   4.50668   1.45996
   1   12994.6    769.6   0.118819843   3.01025   0.24442   1.68801   0.31802
   2   18721.9    534.1   1.771170536  31.14482   2.02902   5.01943   1.35398
   3   20053.7    498.7   0.380096959   6.23986   0.56389  -2.26570  -0.88797
   4   20781.1    481.2   0.024260191   0.38433   0.51208  -0.30703  -0.16682
   5   21788.5    459.0   0.177245979   2.67809   0.48917   1.48899   0.47085
   6   25341.1    394.6   0.108368825   1.40785  -0.05491  -0.92994  -0.73487
   7   25856.8    386.7   0.175349504   2.23257  -0.07704  -1.46118  -0.30266
   8   26123.2    382.8   0.325505591   4.10212  -0.38778  -1.98672  -0.06849
   9   26427.8    378.4   0.000952049   0.01186   0.07619  -0.07019   0.03359
  10   27068.4    369.4   0.043476882   0.52878   0.09920  -0.57249  -0.43726
  11   27145.7    368.4   0.013736606   0.16659  -0.40616  -0.03814  -0.01314
  12   27745.2    360.4   0.081610140   0.96835   0.78822   0.58048  -0.10055
  13   28004.3    357.1   0.073572817   0.86491   0.31924   0.87215   0.04844
  14   28049.0    356.5   0.018299831   0.21479  -0.28013  -0.26257   0.25956
  15   28196.8    354.7   0.035126566   0.41012   0.32236  -0.30214  -0.46359
  16   28344.7    352.8   0.182925741   2.12461   0.07767   1.29800   0.65862
  17   28698.4    348.5   0.040550595   0.46517  -0.07643   0.58695   0.33885
  18   29202.0    342.4   0.024948149   0.28126   0.21749   0.29704  -0.38174
  19   29340.2    340.8   0.084614310   0.94942   0.40395   0.70320  -0.54014
  20   29436.0    339.7   0.033592976   0.37570  -0.09667  -0.60424   0.03541
  21   30275.9    330.3   0.586985437   6.38272   1.67024   1.49493  -1.16542
  22   30687.5    325.9   0.102932036   1.10424  -0.12999   0.96479   0.39564
  23   30916.7    323.5   0.579655971   6.17239  -1.70933   0.03097   1.80267
  24   31241.6    320.1   0.414372545   4.36649  -1.14430  -1.21202   1.26019
  25   32103.1    311.5   0.055598047   0.57015  -0.52713   0.16719   0.51413
  26   32485.8    307.8   0.021267580   0.21553  -0.26067   0.37913  -0.06195
  27   32543.0    307.3   0.071950804   0.72787  -0.34379  -0.29176   0.72426
  28   33183.4    301.4   0.048099372   0.47719  -0.27420  -0.63316   0.03350
  29   33365.7    299.7   0.270839287   2.67231   0.65521   1.46963  -0.28842
  30   33454.9    298.9   0.230945667   2.27262  -0.58246  -1.38819   0.07936
  31   33825.9    295.6   0.037496467   0.36494   0.57629   0.08931  -0.15764
  32   33894.8    295.0   0.150696498   1.46368  -0.72352   0.24426   0.93836
  33   34237.5    292.1   0.057207761   0.55008   0.12723   0.57405  -0.45206
  34   34289.7    291.6   0.042779397   0.41072  -0.24032   0.45763   0.37887
  35   34420.8    290.5   0.035788347   0.34229   0.38860   0.13831  -0.41491
  36   34522.3    289.7   0.117265531   1.11827  -0.62681  -0.41335   0.74466
  37   34646.4    288.6   0.466978076   4.43725  -1.39536  -0.56953   1.47168
  38   34904.4    286.5   0.399603641   3.76899   0.83642   1.44249  -0.99429
  39   35081.3    285.1   0.036282508   0.34048  -0.32649  -0.46309   0.13940
  40   35310.5    283.2   0.038365183   0.35769  -0.39648   0.29888   0.33341
  41   35541.6    281.4   0.292375039   2.70819  -0.44626  -1.56621   0.23670
  42   35737.3    279.8   0.164452169   1.51493   0.46470   1.00075  -0.54543
  43   35992.6    277.8   0.048225529   0.44110   0.17616   0.63257  -0.09959
  44   36174.2    276.4   0.003883929   0.03535   0.07358  -0.04638  -0.16668
  45   36359.6    275.0   0.016251741   0.14715  -0.02671   0.38166   0.02783
  46   36692.9    272.5   0.100698368   0.90348   0.63641  -0.03531  -0.70513
  47   36797.9    271.8   0.069448871   0.62132   0.18801  -0.51300  -0.56816
  48   36929.8    270.8   0.030814707   0.27470  -0.16081  -0.46527   0.17989
  49   36938.2    270.7   0.105823943   0.94316  -0.04590   0.73109  -0.63762
  50   37324.2    267.9   0.005311912   0.04685   0.13284   0.10857   0.13199
  51   37560.1    266.2   0.050926847   0.44637  -0.35067   0.32084   0.46954
  52   37889.4    263.9   0.028940520   0.25146  -0.02636  -0.41336  -0.28266
  53   38014.6    263.1   0.010777008   0.09333   0.11073  -0.10840  -0.26329
  54   38159.9    262.1   0.015392246   0.13279  -0.08451   0.27884   0.21886
  55   38537.5    259.5   0.006581698   0.05623   0.01934  -0.11769  -0.20494
  56   38892.6    257.1   0.142046480   1.20237   0.70636   0.17493  -0.82026
  57   39010.7    256.3   0.043734096   0.36907  -0.43403   0.12904   0.40502
  58   39212.8    255.0   0.102454501   0.86016   0.09277  -0.62268  -0.68104
  59   39366.9    254.0   0.085518406   0.71516   0.25189  -0.45258  -0.66849
  60   39424.6    253.6   0.001532031   0.01279   0.10354  -0.03062  -0.03370
  61   39813.5    251.2   0.072854367   0.60242  -0.44652   0.20508   0.60081
  62   40271.8    248.3   0.044806841   0.36628   0.53181  -0.13256  -0.25670

FINAL SINGLE POINT ENERGY     -6294.435985540458

DIPOLE MOMENT
-------------
                                X             Y             Z
Electronic contribution:     -4.14348       1.99709       4.45167
Nuclear contribution   :      3.26339      -3.91138      -2.65881
                        -----------------------------------------
Total Dipole Moment    :     -0.88009      -1.91429       1.79286
                        -----------------------------------------
Magnitude (a.u.)       :      2.76648
Magnitude (Debye)      :      7.03184

Rotational constants in cm-1:     0.001927     0.000095     0.000092
Rotational constants in MHz :    57.772942     2.858787     2.749282

                             ****ORCA TERMINATED NORMALLY****
TOTAL RUN TIME: 0 days 0 hours 12 minutes 11 seconds 637 msec
