                         Program Version 4.2.0 -  RELEASE  -
|  1> # ORCA input file
|  2> # SCF done       -182.175129856180          0.000863647747
|  3> ! CAM-B3LYP def2-SVP def2/J RIJCOSX Grid4 TightSCF
|  4> %maxcore 5000
|  5> %tddft
|  6>     Mode sTDDFT
|  7>     Ethresh 5.0
|  8>     maxcore 5000
|  9> end
| 10>
| 11> %pal
| 12>   nprocs 6
| 13>   end
| 14> * xyz 0 1
| 15>    C       -3.35544        -3.28362        -0.23663
| 16>    C       -4.53491        -2.61814        -0.11400
| 17>    C       -4.33626        -1.22687        -0.01329
| 18>    C       -2.97116        -0.87621        -0.06425
| 19>    S       -1.96033        -2.24696        -0.23441
| 20>    C       -2.85471         0.52256         0.04413
| 21>    C       -4.15470         1.06796         0.16471
| 22>    C       -5.12122        -0.02952         0.13033
| 23>    C       -6.48379         0.07907         0.21948
| 24>    C       -7.12683         1.32311         0.36081
| 25>    N       -7.65270         2.33691         0.47617
| 26>    C       -7.32859        -1.04650         0.17442
| 27>    N       -8.02286        -1.95984         0.14542
| 28>    C       -4.15732         2.44149         0.28055
| 29>    C       -2.86225         2.98455         0.25335
| 30>    S       -1.63697         1.72735         0.07533
| 31>    C       -2.56194         4.33827         0.36294
| 32>    C       -1.31625         4.93963         0.36143
| 33>    C       -1.06678         6.31735         0.50419
| 34>    C        0.26305         6.65115         0.48813
| 35>    C        1.11591         5.55164         0.32666
| 36>    S        0.19736         4.07578         0.19348
| 37>    C        2.51461         5.54608         0.27959
| 38>    C        3.38808         6.62599         0.42458
| 39>    C        4.71825         6.27250         0.34831
| 40>    C        4.93268         4.91038         0.13353
| 41>    S        3.40663         4.06777         0.03105
| 42>    C        6.16722         4.25733         0.01891
| 43>    C        6.31456         2.92134        -0.23284
| 44>    C        7.54228         2.25201        -0.32375
| 45>    C        7.73557         0.89961        -0.61089
| 46>    C        9.05800         0.51232        -0.61882
| 47>    C        9.94353         1.55298        -0.33055
| 48>    S        9.07591         3.04142        -0.06133
| 49>    C       11.33880         1.49277        -0.22833
| 50>    C       12.17074         0.38231        -0.41138
| 51>    C       13.50083         0.65253        -0.20846
| 52>    C       13.77269         1.98677         0.14462
| 53>    S       12.27771         2.89631         0.19850
| 54>    C       15.03228         2.49020         0.43062
| 55>    C       15.38330         3.78390         0.80020
| 56>    C       14.59373         4.93562         0.93838
| 57>    C       15.32783         6.03016         1.34064
| 58>    C       16.70493         5.75316         1.52779
| 59>    S       17.07938         4.11662         1.18589
| 60>    C       17.34016         6.93098         1.94917
| 61>    C       16.37816         7.96595         2.02458
| 62>    C       15.09217         7.43751         1.65392
| 63>    C       13.89098         8.09653         1.62382
| 64>    C       13.78173         9.45382         1.98234
| 65>    N       13.68776        10.55754         2.28346
| 66>    C       12.69050         7.46307         1.25177
| 67>    N       11.70490         6.95787         0.94940
| 68>    C       16.92694         9.18354         2.44076
| 69>    C       18.27608         9.09628         2.69648
| 70>    S       18.90088         7.47135         2.38934
| 71>    C       19.18391        10.13196         3.12718
| 72>    C       20.53632        10.03740         2.75711
| 73>    C       21.39482        11.05021         3.10302
| 74>    C       20.94098        12.16880         3.81267
| 75>    C       22.09066        13.07581         4.02372
| 76>    O       22.13879        14.14433         4.57944
| 77>    N       23.17188        12.44414         3.42128
| 78>    C       22.84454        11.22405         2.84887
| 79>    O       23.61614        10.50124         2.27026
| 80>    C       24.51357        12.98584         3.42856
| 81>    C       25.30372        12.48712         4.63335
| 82>    C       19.62688        12.26709         4.20792
| 83>    C       18.73463        11.23999         3.88247
| 84>    C       17.37038        11.30698         4.40409
| 85>    C       16.64727        12.41626         4.47622
| 86>    H       -3.20303        -4.34012        -0.33140
| 87>    H       -5.49447        -3.10201        -0.09765
| 88>    H       -5.03238         3.05750         0.38314
| 89>    H       -3.41160         5.00050         0.47222
| 90>    H       -1.86796         7.02573         0.61837
| 91>    H        0.63265         7.65563         0.58656
| 92>    H        3.04193         7.63054         0.58679
| 93>    H        5.53325         6.96801         0.44188
| 94>    H        7.05113         4.87071         0.14043
| 95>    H        5.42736         2.31644        -0.37509
| 96>    H        6.91180         0.23596        -0.80551
| 97>    H        9.38977        -0.49017        -0.81928
| 98>    H       11.78844        -0.58488        -0.68276
| 99>    H       14.28590        -0.07687        -0.30079
|100>    H       15.84252         1.77419         0.37152
|101>    H       13.53799         4.94891         0.74343
|102>    H       16.37301        10.10130         2.51300
|103>    H       20.89094         9.18666         2.19433
|104>    H       24.42434        14.07453         3.45537
|105>    H       24.99889        12.67401         2.50047
|106>    H       24.81147        12.78731         5.55558
|107>    H       26.30469        12.90876         4.61745
|108>    H       25.37963        11.40247         4.60870
|109>    H       19.29083        13.11065         4.79033
|110>    H       16.96043        10.36976         4.75991
|111>    H       17.00775        13.35684         4.09457
|112>    H       15.65308        12.41462         4.88716
|113> *
|114>
|115>                          ****END OF INPUT****

CARTESIAN COORDINATES (ANGSTROEM)
---------------------------------
  C     -3.355440   -3.283620   -0.236630
  C     -4.534910   -2.618140   -0.114000
  C     -4.336260   -1.226870   -0.013290
  C     -2.971160   -0.876210   -0.064250
  S     -1.960330   -2.246960   -0.234410
  C     -2.854710    0.522560    0.044130
  C     -4.154700    1.067960    0.164710
  C     -5.121220   -0.029520    0.130330
  C     -6.483790    0.079070    0.219480
  C     -7.126830    1.323110    0.360810
  N     -7.652700    2.336910    0.476170
  C     -7.328590   -1.046500    0.174420
  N     -8.022860   -1.959840    0.145420
  C     -4.157320    2.441490    0.280550
  C     -2.862250    2.984550    0.253350
  S     -1.636970    1.727350    0.075330
  C     -2.561940    4.338270    0.362940
  C     -1.316250    4.939630    0.361430
  C     -1.066780    6.317350    0.504190
  C      0.263050    6.651150    0.488130
  C      1.115910    5.551640    0.326660
  S      0.197360    4.075780    0.193480
  C      2.514610    5.546080    0.279590
  C      3.388080    6.625990    0.424580
  C      4.718250    6.272500    0.348310
  C      4.932680    4.910380    0.133530
  S      3.406630    4.067770    0.031050
  C      6.167220    4.257330    0.018910
  C      6.314560    2.921340   -0.232840
  C      7.542280    2.252010   -0.323750
  C      7.735570    0.899610   -0.610890
  C      9.058000    0.512320   -0.618820
  C      9.943530    1.552980   -0.330550
  S      9.075910    3.041420   -0.061330
  C     11.338800    1.492770   -0.228330
  C     12.170740    0.382310   -0.411380
  C     13.500830    0.652530   -0.208460
  C     13.772690    1.986770    0.144620
  S     12.277710    2.896310    0.198500
  C     15.032280    2.490200    0.430620
  C     15.383300    3.783900    0.800200
  C     14.593730    4.935620    0.938380
  C     15.327830    6.030160    1.340640
  C     16.704930    5.753160    1.527790
  S     17.079380    4.116620    1.185890
  C     17.340160    6.930980    1.949170
  C     16.378160    7.965950    2.024580
  C     15.092170    7.437510    1.653920
  C     13.890980    8.096530    1.623820
  C     13.781730    9.453820    1.982340
  N     13.687760   10.557540    2.283460
  C     12.690500    7.463070    1.251770
  N     11.704900    6.957870    0.949400
  C     16.926940    9.183540    2.440760
  C     18.276080    9.096280    2.696480
  S     18.900880    7.471350    2.389340
  C     19.183910   10.131960    3.127180
  C     20.536320   10.037400    2.757110
  C     21.394820   11.050210    3.103020
  C     20.940980   12.168800    3.812670
  C     22.090660   13.075810    4.023720
  O     22.138790   14.144330    4.579440
  N     23.171880   12.444140    3.421280
  C     22.844540   11.224050    2.848870
  O     23.616140   10.501240    2.270260
  C     24.513570   12.985840    3.428560
  C     25.303720   12.487120    4.633350
  C     19.626880   12.267090    4.207920
  C     18.734630   11.239990    3.882470
  C     17.370380   11.306980    4.404090
  C     16.647270   12.416260    4.476220
  H     -3.203030   -4.340120   -0.331400
  H     -5.494470   -3.102010   -0.097650
  H     -5.032380    3.057500    0.383140
  H     -3.411600    5.000500    0.472220
  H     -1.867960    7.025730    0.618370
  H      0.632650    7.655630    0.586560
  H      3.041930    7.630540    0.586790
  H      5.533250    6.968010    0.441880
  H      7.051130    4.870710    0.140430
  H      5.427360    2.316440   -0.375090
  H      6.911800    0.235960   -0.805510
  H      9.389770   -0.490170   -0.819280
  H     11.788440   -0.584880   -0.682760
  H     14.285900   -0.076870   -0.300790
  H     15.842520    1.774190    0.371520
  H     13.537990    4.948910    0.743430
  H     16.373010   10.101300    2.513000
  H     20.890940    9.186660    2.194330
  H     24.424340   14.074530    3.455370
  H     24.998890   12.674010    2.500470
  H     24.811470   12.787310    5.555580
  H     26.304690   12.908760    4.617450
  H     25.379630   11.402470    4.608700
  H     19.290830   13.110650    4.790330
  H     16.960430   10.369760    4.759910
  H     17.007750   13.356840    4.094570
  H     15.653080   12.414620    4.887160

 Total Charge           Charge          ....    0
 Multiplicity           Mult            ....    1
 Number of Electrons    NEL             ....  542
 Basis Dimension        Dim             .... 1161

ORBITAL ENERGIES
----------------

  NO   OCC          E(Eh)            E(eV)
   0   2.0000     -88.981836     -2421.3188
   1   2.0000     -88.981351     -2421.3057
   2   2.0000     -88.979803     -2421.2635
   3   2.0000     -88.978168     -2421.2190
   4   2.0000     -88.958582     -2420.6861
   5   2.0000     -88.955204     -2420.5942
   6   2.0000     -88.955031     -2420.5895
   7   2.0000     -88.953388     -2420.5447
   8   2.0000     -19.205561      -522.6099
   9   2.0000     -19.204705      -522.5866
  10   2.0000     -14.446325      -393.1045
  11   2.0000     -14.425458      -392.5367
  12   2.0000     -14.425054      -392.5257
  13   2.0000     -14.422458      -392.4550
  14   2.0000     -14.421718      -392.4349
  15   2.0000     -10.385428      -282.6019
  16   2.0000     -10.384682      -282.5816
  17   2.0000     -10.357151      -281.8324
  18   2.0000     -10.353993      -281.7465
  19   2.0000     -10.345160      -281.5061
  20   2.0000     -10.342926      -281.4453
  21   2.0000     -10.328451      -281.0514
  22   2.0000     -10.326080      -280.9869
  23   2.0000     -10.325818      -280.9798
  24   2.0000     -10.324023      -280.9310
  25   2.0000     -10.323384      -280.9136
  26   2.0000     -10.322379      -280.8862
  27   2.0000     -10.319690      -280.8130
  28   2.0000     -10.318906      -280.7917
  29   2.0000     -10.318395      -280.7778
  30   2.0000     -10.318309      -280.7755
  31   2.0000     -10.318037      -280.7681
  32   2.0000     -10.317560      -280.7551
  33   2.0000     -10.317556      -280.7550
  34   2.0000     -10.315350      -280.6949
  35   2.0000     -10.314976      -280.6848
  36   2.0000     -10.314396      -280.6690
  37   2.0000     -10.314250      -280.6650
  38   2.0000     -10.313265      -280.6382
  39   2.0000     -10.311111      -280.5796
  40   2.0000     -10.306556      -280.4556
  41   2.0000     -10.303960      -280.3850
  42   2.0000     -10.300409      -280.2884
  43   2.0000     -10.298857      -280.2461
  44   2.0000     -10.298036      -280.2238
  45   2.0000     -10.296468      -280.1811
  46   2.0000     -10.295780      -280.1624
  47   2.0000     -10.294791      -280.1355
  48   2.0000     -10.294123      -280.1173
  49   2.0000     -10.293001      -280.0868
  50   2.0000     -10.292919      -280.0846
  51   2.0000     -10.291993      -280.0594
  52   2.0000     -10.291623      -280.0493
  53   2.0000     -10.291365      -280.0423
  54   2.0000     -10.291184      -280.0374
  55   2.0000     -10.290701      -280.0242
  56   2.0000     -10.290562      -280.0204
  57   2.0000     -10.290554      -280.0202
  58   2.0000     -10.290054      -280.0066
  59   2.0000     -10.289888      -280.0021
  60   2.0000     -10.289543      -279.9927
  61   2.0000     -10.289424      -279.9895
  62   2.0000     -10.289249      -279.9847
  63   2.0000     -10.288733      -279.9707
  64   2.0000     -10.288203      -279.9562
  65   2.0000     -10.287427      -279.9351
  66   2.0000     -10.287369      -279.9335
  67   2.0000     -10.286888      -279.9204
  68   2.0000     -10.277810      -279.6734
  69   2.0000     -10.268272      -279.4139
  70   2.0000     -10.254411      -279.0367
  71   2.0000      -8.076234      -219.7655
  72   2.0000      -8.075219      -219.7379
  73   2.0000      -8.074740      -219.7248
  74   2.0000      -8.072701      -219.6694
  75   2.0000      -8.054641      -219.1779
  76   2.0000      -8.051552      -219.0939
  77   2.0000      -8.050741      -219.0718
  78   2.0000      -8.049689      -219.0432
  79   2.0000      -6.045515      -164.5068
  80   2.0000      -6.044543      -164.4804
  81   2.0000      -6.044045      -164.4668
  82   2.0000      -6.042003      -164.4113
  83   2.0000      -6.041326      -164.3928
  84   2.0000      -6.040338      -164.3659
  85   2.0000      -6.039615      -164.3463
  86   2.0000      -6.038616      -164.3191
  87   2.0000      -6.037996      -164.3022
  88   2.0000      -6.037583      -164.2910
  89   2.0000      -6.037272      -164.2825
  90   2.0000      -6.034850      -164.2166
  91   2.0000      -6.024283      -163.9291
  92   2.0000      -6.021087      -163.8421
  93   2.0000      -6.020371      -163.8226
  94   2.0000      -6.020165      -163.8170
  95   2.0000      -6.019231      -163.7916
  96   2.0000      -6.017096      -163.7335
  97   2.0000      -6.016255      -163.7106
  98   2.0000      -6.015846      -163.6995
  99   2.0000      -6.015173      -163.6812
 100   2.0000      -6.012838      -163.6176
 101   2.0000      -6.012017      -163.5953
 102   2.0000      -6.010996      -163.5675
 103   2.0000      -1.150967       -31.3194
 104   2.0000      -1.127311       -30.6757
 105   2.0000      -1.041910       -28.3518
 106   2.0000      -1.036121       -28.1943
 107   2.0000      -1.033850       -28.1325
 108   2.0000      -1.015943       -27.6452
 109   2.0000      -1.013199       -27.5705
 110   2.0000      -1.005005       -27.3476
 111   2.0000      -1.002752       -27.2863
 112   2.0000      -1.002198       -27.2712
 113   2.0000      -0.999457       -27.1966
 114   2.0000      -0.992421       -27.0051
 115   2.0000      -0.988137       -26.8886
 116   2.0000      -0.981281       -26.7020
 117   2.0000      -0.978443       -26.6248
 118   2.0000      -0.972120       -26.4527
 119   2.0000      -0.949787       -25.8450
 120   2.0000      -0.947990       -25.7961
 121   2.0000      -0.917157       -24.9571
 122   2.0000      -0.913662       -24.8620
 123   2.0000      -0.907266       -24.6880
 124   2.0000      -0.903491       -24.5852
 125   2.0000      -0.887099       -24.1392
 126   2.0000      -0.879618       -23.9356
 127   2.0000      -0.873091       -23.7580
 128   2.0000      -0.862823       -23.4786
 129   2.0000      -0.859484       -23.3878
 130   2.0000      -0.854686       -23.2572
 131   2.0000      -0.852741       -23.2043
 132   2.0000      -0.847587       -23.0640
 133   2.0000      -0.844770       -22.9873
 134   2.0000      -0.843343       -22.9485
 135   2.0000      -0.842450       -22.9242
 136   2.0000      -0.829248       -22.5650
 137   2.0000      -0.827463       -22.5164
 138   2.0000      -0.824431       -22.4339
 139   2.0000      -0.818154       -22.2631
 140   2.0000      -0.799828       -21.7644
 141   2.0000      -0.782685       -21.2979
 142   2.0000      -0.774190       -21.0668
 143   2.0000      -0.768943       -20.9240
 144   2.0000      -0.766032       -20.8448
 145   2.0000      -0.752641       -20.4804
 146   2.0000      -0.750995       -20.4356
 147   2.0000      -0.738325       -20.0909
 148   2.0000      -0.722415       -19.6579
 149   2.0000      -0.711679       -19.3658
 150   2.0000      -0.702759       -19.1231
 151   2.0000      -0.697786       -18.9877
 152   2.0000      -0.695254       -18.9188
 153   2.0000      -0.689773       -18.7697
 154   2.0000      -0.682137       -18.5619
 155   2.0000      -0.677722       -18.4418
 156   2.0000      -0.676742       -18.4151
 157   2.0000      -0.671993       -18.2859
 158   2.0000      -0.665683       -18.1142
 159   2.0000      -0.658274       -17.9125
 160   2.0000      -0.651760       -17.7353
 161   2.0000      -0.643275       -17.5044
 162   2.0000      -0.637797       -17.3553
 163   2.0000      -0.632870       -17.2213
 164   2.0000      -0.629271       -17.1233
 165   2.0000      -0.628371       -17.0989
 166   2.0000      -0.625417       -17.0185
 167   2.0000      -0.622769       -16.9464
 168   2.0000      -0.615720       -16.7546
 169   2.0000      -0.614878       -16.7317
 170   2.0000      -0.607694       -16.5362
 171   2.0000      -0.604708       -16.4549
 172   2.0000      -0.603277       -16.4160
 173   2.0000      -0.600184       -16.3319
 174   2.0000      -0.595277       -16.1983
 175   2.0000      -0.590765       -16.0755
 176   2.0000      -0.578419       -15.7396
 177   2.0000      -0.569408       -15.4944
 178   2.0000      -0.566137       -15.4054
 179   2.0000      -0.564372       -15.3573
 180   2.0000      -0.555413       -15.1135
 181   2.0000      -0.547874       -14.9084
 182   2.0000      -0.543962       -14.8020
 183   2.0000      -0.540561       -14.7094
 184   2.0000      -0.538792       -14.6613
 185   2.0000      -0.536914       -14.6102
 186   2.0000      -0.536864       -14.6088
 187   2.0000      -0.534708       -14.5501
 188   2.0000      -0.528869       -14.3913
 189   2.0000      -0.524675       -14.2771
 190   2.0000      -0.518484       -14.1087
 191   2.0000      -0.517957       -14.0943
 192   2.0000      -0.513347       -13.9689
 193   2.0000      -0.512151       -13.9363
 194   2.0000      -0.507313       -13.8047
 195   2.0000      -0.507044       -13.7974
 196   2.0000      -0.503974       -13.7138
 197   2.0000      -0.502288       -13.6680
 198   2.0000      -0.501637       -13.6502
 199   2.0000      -0.499874       -13.6023
 200   2.0000      -0.498130       -13.5548
 201   2.0000      -0.497106       -13.5270
 202   2.0000      -0.496017       -13.4973
 203   2.0000      -0.495597       -13.4859
 204   2.0000      -0.494427       -13.4541
 205   2.0000      -0.489320       -13.3151
 206   2.0000      -0.486460       -13.2372
 207   2.0000      -0.483543       -13.1579
 208   2.0000      -0.480335       -13.0706
 209   2.0000      -0.478845       -13.0300
 210   2.0000      -0.477334       -12.9889
 211   2.0000      -0.475248       -12.9322
 212   2.0000      -0.474149       -12.9022
 213   2.0000      -0.472574       -12.8594
 214   2.0000      -0.471660       -12.8345
 215   2.0000      -0.468006       -12.7351
 216   2.0000      -0.467287       -12.7155
 217   2.0000      -0.462436       -12.5835
 218   2.0000      -0.461527       -12.5588
 219   2.0000      -0.460427       -12.5289
 220   2.0000      -0.457415       -12.4469
 221   2.0000      -0.454292       -12.3619
 222   2.0000      -0.454143       -12.3579
 223   2.0000      -0.453019       -12.3273
 224   2.0000      -0.451650       -12.2900
 225   2.0000      -0.450928       -12.2704
 226   2.0000      -0.449300       -12.2261
 227   2.0000      -0.444307       -12.0902
 228   2.0000      -0.442615       -12.0442
 229   2.0000      -0.438660       -11.9365
 230   2.0000      -0.436674       -11.8825
 231   2.0000      -0.435854       -11.8602
 232   2.0000      -0.435442       -11.8490
 233   2.0000      -0.432859       -11.7787
 234   2.0000      -0.432560       -11.7705
 235   2.0000      -0.431381       -11.7385
 236   2.0000      -0.430915       -11.7258
 237   2.0000      -0.430070       -11.7028
 238   2.0000      -0.429101       -11.6764
 239   2.0000      -0.422720       -11.5028
 240   2.0000      -0.421680       -11.4745
 241   2.0000      -0.421029       -11.4568
 242   2.0000      -0.419536       -11.4161
 243   2.0000      -0.417766       -11.3680
 244   2.0000      -0.412817       -11.2333
 245   2.0000      -0.405294       -11.0286
 246   2.0000      -0.403322       -10.9750
 247   2.0000      -0.400087       -10.8869
 248   2.0000      -0.391752       -10.6601
 249   2.0000      -0.382376       -10.4050
 250   2.0000      -0.373298       -10.1580
 251   2.0000      -0.368700       -10.0328
 252   2.0000      -0.359096        -9.7715
 253   2.0000      -0.352784        -9.5998
 254   2.0000      -0.346493        -9.4286
 255   2.0000      -0.343203        -9.3390
 256   2.0000      -0.340693        -9.2707
 257   2.0000      -0.338461        -9.2100
 258   2.0000      -0.337925        -9.1954
 259   2.0000      -0.336788        -9.1645
 260   2.0000      -0.333600        -9.0777
 261   2.0000      -0.329137        -8.9563
 262   2.0000      -0.327434        -8.9099
 263   2.0000      -0.319654        -8.6982
 264   2.0000      -0.313738        -8.5373
 265   2.0000      -0.312345        -8.4993
 266   2.0000      -0.304916        -8.2972
 267   2.0000      -0.282984        -7.7004
 268   2.0000      -0.261529        -7.1166
 269   2.0000      -0.232834        -6.3357
 270   2.0000      -0.185693        -5.0530
 271   0.0000      -0.121848        -3.3157
 272   0.0000      -0.099169        -2.6985
 273   0.0000      -0.089855        -2.4451
 274   0.0000      -0.057740        -1.5712
 275   0.0000      -0.048166        -1.3107

MULLIKEN ATOMIC CHARGES
-----------------------
   0 C :   -0.087238
   1 C :    0.042816
   2 C :   -0.042968
   3 C :   -0.107426
   4 S :    0.170781
   5 C :   -0.101325
   6 C :    0.038291
   7 C :    0.295850
   8 C :   -0.296054
   9 C :   -0.186105
  10 N :    0.161666
  11 C :   -0.193326
  12 N :    0.169896
  13 C :   -0.054123
  14 C :   -0.049573
  15 S :    0.154890
  16 C :   -0.007529
  17 C :   -0.037788
  18 C :    0.027653
  19 C :    0.026514
  20 C :   -0.030137
  21 S :    0.067922
  22 C :   -0.041795
  23 C :    0.016214
  24 C :    0.025642
  25 C :   -0.029803
  26 S :    0.088396
  27 C :   -0.002631
  28 C :   -0.000769
  29 C :   -0.033183
  30 C :    0.028195
  31 C :    0.012619
  32 C :   -0.037247
  33 S :    0.109898
  34 C :   -0.032290
  35 C :    0.025948
  36 C :    0.022073
  37 C :   -0.028824
  38 S :    0.072734
  39 C :    0.019716
  40 C :   -0.081295
  41 C :   -0.052907
  42 C :    0.004668
  43 C :   -0.109868
  44 S :    0.170895
  45 C :   -0.084106
  46 C :   -0.011995
  47 C :    0.315296
  48 C :   -0.307491
  49 C :   -0.192688
  50 N :    0.167578
  51 C :   -0.181862
  52 N :    0.163668
  53 C :   -0.039097
  54 C :   -0.128057
  55 S :    0.174103
  56 C :    0.126171
  57 C :   -0.113563
  58 C :    0.017432
  59 C :    0.012967
  60 C :    0.184203
  61 O :   -0.158142
  62 N :   -0.302295
  63 C :    0.185254
  64 O :   -0.159635
  65 C :    0.132974
  66 C :   -0.008540
  67 C :   -0.090369
  68 C :    0.048823
  69 C :   -0.063128
  70 C :    0.000316
  71 H :    0.033488
  72 H :    0.009508
  73 H :    0.006366
  74 H :   -0.001650
  75 H :   -0.007880
  76 H :   -0.011911
  77 H :   -0.011559
  78 H :   -0.004528
  79 H :    0.005333
  80 H :   -0.004061
  81 H :   -0.011921
  82 H :   -0.014377
  83 H :   -0.014265
  84 H :   -0.012506
  85 H :   -0.017284
  86 H :    0.022931
  87 H :    0.023444
  88 H :   -0.003129
  89 H :    0.032278
  90 H :    0.029500
  91 H :    0.025085
  92 H :    0.020777
  93 H :    0.027584
  94 H :   -0.007896
  95 H :    0.027864
  96 H :    0.025264
  97 H :    0.036654
Sum of atomic charges:   -0.0000000

LOEWDIN ATOMIC CHARGES
----------------------
   0 C :   -0.182308
   1 C :   -0.033151
   2 C :   -0.085364
   3 C :   -0.173291
   4 S :    0.464479
   5 C :   -0.199820
   6 C :   -0.062861
   7 C :    0.083324
   8 C :   -0.110068
   9 C :   -0.015780
  10 N :   -0.041828
  11 C :   -0.017040
  12 N :   -0.038462
  13 C :   -0.021731
  14 C :   -0.164532
  15 S :    0.458512
  16 C :   -0.064322
  17 C :   -0.160173
  18 C :   -0.032246
  19 C :   -0.039166
  20 C :   -0.177522
  21 S :    0.380965
  22 C :   -0.176697
  23 C :   -0.036216
  24 C :   -0.035294
  25 C :   -0.146621
  26 S :    0.392654
  27 C :   -0.054749
  28 C :   -0.050750
  29 C :   -0.153791
  30 C :   -0.034465
  31 C :   -0.041645
  32 C :   -0.171072
  33 S :    0.406273
  34 C :   -0.184758
  35 C :   -0.036236
  36 C :   -0.040513
  37 C :   -0.145124
  38 S :    0.409955
  39 C :   -0.086093
  40 C :   -0.153556
  41 C :   -0.042599
  42 C :   -0.053920
  43 C :   -0.206201
  44 S :    0.455858
  45 C :   -0.163841
  46 C :   -0.087725
  47 C :    0.083752
  48 C :   -0.109112
  49 C :   -0.015825
  50 N :   -0.039479
  51 C :   -0.016613
  52 N :   -0.040046
  53 C :   -0.022683
  54 C :   -0.168433
  55 S :    0.469267
  56 C :   -0.023163
  57 C :    0.001125
  58 C :   -0.050950
  59 C :   -0.055856
  60 C :    0.088193
  61 O :   -0.160688
  62 N :   -0.037193
  63 C :    0.087871
  64 O :   -0.161869
  65 C :    0.043964
  66 C :   -0.060109
  67 C :    0.021959
  68 C :   -0.005660
  69 C :   -0.026277
  70 C :   -0.027139
  71 H :    0.025963
  72 H :    0.041956
  73 H :    0.040607
  74 H :    0.045257
  75 H :    0.035001
  76 H :    0.033126
  77 H :    0.032623
  78 H :    0.036764
  79 H :    0.033031
  80 H :    0.028858
  81 H :    0.033871
  82 H :    0.031388
  83 H :    0.032009
  84 H :    0.032838
  85 H :    0.033632
  86 H :    0.024619
  87 H :    0.043548
  88 H :    0.029335
  89 H :    0.032167
  90 H :    0.031437
  91 H :    0.027674
  92 H :    0.029545
  93 H :    0.028077
  94 H :    0.039787
  95 H :    0.035110
  96 H :    0.024686
  97 H :    0.031567

  Mayer bond orders larger than 0.100000
B(  0-C ,  1-C ) :   1.5576 B(  0-C ,  4-S ) :   1.1308 B(  0-C , 71-H ) :   0.9644
B(  1-C ,  2-C ) :   1.2666 B(  1-C , 72-H ) :   0.9962 B(  2-C ,  3-C ) :   1.4149
B(  2-C ,  7-C ) :   1.0472 B(  3-C ,  4-S ) :   1.1313 B(  3-C ,  5-C ) :   1.2345
B(  5-C ,  6-C ) :   1.3910 B(  5-C , 15-S ) :   1.1092 B(  6-C ,  7-C ) :   0.9768
B(  6-C , 13-C ) :   1.3514 B(  7-C ,  8-C ) :   1.6931 B(  8-C ,  9-C ) :   1.1367
B(  8-C , 11-C ) :   1.1338 B(  9-C , 10-N ) :   2.9855 B( 11-C , 12-N ) :   3.0010
B( 13-C , 14-C ) :   1.3327 B( 13-C , 73-H ) :   1.0048 B( 14-C , 15-S ) :   1.0838
B( 14-C , 16-C ) :   1.2530 B( 16-C , 17-C ) :   1.4776 B( 16-C , 74-H ) :   0.9697
B( 17-C , 18-C ) :   1.1971 B( 17-C , 21-S ) :   1.0424 B( 18-C , 19-C ) :   1.5202
B( 18-C , 75-H ) :   1.0012 B( 19-C , 20-C ) :   1.2520 B( 19-C , 76-H ) :   0.9947
B( 20-C , 21-S ) :   1.0637 B( 20-C , 22-C ) :   1.3870 B( 22-C , 23-C ) :   1.2788
B( 22-C , 26-S ) :   1.0681 B( 23-C , 24-C ) :   1.4704 B( 23-C , 77-H ) :   0.9963
B( 24-C , 25-C ) :   1.2536 B( 24-C , 78-H ) :   1.0017 B( 25-C , 26-S ) :   1.0640
B( 25-C , 27-C ) :   1.4033 B( 27-C , 28-C ) :   1.3247 B( 27-C , 79-H ) :   0.9750
B( 28-C , 29-C ) :   1.4046 B( 28-C , 80-H ) :   0.9723 B( 29-C , 30-C ) :   1.2527
B( 29-C , 33-S ) :   1.0639 B( 30-C , 31-C ) :   1.4704 B( 30-C , 81-H ) :   1.0007
B( 31-C , 32-C ) :   1.2811 B( 31-C , 82-H ) :   0.9956 B( 32-C , 33-S ) :   1.0782
B( 32-C , 34-C ) :   1.3739 B( 34-C , 35-C ) :   1.2642 B( 34-C , 38-S ) :   1.0621
B( 35-C , 36-C ) :   1.5080 B( 35-C , 83-H ) :   0.9938 B( 36-C , 37-C ) :   1.2052
B( 36-C , 84-H ) :   1.0009 B( 37-C , 38-S ) :   1.0591 B( 37-C , 39-C ) :   1.5040
B( 39-C , 40-C ) :   1.2381 B( 39-C , 85-H ) :   0.9514 B( 40-C , 41-C ) :   1.3445
B( 40-C , 44-S ) :   1.0951 B( 41-C , 42-C ) :   1.3878 B( 41-C , 86-H ) :   0.9688
B( 42-C , 43-C ) :   1.4005 B( 42-C , 47-C ) :   0.9796 B( 43-C , 44-S ) :   1.0887
B( 43-C , 45-C ) :   1.2398 B( 45-C , 46-C ) :   1.4013 B( 45-C , 55-S ) :   1.1265
B( 46-C , 47-C ) :   1.0276 B( 46-C , 53-C ) :   1.2538 B( 47-C , 48-C ) :   1.6876
B( 48-C , 49-C ) :   1.1415 B( 48-C , 51-C ) :   1.1414 B( 49-C , 50-N ) :   2.9856
B( 51-C , 52-N ) :   2.9782 B( 53-C , 54-C ) :   1.4874 B( 53-C , 87-H ) :   0.9882
B( 54-C , 55-S ) :   1.0852 B( 54-C , 56-C ) :   1.0608 B( 56-C , 57-C ) :   1.2777
B( 56-C , 68-C ) :   1.3656 B( 57-C , 58-C ) :   1.4287 B( 57-C , 88-H ) :   0.9955
B( 58-C , 59-C ) :   1.3499 B( 58-C , 63-C ) :   0.8737 B( 59-C , 60-C ) :   0.8804
B( 59-C , 67-C ) :   1.3784 B( 60-C , 61-O ) :   2.2285 B( 60-C , 62-N ) :   1.0596
B( 62-N , 63-C ) :   1.0660 B( 62-N , 65-C ) :   0.9197 B( 63-C , 64-O ) :   2.2274
B( 65-C , 66-C ) :   1.1251 B( 65-C , 89-H ) :   0.9419 B( 65-C , 90-H ) :   0.9429
B( 66-C , 91-H ) :   0.9695 B( 66-C , 92-H ) :   0.9700 B( 66-C , 93-H ) :   0.9696
B( 67-C , 68-C ) :   1.3371 B( 67-C , 94-H ) :   1.0112 B( 68-C , 69-C ) :   1.0249
B( 69-C , 70-C ) :   1.9719 B( 69-C , 95-H ) :   0.9484 B( 70-C , 96-H ) :   0.9597
B( 70-C , 97-H ) :   0.9505

-----------------------------------------------------------------------------
         ABSORPTION SPECTRUM VIA TRANSITION ELECTRIC DIPOLE MOMENTS
-----------------------------------------------------------------------------
State   Energy  Wavelength   fosc         T2         TX        TY        TZ
        (cm-1)    (nm)                  (au**2)     (au)      (au)      (au)
-----------------------------------------------------------------------------
   0    2508.1   3987.0   0.298508178  39.18133  -6.08026  -1.41372  -0.46171
   1    6296.3   1588.2   0.069427864   3.63016   1.86231  -0.24219  -0.32143
   2    8860.3   1128.6   0.181244007   6.73429   2.30834  -1.18555  -0.01712
   3   11558.4    865.2   0.003428502   0.09765   0.10338  -0.01546  -0.29449
   4   15291.4    654.0   0.066511629   1.43195   0.66152  -0.98147  -0.17624
   5   16686.7    599.3   0.034104226   0.67284  -0.51495  -0.25505  -0.58533
   6   17912.4    558.3   0.083554786   1.53565   0.04772   1.03464   0.68037
   7   19012.6    526.0   0.055379378   0.95892   0.44996   0.86340   0.10487
   8   20768.6    481.5   0.483259596   7.66035  -1.27159  -2.38754  -0.58572
   9   21807.8    458.6   0.001605940   0.02424   0.00414  -0.15559  -0.00410
  10   23420.9    427.0   0.028643566   0.40262  -0.12242   0.59425   0.18575
  11   24523.9    407.8   0.599031067   8.04147   0.95028   2.61606   0.54284
  12   25595.4    390.7   0.793106748  10.20107  -0.82138  -3.03859  -0.54165
  13   26663.3    375.0   0.195163034   2.40968   0.02013   1.49959   0.40064
  14   27622.0    362.0   0.043018606   0.51272  -0.19308   0.68581   0.07143
  15   27835.8    359.2   0.073927690   0.87434   0.33425   0.84904   0.20432
  16   28841.1    346.7   0.166906133   1.90518   1.20835   0.64176   0.18228
  17   29005.4    344.8   0.000184598   0.00210   0.01352  -0.00121   0.04371
  18   29141.6    343.2   0.013710326   0.15489  -0.31623   0.17243  -0.15860
  19   29482.3    339.2   0.127405521   1.42266  -1.13303   0.20223  -0.31306
  20   29686.6    336.9   0.038491031   0.42685   0.56921  -0.18507  -0.26192
  21   30096.3    332.3   0.198138324   2.16736  -1.12542   0.93157   0.18153
  22   30123.9    332.0   0.010298930   0.11255   0.33208  -0.04454  -0.01710
  23   30500.1    327.9   0.154665460   1.66943  -1.25892  -0.25711  -0.13583
  24   30798.9    324.7   0.201531513   2.15419  -0.66058   1.30916   0.06278
  25   31580.2    316.7   0.060516420   0.63086   0.47687   0.55385   0.31096
  26   32120.1    311.3   0.001838149   0.01884   0.08987  -0.10364  -0.00481
  27   32163.4    310.9   0.050819590   0.52017   0.46976  -0.54209  -0.07503
  28   32416.6    308.5   0.262985814   2.67080   1.51371  -0.61593  -0.01062
  29   32830.4    304.6   0.005486280   0.05501  -0.20019   0.11452   0.04269
  30   33189.7    301.3   0.254134441   2.52078  -1.51084  -0.38996  -0.29339
  31   33378.7    299.6   0.099398008   0.98036  -0.97873   0.14074  -0.05131
  32   33628.7    297.4   0.081222459   0.79514  -0.73751  -0.49944   0.04220
  33   33659.3    297.1   0.209014228   2.04431   1.04203  -0.94009  -0.27333
  34   33888.6    295.1   0.072993490   0.70910   0.74182   0.39815  -0.01648
  35   34114.8    293.1   0.031783257   0.30671   0.43373  -0.29007  -0.18561
  36   34305.2    291.5   0.155984169   1.49691   0.29110   1.17657   0.16689
  37   34754.1    287.7   0.111199791   1.05335   0.99683  -0.16424   0.18087
  38   34958.7    286.1   0.009434446   0.08885   0.29795   0.00300  -0.00790
  39   35410.5    282.4   0.047196665   0.43879   0.63484  -0.17833   0.06297
  40   35596.8    280.9   0.039806129   0.36814  -0.37558  -0.44897  -0.15971
  41   35786.6    279.4   0.007320135   0.06734   0.14532  -0.19782   0.08420
  42   35996.1    277.8   0.020002264   0.18294   0.25179  -0.31618  -0.13989
  43   36150.5    276.6   0.010336676   0.09413  -0.01869  -0.29098  -0.09548
  44   36232.8    276.0   0.030892022   0.28069  -0.19297  -0.44115  -0.22098
  45   36440.1    274.4   0.128925357   1.16476   0.44227  -0.95890  -0.22284
  46   37189.6    268.9   0.033088008   0.29290   0.42826   0.32901   0.03528
  47   37353.7    267.7   0.110730495   0.97591   0.27072   0.94406   0.10661
  48   37749.6    264.9   0.000971970   0.00848  -0.07993   0.03537   0.02893
  49   37792.0    264.6   0.018678730   0.16271   0.36953  -0.14868   0.06367
  50   37881.2    264.0   0.048296357   0.41973  -0.32994  -0.55629  -0.03748
  51   38252.4    261.4   0.071323483   0.61383  -0.46559  -0.60472  -0.17713
  52   38517.5    259.6   0.000591544   0.00506  -0.05681   0.01345  -0.04059
  53   38606.6    259.0   0.090728517   0.77367   0.74877  -0.41080  -0.21038
  54   38766.3    258.0   0.073502727   0.62420   0.66819   0.39136   0.15670
  55   39139.3    255.5   0.019534628   0.16431  -0.02668   0.38744   0.11614
  56   39343.3    254.2   0.025625703   0.21443   0.38214   0.25994   0.02876
  57   39449.7    253.5   0.013071627   0.10908   0.30297   0.10735  -0.07594
  58   39504.7    253.1   0.035432917   0.29528   0.29118   0.45856   0.01451
  59   39719.6    251.8   0.021564720   0.17874   0.17343  -0.37470  -0.09086

FINAL SINGLE POINT ENERGY     -5755.541948252587

DIPOLE MOMENT
-------------
                                X             Y             Z
Electronic contribution:    -61.87417     -38.61322     -14.44539
Nuclear contribution   :     63.25244      36.78234      14.05599
                        -----------------------------------------
Total Dipole Moment    :      1.37827      -1.83088      -0.38940
                        -----------------------------------------
Magnitude (a.u.)       :      2.32452
Magnitude (Debye)      :      5.90845

Rotational constants in cm-1:     0.002051     0.000147     0.000138
Rotational constants in MHz :    61.489240     4.396097     4.129610

                             ****ORCA TERMINATED NORMALLY****
TOTAL RUN TIME: 0 days 0 hours 11 minutes 51 seconds 366 msec
