                         Program Version 4.2.0 -  RELEASE  -
|  1> # ORCA input file
|  2> # SCF done       -207.330041052393          0.000470539259
|  3> ! CAM-B3LYP def2-SVP def2/J RIJCOSX Grid4 TightSCF
|  4> %maxcore 5000
|  5> %tddft
|  6>     Mode sTDDFT
|  7>     Ethresh 5.0
|  8>     maxcore 5000
|  9> end
| 10>
| 11> %pal
| 12>   nprocs 6
| 13>   end
| 14> * xyz 0 1
| 15>    C        6.75514         0.32067         5.80988
| 16>    C        6.01468         1.10591         6.64203
| 17>    C        4.97017         1.75038         5.95304
| 18>    C        4.96096         1.43277         4.58896
| 19>    S        6.20251         0.34361         4.17309
| 20>    C        3.88007         2.12870         3.97371
| 21>    C        3.19669         2.85555         4.95821
| 22>    C        3.85704         2.62933         6.23819
| 23>    C        3.47691         3.10813         7.46240
| 24>    C        2.30088         3.85786         7.64473
| 25>    N        1.31632         4.42761         7.80218
| 26>    C        4.20816         2.80853         8.62684
| 27>    N        4.80399         2.54700         9.57303
| 28>    C        2.11889         3.58298         4.44997
| 29>    C        1.99179         3.43285         3.08073
| 30>    S        3.21487         2.35402         2.42402
| 31>    C        1.05282         4.06662         2.20852
| 32>    C       -0.13429         4.59816         2.64929
| 33>    C       -1.05063         5.26698         1.83848
| 34>    C       -0.78407         5.49726         0.41738
| 35>    C        0.30319         5.02940        -0.23484
| 36>    S        1.54990         4.13269         0.52528
| 37>    C       -1.89789         6.24268        -0.05721
| 38>    C       -2.81412         6.44950         0.97729
| 39>    C       -3.93609         7.18626         0.53431
| 40>    C       -3.84177         7.50693        -0.78293
| 41>    S       -2.40035         6.93357        -1.54625
| 42>    C       -2.30425         5.82302         2.17321
| 43>    C       -2.91914         5.67085         3.43334
| 44>    C       -4.14598         6.12641         3.80419
| 45>    C       -4.75144         5.80973         5.04721
| 46>    C       -4.22971         5.10066         6.10236
| 47>    C       -5.15743         4.83420         7.12732
| 48>    C       -5.01579         4.08885         8.31981
| 49>    C       -6.15350         4.01412         9.14772
| 50>    C       -7.32261         4.71451         8.75499
| 51>    N       -7.46440         5.40966         7.64690
| 52>    C       -6.41743         5.44401         6.85569
| 53>    S       -6.42921         6.26027         5.33073
| 54>    S       -8.64248         4.53781         9.87961
| 55>    C       -7.65785         3.47578        10.83928
| 56>    C       -6.40676         3.28662        10.34985
| 57>    F       -5.53286         2.44855        10.92956
| 58>    F       -8.15764         2.92279        11.93809
| 59>    C       -3.74937         3.46495         8.62398
| 60>    C       -2.89377         2.87675         7.71088
| 61>    C       -1.70014         2.46170         8.29841
| 62>    C       -1.66067         2.71121         9.68339
| 63>    S       -3.06803         3.49411        10.23836
| 64>    C       -0.44092         2.21027        10.19534
| 65>    C        0.30159         1.66505         9.12160
| 66>    C       -0.46187         1.82322         7.89876
| 67>    C       -0.06415         1.49599         6.63160
| 68>    C        1.14582         0.82145         6.38585
| 69>    N        2.13750         0.27888         6.18661
| 70>    C       -0.79785         1.89064         5.49752
| 71>    N       -1.35921         2.27965         4.57486
| 72>    C        1.54017         1.18111         9.50791
| 73>    C        1.75744         1.30632        10.87722
| 74>    S        0.38409         2.08858        11.67273
| 75>    C        2.87275         1.00881        11.67326
| 76>    C        4.06836         0.40777        11.38199
| 77>    C        5.19825         0.68272        12.30458
| 78>    O        5.14225         1.14490        13.41884
| 79>    C        6.41374         0.29883        11.54727
| 80>    C        6.03757        -0.28130        10.32260
| 81>    C        7.01375        -0.70576         9.43841
| 82>    C        8.36119        -0.55274         9.77010
| 83>    C        8.72034         0.02789        10.99957
| 84>    C        7.73435         0.45925        11.89642
| 85>    C       10.06518         0.21939        11.39318
| 86>    N       11.14196         0.37618        11.75896
| 87>    C        9.34363        -0.99933         8.72387
| 88>    O        9.01600        -1.07354         7.56941
| 89>    O       10.57735        -1.33018         9.09784
| 90>    C        4.57458        -0.34185        10.25936
| 91>    C        3.86312        -1.15460         9.41235
| 92>    C        2.50079        -1.45211         9.61430
| 93>    N        1.40191        -1.73485         9.78836
| 94>    C        4.42024        -1.82238         8.30292
| 95>    N        4.82510        -2.34889         7.36724
| 96>    H        7.60627        -0.28077         6.06340
| 97>    H        6.22209         1.22327         7.68990
| 98>    H        1.48198         4.22097         5.03534
| 99>    H       -0.37043         4.46174         3.69379
|100>    H        0.46299         5.18591        -1.28983
|101>    H       -4.77523         7.47791         1.13789
|102>    H       -4.54628         8.05895        -1.37377
|103>    H       -2.36110         5.08111         4.14644
|104>    H       -4.74026         6.71234         3.12210
|105>    H       -3.20078         4.79932         6.13774
|106>    H       -3.15967         2.70522         6.68393
|107>    H        2.27434         0.79663         8.82555
|108>    H        2.83261         1.41295        12.68169
|109>    H        6.77557        -1.15081         8.48515
|110>    H        8.00660         0.90988        12.83881
|111>    H       10.78130        -1.19416        10.03552
|112> *
|113>
|114>                          ****END OF INPUT****

CARTESIAN COORDINATES (ANGSTROEM)
---------------------------------
  C      6.755140    0.320670    5.809880
  C      6.014680    1.105910    6.642030
  C      4.970170    1.750380    5.953040
  C      4.960960    1.432770    4.588960
  S      6.202510    0.343610    4.173090
  C      3.880070    2.128700    3.973710
  C      3.196690    2.855550    4.958210
  C      3.857040    2.629330    6.238190
  C      3.476910    3.108130    7.462400
  C      2.300880    3.857860    7.644730
  N      1.316320    4.427610    7.802180
  C      4.208160    2.808530    8.626840
  N      4.803990    2.547000    9.573030
  C      2.118890    3.582980    4.449970
  C      1.991790    3.432850    3.080730
  S      3.214870    2.354020    2.424020
  C      1.052820    4.066620    2.208520
  C     -0.134290    4.598160    2.649290
  C     -1.050630    5.266980    1.838480
  C     -0.784070    5.497260    0.417380
  C      0.303190    5.029400   -0.234840
  S      1.549900    4.132690    0.525280
  C     -1.897890    6.242680   -0.057210
  C     -2.814120    6.449500    0.977290
  C     -3.936090    7.186260    0.534310
  C     -3.841770    7.506930   -0.782930
  S     -2.400350    6.933570   -1.546250
  C     -2.304250    5.823020    2.173210
  C     -2.919140    5.670850    3.433340
  C     -4.145980    6.126410    3.804190
  C     -4.751440    5.809730    5.047210
  C     -4.229710    5.100660    6.102360
  C     -5.157430    4.834200    7.127320
  C     -5.015790    4.088850    8.319810
  C     -6.153500    4.014120    9.147720
  C     -7.322610    4.714510    8.754990
  N     -7.464400    5.409660    7.646900
  C     -6.417430    5.444010    6.855690
  S     -6.429210    6.260270    5.330730
  S     -8.642480    4.537810    9.879610
  C     -7.657850    3.475780   10.839280
  C     -6.406760    3.286620   10.349850
  F     -5.532860    2.448550   10.929560
  F     -8.157640    2.922790   11.938090
  C     -3.749370    3.464950    8.623980
  C     -2.893770    2.876750    7.710880
  C     -1.700140    2.461700    8.298410
  C     -1.660670    2.711210    9.683390
  S     -3.068030    3.494110   10.238360
  C     -0.440920    2.210270   10.195340
  C      0.301590    1.665050    9.121600
  C     -0.461870    1.823220    7.898760
  C     -0.064150    1.495990    6.631600
  C      1.145820    0.821450    6.385850
  N      2.137500    0.278880    6.186610
  C     -0.797850    1.890640    5.497520
  N     -1.359210    2.279650    4.574860
  C      1.540170    1.181110    9.507910
  C      1.757440    1.306320   10.877220
  S      0.384090    2.088580   11.672730
  C      2.872750    1.008810   11.673260
  C      4.068360    0.407770   11.381990
  C      5.198250    0.682720   12.304580
  O      5.142250    1.144900   13.418840
  C      6.413740    0.298830   11.547270
  C      6.037570   -0.281300   10.322600
  C      7.013750   -0.705760    9.438410
  C      8.361190   -0.552740    9.770100
  C      8.720340    0.027890   10.999570
  C      7.734350    0.459250   11.896420
  C     10.065180    0.219390   11.393180
  N     11.141960    0.376180   11.758960
  C      9.343630   -0.999330    8.723870
  O      9.016000   -1.073540    7.569410
  O     10.577350   -1.330180    9.097840
  C      4.574580   -0.341850   10.259360
  C      3.863120   -1.154600    9.412350
  C      2.500790   -1.452110    9.614300
  N      1.401910   -1.734850    9.788360
  C      4.420240   -1.822380    8.302920
  N      4.825100   -2.348890    7.367240
  H      7.606270   -0.280770    6.063400
  H      6.222090    1.223270    7.689900
  H      1.481980    4.220970    5.035340
  H     -0.370430    4.461740    3.693790
  H      0.462990    5.185910   -1.289830
  H     -4.775230    7.477910    1.137890
  H     -4.546280    8.058950   -1.373770
  H     -2.361100    5.081110    4.146440
  H     -4.740260    6.712340    3.122100
  H     -3.200780    4.799320    6.137740
  H     -3.159670    2.705220    6.683930
  H      2.274340    0.796630    8.825550
  H      2.832610    1.412950   12.681690
  H      6.775570   -1.150810    8.485150
  H      8.006600    0.909880   12.838810
  H     10.781300   -1.194160   10.035520

 Total Charge           Charge          ....    0
 Multiplicity           Mult            ....    1
 Number of Electrons    NEL             ....  602
 Basis Dimension        Dim             .... 1246

ORBITAL ENERGIES
----------------

  NO   OCC          E(Eh)            E(eV)
   0   2.0000     -89.002164     -2421.8720
   1   2.0000     -88.997149     -2421.7355
   2   2.0000     -88.990301     -2421.5492
   3   2.0000     -88.980680     -2421.2874
   4   2.0000     -88.980355     -2421.2785
   5   2.0000     -88.969957     -2420.9956
   6   2.0000     -88.958553     -2420.6853
   7   2.0000     -88.952972     -2420.5334
   8   2.0000     -24.811262      -675.1488
   9   2.0000     -24.801993      -674.8965
  10   2.0000     -19.279218      -524.6142
  11   2.0000     -19.228100      -523.2232
  12   2.0000     -19.222444      -523.0693
  13   2.0000     -14.446238      -393.1021
  14   2.0000     -14.442257      -392.9938
  15   2.0000     -14.440915      -392.9573
  16   2.0000     -14.439918      -392.9301
  17   2.0000     -14.437992      -392.8777
  18   2.0000     -14.427316      -392.5872
  19   2.0000     -14.426141      -392.5552
  20   2.0000     -14.422392      -392.4532
  21   2.0000     -10.430103      -283.8175
  22   2.0000     -10.391209      -282.7592
  23   2.0000     -10.378524      -282.4140
  24   2.0000     -10.371013      -282.2096
  25   2.0000     -10.370631      -282.1992
  26   2.0000     -10.362100      -281.9671
  27   2.0000     -10.362014      -281.9647
  28   2.0000     -10.357058      -281.8299
  29   2.0000     -10.355842      -281.7968
  30   2.0000     -10.355669      -281.7921
  31   2.0000     -10.353160      -281.7238
  32   2.0000     -10.352828      -281.7148
  33   2.0000     -10.347633      -281.5734
  34   2.0000     -10.343919      -281.4724
  35   2.0000     -10.343261      -281.4544
  36   2.0000     -10.343033      -281.4482
  37   2.0000     -10.341938      -281.4184
  38   2.0000     -10.340141      -281.3695
  39   2.0000     -10.339846      -281.3615
  40   2.0000     -10.339495      -281.3520
  41   2.0000     -10.338079      -281.3134
  42   2.0000     -10.334726      -281.2222
  43   2.0000     -10.334586      -281.2184
  44   2.0000     -10.332476      -281.1610
  45   2.0000     -10.331589      -281.1368
  46   2.0000     -10.331449      -281.1330
  47   2.0000     -10.331336      -281.1300
  48   2.0000     -10.329913      -281.0912
  49   2.0000     -10.329805      -281.0883
  50   2.0000     -10.327189      -281.0171
  51   2.0000     -10.326312      -280.9932
  52   2.0000     -10.323694      -280.9220
  53   2.0000     -10.322617      -280.8927
  54   2.0000     -10.322403      -280.8869
  55   2.0000     -10.321226      -280.8548
  56   2.0000     -10.321188      -280.8538
  57   2.0000     -10.317143      -280.7437
  58   2.0000     -10.313800      -280.6528
  59   2.0000     -10.313219      -280.6370
  60   2.0000     -10.312580      -280.6196
  61   2.0000     -10.310619      -280.5662
  62   2.0000     -10.307798      -280.4894
  63   2.0000     -10.305508      -280.4271
  64   2.0000     -10.303006      -280.3590
  65   2.0000     -10.301160      -280.3088
  66   2.0000     -10.300405      -280.2883
  67   2.0000     -10.299484      -280.2632
  68   2.0000     -10.298525      -280.2371
  69   2.0000     -10.297626      -280.2127
  70   2.0000     -10.297192      -280.2009
  71   2.0000     -10.293279      -280.0944
  72   2.0000     -10.289823      -280.0003
  73   2.0000     -10.289594      -279.9941
  74   2.0000     -10.288671      -279.9690
  75   2.0000     -10.283408      -279.8258
  76   2.0000     -10.276956      -279.6502
  77   2.0000     -10.276610      -279.6408
  78   2.0000     -10.276477      -279.6372
  79   2.0000     -10.276467      -279.6369
  80   2.0000     -10.273674      -279.5609
  81   2.0000      -8.096944      -220.3290
  82   2.0000      -8.091606      -220.1838
  83   2.0000      -8.085048      -220.0053
  84   2.0000      -8.076333      -219.7682
  85   2.0000      -8.075398      -219.7428
  86   2.0000      -8.067087      -219.5166
  87   2.0000      -8.053975      -219.1598
  88   2.0000      -8.049855      -219.0477
  89   2.0000      -6.066044      -165.0654
  90   2.0000      -6.061931      -164.9535
  91   2.0000      -6.060753      -164.9215
  92   2.0000      -6.059451      -164.8860
  93   2.0000      -6.056482      -164.8053
  94   2.0000      -6.054265      -164.7449
  95   2.0000      -6.054175      -164.7425
  96   2.0000      -6.050033      -164.6298
  97   2.0000      -6.047493      -164.5606
  98   2.0000      -6.045929      -164.5181
  99   2.0000      -6.044573      -164.4812
 100   2.0000      -6.041324      -164.3928
 101   2.0000      -6.040032      -164.3576
 102   2.0000      -6.038225      -164.3085
 103   2.0000      -6.038163      -164.3068
 104   2.0000      -6.036627      -164.2650
 105   2.0000      -6.032821      -164.1614
 106   2.0000      -6.027882      -164.0270
 107   2.0000      -6.023395      -163.9049
 108   2.0000      -6.019210      -163.7910
 109   2.0000      -6.019146      -163.7893
 110   2.0000      -6.016068      -163.7055
 111   2.0000      -6.015326      -163.6853
 112   2.0000      -6.011228      -163.5738
 113   2.0000      -1.329922       -36.1890
 114   2.0000      -1.312623       -35.7183
 115   2.0000      -1.206493       -32.8303
 116   2.0000      -1.143962       -31.1288
 117   2.0000      -1.119875       -30.4733
 118   2.0000      -1.074172       -29.2297
 119   2.0000      -1.056327       -28.7441
 120   2.0000      -1.043870       -28.4051
 121   2.0000      -1.037783       -28.2395
 122   2.0000      -1.033604       -28.1258
 123   2.0000      -1.029445       -28.0126
 124   2.0000      -1.027758       -27.9667
 125   2.0000      -1.020007       -27.7558
 126   2.0000      -1.017810       -27.6960
 127   2.0000      -1.012589       -27.5539
 128   2.0000      -1.009605       -27.4727
 129   2.0000      -1.009221       -27.4623
 130   2.0000      -1.001529       -27.2530
 131   2.0000      -0.995105       -27.0782
 132   2.0000      -0.992866       -27.0173
 133   2.0000      -0.977743       -26.6057
 134   2.0000      -0.972376       -26.4597
 135   2.0000      -0.971878       -26.4461
 136   2.0000      -0.964919       -26.2568
 137   2.0000      -0.956146       -26.0181
 138   2.0000      -0.936158       -25.4742
 139   2.0000      -0.930395       -25.3173
 140   2.0000      -0.918671       -24.9983
 141   2.0000      -0.917091       -24.9553
 142   2.0000      -0.911551       -24.8046
 143   2.0000      -0.899460       -24.4756
 144   2.0000      -0.893758       -24.3204
 145   2.0000      -0.890578       -24.2339
 146   2.0000      -0.882193       -24.0057
 147   2.0000      -0.877024       -23.8650
 148   2.0000      -0.867134       -23.5959
 149   2.0000      -0.861678       -23.4474
 150   2.0000      -0.852042       -23.1852
 151   2.0000      -0.849250       -23.1093
 152   2.0000      -0.843248       -22.9459
 153   2.0000      -0.840763       -22.8783
 154   2.0000      -0.822963       -22.3940
 155   2.0000      -0.818810       -22.2810
 156   2.0000      -0.814115       -22.1532
 157   2.0000      -0.803988       -21.8776
 158   2.0000      -0.797992       -21.7145
 159   2.0000      -0.789494       -21.4832
 160   2.0000      -0.787433       -21.4271
 161   2.0000      -0.775761       -21.1095
 162   2.0000      -0.772277       -21.0147
 163   2.0000      -0.756035       -20.5727
 164   2.0000      -0.750451       -20.4208
 165   2.0000      -0.738621       -20.0989
 166   2.0000      -0.730294       -19.8723
 167   2.0000      -0.728728       -19.8297
 168   2.0000      -0.719960       -19.5911
 169   2.0000      -0.715132       -19.4597
 170   2.0000      -0.707264       -19.2456
 171   2.0000      -0.706735       -19.2312
 172   2.0000      -0.703573       -19.1452
 173   2.0000      -0.698518       -19.0076
 174   2.0000      -0.691503       -18.8167
 175   2.0000      -0.685026       -18.6405
 176   2.0000      -0.682496       -18.5717
 177   2.0000      -0.679687       -18.4952
 178   2.0000      -0.669562       -18.2197
 179   2.0000      -0.661956       -18.0127
 180   2.0000      -0.657099       -17.8806
 181   2.0000      -0.653226       -17.7752
 182   2.0000      -0.650022       -17.6880
 183   2.0000      -0.648613       -17.6497
 184   2.0000      -0.644075       -17.5262
 185   2.0000      -0.642114       -17.4728
 186   2.0000      -0.632484       -17.2108
 187   2.0000      -0.630412       -17.1544
 188   2.0000      -0.625318       -17.0158
 189   2.0000      -0.619944       -16.8695
 190   2.0000      -0.614534       -16.7223
 191   2.0000      -0.612769       -16.6743
 192   2.0000      -0.608660       -16.5625
 193   2.0000      -0.606686       -16.5088
 194   2.0000      -0.596964       -16.2442
 195   2.0000      -0.595412       -16.2020
 196   2.0000      -0.592032       -16.1100
 197   2.0000      -0.585987       -15.9455
 198   2.0000      -0.579999       -15.7826
 199   2.0000      -0.573201       -15.5976
 200   2.0000      -0.569770       -15.5042
 201   2.0000      -0.566585       -15.4176
 202   2.0000      -0.564996       -15.3743
 203   2.0000      -0.564516       -15.3613
 204   2.0000      -0.563763       -15.3408
 205   2.0000      -0.559727       -15.2310
 206   2.0000      -0.556290       -15.1374
 207   2.0000      -0.553008       -15.0481
 208   2.0000      -0.551527       -15.0078
 209   2.0000      -0.548139       -14.9156
 210   2.0000      -0.547047       -14.8859
 211   2.0000      -0.546000       -14.8574
 212   2.0000      -0.539665       -14.6850
 213   2.0000      -0.534020       -14.5314
 214   2.0000      -0.532748       -14.4968
 215   2.0000      -0.531390       -14.4599
 216   2.0000      -0.526432       -14.3249
 217   2.0000      -0.524561       -14.2740
 218   2.0000      -0.521141       -14.1810
 219   2.0000      -0.519902       -14.1473
 220   2.0000      -0.519097       -14.1254
 221   2.0000      -0.515458       -14.0263
 222   2.0000      -0.514744       -14.0069
 223   2.0000      -0.510534       -13.8923
 224   2.0000      -0.509604       -13.8670
 225   2.0000      -0.508331       -13.8324
 226   2.0000      -0.506589       -13.7850
 227   2.0000      -0.503364       -13.6972
 228   2.0000      -0.499518       -13.5926
 229   2.0000      -0.496005       -13.4970
 230   2.0000      -0.493570       -13.4307
 231   2.0000      -0.489430       -13.3181
 232   2.0000      -0.488555       -13.2943
 233   2.0000      -0.487312       -13.2604
 234   2.0000      -0.483874       -13.1669
 235   2.0000      -0.480993       -13.0885
 236   2.0000      -0.479005       -13.0344
 237   2.0000      -0.477379       -12.9902
 238   2.0000      -0.476131       -12.9562
 239   2.0000      -0.475378       -12.9357
 240   2.0000      -0.473136       -12.8747
 241   2.0000      -0.471619       -12.8334
 242   2.0000      -0.469444       -12.7742
 243   2.0000      -0.468614       -12.7516
 244   2.0000      -0.468269       -12.7422
 245   2.0000      -0.464771       -12.6471
 246   2.0000      -0.463127       -12.6023
 247   2.0000      -0.460282       -12.5249
 248   2.0000      -0.460081       -12.5195
 249   2.0000      -0.458050       -12.4642
 250   2.0000      -0.457100       -12.4383
 251   2.0000      -0.456423       -12.4199
 252   2.0000      -0.455418       -12.3926
 253   2.0000      -0.452340       -12.3088
 254   2.0000      -0.450619       -12.2620
 255   2.0000      -0.450485       -12.2583
 256   2.0000      -0.450050       -12.2465
 257   2.0000      -0.448915       -12.2156
 258   2.0000      -0.446817       -12.1585
 259   2.0000      -0.443431       -12.0664
 260   2.0000      -0.442601       -12.0438
 261   2.0000      -0.442414       -12.0387
 262   2.0000      -0.441123       -12.0036
 263   2.0000      -0.438557       -11.9337
 264   2.0000      -0.436085       -11.8665
 265   2.0000      -0.434553       -11.8248
 266   2.0000      -0.434285       -11.8175
 267   2.0000      -0.429395       -11.6844
 268   2.0000      -0.428787       -11.6679
 269   2.0000      -0.426704       -11.6112
 270   2.0000      -0.423277       -11.5180
 271   2.0000      -0.421685       -11.4746
 272   2.0000      -0.420605       -11.4452
 273   2.0000      -0.416979       -11.3466
 274   2.0000      -0.414813       -11.2876
 275   2.0000      -0.412219       -11.2171
 276   2.0000      -0.409005       -11.1296
 277   2.0000      -0.407169       -11.0796
 278   2.0000      -0.399668       -10.8755
 279   2.0000      -0.392077       -10.6690
 280   2.0000      -0.387230       -10.5371
 281   2.0000      -0.382065       -10.3965
 282   2.0000      -0.364321        -9.9137
 283   2.0000      -0.363309        -9.8861
 284   2.0000      -0.355186        -9.6651
 285   2.0000      -0.354697        -9.6518
 286   2.0000      -0.353772        -9.6266
 287   2.0000      -0.352986        -9.6052
 288   2.0000      -0.349363        -9.5066
 289   2.0000      -0.342301        -9.3145
 290   2.0000      -0.333855        -9.0846
 291   2.0000      -0.333062        -9.0631
 292   2.0000      -0.331507        -9.0208
 293   2.0000      -0.324644        -8.8340
 294   2.0000      -0.320814        -8.7298
 295   2.0000      -0.297506        -8.0956
 296   2.0000      -0.291541        -7.9332
 297   2.0000      -0.289899        -7.8886
 298   2.0000      -0.271144        -7.3782
 299   2.0000      -0.261978        -7.1288
 300   2.0000      -0.224939        -6.1209
 301   0.0000      -0.120167        -3.2699
 302   0.0000      -0.104576        -2.8457
 303   0.0000      -0.099715        -2.7134
 304   0.0000      -0.086525        -2.3545
 305   0.0000      -0.069929        -1.9029

MULLIKEN ATOMIC CHARGES
-----------------------
   0 C :   -0.068447
   1 C :    0.006403
   2 C :   -0.011110
   3 C :   -0.102751
   4 S :    0.198768
   5 C :   -0.092243
   6 C :   -0.004149
   7 C :    0.319558
   8 C :   -0.349322
   9 C :   -0.184512
  10 N :    0.159862
  11 C :   -0.169265
  12 N :    0.146157
  13 C :   -0.049385
  14 C :   -0.071295
  15 S :    0.193193
  16 C :   -0.045556
  17 C :   -0.024891
  18 C :    0.051469
  19 C :    0.068066
  20 C :   -0.126269
  21 S :    0.128370
  22 C :   -0.116042
  23 C :    0.056090
  24 C :   -0.008284
  25 C :   -0.065389
  26 S :    0.128953
  27 C :    0.086390
  28 C :    0.007710
  29 C :    0.030619
  30 C :   -0.045043
  31 C :   -0.075350
  32 C :    0.087952
  33 C :    0.117169
  34 C :    0.035586
  35 C :   -0.184415
  36 N :   -0.005515
  37 C :   -0.156844
  38 S :    0.134727
  39 S :    0.136014
  40 C :    0.067513
  41 C :    0.202320
  42 F :   -0.180006
  43 F :   -0.150241
  44 C :   -0.158384
  45 C :   -0.025457
  46 C :    0.015849
  47 C :   -0.103015
  48 S :    0.245493
  49 C :   -0.057117
  50 C :   -0.022019
  51 C :    0.328201
  52 C :   -0.313634
  53 C :   -0.167070
  54 N :    0.165984
  55 C :   -0.179162
  56 N :    0.166285
  57 C :   -0.003025
  58 C :   -0.115772
  59 S :    0.216905
  60 C :    0.096103
  61 C :   -0.116510
  62 C :    0.150969
  63 O :   -0.132939
  64 C :    0.029020
  65 C :    0.076138
  66 C :   -0.094006
  67 C :    0.010930
  68 C :   -0.049823
  69 C :   -0.036935
  70 C :   -0.224376
  71 N :    0.129798
  72 C :    0.180798
  73 O :   -0.169421
  74 O :   -0.125226
  75 C :    0.262624
  76 C :   -0.335490
  77 C :   -0.219295
  78 N :    0.182149
  79 C :   -0.170453
  80 N :    0.176849
  81 H :    0.054546
  82 H :   -0.006185
  83 H :    0.010076
  84 H :   -0.019488
  85 H :    0.037711
  86 H :   -0.011469
  87 H :    0.025691
  88 H :   -0.033734
  89 H :   -0.050931
  90 H :   -0.007459
  91 H :    0.021646
  92 H :    0.047405
  93 H :    0.018315
  94 H :    0.022528
  95 H :    0.016139
  96 H :    0.183680
Sum of atomic charges:   -0.0000000

LOEWDIN ATOMIC CHARGES
----------------------
   0 C :   -0.160188
   1 C :   -0.045815
   2 C :   -0.076055
   3 C :   -0.180328
   4 S :    0.501396
   5 C :   -0.169936
   6 C :   -0.078330
   7 C :    0.103922
   8 C :   -0.135426
   9 C :   -0.014418
  10 N :   -0.054864
  11 C :   -0.001889
  12 N :   -0.056708
  13 C :   -0.033760
  14 C :   -0.185624
  15 S :    0.479306
  16 C :   -0.181629
  17 C :   -0.010764
  18 C :   -0.008522
  19 C :   -0.047434
  20 C :   -0.141235
  21 S :    0.443664
  22 C :   -0.202427
  23 C :   -0.035086
  24 C :   -0.065480
  25 C :   -0.165005
  26 S :    0.425083
  27 C :   -0.053176
  28 C :    0.016431
  29 C :   -0.073508
  30 C :   -0.126284
  31 C :   -0.082192
  32 C :   -0.044836
  33 C :   -0.032476
  34 C :   -0.084951
  35 C :   -0.138791
  36 N :   -0.089426
  37 C :   -0.135827
  38 S :    0.414116
  39 S :    0.415773
  40 C :   -0.098509
  41 C :   -0.010869
  42 F :   -0.058991
  43 F :   -0.040375
  44 C :   -0.150706
  45 C :   -0.024157
  46 C :   -0.055056
  47 C :   -0.189916
  48 S :    0.521722
  49 C :   -0.143880
  50 C :   -0.069037
  51 C :    0.095065
  52 C :   -0.110904
  53 C :   -0.007860
  54 N :   -0.034257
  55 C :   -0.007621
  56 N :   -0.038773
  57 C :    0.014681
  58 C :   -0.177766
  59 S :    0.507208
  60 C :    0.050987
  61 C :   -0.096037
  62 C :    0.089568
  63 O :   -0.132202
  64 C :   -0.021521
  65 C :    0.013865
  66 C :    0.028010
  67 C :   -0.038701
  68 C :   -0.057120
  69 C :    0.049316
  70 C :   -0.041733
  71 N :   -0.030652
  72 C :    0.092919
  73 O :   -0.147566
  74 O :   -0.002626
  75 C :    0.063117
  76 C :   -0.132320
  77 C :   -0.019050
  78 N :   -0.036029
  79 C :   -0.022792
  80 N :   -0.033531
  81 H :    0.026702
  82 H :    0.031254
  83 H :    0.037120
  84 H :    0.034507
  85 H :    0.037139
  86 H :    0.028988
  87 H :    0.023821
  88 H :    0.028989
  89 H :    0.022632
  90 H :    0.027615
  91 H :    0.043462
  92 H :    0.039471
  93 H :    0.045832
  94 H :    0.047674
  95 H :    0.052578
  96 H :    0.089013

  Mayer bond orders larger than 0.100000
B(  0-C ,  1-C ) :   1.5472 B(  0-C ,  4-S ) :   1.1595 B(  0-C , 81-H ) :   0.9403
B(  1-C ,  2-C ) :   1.2698 B(  1-C , 82-H ) :   0.9941 B(  2-C ,  3-C ) :   1.4443
B(  2-C ,  7-C ) :   1.0317 B(  3-C ,  4-S ) :   1.1486 B(  3-C ,  5-C ) :   1.1781
B(  5-C ,  6-C ) :   1.4581 B(  5-C , 15-S ) :   1.1379 B(  6-C ,  7-C ) :   0.9861
B(  6-C , 13-C ) :   1.2889 B(  7-C ,  8-C ) :   1.6779 B(  8-C ,  9-C ) :   1.1479
B(  8-C , 11-C ) :   1.1473 B(  9-C , 10-N ) :   2.9460 B( 11-C , 12-N ) :   2.9303
B( 13-C , 14-C ) :   1.4849 B( 13-C , 83-H ) :   0.9937 B( 14-C , 15-S ) :   1.1078
B( 14-C , 16-C ) :   1.0869 B( 16-C , 17-C ) :   1.5667 B( 16-C , 21-S ) :   1.0483
B( 17-C , 18-C ) :   1.2399 B( 17-C , 84-H ) :   0.9591 B( 18-C , 19-C ) :   1.0529
B( 18-C , 27-C ) :   1.3659 B( 19-C , 20-C ) :   1.6060 B( 19-C , 22-C ) :   1.1768
B( 20-C , 21-S ) :   1.1385 B( 20-C , 85-H ) :   0.9412 B( 22-C , 23-C ) :   1.4542
B( 22-C , 26-S ) :   1.0785 B( 23-C , 24-C ) :   1.2161 B( 23-C , 27-C ) :   1.0673
B( 24-C , 25-C ) :   1.5860 B( 24-C , 86-H ) :   1.0010 B( 25-C , 26-S ) :   1.1582
B( 25-C , 87-H ) :   0.9645 B( 27-C , 28-C ) :   1.2065 B( 28-C , 29-C ) :   1.6227
B( 28-C , 88-H ) :   0.9527 B( 29-C , 30-C ) :   1.1293 B( 29-C , 89-H ) :   0.9682
B( 30-C , 31-C ) :   1.5261 B( 30-C , 38-S ) :   1.0744 B( 31-C , 32-C ) :   1.1954
B( 31-C , 90-H ) :   0.9848 B( 32-C , 33-C ) :   1.3423 B( 32-C , 37-C ) :   1.1786
B( 33-C , 34-C ) :   1.3446 B( 33-C , 44-C ) :   1.0192 B( 34-C , 35-C ) :   1.1867
B( 34-C , 41-C ) :   1.0837 B( 35-C , 36-N ) :   1.5445 B( 35-C , 39-S ) :   1.0710
B( 36-N , 37-C ) :   1.5516 B( 37-C , 38-S ) :   1.0833 B( 39-S , 40-C ) :   1.0872
B( 40-C , 41-C ) :   1.5099 B( 40-C , 43-F ) :   1.1419 B( 41-C , 42-F ) :   1.1244
B( 44-C , 45-C ) :   1.4662 B( 44-C , 48-S ) :   1.1492 B( 45-C , 46-C ) :   1.2886
B( 45-C , 91-H ) :   0.9983 B( 46-C , 47-C ) :   1.4179 B( 46-C , 51-C ) :   0.9986
B( 47-C , 48-S ) :   1.1412 B( 47-C , 49-C ) :   1.1966 B( 49-C , 50-C ) :   1.3883
B( 49-C , 59-S ) :   1.1729 B( 50-C , 51-C ) :   0.9991 B( 50-C , 57-C ) :   1.3877
B( 51-C , 52-C ) :   1.6929 B( 52-C , 53-C ) :   1.1501 B( 52-C , 55-C ) :   1.1468
B( 53-C , 54-N ) :   2.9259 B( 55-C , 56-N ) :   2.9518 B( 57-C , 58-C ) :   1.3587
B( 57-C , 92-H ) :   0.9590 B( 58-C , 59-S ) :   1.0843 B( 58-C , 60-C ) :   1.2066
B( 60-C , 61-C ) :   1.6190 B( 60-C , 93-H ) :   0.9156 B( 61-C , 62-C ) :   0.9587
B( 61-C , 75-C ) :   1.0549 B( 62-C , 63-O ) :   2.2644 B( 62-C , 64-C ) :   0.8998
B( 64-C , 65-C ) :   1.3395 B( 64-C , 69-C ) :   1.3764 B( 65-C , 66-C ) :   1.3384
B( 65-C , 75-C ) :   0.9970 B( 66-C , 67-C ) :   1.3679 B( 66-C , 94-H ) :   0.9870
B( 67-C , 68-C ) :   1.3496 B( 67-C , 72-C ) :   0.8698 B( 68-C , 69-C ) :   1.3529
B( 68-C , 70-C ) :   1.0584 B( 69-C , 95-H ) :   1.0096 B( 70-C , 71-N ) :   2.9875
B( 72-C , 73-O ) :   2.0931 B( 72-C , 74-O ) :   1.2976 B( 74-O , 96-H ) :   0.9359
B( 75-C , 76-C ) :   1.6418 B( 76-C , 77-C ) :   1.1764 B( 76-C , 79-C ) :   1.1301
B( 77-C , 78-N ) :   2.9915 B( 79-C , 80-N ) :   2.9722

-----------------------------------------------------------------------------
         ABSORPTION SPECTRUM VIA TRANSITION ELECTRIC DIPOLE MOMENTS
-----------------------------------------------------------------------------
State   Energy  Wavelength   fosc         T2         TX        TY        TZ
        (cm-1)    (nm)                  (au**2)     (au)      (au)      (au)
-----------------------------------------------------------------------------
   0    8240.6   1213.5   0.020949902   0.83694   0.08105  -0.38635   0.82529
   1   11413.6    876.1   0.116963534   3.37368  -1.41371   0.85374  -0.80389
   2   13754.4    727.0   0.055190657   1.32099   1.03601  -0.43350   0.24443
   3   14998.1    666.8   0.043319329   0.95087  -0.20519  -0.36991   0.87860
   4   16714.9    598.3   0.081512889   1.60545   1.16972  -0.25989  -0.41189
   5   17850.0    560.2   0.155948698   2.87620   1.34845  -0.01116  -1.02847
   6   18578.2    538.3   0.167176307   2.96242   1.62136  -0.51798  -0.25555
   7   19706.1    507.5   0.592869642   9.90455   2.76913  -1.46672   0.29192
   8   20156.8    496.1   0.133464899   2.17982  -1.40244   0.44908  -0.10639
   9   21161.0    472.6   0.006425108   0.09996   0.08519   0.11314   0.28267
  10   21385.5    467.6   0.010870090   0.16734   0.36592   0.05914  -0.17304
  11   22366.2    447.1   0.141747194   2.08640   1.12680  -0.03127  -0.90318
  12   23023.9    434.3   0.006071126   0.08681   0.16872  -0.15579  -0.18459
  13   24160.5    413.9   0.628018048   8.55741  -2.50391   0.90092  -1.21499
  14   24393.5    409.9   0.023426554   0.31616   0.42277   0.10938  -0.35421
  15   25442.7    393.0   0.097021455   1.25539   0.69439  -0.57360   0.66649
  16   25617.2    390.4   0.189000338   2.42888  -0.67895   0.89739  -1.07825
  17   26426.8    378.4   0.149193237   1.85857   0.31517   0.41202  -1.26075
  18   26795.2    373.2   0.003774241   0.04637   0.02759  -0.16983  -0.12949
  19   27070.2    369.4   0.021686836   0.26374   0.38760  -0.31263   0.12559
  20   27454.8    364.2   0.116581045   1.39793   1.02754  -0.56414   0.15440
  21   27979.0    357.4   0.152033482   1.78889  -0.15835   0.22247  -1.30932
  22   28056.1    356.4   0.044985945   0.52787  -0.29835  -0.36834  -0.55062
  23   28417.7    351.9   0.141830212   1.64307  -0.56736  -0.07014   1.14728
  24   29294.9    341.4   0.240871848   2.70688  -0.65109   0.37904   1.46263
  25   29452.0    339.5   0.083414626   0.93240  -0.80109   0.37547   0.38689
  26   29540.4    338.5   0.119185143   1.32826  -0.62367   0.57945   0.77687
  27   29941.7    334.0   0.012381387   0.13613   0.11787   0.10798   0.33254
  28   30123.1    332.0   0.230356460   2.51754  -0.77418  -0.37641   1.33286
  29   30532.6    327.5   0.259943674   2.80279  -0.38599   0.45946   1.56292
  30   30812.5    324.5   0.077076314   0.82351  -0.85737  -0.22328  -0.19642
  31   31069.2    321.9   0.064194597   0.68021  -0.54131   0.54528  -0.29978
  32   31171.3    320.8   0.143366158   1.51415   1.09609  -0.19187  -0.52528
  33   31229.7    320.2   0.144199943   1.52010  -0.91913   0.33576   0.75004
  34   31581.7    316.6   0.118246272   1.23261   0.88873  -0.34896  -0.56657
  35   31789.3    314.6   0.173876284   1.80067  -1.07110   0.80815  -0.01777
  36   31946.6    313.0   0.020983681   0.21624  -0.25668   0.18475   0.34091
  37   32112.8    311.4   0.197770981   2.02750   1.31994  -0.51550  -0.13972
  38   32282.7    309.8   0.021197434   0.21617   0.39383  -0.12820   0.21126
  39   32504.9    307.6   0.269281025   2.72730   0.75732  -0.04299   1.46694
  40   32662.9    306.2   0.270819476   2.72961   0.37935   0.30285  -1.57924
  41   32945.8    303.5   0.079545752   0.79486   0.77475   0.14032  -0.41826
  42   33000.0    303.0   0.111528267   1.11262  -0.81192   0.26685   0.61822
  43   33269.6    300.6   0.189865240   1.87877  -0.73683   0.12228   1.14930
  44   33860.7    295.3   0.311747950   3.03098  -1.70141   0.04368   0.36641
  45   34146.1    292.9   0.176499076   1.70168   0.94054  -0.75768   0.49293
  46   34313.2    291.4   0.031430441   0.30155   0.30517   0.17585   0.42131
  47   34415.7    290.6   0.106220187   1.01607  -0.63319  -0.23697   0.74766
  48   34565.0    289.3   0.011067172   0.10541  -0.23055   0.20565   0.09982
  49   34686.2    288.3   0.180488389   1.71304   0.68938  -0.00807   1.11253
  50   34894.4    286.6   0.271386822   2.56040   1.49583  -0.33030   0.46237
  51   35086.3    285.0   0.096639963   0.90677   0.03911   0.94893  -0.06898
  52   35221.5    283.9   0.204061370   1.90734  -0.62531   0.12005  -1.22553
  53   35367.7    282.7   0.192207853   1.78912   0.58987   0.06446   1.19876
  54   35632.3    280.6   0.157730844   1.45730   0.00352   0.91428   0.78827
  55   35749.1    279.7   0.304506784   2.80419   1.35127  -0.43259   0.88945
  56   36358.2    275.0   0.047484797   0.42996   0.49628  -0.12661   0.40943
  57   36445.5    274.4   0.043294576   0.39108  -0.49228   0.04934  -0.38250
  58   36576.0    273.4   0.014850881   0.13367  -0.09198  -0.03174  -0.35242
  59   36695.9    272.5   0.057980662   0.52017   0.43819  -0.37117   0.43634
  60   36901.2    271.0   0.038265427   0.34138   0.37209  -0.40299   0.20132
  61   37076.7    269.7   0.008596216   0.07633   0.06090  -0.05397   0.26402
  62   37320.8    267.9   0.016675237   0.14709   0.00229  -0.09850  -0.37066
  63   37361.7    267.7   0.060345232   0.53173   0.35195  -0.33014  -0.54669
  64   37532.0    266.4   0.029614489   0.25976  -0.19067   0.45299   0.13494
  65   37677.5    265.4   0.029467942   0.25748   0.33533  -0.35124   0.14718
  66   37741.0    265.0   0.003985535   0.03477  -0.18194   0.01328   0.03858
  67   37850.0    264.2   0.034860926   0.30321  -0.40512   0.30790  -0.21046
  68   38086.6    262.6   0.051223634   0.44277   0.52554  -0.40289   0.06519
  69   38305.9    261.1   0.044587572   0.38320  -0.53855  -0.21046   0.22107
  70   38385.2    260.5   0.081797035   0.70154  -0.56460   0.38308  -0.48581
  71   38770.5    257.9   0.031567626   0.26805  -0.42038   0.30156   0.01976
  72   38877.2    257.2   0.006505421   0.05509   0.07090   0.18868  -0.12026
  73   38931.8    256.9   0.031025528   0.26236   0.46108  -0.09729  -0.20073
  74   38996.4    256.4   0.016171730   0.13652   0.34276  -0.11712   0.07296
  75   39243.8    254.8   0.014607128   0.12254  -0.03548  -0.12705   0.32425
  76   39571.3    252.7   0.013884262   0.11551   0.06290  -0.32973  -0.05322
  77   39705.6    251.9   0.051464729   0.42671  -0.62308   0.19372  -0.03081
  78   39821.0    251.1   0.100388957   0.82994  -0.73129  -0.21902  -0.49718
  79   39930.2    250.4   0.010538635   0.08689  -0.16622   0.19502  -0.14570
  80   40053.4    249.7   0.017576865   0.14447  -0.02595  -0.00671  -0.37915
  81   40215.7    248.7   0.030971336   0.25354  -0.46765   0.06305   0.17567
  82   40253.0    248.4   0.005454883   0.04461  -0.10171   0.09633   0.15808

FINAL SINGLE POINT ENERGY     -6339.803950184911

DIPOLE MOMENT
-------------
                                X             Y             Z
Electronic contribution:    -27.23700      -5.51573      23.14437
Nuclear contribution   :     26.77903       6.91356     -24.04677
                        -----------------------------------------
Total Dipole Moment    :     -0.45797       1.39783      -0.90241
                        -----------------------------------------
Magnitude (a.u.)       :      1.72569
Magnitude (Debye)      :      4.38636

Rotational constants in cm-1:     0.000913     0.000455     0.000320
Rotational constants in MHz :    27.376210    13.630367     9.579746

                             ****ORCA TERMINATED NORMALLY****
TOTAL RUN TIME: 0 days 0 hours 13 minutes 48 seconds 627 msec
