                         Program Version 4.2.0 -  RELEASE  -
|  1> # ORCA input file
|  2> # SCF done       -213.936437884280          0.000722257299
|  3> ! CAM-B3LYP def2-SVP def2/J RIJCOSX Grid4 TightSCF
|  4> %maxcore 5000
|  5> %tddft
|  6>     Mode sTDDFT
|  7>     Ethresh 5.0
|  8>     maxcore 5000
|  9> end
| 10>
| 11> %pal
| 12>   nprocs 6
| 13>   end
| 14> * xyz 0 1
| 15>    C       -1.31320        -9.89096        10.45398
| 16>    C       -1.60259        -9.80257        11.81404
| 17>    C       -2.14560       -10.98081        12.57039
| 18>    O       -1.88966       -11.17052        13.72473
| 19>    O       -2.92945       -11.81942        11.88194
| 20>    C       -1.33203        -8.62101        12.52409
| 21>    C       -1.64757        -8.49400        13.90097
| 22>    N       -1.90142        -8.27986        14.99680
| 23>    C       -0.75983        -7.51902        11.87898
| 24>    C       -0.47519        -7.62470        10.53548
| 25>    C       -0.76096        -8.79595         9.81084
| 26>    C       -0.38529        -8.59118         8.41259
| 27>    C       -0.88562        -9.31102         7.35689
| 28>    C       -1.71570       -10.43626         7.52129
| 29>    N       -2.39016       -11.35877         7.63596
| 30>    C       -0.69738        -8.96128         6.00617
| 31>    N       -0.57849        -8.71038         4.89207
| 32>    C        0.36628        -7.36451         8.34671
| 33>    C        0.17502        -6.64012         9.63285
| 34>    O        0.51409        -5.51268         9.89588
| 35>    C        1.19603        -6.83883         7.39947
| 36>    C        1.82997        -7.47100         6.30159
| 37>    C        2.32050        -6.67813         5.23405
| 38>    C        2.94047        -7.26037         4.07937
| 39>    N        3.32581        -6.48881         3.06197
| 40>    C        3.14143        -5.18863         3.12300
| 41>    C        2.55487        -4.60543         4.28985
| 42>    N        2.16152        -5.34639         5.29620
| 43>    C        2.39843        -3.19635         4.36729
| 44>    N        2.28764        -2.05737         4.39370
| 45>    C        3.53572        -4.37942         2.02999
| 46>    N        3.84382        -3.69943         1.16140
| 47>    C        3.15662        -8.66077         3.95126
| 48>    C        2.74389        -9.44357         5.05640
| 49>    C        2.08766        -8.85886         6.20239
| 50>    N        1.81145        -9.77858         7.12752
| 51>    S        2.30670       -11.22039         6.61078
| 52>    N        2.90079       -10.75812         5.19773
| 53>    C        3.73746        -9.19687         2.78837
| 54>    C        3.94591       -10.55128         2.50842
| 55>    C        4.54398       -10.73850         1.28102
| 56>    C        4.81264        -9.51541         0.60253
| 57>    S        4.29389        -8.14687         1.48877
| 58>    C        5.42715        -9.81394        -0.62371
| 59>    C        5.54309       -11.22379        -0.73973
| 60>    C        4.99411       -11.84358         0.45431
| 61>    C        4.92492       -13.17627         0.73769
| 62>    C        5.40039       -14.15878        -0.15654
| 63>    N        5.78575       -14.96250        -0.87795
| 64>    C        4.37904       -13.66145         1.94536
| 65>    N        3.94167       -14.06515         2.92519
| 66>    C        6.13885       -11.62099        -1.92071
| 67>    C        6.49861       -10.53123        -2.71513
| 68>    S        6.08589        -8.99259        -1.97846
| 69>    C        7.13142       -10.58275        -3.97865
| 70>    C        7.50794        -9.40091        -4.65266
| 71>    C        8.15416        -9.42063        -5.93715
| 72>    N        8.50178        -8.26643        -6.50523
| 73>    C        8.25106        -7.12291        -5.90245
| 74>    C        7.60420        -7.10712        -4.63156
| 75>    N        7.25634        -8.23286        -4.05097
| 76>    C        7.34342        -5.87723        -3.97637
| 77>    N        7.15246        -4.86645        -3.47408
| 78>    C        8.64107        -5.91799        -6.53532
| 79>    N        8.95062        -4.93309        -7.03130
| 80>    C        8.43784       -10.61939        -6.64356
| 81>    C        8.07978       -11.81208        -5.95311
| 82>    C        7.44577       -11.78893        -4.65218
| 83>    N        7.20902       -13.01557        -4.19574
| 84>    S        7.72514       -14.09805        -5.25792
| 85>    N        8.27567       -13.06580        -6.36349
| 86>    C        9.04010       -10.58881        -7.93527
| 87>    C        9.21068       -11.75242        -8.67443
| 88>    C        9.81647       -11.84522        -9.91296
| 89>    C       10.28324       -10.65483       -10.62379
| 90>    C       10.20826        -9.41176       -10.09890
| 91>    S        9.55126        -9.02453        -8.56012
| 92>    C       10.75721       -11.12045       -11.88103
| 93>    C       10.59578       -12.51406       -11.95105
| 94>    C       11.05375       -13.03847       -13.18560
| 95>    C       11.53032       -12.06147       -13.99425
| 96>    S       11.45158       -10.46791       -13.30142
| 97>    C       10.03418       -12.98703       -10.73192
| 98>    C        9.78226       -14.37358       -10.47008
| 99>    C        9.66685       -14.96596        -9.27830
|100>    H       -1.46991       -10.81680         9.92070
|101>    H       -3.08886       -11.55494        10.96502
|102>    H       -0.54373        -6.61147        12.42194
|103>    H        1.44924        -5.79155         7.53324
|104>    H        3.65690       -11.32156         3.20007
|105>    H        6.32483       -12.63349        -2.22799
|106>    H        8.81428       -12.65090        -8.22875
|107>    H       10.55825        -8.54220       -10.63417
|108>    H       11.03096       -14.07765       -13.45857
|109>    H       11.93764       -12.16425       -14.98094
|110>    H        9.72841       -14.98744       -11.36168
|111>    H        9.78237       -14.44064        -8.34750
|112>    H        9.48409       -16.02454        -9.20829
|113> *
|114>
|115>                          ****END OF INPUT****

CARTESIAN COORDINATES (ANGSTROEM)
---------------------------------
  C     -1.313200   -9.890960   10.453980
  C     -1.602590   -9.802570   11.814040
  C     -2.145600  -10.980810   12.570390
  O     -1.889660  -11.170520   13.724730
  O     -2.929450  -11.819420   11.881940
  C     -1.332030   -8.621010   12.524090
  C     -1.647570   -8.494000   13.900970
  N     -1.901420   -8.279860   14.996800
  C     -0.759830   -7.519020   11.878980
  C     -0.475190   -7.624700   10.535480
  C     -0.760960   -8.795950    9.810840
  C     -0.385290   -8.591180    8.412590
  C     -0.885620   -9.311020    7.356890
  C     -1.715700  -10.436260    7.521290
  N     -2.390160  -11.358770    7.635960
  C     -0.697380   -8.961280    6.006170
  N     -0.578490   -8.710380    4.892070
  C      0.366280   -7.364510    8.346710
  C      0.175020   -6.640120    9.632850
  O      0.514090   -5.512680    9.895880
  C      1.196030   -6.838830    7.399470
  C      1.829970   -7.471000    6.301590
  C      2.320500   -6.678130    5.234050
  C      2.940470   -7.260370    4.079370
  N      3.325810   -6.488810    3.061970
  C      3.141430   -5.188630    3.123000
  C      2.554870   -4.605430    4.289850
  N      2.161520   -5.346390    5.296200
  C      2.398430   -3.196350    4.367290
  N      2.287640   -2.057370    4.393700
  C      3.535720   -4.379420    2.029990
  N      3.843820   -3.699430    1.161400
  C      3.156620   -8.660770    3.951260
  C      2.743890   -9.443570    5.056400
  C      2.087660   -8.858860    6.202390
  N      1.811450   -9.778580    7.127520
  S      2.306700  -11.220390    6.610780
  N      2.900790  -10.758120    5.197730
  C      3.737460   -9.196870    2.788370
  C      3.945910  -10.551280    2.508420
  C      4.543980  -10.738500    1.281020
  C      4.812640   -9.515410    0.602530
  S      4.293890   -8.146870    1.488770
  C      5.427150   -9.813940   -0.623710
  C      5.543090  -11.223790   -0.739730
  C      4.994110  -11.843580    0.454310
  C      4.924920  -13.176270    0.737690
  C      5.400390  -14.158780   -0.156540
  N      5.785750  -14.962500   -0.877950
  C      4.379040  -13.661450    1.945360
  N      3.941670  -14.065150    2.925190
  C      6.138850  -11.620990   -1.920710
  C      6.498610  -10.531230   -2.715130
  S      6.085890   -8.992590   -1.978460
  C      7.131420  -10.582750   -3.978650
  C      7.507940   -9.400910   -4.652660
  C      8.154160   -9.420630   -5.937150
  N      8.501780   -8.266430   -6.505230
  C      8.251060   -7.122910   -5.902450
  C      7.604200   -7.107120   -4.631560
  N      7.256340   -8.232860   -4.050970
  C      7.343420   -5.877230   -3.976370
  N      7.152460   -4.866450   -3.474080
  C      8.641070   -5.917990   -6.535320
  N      8.950620   -4.933090   -7.031300
  C      8.437840  -10.619390   -6.643560
  C      8.079780  -11.812080   -5.953110
  C      7.445770  -11.788930   -4.652180
  N      7.209020  -13.015570   -4.195740
  S      7.725140  -14.098050   -5.257920
  N      8.275670  -13.065800   -6.363490
  C      9.040100  -10.588810   -7.935270
  C      9.210680  -11.752420   -8.674430
  C      9.816470  -11.845220   -9.912960
  C     10.283240  -10.654830  -10.623790
  C     10.208260   -9.411760  -10.098900
  S      9.551260   -9.024530   -8.560120
  C     10.757210  -11.120450  -11.881030
  C     10.595780  -12.514060  -11.951050
  C     11.053750  -13.038470  -13.185600
  C     11.530320  -12.061470  -13.994250
  S     11.451580  -10.467910  -13.301420
  C     10.034180  -12.987030  -10.731920
  C      9.782260  -14.373580  -10.470080
  C      9.666850  -14.965960   -9.278300
  H     -1.469910  -10.816800    9.920700
  H     -3.088860  -11.554940   10.965020
  H     -0.543730   -6.611470   12.421940
  H      1.449240   -5.791550    7.533240
  H      3.656900  -11.321560    3.200070
  H      6.324830  -12.633490   -2.227990
  H      8.814280  -12.650900   -8.228750
  H     10.558250   -8.542200  -10.634170
  H     11.030960  -14.077650  -13.458570
  H     11.937640  -12.164250  -14.980940
  H      9.728410  -14.987440  -11.361680
  H      9.782370  -14.440640   -8.347500
  H      9.484090  -16.024540   -9.208290

 Total Charge           Charge          ....    0
 Multiplicity           Mult            ....    1
 Number of Electrons    NEL             ....  606
 Basis Dimension        Dim             .... 1279

ORBITAL ENERGIES
----------------

  NO   OCC          E(Eh)            E(eV)
   0   2.0000     -89.061648     -2423.4907
   1   2.0000     -89.053731     -2423.2752
   2   2.0000     -88.998001     -2421.7587
   3   2.0000     -88.995841     -2421.7000
   4   2.0000     -88.987487     -2421.4726
   5   2.0000     -88.981055     -2421.2976
   6   2.0000     -19.269858      -524.3595
   7   2.0000     -19.225502      -523.1525
   8   2.0000     -19.209105      -522.7063
   9   2.0000     -14.482046      -394.0765
  10   2.0000     -14.480888      -394.0450
  11   2.0000     -14.480411      -394.0320
  12   2.0000     -14.475850      -393.9079
  13   2.0000     -14.470833      -393.7714
  14   2.0000     -14.470079      -393.7509
  15   2.0000     -14.468724      -393.7140
  16   2.0000     -14.457994      -393.4220
  17   2.0000     -14.445615      -393.0852
  18   2.0000     -14.441331      -392.9686
  19   2.0000     -14.438468      -392.8907
  20   2.0000     -14.437753      -392.8712
  21   2.0000     -14.437631      -392.8679
  22   2.0000     -14.436755      -392.8441
  23   2.0000     -14.428039      -392.6069
  24   2.0000     -14.425791      -392.5457
  25   2.0000     -14.404929      -391.9780
  26   2.0000     -10.414594      -283.3955
  27   2.0000     -10.403911      -283.1048
  28   2.0000     -10.396473      -282.9024
  29   2.0000     -10.395898      -282.8868
  30   2.0000     -10.392093      -282.7832
  31   2.0000     -10.375991      -282.3451
  32   2.0000     -10.373412      -282.2749
  33   2.0000     -10.369253      -282.1617
  34   2.0000     -10.368048      -282.1289
  35   2.0000     -10.367326      -282.1093
  36   2.0000     -10.365936      -282.0715
  37   2.0000     -10.364748      -282.0391
  38   2.0000     -10.362842      -281.9873
  39   2.0000     -10.360909      -281.9347
  40   2.0000     -10.356225      -281.8072
  41   2.0000     -10.353763      -281.7402
  42   2.0000     -10.350793      -281.6594
  43   2.0000     -10.349589      -281.6266
  44   2.0000     -10.348689      -281.6021
  45   2.0000     -10.347785      -281.5775
  46   2.0000     -10.347013      -281.5565
  47   2.0000     -10.346457      -281.5414
  48   2.0000     -10.343272      -281.4547
  49   2.0000     -10.342014      -281.4205
  50   2.0000     -10.338981      -281.3380
  51   2.0000     -10.338947      -281.3371
  52   2.0000     -10.338777      -281.3324
  53   2.0000     -10.337901      -281.3086
  54   2.0000     -10.337717      -281.3036
  55   2.0000     -10.335466      -281.2423
  56   2.0000     -10.331912      -281.1456
  57   2.0000     -10.331385      -281.1313
  58   2.0000     -10.330453      -281.1059
  59   2.0000     -10.329886      -281.0905
  60   2.0000     -10.329782      -281.0877
  61   2.0000     -10.329642      -281.0838
  62   2.0000     -10.328034      -281.0401
  63   2.0000     -10.327747      -281.0323
  64   2.0000     -10.322620      -280.8928
  65   2.0000     -10.320336      -280.8306
  66   2.0000     -10.320174      -280.8262
  67   2.0000     -10.319130      -280.7978
  68   2.0000     -10.318495      -280.7805
  69   2.0000     -10.318336      -280.7762
  70   2.0000     -10.318236      -280.7735
  71   2.0000     -10.317778      -280.7610
  72   2.0000     -10.315259      -280.6925
  73   2.0000     -10.314310      -280.6667
  74   2.0000     -10.313402      -280.6419
  75   2.0000     -10.313158      -280.6353
  76   2.0000     -10.311956      -280.6026
  77   2.0000     -10.307338      -280.4769
  78   2.0000     -10.306623      -280.4575
  79   2.0000     -10.304734      -280.4061
  80   2.0000     -10.301841      -280.3274
  81   2.0000     -10.301195      -280.3098
  82   2.0000     -10.298795      -280.2445
  83   2.0000     -10.297957      -280.2217
  84   2.0000     -10.292984      -280.0863
  85   2.0000      -8.152962      -221.8534
  86   2.0000      -8.144617      -221.6263
  87   2.0000      -8.090547      -220.1550
  88   2.0000      -8.088252      -220.0925
  89   2.0000      -8.080888      -219.8921
  90   2.0000      -8.076565      -219.7745
  91   2.0000      -6.124206      -166.6481
  92   2.0000      -6.116248      -166.4316
  93   2.0000      -6.115756      -166.4182
  94   2.0000      -6.115498      -166.4112
  95   2.0000      -6.107958      -166.2060
  96   2.0000      -6.107347      -166.1894
  97   2.0000      -6.060151      -164.9051
  98   2.0000      -6.057807      -164.8413
  99   2.0000      -6.055286      -164.7727
 100   2.0000      -6.053004      -164.7106
 101   2.0000      -6.052861      -164.7067
 102   2.0000      -6.050687      -164.6476
 103   2.0000      -6.050650      -164.6465
 104   2.0000      -6.046008      -164.5202
 105   2.0000      -6.045659      -164.5108
 106   2.0000      -6.042721      -164.4308
 107   2.0000      -6.041653      -164.4017
 108   2.0000      -6.038620      -164.3192
 109   2.0000      -1.193597       -32.4794
 110   2.0000      -1.161379       -31.6027
 111   2.0000      -1.152469       -31.3603
 112   2.0000      -1.142826       -31.0979
 113   2.0000      -1.141102       -31.0510
 114   2.0000      -1.136058       -30.9137
 115   2.0000      -1.108782       -30.1715
 116   2.0000      -1.071132       -29.1470
 117   2.0000      -1.063760       -28.9464
 118   2.0000      -1.053243       -28.6602
 119   2.0000      -1.032393       -28.0928
 120   2.0000      -1.031407       -28.0660
 121   2.0000      -1.029980       -28.0272
 122   2.0000      -1.028561       -27.9886
 123   2.0000      -1.023303       -27.8455
 124   2.0000      -1.020465       -27.7683
 125   2.0000      -1.016700       -27.6658
 126   2.0000      -1.015378       -27.6298
 127   2.0000      -1.014969       -27.6187
 128   2.0000      -1.013668       -27.5833
 129   2.0000      -1.010170       -27.4881
 130   2.0000      -1.008339       -27.4383
 131   2.0000      -1.004139       -27.3240
 132   2.0000      -0.998503       -27.1706
 133   2.0000      -0.991444       -26.9786
 134   2.0000      -0.987978       -26.8842
 135   2.0000      -0.981399       -26.7052
 136   2.0000      -0.965889       -26.2832
 137   2.0000      -0.964091       -26.2342
 138   2.0000      -0.949310       -25.8320
 139   2.0000      -0.931474       -25.3467
 140   2.0000      -0.929329       -25.2883
 141   2.0000      -0.921976       -25.0882
 142   2.0000      -0.920413       -25.0457
 143   2.0000      -0.914654       -24.8890
 144   2.0000      -0.908846       -24.7309
 145   2.0000      -0.893226       -24.3059
 146   2.0000      -0.890455       -24.2305
 147   2.0000      -0.883812       -24.0497
 148   2.0000      -0.879857       -23.9421
 149   2.0000      -0.873112       -23.7586
 150   2.0000      -0.864308       -23.5190
 151   2.0000      -0.860606       -23.4183
 152   2.0000      -0.855153       -23.2699
 153   2.0000      -0.848015       -23.0756
 154   2.0000      -0.833218       -22.6730
 155   2.0000      -0.828122       -22.5343
 156   2.0000      -0.821445       -22.3526
 157   2.0000      -0.816404       -22.2155
 158   2.0000      -0.802336       -21.8327
 159   2.0000      -0.794994       -21.6329
 160   2.0000      -0.789860       -21.4932
 161   2.0000      -0.782994       -21.3064
 162   2.0000      -0.768587       -20.9143
 163   2.0000      -0.756290       -20.5797
 164   2.0000      -0.750542       -20.4233
 165   2.0000      -0.748147       -20.3581
 166   2.0000      -0.742126       -20.1943
 167   2.0000      -0.738228       -20.0882
 168   2.0000      -0.727766       -19.8035
 169   2.0000      -0.724057       -19.7026
 170   2.0000      -0.714805       -19.4508
 171   2.0000      -0.713380       -19.4120
 172   2.0000      -0.711177       -19.3521
 173   2.0000      -0.706262       -19.2184
 174   2.0000      -0.704321       -19.1655
 175   2.0000      -0.697019       -18.9668
 176   2.0000      -0.694339       -18.8939
 177   2.0000      -0.690359       -18.7856
 178   2.0000      -0.682688       -18.5769
 179   2.0000      -0.675959       -18.3938
 180   2.0000      -0.670201       -18.2371
 181   2.0000      -0.667348       -18.1595
 182   2.0000      -0.660414       -17.9708
 183   2.0000      -0.658915       -17.9300
 184   2.0000      -0.652107       -17.7447
 185   2.0000      -0.643280       -17.5046
 186   2.0000      -0.642330       -17.4787
 187   2.0000      -0.640073       -17.4173
 188   2.0000      -0.636987       -17.3333
 189   2.0000      -0.635296       -17.2873
 190   2.0000      -0.628502       -17.1024
 191   2.0000      -0.622274       -16.9329
 192   2.0000      -0.619998       -16.8710
 193   2.0000      -0.609467       -16.5844
 194   2.0000      -0.604547       -16.4506
 195   2.0000      -0.601306       -16.3624
 196   2.0000      -0.600382       -16.3372
 197   2.0000      -0.595295       -16.1988
 198   2.0000      -0.592618       -16.1260
 199   2.0000      -0.587192       -15.9783
 200   2.0000      -0.582658       -15.8549
 201   2.0000      -0.576744       -15.6940
 202   2.0000      -0.575720       -15.6661
 203   2.0000      -0.571608       -15.5542
 204   2.0000      -0.561795       -15.2872
 205   2.0000      -0.560811       -15.2605
 206   2.0000      -0.558579       -15.1997
 207   2.0000      -0.556592       -15.1456
 208   2.0000      -0.554311       -15.0836
 209   2.0000      -0.551624       -15.0105
 210   2.0000      -0.549866       -14.9626
 211   2.0000      -0.547334       -14.8937
 212   2.0000      -0.542638       -14.7659
 213   2.0000      -0.538449       -14.6519
 214   2.0000      -0.537478       -14.6255
 215   2.0000      -0.534872       -14.5546
 216   2.0000      -0.532586       -14.4924
 217   2.0000      -0.531433       -14.4610
 218   2.0000      -0.530399       -14.4329
 219   2.0000      -0.523602       -14.2479
 220   2.0000      -0.516930       -14.0664
 221   2.0000      -0.516715       -14.0605
 222   2.0000      -0.515998       -14.0410
 223   2.0000      -0.509068       -13.8524
 224   2.0000      -0.507809       -13.8182
 225   2.0000      -0.507271       -13.8035
 226   2.0000      -0.506096       -13.7716
 227   2.0000      -0.504570       -13.7301
 228   2.0000      -0.501660       -13.6509
 229   2.0000      -0.497660       -13.5420
 230   2.0000      -0.495998       -13.4968
 231   2.0000      -0.495150       -13.4737
 232   2.0000      -0.490935       -13.3590
 233   2.0000      -0.489911       -13.3312
 234   2.0000      -0.487177       -13.2568
 235   2.0000      -0.484374       -13.1805
 236   2.0000      -0.483675       -13.1615
 237   2.0000      -0.482629       -13.1330
 238   2.0000      -0.480201       -13.0669
 239   2.0000      -0.476768       -12.9735
 240   2.0000      -0.474069       -12.9001
 241   2.0000      -0.472583       -12.8596
 242   2.0000      -0.469463       -12.7747
 243   2.0000      -0.468792       -12.7565
 244   2.0000      -0.466846       -12.7035
 245   2.0000      -0.465296       -12.6613
 246   2.0000      -0.464789       -12.6476
 247   2.0000      -0.463266       -12.6061
 248   2.0000      -0.463074       -12.6009
 249   2.0000      -0.461568       -12.5599
 250   2.0000      -0.460310       -12.5257
 251   2.0000      -0.459805       -12.5119
 252   2.0000      -0.456931       -12.4337
 253   2.0000      -0.456035       -12.4093
 254   2.0000      -0.453621       -12.3436
 255   2.0000      -0.451369       -12.2824
 256   2.0000      -0.448019       -12.1912
 257   2.0000      -0.447279       -12.1711
 258   2.0000      -0.444541       -12.0966
 259   2.0000      -0.443953       -12.0806
 260   2.0000      -0.442683       -12.0460
 261   2.0000      -0.441909       -12.0249
 262   2.0000      -0.440784       -11.9943
 263   2.0000      -0.440481       -11.9861
 264   2.0000      -0.438475       -11.9315
 265   2.0000      -0.436768       -11.8851
 266   2.0000      -0.436075       -11.8662
 267   2.0000      -0.435493       -11.8504
 268   2.0000      -0.433051       -11.7839
 269   2.0000      -0.431066       -11.7299
 270   2.0000      -0.429802       -11.6955
 271   2.0000      -0.428346       -11.6559
 272   2.0000      -0.425579       -11.5806
 273   2.0000      -0.420985       -11.4556
 274   2.0000      -0.417943       -11.3728
 275   2.0000      -0.416389       -11.3305
 276   2.0000      -0.415112       -11.2958
 277   2.0000      -0.412396       -11.2219
 278   2.0000      -0.406387       -11.0584
 279   2.0000      -0.403321       -10.9749
 280   2.0000      -0.398362       -10.8400
 281   2.0000      -0.397347       -10.8124
 282   2.0000      -0.391293       -10.6476
 283   2.0000      -0.387986       -10.5576
 284   2.0000      -0.383944       -10.4477
 285   2.0000      -0.376940       -10.2571
 286   2.0000      -0.369074       -10.0430
 287   2.0000      -0.368499       -10.0274
 288   2.0000      -0.367165        -9.9911
 289   2.0000      -0.363933        -9.9031
 290   2.0000      -0.359708        -9.7881
 291   2.0000      -0.358915        -9.7666
 292   2.0000      -0.356260        -9.6943
 293   2.0000      -0.355557        -9.6752
 294   2.0000      -0.350966        -9.5503
 295   2.0000      -0.346446        -9.4273
 296   2.0000      -0.340302        -9.2601
 297   2.0000      -0.330661        -8.9977
 298   2.0000      -0.320024        -8.7083
 299   2.0000      -0.312431        -8.5017
 300   2.0000      -0.295995        -8.0544
 301   2.0000      -0.269664        -7.3379
 302   2.0000      -0.240647        -6.5483
 303   0.0000      -0.157298        -4.2803
 304   0.0000      -0.136619        -3.7176
 305   0.0000      -0.110273        -3.0007
 306   0.0000      -0.091964        -2.5025
 307   0.0000      -0.076282        -2.0757

MULLIKEN ATOMIC CHARGES
-----------------------
   0 C :   -0.094901
   1 C :    0.008390
   2 C :    0.179182
   3 O :   -0.148588
   4 O :   -0.144205
   5 C :   -0.078698
   6 C :   -0.155408
   7 N :    0.141912
   8 C :   -0.039939
   9 C :    0.018117
  10 C :    0.028023
  11 C :    0.331815
  12 C :   -0.329882
  13 C :   -0.199177
  14 N :    0.146776
  15 C :   -0.185425
  16 N :    0.154973
  17 C :   -0.120549
  18 C :    0.138673
  19 O :   -0.121026
  20 C :   -0.037479
  21 C :    0.083976
  22 C :   -0.029697
  23 C :   -0.052677
  24 N :   -0.018025
  25 C :   -0.092573
  26 C :   -0.125493
  27 N :    0.064416
  28 C :   -0.212249
  29 N :    0.248433
  30 C :   -0.240027
  31 N :    0.254122
  32 C :    0.198053
  33 C :    0.020231
  34 C :   -0.025644
  35 N :   -0.300028
  36 S :    0.565640
  37 N :   -0.274881
  38 C :   -0.184177
  39 C :   -0.042745
  40 C :    0.031909
  41 C :   -0.044163
  42 S :    0.228139
  43 C :   -0.080500
  44 C :    0.058758
  45 C :    0.314121
  46 C :   -0.302157
  47 C :   -0.187240
  48 N :    0.169684
  49 C :   -0.188935
  50 N :    0.180140
  51 C :   -0.084579
  52 C :   -0.157702
  53 S :    0.221661
  54 C :    0.165382
  55 C :   -0.034292
  56 C :   -0.061371
  57 N :   -0.013885
  58 C :   -0.108914
  59 C :   -0.083642
  60 N :   -0.020605
  61 C :   -0.243542
  62 N :    0.262817
  63 C :   -0.245915
  64 N :    0.250725
  65 C :    0.159303
  66 C :    0.013634
  67 C :   -0.006018
  68 N :   -0.285873
  69 S :    0.567842
  70 N :   -0.317039
  71 C :   -0.134025
  72 C :   -0.065814
  73 C :    0.058635
  74 C :    0.057983
  75 C :   -0.098657
  76 S :    0.169068
  77 C :   -0.085266
  78 C :    0.036383
  79 C :    0.023120
  80 C :   -0.065093
  81 S :    0.152984
  82 C :    0.081614
  83 C :   -0.043301
  84 C :   -0.009650
  85 H :    0.003012
  86 H :    0.191826
  87 H :    0.016499
  88 H :    0.035957
  89 H :    0.031635
  90 H :    0.022338
  91 H :    0.012331
  92 H :    0.041132
  93 H :   -0.008621
  94 H :    0.035096
  95 H :   -0.004513
  96 H :    0.026451
  97 H :    0.031892
Sum of atomic charges:   -0.0000000

LOEWDIN ATOMIC CHARGES
----------------------
   0 C :   -0.007137
   1 C :   -0.037450
   2 C :    0.079726
   3 O :   -0.121026
   4 O :   -0.016193
   5 C :   -0.027508
   6 C :   -0.034088
   7 N :   -0.027257
   8 C :    0.049104
   9 C :   -0.032509
  10 C :    0.007010
  11 C :    0.075468
  12 C :   -0.139730
  13 C :   -0.018734
  14 N :   -0.062864
  15 C :   -0.015199
  16 N :   -0.058092
  17 C :   -0.094387
  18 C :    0.084666
  19 O :   -0.123713
  20 C :    0.081656
  21 C :   -0.076585
  22 C :    0.030171
  23 C :   -0.017130
  24 N :   -0.018560
  25 C :   -0.030756
  26 C :   -0.007961
  27 N :   -0.002417
  28 C :   -0.034361
  29 N :    0.008656
  30 C :   -0.042977
  31 N :    0.002491
  32 C :    0.005200
  33 C :   -0.041979
  34 C :   -0.029096
  35 N :   -0.284960
  36 S :    0.685765
  37 N :   -0.260147
  38 C :   -0.167731
  39 C :    0.020570
  40 C :   -0.073035
  41 C :   -0.144011
  42 S :    0.521219
  43 C :   -0.199992
  44 C :   -0.046592
  45 C :    0.076720
  46 C :   -0.099756
  47 C :   -0.015602
  48 N :   -0.032922
  49 C :   -0.017925
  50 N :   -0.028214
  51 C :   -0.023538
  52 C :   -0.137711
  53 S :    0.517650
  54 C :   -0.072947
  55 C :   -0.002170
  56 C :   -0.013522
  57 N :   -0.019802
  58 C :   -0.035506
  59 C :   -0.007500
  60 N :   -0.034341
  61 C :   -0.039765
  62 N :    0.012541
  63 C :   -0.041254
  64 N :   -0.003892
  65 C :   -0.028968
  66 C :   -0.036295
  67 C :   -0.029179
  68 N :   -0.272699
  69 S :    0.681179
  70 N :   -0.278486
  71 C :   -0.171526
  72 C :    0.023913
  73 C :   -0.029090
  74 C :   -0.066637
  75 C :   -0.130572
  76 S :    0.497511
  77 C :   -0.174833
  78 C :   -0.050043
  79 C :   -0.055121
  80 C :   -0.155896
  81 S :    0.441942
  82 C :    0.000456
  83 C :   -0.025482
  84 C :   -0.019639
  85 H :    0.035086
  86 H :    0.099376
  87 H :    0.053144
  88 H :    0.050634
  89 H :    0.042436
  90 H :    0.037701
  91 H :    0.036712
  92 H :    0.039030
  93 H :    0.034171
  94 H :    0.027382
  95 H :    0.034257
  96 H :    0.022004
  97 H :    0.029461

  Mayer bond orders larger than 0.100000
B(  0-C ,  1-C ) :   1.3190 B(  0-C , 10-C ) :   1.3891 B(  0-C , 85-H ) :   0.9683
B(  1-C ,  2-C ) :   0.8694 B(  1-C ,  5-C ) :   1.3978 B(  2-C ,  3-O ) :   2.1699
B(  2-C ,  4-O ) :   1.2563 B(  4-O , 86-H ) :   0.9448 B(  5-C ,  6-C ) :   1.0702
B(  5-C ,  8-C ) :   1.3633 B(  6-C ,  7-N ) :   3.0390 B(  8-C ,  9-C ) :   1.3584
B(  8-C , 87-H ) :   1.0157 B(  9-C , 10-C ) :   1.3437 B(  9-C , 18-C ) :   0.8936
B( 10-C , 11-C ) :   0.9939 B( 11-C , 12-C ) :   1.6225 B( 11-C , 17-C ) :   1.0769
B( 12-C , 13-C ) :   1.1479 B( 12-C , 15-C ) :   1.1713 B( 13-C , 14-N ) :   2.9871
B( 15-C , 16-N ) :   2.9912 B( 17-C , 18-C ) :   0.9487 B( 17-C , 20-C ) :   1.5631
B( 18-C , 19-O ) :   2.2852 B( 20-C , 21-C ) :   1.1761 B( 20-C , 88-H ) :   0.9394
B( 21-C , 22-C ) :   1.2424 B( 21-C , 32-C ) :   0.1081 B( 21-C , 34-C ) :   1.1663
B( 22-C , 23-C ) :   1.1387 B( 22-C , 27-N ) :   1.4719 B( 23-C , 24-N ) :   1.4416
B( 23-C , 32-C ) :   1.1666 B( 24-N , 25-C ) :   1.6532 B( 25-C , 26-C ) :   1.2368
B( 25-C , 30-C ) :   1.1558 B( 26-C , 27-N ) :   1.7246 B( 26-C , 28-C ) :   1.1588
B( 28-C , 29-N ) :   3.0473 B( 30-C , 31-N ) :   3.0407 B( 32-C , 33-C ) :   1.1773
B( 32-C , 38-C ) :   1.3297 B( 33-C , 34-C ) :   1.1077 B( 33-C , 37-N ) :   1.5328
B( 34-C , 35-N ) :   1.5239 B( 35-N , 36-S ) :   1.2477 B( 35-N , 37-N ) :   0.1340
B( 36-S , 37-N ) :   1.2876 B( 38-C , 39-C ) :   1.3164 B( 38-C , 42-S ) :   1.0517
B( 39-C , 40-C ) :   1.3545 B( 39-C , 89-H ) :   0.9799 B( 40-C , 41-C ) :   1.3116
B( 40-C , 45-C ) :   0.9881 B( 41-C , 42-S ) :   1.1055 B( 41-C , 43-C ) :   1.2737
B( 43-C , 44-C ) :   1.3548 B( 43-C , 53-S ) :   1.0520 B( 44-C , 45-C ) :   0.9857
B( 44-C , 51-C ) :   1.3052 B( 45-C , 46-C ) :   1.7112 B( 46-C , 47-C ) :   1.1408
B( 46-C , 49-C ) :   1.1377 B( 47-C , 48-N ) :   2.9818 B( 49-C , 50-N ) :   2.9880
B( 51-C , 52-C ) :   1.3764 B( 51-C , 90-H ) :   0.9835 B( 52-C , 53-S ) :   1.1155
B( 52-C , 54-C ) :   1.2100 B( 54-C , 55-C ) :   1.2650 B( 54-C , 65-C ) :   0.1026
B( 54-C , 67-C ) :   1.1863 B( 55-C , 56-C ) :   1.1186 B( 55-C , 60-N ) :   1.3979
B( 56-C , 57-N ) :   1.4305 B( 56-C , 65-C ) :   1.1882 B( 57-N , 58-C ) :   1.6358
B( 58-C , 59-C ) :   1.2522 B( 58-C , 63-C ) :   1.1717 B( 59-C , 60-N ) :   1.6743
B( 59-C , 61-C ) :   1.1636 B( 61-C , 62-N ) :   3.0403 B( 63-C , 64-N ) :   3.0387
B( 65-C , 66-C ) :   1.1600 B( 65-C , 71-C ) :   1.2929 B( 66-C , 67-C ) :   1.1048
B( 66-C , 70-N ) :   1.4992 B( 67-C , 68-N ) :   1.5399 B( 68-N , 69-S ) :   1.2621
B( 68-N , 70-N ) :   0.1380 B( 69-S , 70-N ) :   1.2594 B( 71-C , 72-C ) :   1.3923
B( 71-C , 76-S ) :   1.0455 B( 72-C , 73-C ) :   1.3119 B( 72-C , 91-H ) :   0.9486
B( 73-C , 74-C ) :   1.0601 B( 73-C , 82-C ) :   1.2948 B( 74-C , 75-C ) :   1.5879
B( 74-C , 77-C ) :   1.1718 B( 75-C , 76-S ) :   1.1316 B( 75-C , 92-H ) :   0.9410
B( 77-C , 78-C ) :   1.3817 B( 77-C , 81-S ) :   1.1091 B( 78-C , 79-C ) :   1.1932
B( 78-C , 82-C ) :   1.1826 B( 79-C , 80-C ) :   1.6161 B( 79-C , 93-H ) :   0.9982
B( 80-C , 81-S ) :   1.1300 B( 80-C , 94-H ) :   0.9658 B( 82-C , 83-C ) :   1.1287
B( 83-C , 84-C ) :   1.8952 B( 83-C , 95-H ) :   0.9549 B( 84-C , 96-H ) :   0.9535
B( 84-C , 97-H ) :   0.9460

-----------------------------------------------------------------------------
         ABSORPTION SPECTRUM VIA TRANSITION ELECTRIC DIPOLE MOMENTS
-----------------------------------------------------------------------------
State   Energy  Wavelength   fosc         T2         TX        TY        TZ
        (cm-1)    (nm)                  (au**2)     (au)      (au)      (au)
-----------------------------------------------------------------------------
   0    4980.3   2007.9   0.701777297  46.38952  -2.99285   1.43525   5.94747
   1    9473.4   1055.6   0.214696890   7.46094   1.48676  -0.53909  -2.22707
   2   11959.3    836.2   0.008566984   0.23583   0.01847   0.40163   0.27237
   3   13111.5    762.7   0.050887181   1.27771   0.57606  -0.49123  -0.83938
   4   15193.7    658.2   0.034878301   0.75573  -0.21858  -0.40228   0.73900
   5   17287.1    578.5   0.005986751   0.11401  -0.10021  -0.06851   0.31508
   6   19752.6    506.3   0.148531035   2.47553  -1.02789  -0.38666   1.12671
   7   20069.2    498.3   0.135437565   2.22170  -0.89236  -0.87449   0.81281
   8   20587.4    485.7   0.048887329   0.78176  -0.16632   0.69566   0.51976
   9   21207.3    471.5   0.041418583   0.64296   0.19364  -0.69559  -0.34874
  10   21509.4    464.9   0.119382465   1.82721  -0.34428   0.60134   1.16063
  11   22249.4    449.4   0.015903757   0.23532   0.17453   0.40178  -0.20839
  12   23027.2    434.3   0.018128255   0.25917  -0.04035  -0.43148   0.26715
  13   23274.2    429.7   0.135040294   1.91013  -0.46578   0.58420   1.16271
  14   23413.5    427.1   0.120883361   1.69971  -0.61227   0.26464   1.12018
  15   24104.9    414.9   0.181077667   2.47306  -0.68689  -0.08899   1.41185
  16   24195.4    413.3   0.028754793   0.39125  -0.22135  -0.41349   0.41386
  17   25331.3    394.8   0.017224029   0.22385  -0.12306   0.41055   0.20037
  18   25432.0    393.2   0.010465882   0.13548   0.03877  -0.18408  -0.31637
  19   25741.8    388.5   0.150880903   1.92961  -0.68350   0.15033   1.19993
  20   26299.3    380.2   0.014985744   0.18759   0.10652  -0.36989  -0.19856
  21   27144.4    368.4   0.064056699   0.77689   0.21398  -0.10582  -0.84847
  22   27212.4    367.5   0.003383920   0.04094   0.13018  -0.14435   0.05619
  23   27269.8    366.7   0.012596297   0.15207   0.22416   0.25407  -0.19305
  24   27454.3    364.2   0.053823677   0.64541   0.66175   0.18321  -0.41705
  25   27709.9    360.9   0.051397103   0.61063   0.27638   0.63721  -0.35806
  26   28316.2    353.2   0.013728043   0.15961   0.12346   0.25599  -0.28077
  27   28630.0    349.3   0.007708828   0.08864  -0.00316   0.25760   0.14925
  28   28795.5    347.3   0.019258273   0.22018  -0.14163  -0.12743   0.42881
  29   28956.6    345.3   0.068129581   0.77457   0.00263   0.87958   0.02998
  30   29806.3    335.5   0.020214655   0.22327  -0.13213   0.43271   0.13631
  31   29968.6    333.7   0.142412328   1.56443   0.04389   1.13881  -0.51539
  32   30036.5    332.9   0.199866855   2.19062  -0.41032  -1.23665   0.70212
  33   30168.4    331.5   0.016346232   0.17838  -0.09378   0.11433  -0.39562
  34   30346.7    329.5   0.083987270   0.91112  -0.07625   0.58846  -0.74768
  35   30758.5    325.1   0.018432888   0.19729   0.13622  -0.20365  -0.37048
  36   31000.4    322.6   0.108143357   1.14844   0.23407  -0.47608  -0.93113
  37   31051.6    322.0   0.269941889   2.86195  -0.15233   1.66762   0.24040
  38   31342.0    319.1   0.018386142   0.19313   0.03140  -0.43459   0.05716
  39   31527.1    317.2   0.023531744   0.24572   0.13464  -0.47707  -0.00040
  40   31624.5    316.2   0.044988888   0.46834   0.18004   0.45587  -0.47760
  41   32042.8    312.1   0.106004807   1.08911   0.30380   0.77702  -0.62694
  42   32178.0    310.8   0.374052879   3.82692  -0.06997   1.78395   0.79971
  43   32344.5    309.2   0.382250692   3.89066  -0.38966  -1.32242   1.41068
  44   32624.1    306.5   0.247863429   2.50120   0.17965   1.29557  -0.88907
  45   33009.0    302.9   0.186185700   1.85690  -0.32970   0.55565   1.19977
  46   33178.9    301.4   0.035593368   0.35317  -0.19529  -0.15566  -0.53926
  47   33405.5    299.4   0.184355016   1.81682   0.20197   0.64877  -1.16410
  48   33422.9    299.2   0.075758951   0.74622  -0.40937  -0.52043  -0.55478
  49   33960.6    294.5   0.055491263   0.53793  -0.13564   0.59619   0.40508
  50   34027.4    293.9   0.039617801   0.38330   0.40526   0.18501   0.42992
  51   34273.8    291.8   0.440407086   4.23027   0.40346  -1.03186  -1.73284
  52   34382.6    290.8   0.047866788   0.45832   0.38228  -0.34210  -0.44176
  53   34553.5    289.4   0.097828749   0.93207  -0.47155   0.16200   0.82672
  54   34781.5    287.5   0.518680846   4.90938  -0.22935  -2.05352   0.79989
  55   35083.4    285.0   0.006573975   0.06169  -0.08998   0.10671  -0.20544
  56   35125.9    284.7   0.063541828   0.59554   0.08671   0.60546   0.47057
  57   35322.4    283.1   0.007086653   0.06605   0.08012  -0.24387   0.01243
  58   35542.7    281.4   0.012931124   0.11977  -0.09923   0.13619  -0.30229
  59   35663.3    280.4   0.034669870   0.32004   0.18009  -0.07065  -0.53162
  60   36093.5    277.1   0.297368254   2.71232  -0.66134   0.90374   1.20756
  61   36274.5    275.7   0.127544541   1.15754   0.14031  -0.62490  -0.86449
  62   36605.2    273.2   0.040934000   0.36814  -0.16287   0.56570   0.14699
  63   36692.9    272.5   0.049304516   0.44236  -0.15619  -0.52059   0.38335
  64   36748.9    272.1   0.027791876   0.24897   0.07742   0.45850  -0.18098
  65   36870.3    271.2   0.115446716   1.03081   0.10735   0.94804  -0.34715
  66   36879.7    271.2   0.032979562   0.29440  -0.13769  -0.49261   0.18103
  67   37064.6    269.8   0.056569762   0.50246   0.07674  -0.50253  -0.49400
  68   37337.5    267.8   0.058434331   0.51523   0.21415   0.60846  -0.31487
  69   37508.5    266.6   0.006172481   0.05418  -0.00966  -0.22025   0.07466
  70   37586.9    266.1   0.021550044   0.18875   0.01890   0.41616  -0.12332
  71   37971.1    263.4   0.339474775   2.94327   0.12602   1.71035  -0.04576
  72   38002.2    263.1   0.057456607   0.49775  -0.05692   0.70222   0.03727
  73   38180.3    261.9   0.029823254   0.25715  -0.04146   0.48013  -0.15782
  74   38442.7    260.1   0.002831020   0.02424  -0.04039   0.14115   0.05187
  75   38689.4    258.5   0.000674091   0.00574  -0.05126  -0.02070   0.05176
  76   38731.8    258.2   0.019699245   0.16744  -0.18592   0.35151   0.09653
  77   38830.6    257.5   0.015813762   0.13407   0.05619   0.33621  -0.13371
  78   39042.8    256.1   0.022763811   0.19195   0.11768   0.28952  -0.30704
  79   39253.0    254.8   0.001098625   0.00921   0.00394   0.09388  -0.01963
  80   39453.8    253.5   0.054569982   0.45534  -0.11855  -0.46033   0.47894
  81   39644.3    252.2   0.078521571   0.65205  -0.37187  -0.67352   0.24523
  82   39745.9    251.6   0.001947400   0.01613  -0.03433  -0.10617  -0.06067
  83   39822.6    251.1   0.005971192   0.04936  -0.08087   0.18663   0.08940
  84   40005.4    250.0   0.035612727   0.29306   0.19898   0.26735  -0.42661
  85   40157.4    249.0   0.004864906   0.03988  -0.09166   0.10060  -0.14615
  86   40245.6    248.5   0.030685520   0.25101  -0.01528   0.33267  -0.37431

FINAL SINGLE POINT ENERGY     -5796.418357569987

DIPOLE MOMENT
-------------
                                X             Y             Z
Electronic contribution:    -10.31394      21.61659      26.23453
Nuclear contribution   :     15.15897     -25.45375     -34.89863
                        -----------------------------------------
Total Dipole Moment    :      4.84503      -3.83716      -8.66410
                        -----------------------------------------
Magnitude (a.u.)       :     10.64259
Magnitude (Debye)      :     27.05131

Rotational constants in cm-1:     0.001850     0.000187     0.000172
Rotational constants in MHz :    55.460623     5.606591     5.148763

                             ****ORCA TERMINATED NORMALLY****
TOTAL RUN TIME: 0 days 0 hours 13 minutes 57 seconds 204 msec
