                         Program Version 4.2.0 -  RELEASE  -
|  1> # ORCA input file
|  2> # SCF done       -184.517581957501          0.000365198632
|  3> ! CAM-B3LYP def2-SVP def2/J RIJCOSX Grid4 TightSCF
|  4> %maxcore 5000
|  5> %tddft
|  6>     Mode sTDDFT
|  7>     Ethresh 5.0
|  8>     maxcore 5000
|  9> end
| 10>
| 11> %pal
| 12>   nprocs 6
| 13>   end
| 14> * xyz 0 1
| 15>    C        4.55433        -1.24126         0.09917
| 16>    S        5.28823         0.23470        -0.35017
| 17>    C        4.07075         1.15796         0.47659
| 18>    C        3.14045         0.32608         1.05229
| 19>    C        3.42774        -1.04870         0.84021
| 20>    C        2.50426        -2.14450         1.27616
| 21>    F        1.76330        -2.54293         0.17294
| 22>    C        1.53093        -1.65357         2.35393
| 23>    F        0.58395        -2.61688         2.57208
| 24>    C        0.88478        -0.35124         1.87351
| 25>    F       -0.13090         0.02705         2.70857
| 26>    C        1.95138         0.75057         1.85628
| 27>    F        2.35452         0.97404         3.16511
| 28>    C        4.14420         2.60823         0.45915
| 29>    C        3.76759         3.37914         1.55288
| 30>    C        3.84170         4.76448         1.49801
| 31>    N        3.38432         5.47308         2.66675
| 32>    O        3.43631         4.88991         3.72678
| 33>    O        2.96671         6.60624         2.52682
| 34>    C        4.31626         5.44149         0.35776
| 35>    C        4.71446         4.63952        -0.72245
| 36>    C        4.62973         3.26918        -0.67769
| 37>    C        4.46195         6.87813         0.31765
| 38>    C        4.44372         7.60139        -0.82089
| 39>    C        4.57631         9.01094        -0.98174
| 40>    N        4.49271        10.01976        -0.05184
| 41>    C        4.20245         9.92978         1.36052
| 42>    C        5.47558         9.76965         2.18966
| 43>    C        4.68958        11.28544        -0.64053
| 44>    O        4.64306        12.32705        -0.01396
| 45>    C        4.91366        11.01012        -2.04001
| 46>    C        4.81846         9.60765        -2.21371
| 47>    C        5.04814         9.30420        -3.60681
| 48>    O        5.07302         8.25717        -4.22041
| 49>    N        5.27127        10.56399        -4.19652
| 50>    C        5.48488        10.69444        -5.61668
| 51>    C        4.22558        11.16488        -6.34101
| 52>    C        5.19494        11.58728        -3.27681
| 53>    C        5.40740        12.95085        -3.59783
| 54>    C        5.29858        13.93808        -2.67153
| 55>    C        5.52366        15.31552        -2.92891
| 56>    S        5.31014        16.46655        -1.63292
| 57>    C        5.75051        17.79264        -2.65454
| 58>    C        6.04574        17.34747        -3.94962
| 59>    C        5.91596        15.95532        -4.08480
| 60>    C        6.40394        18.21488        -5.06213
| 61>    O        6.39844        19.42207        -5.06266
| 62>    C        5.82411        19.13480        -2.19833
| 63>    C        5.34032        19.54823        -1.00618
| 64>    C        5.36369        20.86890        -0.46835
| 65>    S        4.80826        21.05030         1.17485
| 66>    C        5.12744        22.72533         1.16416
| 67>    C        5.63011        23.14153        -0.03474
| 68>    C        5.74882        22.09528        -0.98301
| 69>    C        6.33246        22.34359        -2.34138
| 70>    F        7.64750        21.89904        -2.33406
| 71>    C        6.33688        23.83750        -2.69724
| 72>    F        7.07618        24.01632        -3.83433
| 73>    C        6.92750        24.63986        -1.53665
| 74>    F        7.11395        25.94953        -1.89026
| 75>    C        5.95095        24.56735        -0.35962
| 76>    F        4.77709        25.21192        -0.72131
| 77>    H        4.98335        -2.17194        -0.21406
| 78>    H        3.04087        -3.04008         1.61044
| 79>    H        2.04739        -1.49263         3.30861
| 80>    H        0.44429        -0.48815         0.87778
| 81>    H        1.52219         1.69801         1.50841
| 82>    H        3.43478         2.92634         2.47387
| 83>    H        5.12036         5.11409        -1.60142
| 84>    H        4.94125         2.68513        -1.53081
| 85>    H        4.57796         7.37090         1.26788
| 86>    H        4.32279         7.09849        -1.77228
| 87>    H        3.49877         9.11503         1.54038
| 88>    H        3.72179        10.87418         1.63325
| 89>    H        6.06110         8.91490         1.85660
| 90>    H        5.21567         9.63240         3.23540
| 91>    H        6.09033        10.66150         2.09605
| 92>    H        5.76043         9.69721        -5.97150
| 93>    H        6.32009        11.37604        -5.80286
| 94>    H        3.41993        10.45238        -6.18266
| 95>    H        4.41928        11.23856        -7.40754
| 96>    H        3.90307        12.13688        -5.97396
| 97>    H        5.67051        13.19136        -4.61714
| 98>    H        5.02452        13.67842        -1.65718
| 99>    H        6.10274        15.44181        -5.01086
|100>    H        6.68545        17.65016        -5.97184
|101>    H        6.30191        19.81098        -2.88839
|102>    H        4.88270        18.81004        -0.35686
|103>    H        4.93046        23.32095         2.03308
|104>    H        5.82695        21.78238        -3.13586
|105>    H        5.32110        24.18819        -2.92008
|106>    H        7.91108        24.24222        -1.25647
|107>    H        6.33525        25.11791         0.50683
|108> *
|109>
|110>                          ****END OF INPUT****

CARTESIAN COORDINATES (ANGSTROEM)
---------------------------------
  C      4.554330   -1.241260    0.099170
  S      5.288230    0.234700   -0.350170
  C      4.070750    1.157960    0.476590
  C      3.140450    0.326080    1.052290
  C      3.427740   -1.048700    0.840210
  C      2.504260   -2.144500    1.276160
  F      1.763300   -2.542930    0.172940
  C      1.530930   -1.653570    2.353930
  F      0.583950   -2.616880    2.572080
  C      0.884780   -0.351240    1.873510
  F     -0.130900    0.027050    2.708570
  C      1.951380    0.750570    1.856280
  F      2.354520    0.974040    3.165110
  C      4.144200    2.608230    0.459150
  C      3.767590    3.379140    1.552880
  C      3.841700    4.764480    1.498010
  N      3.384320    5.473080    2.666750
  O      3.436310    4.889910    3.726780
  O      2.966710    6.606240    2.526820
  C      4.316260    5.441490    0.357760
  C      4.714460    4.639520   -0.722450
  C      4.629730    3.269180   -0.677690
  C      4.461950    6.878130    0.317650
  C      4.443720    7.601390   -0.820890
  C      4.576310    9.010940   -0.981740
  N      4.492710   10.019760   -0.051840
  C      4.202450    9.929780    1.360520
  C      5.475580    9.769650    2.189660
  C      4.689580   11.285440   -0.640530
  O      4.643060   12.327050   -0.013960
  C      4.913660   11.010120   -2.040010
  C      4.818460    9.607650   -2.213710
  C      5.048140    9.304200   -3.606810
  O      5.073020    8.257170   -4.220410
  N      5.271270   10.563990   -4.196520
  C      5.484880   10.694440   -5.616680
  C      4.225580   11.164880   -6.341010
  C      5.194940   11.587280   -3.276810
  C      5.407400   12.950850   -3.597830
  C      5.298580   13.938080   -2.671530
  C      5.523660   15.315520   -2.928910
  S      5.310140   16.466550   -1.632920
  C      5.750510   17.792640   -2.654540
  C      6.045740   17.347470   -3.949620
  C      5.915960   15.955320   -4.084800
  C      6.403940   18.214880   -5.062130
  O      6.398440   19.422070   -5.062660
  C      5.824110   19.134800   -2.198330
  C      5.340320   19.548230   -1.006180
  C      5.363690   20.868900   -0.468350
  S      4.808260   21.050300    1.174850
  C      5.127440   22.725330    1.164160
  C      5.630110   23.141530   -0.034740
  C      5.748820   22.095280   -0.983010
  C      6.332460   22.343590   -2.341380
  F      7.647500   21.899040   -2.334060
  C      6.336880   23.837500   -2.697240
  F      7.076180   24.016320   -3.834330
  C      6.927500   24.639860   -1.536650
  F      7.113950   25.949530   -1.890260
  C      5.950950   24.567350   -0.359620
  F      4.777090   25.211920   -0.721310
  H      4.983350   -2.171940   -0.214060
  H      3.040870   -3.040080    1.610440
  H      2.047390   -1.492630    3.308610
  H      0.444290   -0.488150    0.877780
  H      1.522190    1.698010    1.508410
  H      3.434780    2.926340    2.473870
  H      5.120360    5.114090   -1.601420
  H      4.941250    2.685130   -1.530810
  H      4.577960    7.370900    1.267880
  H      4.322790    7.098490   -1.772280
  H      3.498770    9.115030    1.540380
  H      3.721790   10.874180    1.633250
  H      6.061100    8.914900    1.856600
  H      5.215670    9.632400    3.235400
  H      6.090330   10.661500    2.096050
  H      5.760430    9.697210   -5.971500
  H      6.320090   11.376040   -5.802860
  H      3.419930   10.452380   -6.182660
  H      4.419280   11.238560   -7.407540
  H      3.903070   12.136880   -5.973960
  H      5.670510   13.191360   -4.617140
  H      5.024520   13.678420   -1.657180
  H      6.102740   15.441810   -5.010860
  H      6.685450   17.650160   -5.971840
  H      6.301910   19.810980   -2.888390
  H      4.882700   18.810040   -0.356860
  H      4.930460   23.320950    2.033080
  H      5.826950   21.782380   -3.135860
  H      5.321100   24.188190   -2.920080
  H      7.911080   24.242220   -1.256470
  H      6.335250   25.117910    0.506830

 Total Charge           Charge          ....    0
 Multiplicity           Mult            ....    1
 Number of Electrons    NEL             ....  470
 Basis Dimension        Dim             .... 1035

ORBITAL ENERGIES
----------------

  NO   OCC          E(Eh)            E(eV)
   0   2.0000     -88.980605     -2421.2854
   1   2.0000     -88.974952     -2421.1315
   2   2.0000     -88.974087     -2421.1080
   3   2.0000     -24.768268      -673.9788
   4   2.0000     -24.759925      -673.7518
   5   2.0000     -24.759266      -673.7339
   6   2.0000     -24.759051      -673.7280
   7   2.0000     -24.755792      -673.6393
   8   2.0000     -24.755242      -673.6244
   9   2.0000     -24.754057      -673.5921
  10   2.0000     -24.751869      -673.5326
  11   2.0000     -19.252054      -523.8750
  12   2.0000     -19.251370      -523.8564
  13   2.0000     -19.219109      -522.9785
  14   2.0000     -19.191620      -522.2305
  15   2.0000     -19.189580      -522.1750
  16   2.0000     -14.657246      -398.8439
  17   2.0000     -14.454636      -393.3306
  18   2.0000     -14.452651      -393.2766
  19   2.0000     -10.375244      -282.3247
  20   2.0000     -10.371910      -282.2340
  21   2.0000     -10.369597      -282.1711
  22   2.0000     -10.366679      -282.0917
  23   2.0000     -10.365310      -282.0544
  24   2.0000     -10.361654      -281.9549
  25   2.0000     -10.360781      -281.9312
  26   2.0000     -10.359803      -281.9046
  27   2.0000     -10.359406      -281.8938
  28   2.0000     -10.353823      -281.7419
  29   2.0000     -10.352784      -281.7136
  30   2.0000     -10.343383      -281.4578
  31   2.0000     -10.340965      -281.3920
  32   2.0000     -10.335966      -281.2559
  33   2.0000     -10.328698      -281.0582
  34   2.0000     -10.327068      -281.0138
  35   2.0000     -10.320858      -280.8448
  36   2.0000     -10.320799      -280.8432
  37   2.0000     -10.318510      -280.7809
  38   2.0000     -10.316661      -280.7306
  39   2.0000     -10.316333      -280.7217
  40   2.0000     -10.312153      -280.6080
  41   2.0000     -10.311938      -280.6021
  42   2.0000     -10.306485      -280.4537
  43   2.0000     -10.305447      -280.4255
  44   2.0000     -10.303373      -280.3690
  45   2.0000     -10.302334      -280.3407
  46   2.0000     -10.301943      -280.3301
  47   2.0000     -10.301413      -280.3157
  48   2.0000     -10.301166      -280.3090
  49   2.0000     -10.299454      -280.2624
  50   2.0000     -10.298708      -280.2421
  51   2.0000     -10.296458      -280.1809
  52   2.0000     -10.296334      -280.1775
  53   2.0000     -10.295695      -280.1601
  54   2.0000     -10.294656      -280.1318
  55   2.0000     -10.294611      -280.1306
  56   2.0000     -10.292471      -280.0724
  57   2.0000     -10.291604      -280.0488
  58   2.0000     -10.268093      -279.4090
  59   2.0000     -10.261020      -279.2166
  60   2.0000     -10.258928      -279.1596
  61   2.0000     -10.258765      -279.1552
  62   2.0000      -8.076488      -219.7724
  63   2.0000      -8.070588      -219.6119
  64   2.0000      -8.070184      -219.6009
  65   2.0000      -6.045670      -164.5110
  66   2.0000      -6.041246      -164.3907
  67   2.0000      -6.039639      -164.3469
  68   2.0000      -6.039274      -164.3370
  69   2.0000      -6.039049      -164.3309
  70   2.0000      -6.035563      -164.2360
  71   2.0000      -6.034977      -164.2201
  72   2.0000      -6.033037      -164.1673
  73   2.0000      -6.032760      -164.1598
  74   2.0000      -1.332775       -36.2667
  75   2.0000      -1.288552       -35.0633
  76   2.0000      -1.280830       -34.8532
  77   2.0000      -1.279317       -34.8120
  78   2.0000      -1.271195       -34.5910
  79   2.0000      -1.268705       -34.5232
  80   2.0000      -1.261258       -34.3206
  81   2.0000      -1.260931       -34.3117
  82   2.0000      -1.254545       -34.1379
  83   2.0000      -1.151017       -31.3208
  84   2.0000      -1.133136       -30.8342
  85   2.0000      -1.132401       -30.8142
  86   2.0000      -1.126083       -30.6423
  87   2.0000      -1.063494       -28.9392
  88   2.0000      -1.053907       -28.6783
  89   2.0000      -1.016479       -27.6598
  90   2.0000      -1.007053       -27.4033
  91   2.0000      -1.003152       -27.2972
  92   2.0000      -0.995832       -27.0980
  93   2.0000      -0.932994       -25.3881
  94   2.0000      -0.930845       -25.3296
  95   2.0000      -0.926424       -25.2093
  96   2.0000      -0.921205       -25.0673
  97   2.0000      -0.919388       -25.0178
  98   2.0000      -0.911713       -24.8090
  99   2.0000      -0.903519       -24.5860
 100   2.0000      -0.883279       -24.0353
 101   2.0000      -0.873467       -23.7683
 102   2.0000      -0.866208       -23.5707
 103   2.0000      -0.863607       -23.4999
 104   2.0000      -0.855025       -23.2664
 105   2.0000      -0.843403       -22.9502
 106   2.0000      -0.838755       -22.8237
 107   2.0000      -0.833394       -22.6778
 108   2.0000      -0.820312       -22.3218
 109   2.0000      -0.816993       -22.2315
 110   2.0000      -0.805928       -21.9304
 111   2.0000      -0.802875       -21.8473
 112   2.0000      -0.780429       -21.2366
 113   2.0000      -0.770595       -20.9690
 114   2.0000      -0.760537       -20.6953
 115   2.0000      -0.744748       -20.2656
 116   2.0000      -0.742895       -20.2152
 117   2.0000      -0.739484       -20.1224
 118   2.0000      -0.736013       -20.0279
 119   2.0000      -0.719966       -19.5913
 120   2.0000      -0.709799       -19.3146
 121   2.0000      -0.705939       -19.2096
 122   2.0000      -0.701390       -19.0858
 123   2.0000      -0.700708       -19.0672
 124   2.0000      -0.689593       -18.7648
 125   2.0000      -0.685056       -18.6413
 126   2.0000      -0.681463       -18.5435
 127   2.0000      -0.665681       -18.1141
 128   2.0000      -0.665215       -18.1014
 129   2.0000      -0.654724       -17.8160
 130   2.0000      -0.651840       -17.7375
 131   2.0000      -0.644352       -17.5337
 132   2.0000      -0.642704       -17.4889
 133   2.0000      -0.640995       -17.4424
 134   2.0000      -0.632838       -17.2204
 135   2.0000      -0.626244       -17.0410
 136   2.0000      -0.619439       -16.8558
 137   2.0000      -0.615235       -16.7414
 138   2.0000      -0.614022       -16.7084
 139   2.0000      -0.607685       -16.5359
 140   2.0000      -0.607375       -16.5275
 141   2.0000      -0.607321       -16.5260
 142   2.0000      -0.601788       -16.3755
 143   2.0000      -0.599785       -16.3210
 144   2.0000      -0.599292       -16.3076
 145   2.0000      -0.594978       -16.1902
 146   2.0000      -0.593373       -16.1465
 147   2.0000      -0.590411       -16.0659
 148   2.0000      -0.586613       -15.9626
 149   2.0000      -0.585054       -15.9201
 150   2.0000      -0.579894       -15.7797
 151   2.0000      -0.578160       -15.7325
 152   2.0000      -0.573767       -15.6130
 153   2.0000      -0.571647       -15.5553
 154   2.0000      -0.564875       -15.3710
 155   2.0000      -0.564020       -15.3478
 156   2.0000      -0.560772       -15.2594
 157   2.0000      -0.557175       -15.1615
 158   2.0000      -0.555634       -15.1196
 159   2.0000      -0.548739       -14.9319
 160   2.0000      -0.548138       -14.9156
 161   2.0000      -0.542633       -14.7658
 162   2.0000      -0.541911       -14.7462
 163   2.0000      -0.538968       -14.6661
 164   2.0000      -0.537960       -14.6386
 165   2.0000      -0.531626       -14.4663
 166   2.0000      -0.530467       -14.4347
 167   2.0000      -0.528717       -14.3871
 168   2.0000      -0.525336       -14.2951
 169   2.0000      -0.521766       -14.1980
 170   2.0000      -0.515501       -14.0275
 171   2.0000      -0.514679       -14.0051
 172   2.0000      -0.513033       -13.9604
 173   2.0000      -0.511953       -13.9309
 174   2.0000      -0.509717       -13.8701
 175   2.0000      -0.505570       -13.7573
 176   2.0000      -0.501161       -13.6373
 177   2.0000      -0.496815       -13.5190
 178   2.0000      -0.493961       -13.4414
 179   2.0000      -0.490083       -13.3358
 180   2.0000      -0.487349       -13.2614
 181   2.0000      -0.487034       -13.2529
 182   2.0000      -0.486898       -13.2492
 183   2.0000      -0.479142       -13.0381
 184   2.0000      -0.477893       -13.0041
 185   2.0000      -0.475606       -12.9419
 186   2.0000      -0.474684       -12.9168
 187   2.0000      -0.473618       -12.8878
 188   2.0000      -0.470877       -12.8132
 189   2.0000      -0.470319       -12.7980
 190   2.0000      -0.468113       -12.7380
 191   2.0000      -0.465702       -12.6724
 192   2.0000      -0.464480       -12.6391
 193   2.0000      -0.463756       -12.6195
 194   2.0000      -0.460802       -12.5391
 195   2.0000      -0.459646       -12.5076
 196   2.0000      -0.455978       -12.4078
 197   2.0000      -0.453895       -12.3511
 198   2.0000      -0.452108       -12.3025
 199   2.0000      -0.448773       -12.2117
 200   2.0000      -0.446928       -12.1615
 201   2.0000      -0.440739       -11.9931
 202   2.0000      -0.438670       -11.9368
 203   2.0000      -0.434214       -11.8156
 204   2.0000      -0.433133       -11.7862
 205   2.0000      -0.430580       -11.7167
 206   2.0000      -0.429086       -11.6760
 207   2.0000      -0.428213       -11.6523
 208   2.0000      -0.423861       -11.5338
 209   2.0000      -0.419535       -11.4161
 210   2.0000      -0.413183       -11.2433
 211   2.0000      -0.411744       -11.2041
 212   2.0000      -0.409485       -11.1427
 213   2.0000      -0.404869       -11.0170
 214   2.0000      -0.403077       -10.9683
 215   2.0000      -0.400115       -10.8877
 216   2.0000      -0.392350       -10.6764
 217   2.0000      -0.390949       -10.6383
 218   2.0000      -0.388626       -10.5750
 219   2.0000      -0.383087       -10.4243
 220   2.0000      -0.376594       -10.2476
 221   2.0000      -0.372396       -10.1334
 222   2.0000      -0.354955        -9.6588
 223   2.0000      -0.348653        -9.4873
 224   2.0000      -0.344936        -9.3862
 225   2.0000      -0.343317        -9.3421
 226   2.0000      -0.342582        -9.3221
 227   2.0000      -0.338947        -9.2232
 228   2.0000      -0.337352        -9.1798
 229   2.0000      -0.331741        -9.0271
 230   2.0000      -0.323329        -8.7982
 231   2.0000      -0.315174        -8.5763
 232   2.0000      -0.302814        -8.2400
 233   2.0000      -0.273755        -7.4492
 234   2.0000      -0.235666        -6.4128
 235   0.0000      -0.093684        -2.5493
 236   0.0000      -0.067477        -1.8361
 237   0.0000      -0.051441        -1.3998
 238   0.0000      -0.036540        -0.9943
 239   0.0000      -0.011162        -0.3037

MULLIKEN ATOMIC CHARGES
-----------------------
   0 C :   -0.102460
   1 S :    0.153842
   2 C :   -0.135676
   3 C :   -0.028919
   4 C :   -0.061778
   5 C :    0.309406
   6 F :   -0.251834
   7 C :    0.212416
   8 F :   -0.229903
   9 C :    0.213002
  10 F :   -0.228895
  11 C :    0.292386
  12 F :   -0.243910
  13 C :    0.060351
  14 C :   -0.075479
  15 C :    0.141148
  16 N :    0.247341
  17 O :   -0.219803
  18 O :   -0.239398
  19 C :    0.068739
  20 C :   -0.035131
  21 C :    0.018441
  22 C :   -0.002847
  23 C :   -0.031289
  24 C :    0.098261
  25 N :   -0.261845
  26 C :    0.096727
  27 C :    0.003234
  28 C :    0.164060
  29 O :   -0.220177
  30 C :   -0.067687
  31 C :   -0.041087
  32 C :    0.148436
  33 O :   -0.199949
  34 N :   -0.268071
  35 C :    0.099018
  36 C :    0.002616
  37 C :    0.142311
  38 C :   -0.031153
  39 C :    0.086395
  40 C :   -0.080894
  41 S :    0.169553
  42 C :   -0.087339
  43 C :    0.018462
  44 C :   -0.001554
  45 C :    0.154970
  46 O :   -0.184021
  47 C :   -0.016445
  48 C :    0.051453
  49 C :   -0.137221
  50 S :    0.150027
  51 C :   -0.098909
  52 C :   -0.062297
  53 C :   -0.046006
  54 C :    0.286292
  55 F :   -0.251140
  56 C :    0.222544
  57 F :   -0.228344
  58 C :    0.209198
  59 F :   -0.232040
  60 C :    0.303807
  61 F :   -0.251847
  62 H :    0.028891
  63 H :    0.013858
  64 H :    0.027549
  65 H :    0.028185
  66 H :    0.020204
  67 H :    0.015584
  68 H :    0.005932
  69 H :   -0.003262
  70 H :    0.005152
  71 H :    0.012349
  72 H :    0.043683
  73 H :    0.035655
  74 H :    0.015777
  75 H :    0.026767
  76 H :    0.027671
  77 H :    0.043049
  78 H :    0.021230
  79 H :    0.031118
  80 H :    0.024206
  81 H :    0.014354
  82 H :   -0.032950
  83 H :    0.009296
  84 H :   -0.013668
  85 H :   -0.015294
  86 H :    0.032688
  87 H :   -0.009235
  88 H :    0.027689
  89 H :    0.033494
  90 H :    0.025177
  91 H :    0.024337
  92 H :    0.011422
Sum of atomic charges:    0.0000000

LOEWDIN ATOMIC CHARGES
----------------------
   0 C :   -0.165729
   1 S :    0.475799
   2 C :   -0.154040
   3 C :   -0.081838
   4 C :   -0.085948
   5 C :    0.106029
   6 F :   -0.129081
   7 C :    0.076031
   8 F :   -0.105852
   9 C :    0.078972
  10 F :   -0.105398
  11 C :    0.100569
  12 F :   -0.121060
  13 C :   -0.043131
  14 C :    0.008442
  15 C :   -0.025086
  16 N :    0.286297
  17 O :   -0.188018
  18 O :   -0.200738
  19 C :   -0.000971
  20 C :    0.000199
  21 C :    0.002829
  22 C :   -0.009900
  23 C :   -0.018008
  24 C :    0.064548
  25 N :    0.002444
  26 C :    0.035680
  27 C :   -0.062883
  28 C :    0.079889
  29 O :   -0.208389
  30 C :   -0.130934
  31 C :   -0.113215
  32 C :    0.079710
  33 O :   -0.201672
  34 N :   -0.006316
  35 C :    0.035526
  36 C :   -0.061545
  37 C :    0.084252
  38 C :   -0.052794
  39 C :    0.017441
  40 C :   -0.174893
  41 S :    0.476675
  42 C :   -0.124547
  43 C :   -0.120333
  44 C :   -0.024833
  45 C :    0.111263
  46 O :   -0.136762
  47 C :   -0.033437
  48 C :   -0.031183
  49 C :   -0.157372
  50 S :    0.474118
  51 C :   -0.168609
  52 C :   -0.085844
  53 C :   -0.075523
  54 C :    0.101770
  55 F :   -0.125434
  56 C :    0.078572
  57 F :   -0.104525
  58 C :    0.075906
  59 F :   -0.108274
  60 C :    0.104895
  61 F :   -0.129257
  62 H :    0.030330
  63 H :    0.028656
  64 H :    0.027531
  65 H :    0.028282
  66 H :    0.028387
  67 H :    0.039547
  68 H :    0.041107
  69 H :    0.030317
  70 H :    0.027765
  71 H :    0.043060
  72 H :    0.029406
  73 H :    0.035781
  74 H :    0.019467
  75 H :    0.032560
  76 H :    0.031730
  77 H :    0.037716
  78 H :    0.021585
  79 H :    0.032891
  80 H :    0.030565
  81 H :    0.021501
  82 H :    0.026120
  83 H :    0.037492
  84 H :    0.030559
  85 H :   -0.000916
  86 H :    0.038012
  87 H :    0.022693
  88 H :    0.029664
  89 H :    0.031062
  90 H :    0.027243
  91 H :    0.027261
  92 H :    0.028140

  Mayer bond orders larger than 0.100000
B(  0-C ,  1-S ) :   1.1783 B(  0-C ,  4-C ) :   1.5820 B(  0-C , 62-H ) :   0.9702
B(  1-S ,  2-C ) :   1.1711 B(  2-C ,  3-C ) :   1.5768 B(  2-C , 13-C ) :   1.0140
B(  3-C ,  4-C ) :   1.2895 B(  3-C , 11-C ) :   0.9728 B(  4-C ,  5-C ) :   0.9570
B(  5-C ,  6-F ) :   1.0227 B(  5-C ,  7-C ) :   0.9959 B(  5-C , 63-H ) :   0.9281
B(  7-C ,  8-F ) :   1.0528 B(  7-C ,  9-C ) :   0.9753 B(  7-C , 64-H ) :   0.9330
B(  9-C , 10-F ) :   1.0534 B(  9-C , 11-C ) :   0.9959 B(  9-C , 65-H ) :   0.9358
B( 11-C , 12-F ) :   0.9761 B( 11-C , 66-H ) :   0.9208 B( 13-C , 14-C ) :   1.3351
B( 13-C , 21-C ) :   1.3169 B( 14-C , 15-C ) :   1.3543 B( 14-C , 67-H ) :   0.9828
B( 15-C , 16-N ) :   0.8794 B( 15-C , 19-C ) :   1.3504 B( 16-N , 17-O ) :   1.5631
B( 16-N , 18-O ) :   1.4989 B( 17-O , 18-O ) :   0.2641 B( 19-C , 20-C ) :   1.3319
B( 19-C , 22-C ) :   1.0673 B( 20-C , 21-C ) :   1.4171 B( 20-C , 68-H ) :   0.9898
B( 21-C , 69-H ) :   0.9896 B( 22-C , 23-C ) :   1.6653 B( 22-C , 70-H ) :   0.9496
B( 23-C , 24-C ) :   1.1609 B( 23-C , 71-H ) :   0.9468 B( 24-C , 25-N ) :   1.1742
B( 24-C , 31-C ) :   1.3611 B( 25-N , 26-C ) :   0.9353 B( 25-N , 28-C ) :   1.0639
B( 26-C , 27-C ) :   1.1164 B( 26-C , 72-H ) :   0.9507 B( 26-C , 73-H ) :   0.9274
B( 27-C , 74-H ) :   0.9659 B( 27-C , 75-H ) :   0.9690 B( 27-C , 76-H ) :   0.9608
B( 28-C , 29-O ) :   2.0073 B( 28-C , 30-C ) :   0.9972 B( 29-O , 83-H ) :   0.1182
B( 30-C , 31-C ) :   1.2369 B( 30-C , 37-C ) :   1.3336 B( 31-C , 32-C ) :   0.9771
B( 32-C , 33-O ) :   2.1285 B( 32-C , 34-N ) :   1.0344 B( 34-N , 35-C ) :   0.9467
B( 34-N , 37-C ) :   1.1578 B( 35-C , 36-C ) :   1.1211 B( 35-C , 77-H ) :   0.9276
B( 35-C , 78-H ) :   0.9499 B( 36-C , 79-H ) :   0.9635 B( 36-C , 80-H ) :   0.9677
B( 36-C , 81-H ) :   0.9685 B( 37-C , 38-C ) :   1.1723 B( 38-C , 39-C ) :   1.6182
B( 38-C , 82-H ) :   0.9614 B( 39-C , 40-C ) :   1.1259 B( 39-C , 83-H ) :   0.9365
B( 40-C , 41-S ) :   1.1130 B( 40-C , 44-C ) :   1.4895 B( 41-S , 42-C ) :   1.1660
B( 42-C , 43-C ) :   1.4067 B( 42-C , 47-C ) :   1.1750 B( 43-C , 44-C ) :   1.2348
B( 43-C , 45-C ) :   1.0019 B( 44-C , 84-H ) :   0.9910 B( 45-C , 46-O ) :   2.1149
B( 45-C , 85-H ) :   0.9607 B( 47-C , 48-C ) :   1.6523 B( 47-C , 86-H ) :   0.9484
B( 48-C , 49-C ) :   1.1300 B( 48-C , 87-H ) :   0.9484 B( 49-C , 50-S ) :   1.1595
B( 49-C , 53-C ) :   1.5182 B( 50-S , 51-C ) :   1.1833 B( 51-C , 52-C ) :   1.5607
B( 51-C , 88-H ) :   0.9693 B( 52-C , 53-C ) :   1.3177 B( 52-C , 60-C ) :   0.9547
B( 53-C , 54-C ) :   0.9730 B( 54-C , 55-F ) :   0.9977 B( 54-C , 56-C ) :   0.9938
B( 54-C , 89-H ) :   0.9148 B( 56-C , 57-F ) :   1.0558 B( 56-C , 58-C ) :   0.9800
B( 56-C , 90-H ) :   0.9324 B( 58-C , 59-F ) :   1.0508 B( 58-C , 60-C ) :   0.9971
B( 58-C , 91-H ) :   0.9359 B( 60-C , 61-F ) :   1.0180 B( 60-C , 92-H ) :   0.9302

-----------------------------------------------------------------------------
         ABSORPTION SPECTRUM VIA TRANSITION ELECTRIC DIPOLE MOMENTS
-----------------------------------------------------------------------------
State   Energy  Wavelength   fosc         T2         TX        TY        TZ
        (cm-1)    (nm)                  (au**2)     (au)      (au)      (au)
-----------------------------------------------------------------------------
   0   15692.6    637.2   1.056132833  22.15634  -0.56352  -4.42050   1.51590
   1   22184.6    450.8   0.102112699   1.51532  -0.21269   0.20630   1.19479
   2   24464.6    408.8   0.612423333   8.24116  -0.04161   2.59447   1.22808
   3   25243.4    396.1   0.253114096   3.30098  -0.18188   0.97267   1.52375
   4   27152.6    368.3   0.002195388   0.02662  -0.05592  -0.14375   0.05318
   5   28864.4    346.4   0.034253456   0.39068   0.22438  -0.24343  -0.53016
   6   29418.7    339.9   0.011031119   0.12344   0.05576  -0.32457   0.12243
   7   31086.4    321.7   0.433365752   4.58945   0.06716   2.13803  -0.11736
   8   31099.9    321.5   0.140887930   1.49139  -0.28353  -0.69419   0.96390
   9   31678.2    315.7   0.016807998   0.17467  -0.12539  -0.12594   0.37828
  10   33166.5    301.5   0.000205356   0.00204   0.01653   0.03365  -0.02516
  11   34062.8    293.6   0.141300270   1.36565  -0.02498   1.01503   0.57857
  12   35056.9    285.3   0.216676626   2.03476   0.06507  -1.39538  -0.28885
  13   35531.2    281.4   0.113219261   1.04903   0.07702   0.95551   0.36069
  14   36663.1    272.8   0.004873747   0.04376  -0.02877  -0.11377   0.17318
  15   37134.5    269.3   0.007708151   0.06834  -0.01890   0.21667   0.14502
  16   38393.6    260.5   0.015524190   0.13311   0.08993  -0.08237  -0.34386
  17   38758.7    258.0   0.149692545   1.27147   0.19199  -0.54712  -0.96709
  18   38962.4    256.7   0.016409768   0.13865   0.09525   0.01001  -0.35984
  19   39333.5    254.2   0.015642828   0.13093  -0.12524   0.00063   0.33947
  20   39533.0    253.0   0.026290430   0.21893   0.20910   0.26227  -0.32623
  21   40166.0    249.0   0.014449810   0.11843   0.02490  -0.23221  -0.25277

FINAL SINGLE POINT ENERGY     -4186.925226565895

DIPOLE MOMENT
-------------
                                X             Y             Z
Electronic contribution:     -8.76432       5.27194      21.01361
Nuclear contribution   :      9.89276      -6.70044     -21.69221
                        -----------------------------------------
Total Dipole Moment    :      1.12843      -1.42849      -0.67860
                        -----------------------------------------
Magnitude (a.u.)       :      1.94279
Magnitude (Debye)      :      4.93819

Rotational constants in cm-1:     0.003447     0.000222     0.000212
Rotational constants in MHz :   103.347157     6.658376     6.358014

                             ****ORCA TERMINATED NORMALLY****
TOTAL RUN TIME: 0 days 0 hours 7 minutes 44 seconds 486 msec
