                         Program Version 4.2.0 -  RELEASE  -
|  1> # ORCA input file
|  2> # SCF done       -140.001631924977          0.000564811135
|  3> ! CAM-B3LYP def2-SVP def2/J RIJCOSX Grid4 TightSCF
|  4> %maxcore 5000
|  5> %tddft
|  6>     Mode sTDDFT
|  7>     Ethresh 5.0
|  8>     maxcore 5000
|  9> end
| 10>
| 11> %pal
| 12>   nprocs 6
| 13>   end
| 14> * xyz 0 1
| 15>    C        9.93672        -7.86260         0.28636
| 16>    C       10.70010        -8.98613         0.37128
| 17>    S        9.88416       -10.34826        -0.30645
| 18>    C        8.47847        -9.39617        -0.71312
| 19>   Cl        7.13525       -10.07130        -1.49852
| 20>    C        8.66572        -8.09745        -0.33010
| 21>    C        7.89998        -6.86071        -0.38243
| 22>    O        6.75656        -6.72887        -0.77611
| 23>    C        8.79534        -5.81490         0.20063
| 24>    C       10.03755        -6.46086         0.63601
| 25>    C       11.12371        -5.89289         1.24095
| 26>    C       12.25188        -6.66822         1.59149
| 27>    N       13.17446        -7.28154         1.88719
| 28>    C       11.27803        -4.53564         1.59148
| 29>    N       11.47583        -3.44904         1.90448
| 30>    C        8.50390        -4.50348         0.38634
| 31>    C        7.31851        -3.78558        -0.01650
| 32>    C        6.61133        -4.03885        -1.18916
| 33>    C        5.42455        -3.35037        -1.44633
| 34>    C        5.07358        -2.32518        -0.55726
| 35>    N        5.76582        -2.04468         0.52676
| 36>    C        6.83363        -2.75688         0.81174
| 37>    C        4.59912        -3.71105        -2.56905
| 38>    S        3.52623        -2.59712        -3.36229
| 39>    C        2.89673        -3.79914        -4.46306
| 40>    C        3.50288        -5.02728        -4.21233
| 41>    C        4.46047        -4.95695        -3.14766
| 42>    N        4.98511        -6.19334        -2.95221
| 43>    C        4.39757        -7.04780        -3.85885
| 44>    C        4.73991        -8.40701        -3.89450
| 45>    N        5.02633        -9.51809        -3.91410
| 46>    C        3.49815        -6.37170        -4.65793
| 47>    C        1.90334        -3.44499        -5.41967
| 48>    C        1.59428        -2.10598        -5.73091
| 49>    N        0.68843        -1.77012        -6.61115
| 50>    C        0.05665        -2.75225        -7.26283
| 51>    N        0.24634        -4.05384        -7.02068
| 52>    C        1.12868        -4.39193        -6.11532
| 53>    C       -0.94630        -2.34502        -8.21120
| 54>    C       -1.61530        -3.10052        -9.11067
| 55>    C       -2.89556        -2.57025        -9.69314
| 56>    O       -3.27493        -1.42632        -9.67324
| 57>    C       -3.57179        -3.76236       -10.21733
| 58>    C       -4.77885        -4.06431       -10.77453
| 59>    S       -4.87076        -5.76864       -11.14979
| 60>    C       -3.27278        -6.05106       -10.56009
| 61>    C       -2.71052        -4.90346       -10.09658
| 62>    C       -1.43801        -4.47901        -9.54384
| 63>    C       -0.27575        -5.19025        -9.63201
| 64>    C       -0.26061        -6.51571       -10.11470
| 65>    N       -0.24138        -7.60136       -10.48495
| 66>    C        1.00902        -4.67568        -9.36068
| 67>    N        2.08989        -4.30484        -9.25148
| 68>   Cl       -6.07072        -3.01848       -11.09942
| 69>    H       11.68200        -9.11261         0.78238
| 70>    H        9.20981        -3.90842         0.95276
| 71>    H        7.00524        -4.71967        -1.92535
| 72>    H        4.20106        -1.71199        -0.74038
| 73>    H        7.33113        -2.51449         1.74073
| 74>    H        5.59340        -6.47770        -2.19491
| 75>    H        2.93385        -6.80470        -5.45857
| 76>    H        2.10991        -1.29106        -5.23625
| 77>    H        1.22066        -5.45044        -5.91836
| 78>    H       -1.25203        -1.30885        -8.12232
| 79>    H       -2.86793        -7.04312       -10.58914
| 80> *
| 81>
| 82>                          ****END OF INPUT****

CARTESIAN COORDINATES (ANGSTROEM)
---------------------------------
  C      9.936720   -7.862600    0.286360
  C     10.700100   -8.986130    0.371280
  S      9.884160  -10.348260   -0.306450
  C      8.478470   -9.396170   -0.713120
  Cl     7.135250  -10.071300   -1.498520
  C      8.665720   -8.097450   -0.330100
  C      7.899980   -6.860710   -0.382430
  O      6.756560   -6.728870   -0.776110
  C      8.795340   -5.814900    0.200630
  C     10.037550   -6.460860    0.636010
  C     11.123710   -5.892890    1.240950
  C     12.251880   -6.668220    1.591490
  N     13.174460   -7.281540    1.887190
  C     11.278030   -4.535640    1.591480
  N     11.475830   -3.449040    1.904480
  C      8.503900   -4.503480    0.386340
  C      7.318510   -3.785580   -0.016500
  C      6.611330   -4.038850   -1.189160
  C      5.424550   -3.350370   -1.446330
  C      5.073580   -2.325180   -0.557260
  N      5.765820   -2.044680    0.526760
  C      6.833630   -2.756880    0.811740
  C      4.599120   -3.711050   -2.569050
  S      3.526230   -2.597120   -3.362290
  C      2.896730   -3.799140   -4.463060
  C      3.502880   -5.027280   -4.212330
  C      4.460470   -4.956950   -3.147660
  N      4.985110   -6.193340   -2.952210
  C      4.397570   -7.047800   -3.858850
  C      4.739910   -8.407010   -3.894500
  N      5.026330   -9.518090   -3.914100
  C      3.498150   -6.371700   -4.657930
  C      1.903340   -3.444990   -5.419670
  C      1.594280   -2.105980   -5.730910
  N      0.688430   -1.770120   -6.611150
  C      0.056650   -2.752250   -7.262830
  N      0.246340   -4.053840   -7.020680
  C      1.128680   -4.391930   -6.115320
  C     -0.946300   -2.345020   -8.211200
  C     -1.615300   -3.100520   -9.110670
  C     -2.895560   -2.570250   -9.693140
  O     -3.274930   -1.426320   -9.673240
  C     -3.571790   -3.762360  -10.217330
  C     -4.778850   -4.064310  -10.774530
  S     -4.870760   -5.768640  -11.149790
  C     -3.272780   -6.051060  -10.560090
  C     -2.710520   -4.903460  -10.096580
  C     -1.438010   -4.479010   -9.543840
  C     -0.275750   -5.190250   -9.632010
  C     -0.260610   -6.515710  -10.114700
  N     -0.241380   -7.601360  -10.484950
  C      1.009020   -4.675680   -9.360680
  N      2.089890   -4.304840   -9.251480
  Cl    -6.070720   -3.018480  -11.099420
  H     11.682000   -9.112610    0.782380
  H      9.209810   -3.908420    0.952760
  H      7.005240   -4.719670   -1.925350
  H      4.201060   -1.711990   -0.740380
  H      7.331130   -2.514490    1.740730
  H      5.593400   -6.477700   -2.194910
  H      2.933850   -6.804700   -5.458570
  H      2.109910   -1.291060   -5.236250
  H      1.220660   -5.450440   -5.918360
  H     -1.252030   -1.308850   -8.122320
  H     -2.867930   -7.043120  -10.589140

 Total Charge           Charge          ....    0
 Multiplicity           Mult            ....    1
 Number of Electrons    NEL             ....  400
 Basis Dimension        Dim             ....  831

ORBITAL ENERGIES
----------------

  NO   OCC          E(Eh)            E(eV)
   0   2.0000    -101.630366     -2765.5029
   1   2.0000    -101.615972     -2765.1112
   2   2.0000     -89.009568     -2422.0735
   3   2.0000     -88.991585     -2421.5841
   4   2.0000     -88.982256     -2421.3303
   5   2.0000     -19.251654      -523.8641
   6   2.0000     -19.219057      -522.9771
   7   2.0000     -14.474373      -393.8677
   8   2.0000     -14.437094      -392.8533
   9   2.0000     -14.434402      -392.7800
  10   2.0000     -14.429951      -392.6589
  11   2.0000     -14.426912      -392.5762
  12   2.0000     -14.425146      -392.5282
  13   2.0000     -14.423132      -392.4734
  14   2.0000     -14.419940      -392.3865
  15   2.0000     -14.414237      -392.2313
  16   2.0000     -10.408542      -283.2308
  17   2.0000     -10.393722      -282.8275
  18   2.0000     -10.375276      -282.3256
  19   2.0000     -10.374741      -282.3111
  20   2.0000     -10.366323      -282.0820
  21   2.0000     -10.365666      -282.0641
  22   2.0000     -10.356494      -281.8145
  23   2.0000     -10.355759      -281.7945
  24   2.0000     -10.346488      -281.5423
  25   2.0000     -10.344819      -281.4968
  26   2.0000     -10.344314      -281.4831
  27   2.0000     -10.343581      -281.4632
  28   2.0000     -10.338488      -281.3246
  29   2.0000     -10.335864      -281.2532
  30   2.0000     -10.335720      -281.2492
  31   2.0000     -10.334342      -281.2118
  32   2.0000     -10.332111      -281.1510
  33   2.0000     -10.330507      -281.1074
  34   2.0000     -10.329956      -281.0924
  35   2.0000     -10.329711      -281.0857
  36   2.0000     -10.329233      -281.0727
  37   2.0000     -10.326737      -281.0048
  38   2.0000     -10.326542      -280.9995
  39   2.0000     -10.324274      -280.9378
  40   2.0000     -10.323109      -280.9061
  41   2.0000     -10.321359      -280.8584
  42   2.0000     -10.318252      -280.7739
  43   2.0000     -10.317703      -280.7590
  44   2.0000     -10.317083      -280.7421
  45   2.0000     -10.316837      -280.7354
  46   2.0000     -10.315910      -280.7102
  47   2.0000     -10.315437      -280.6973
  48   2.0000     -10.311550      -280.5916
  49   2.0000     -10.311250      -280.5834
  50   2.0000     -10.307493      -280.4811
  51   2.0000     -10.300941      -280.3029
  52   2.0000     -10.298887      -280.2470
  53   2.0000     -10.297707      -280.2149
  54   2.0000      -9.584722      -260.8135
  55   2.0000      -9.570742      -260.4331
  56   2.0000      -8.105206      -220.5539
  57   2.0000      -8.087294      -220.0665
  58   2.0000      -8.076621      -219.7760
  59   2.0000      -7.355423      -200.1512
  60   2.0000      -7.344742      -199.8606
  61   2.0000      -7.344151      -199.8445
  62   2.0000      -7.341381      -199.7691
  63   2.0000      -7.330778      -199.4806
  64   2.0000      -7.330242      -199.4660
  65   2.0000      -6.074551      -165.2969
  66   2.0000      -6.069895      -165.1703
  67   2.0000      -6.067553      -165.1065
  68   2.0000      -6.056685      -164.8108
  69   2.0000      -6.052060      -164.6849
  70   2.0000      -6.049554      -164.6167
  71   2.0000      -6.045995      -164.5199
  72   2.0000      -6.041734      -164.4040
  73   2.0000      -6.038926      -164.3275
  74   2.0000      -1.167544       -31.7705
  75   2.0000      -1.136319       -30.9208
  76   2.0000      -1.105498       -30.0821
  77   2.0000      -1.100254       -29.9394
  78   2.0000      -1.061885       -28.8954
  79   2.0000      -1.054569       -28.6963
  80   2.0000      -1.036191       -28.1962
  81   2.0000      -1.033027       -28.1101
  82   2.0000      -1.015198       -27.6249
  83   2.0000      -1.014002       -27.5924
  84   2.0000      -1.007444       -27.4139
  85   2.0000      -1.004097       -27.3229
  86   2.0000      -0.998918       -27.1820
  87   2.0000      -0.995340       -27.0846
  88   2.0000      -0.991515       -26.9805
  89   2.0000      -0.986089       -26.8328
  90   2.0000      -0.971124       -26.4256
  91   2.0000      -0.953085       -25.9348
  92   2.0000      -0.945825       -25.7372
  93   2.0000      -0.935360       -25.4524
  94   2.0000      -0.922736       -25.1089
  95   2.0000      -0.914212       -24.8770
  96   2.0000      -0.903226       -24.5780
  97   2.0000      -0.891633       -24.2626
  98   2.0000      -0.876088       -23.8396
  99   2.0000      -0.868306       -23.6278
 100   2.0000      -0.855810       -23.2878
 101   2.0000      -0.849362       -23.1123
 102   2.0000      -0.830645       -22.6030
 103   2.0000      -0.822481       -22.3809
 104   2.0000      -0.803497       -21.8643
 105   2.0000      -0.791606       -21.5407
 106   2.0000      -0.775171       -21.0935
 107   2.0000      -0.767874       -20.8949
 108   2.0000      -0.760916       -20.7056
 109   2.0000      -0.754595       -20.5336
 110   2.0000      -0.744927       -20.2705
 111   2.0000      -0.741284       -20.1714
 112   2.0000      -0.731624       -19.9085
 113   2.0000      -0.710015       -19.3205
 114   2.0000      -0.700347       -19.0574
 115   2.0000      -0.694044       -18.8859
 116   2.0000      -0.690566       -18.7913
 117   2.0000      -0.673910       -18.3380
 118   2.0000      -0.673140       -18.3171
 119   2.0000      -0.669888       -18.2286
 120   2.0000      -0.663057       -18.0427
 121   2.0000      -0.650831       -17.7100
 122   2.0000      -0.634318       -17.2607
 123   2.0000      -0.630419       -17.1546
 124   2.0000      -0.624915       -17.0048
 125   2.0000      -0.624147       -16.9839
 126   2.0000      -0.618372       -16.8268
 127   2.0000      -0.609029       -16.5725
 128   2.0000      -0.607321       -16.5260
 129   2.0000      -0.587511       -15.9870
 130   2.0000      -0.586919       -15.9709
 131   2.0000      -0.581056       -15.8113
 132   2.0000      -0.571856       -15.5610
 133   2.0000      -0.569429       -15.4950
 134   2.0000      -0.561846       -15.2886
 135   2.0000      -0.556539       -15.1442
 136   2.0000      -0.554868       -15.0987
 137   2.0000      -0.552083       -15.0229
 138   2.0000      -0.546377       -14.8677
 139   2.0000      -0.541197       -14.7267
 140   2.0000      -0.540908       -14.7188
 141   2.0000      -0.540248       -14.7009
 142   2.0000      -0.530813       -14.4442
 143   2.0000      -0.529912       -14.4196
 144   2.0000      -0.524639       -14.2762
 145   2.0000      -0.522374       -14.2145
 146   2.0000      -0.521204       -14.1827
 147   2.0000      -0.519673       -14.1410
 148   2.0000      -0.516576       -14.0567
 149   2.0000      -0.513629       -13.9766
 150   2.0000      -0.511700       -13.9241
 151   2.0000      -0.509592       -13.8667
 152   2.0000      -0.501451       -13.6452
 153   2.0000      -0.500493       -13.6191
 154   2.0000      -0.495701       -13.4887
 155   2.0000      -0.485748       -13.2179
 156   2.0000      -0.484596       -13.1865
 157   2.0000      -0.480937       -13.0870
 158   2.0000      -0.478513       -13.0210
 159   2.0000      -0.475646       -12.9430
 160   2.0000      -0.469045       -12.7634
 161   2.0000      -0.466656       -12.6983
 162   2.0000      -0.461683       -12.5630
 163   2.0000      -0.461183       -12.5494
 164   2.0000      -0.455117       -12.3844
 165   2.0000      -0.454252       -12.3608
 166   2.0000      -0.451326       -12.2812
 167   2.0000      -0.448582       -12.2065
 168   2.0000      -0.446918       -12.1613
 169   2.0000      -0.445169       -12.1137
 170   2.0000      -0.443663       -12.0727
 171   2.0000      -0.440979       -11.9997
 172   2.0000      -0.437903       -11.9160
 173   2.0000      -0.435338       -11.8462
 174   2.0000      -0.433715       -11.8020
 175   2.0000      -0.431882       -11.7521
 176   2.0000      -0.430992       -11.7279
 177   2.0000      -0.430689       -11.7196
 178   2.0000      -0.421694       -11.4749
 179   2.0000      -0.414777       -11.2867
 180   2.0000      -0.414037       -11.2665
 181   2.0000      -0.407544       -11.0898
 182   2.0000      -0.402245       -10.9457
 183   2.0000      -0.401845       -10.9347
 184   2.0000      -0.398845       -10.8531
 185   2.0000      -0.390799       -10.6342
 186   2.0000      -0.378775       -10.3070
 187   2.0000      -0.373464       -10.1625
 188   2.0000      -0.358507        -9.7555
 189   2.0000      -0.353479        -9.6186
 190   2.0000      -0.349401        -9.5077
 191   2.0000      -0.343442        -9.3455
 192   2.0000      -0.340620        -9.2687
 193   2.0000      -0.337569        -9.1857
 194   2.0000      -0.333772        -9.0824
 195   2.0000      -0.328219        -8.9313
 196   2.0000      -0.319722        -8.7001
 197   2.0000      -0.315493        -8.5850
 198   2.0000      -0.306703        -8.3458
 199   2.0000      -0.260282        -7.0826
 200   0.0000      -0.110654        -3.0110
 201   0.0000      -0.101040        -2.7494
 202   0.0000      -0.076321        -2.0768
 203   0.0000      -0.063750        -1.7347
 204   0.0000      -0.043615        -1.1868

MULLIKEN ATOMIC CHARGES
-----------------------
   0 C :    0.035168
   1 C :   -0.125907
   2 S :    0.205151
   3 C :   -0.162071
   4 Cl:    0.033813
   5 C :    0.068764
   6 C :    0.177642
   7 O :   -0.183670
   8 C :   -0.079658
   9 C :    0.291086
  10 C :   -0.326439
  11 C :   -0.192876
  12 N :    0.163916
  13 C :   -0.180859
  14 N :    0.167326
  15 C :   -0.012840
  16 C :    0.016354
  17 C :    0.041757
  18 C :    0.016768
  19 C :    0.000379
  20 N :   -0.046616
  21 C :    0.007238
  22 C :   -0.160388
  23 S :    0.150561
  24 C :   -0.140919
  25 C :    0.128941
  26 C :    0.111861
  27 N :   -0.036624
  28 C :   -0.098044
  29 C :   -0.125531
  30 N :    0.149770
  31 C :   -0.048998
  32 C :    0.055737
  33 C :    0.014037
  34 N :   -0.032133
  35 C :   -0.078634
  36 N :   -0.079886
  37 C :    0.036326
  38 C :    0.088262
  39 C :   -0.104468
  40 C :    0.135663
  41 O :   -0.121689
  42 C :    0.084967
  43 C :   -0.171625
  44 S :    0.184184
  45 C :   -0.130851
  46 C :    0.021494
  47 C :    0.283873
  48 C :   -0.285395
  49 C :   -0.200001
  50 N :    0.155949
  51 C :   -0.182615
  52 N :    0.159608
  53 Cl:   -0.000551
  54 H :    0.058586
  55 H :    0.032053
  56 H :   -0.009257
  57 H :    0.011212
  58 H :    0.012954
  59 H :    0.126753
  60 H :   -0.003688
  61 H :    0.016790
  62 H :   -0.002984
  63 H :    0.028269
  64 H :    0.052007
Sum of atomic charges:    0.0000000

LOEWDIN ATOMIC CHARGES
----------------------
   0 C :   -0.058452
   1 C :   -0.145209
   2 S :    0.493280
   3 C :   -0.264902
   4 Cl:    0.220070
   5 C :   -0.124455
   6 C :    0.105656
   7 O :   -0.150601
   8 C :   -0.081370
   9 C :    0.073805
  10 C :   -0.126399
  11 C :   -0.014833
  12 N :   -0.041309
  13 C :   -0.024942
  14 N :   -0.034708
  15 C :    0.088572
  16 C :   -0.061896
  17 C :    0.038691
  18 C :   -0.056795
  19 C :    0.037648
  20 N :   -0.057873
  21 C :    0.040339
  22 C :   -0.207552
  23 S :    0.470568
  24 C :   -0.178778
  25 C :   -0.055015
  26 C :   -0.000258
  27 N :    0.072279
  28 C :   -0.017944
  29 C :   -0.035569
  30 N :   -0.047796
  31 C :   -0.041870
  32 C :   -0.061738
  33 C :    0.041442
  34 N :   -0.056874
  35 C :    0.008589
  36 N :   -0.053156
  37 C :    0.056874
  38 C :    0.059477
  39 C :   -0.058827
  40 C :    0.081912
  41 O :   -0.125490
  42 C :   -0.119323
  43 C :   -0.272478
  44 S :    0.473559
  45 C :   -0.154442
  46 C :   -0.054712
  47 C :    0.069703
  48 C :   -0.115110
  49 C :   -0.015676
  50 N :   -0.050288
  51 C :   -0.018407
  52 N :   -0.054656
  53 Cl:    0.191883
  54 H :    0.039710
  55 H :    0.050035
  56 H :    0.029877
  57 H :    0.021930
  58 H :    0.027527
  59 H :    0.072884
  60 H :    0.035366
  61 H :    0.021414
  62 H :    0.025995
  63 H :    0.053401
  64 H :    0.037217

  Mayer bond orders larger than 0.100000
B(  0-C ,  1-C ) :   1.5450 B(  0-C ,  5-C ) :   1.2172 B(  0-C ,  9-C ) :   1.0020
B(  1-C ,  2-S ) :   1.1643 B(  1-C , 54-H ) :   0.9529 B(  2-S ,  3-C ) :   1.1656
B(  3-C ,  4-Cl) :   1.1499 B(  3-C ,  5-C ) :   1.4447 B(  5-C ,  6-C ) :   0.9917
B(  6-C ,  7-O ) :   2.0641 B(  6-C ,  8-C ) :   0.9463 B(  7-O , 59-H ) :   0.1091
B(  8-C ,  9-C ) :   1.0444 B(  8-C , 15-C ) :   1.6925 B(  9-C , 10-C ) :   1.6757
B( 10-C , 11-C ) :   1.1465 B( 10-C , 13-C ) :   1.1325 B( 11-C , 12-N ) :   2.9916
B( 13-C , 14-N ) :   2.9679 B( 15-C , 16-C ) :   1.0445 B( 15-C , 55-H ) :   0.9372
B( 16-C , 17-C ) :   1.3744 B( 16-C , 21-C ) :   1.3037 B( 17-C , 18-C ) :   1.4096
B( 17-C , 56-H ) :   0.9747 B( 18-C , 19-C ) :   1.3182 B( 18-C , 22-C ) :   1.0231
B( 19-C , 20-N ) :   1.5670 B( 19-C , 57-H ) :   0.9863 B( 20-N , 21-C ) :   1.5653
B( 21-C , 58-H ) :   0.9896 B( 22-C , 23-S ) :   1.1233 B( 22-C , 24-C ) :   0.1275
B( 22-C , 26-C ) :   1.4448 B( 23-S , 24-C ) :   1.1400 B( 24-C , 25-C ) :   1.3535
B( 24-C , 32-C ) :   1.1132 B( 25-C , 26-C ) :   1.2147 B( 25-C , 31-C ) :   1.1634
B( 26-C , 27-N ) :   1.1843 B( 27-N , 28-C ) :   1.2248 B( 27-N , 59-H ) :   0.8907
B( 28-C , 29-C ) :   1.0602 B( 28-C , 31-C ) :   1.5776 B( 29-C , 30-N ) :   3.0254
B( 31-C , 60-H ) :   1.0081 B( 32-C , 33-C ) :   1.2856 B( 32-C , 37-C ) :   1.2946
B( 33-C , 34-N ) :   1.5988 B( 33-C , 61-H ) :   0.9805 B( 34-N , 35-C ) :   1.5012
B( 35-C , 36-N ) :   1.4593 B( 35-C , 38-C ) :   1.0342 B( 36-N , 37-C ) :   1.5648
B( 37-C , 62-H ) :   0.9892 B( 38-C , 39-C ) :   1.6844 B( 38-C , 63-H ) :   0.9495
B( 39-C , 40-C ) :   0.9255 B( 39-C , 47-C ) :   1.0142 B( 40-C , 41-O ) :   2.2886
B( 40-C , 42-C ) :   0.9224 B( 42-C , 43-C ) :   1.4807 B( 42-C , 46-C ) :   1.2219
B( 43-C , 44-S ) :   1.1557 B( 43-C , 53-Cl) :   1.1291 B( 44-S , 45-C ) :   1.1562
B( 45-C , 46-C ) :   1.5505 B( 45-C , 64-H ) :   0.9570 B( 46-C , 47-C ) :   1.0100
B( 47-C , 48-C ) :   1.7059 B( 48-C , 49-C ) :   1.1393 B( 48-C , 51-C ) :   1.1489
B( 49-C , 50-N ) :   2.9991 B( 51-C , 52-N ) :   2.9788

-----------------------------------------------------------------------------
         ABSORPTION SPECTRUM VIA TRANSITION ELECTRIC DIPOLE MOMENTS
-----------------------------------------------------------------------------
State   Energy  Wavelength   fosc         T2         TX        TY        TZ
        (cm-1)    (nm)                  (au**2)     (au)      (au)      (au)
-----------------------------------------------------------------------------
   0   17735.6    563.8   0.013789553   0.25596   0.32999  -0.37898  -0.05873
   1   19112.8    523.2   0.892832616  15.37874  -2.63929   0.32547  -2.88218
   2   25499.2    392.2   0.013844432   0.17874  -0.37022   0.11222  -0.17053
   3   25965.5    385.1   0.214968789   2.72555  -1.39991   0.43799  -0.75760
   4   26319.6    379.9   0.430173909   5.38073  -1.81524   0.89839  -1.13072
   5   27335.7    365.8   0.071452327   0.86052   0.26696   0.12837   0.87908
   6   27738.9    360.5   0.052766616   0.62625  -0.70732   0.31926  -0.15496
   7   28969.5    345.2   0.002031748   0.02309  -0.12089  -0.08737   0.02899
   8   28985.3    345.0   0.005492007   0.06238   0.24944   0.01129   0.00545
   9   29494.1    339.1   0.032874174   0.36694  -0.18150   0.56417   0.12532
  10   30277.2    330.3   0.005596599   0.06085   0.18368  -0.13251  -0.09775
  11   31909.3    313.4   0.084153043   0.86822  -0.05374   0.74466   0.55750
  12   32002.9    312.5   0.061978646   0.63757   0.71667   0.26558   0.23113
  13   32306.5    309.5   0.158011735   1.61018  -1.05842   0.61225  -0.33923
  14   32788.8    305.0   0.007629579   0.07660  -0.25864  -0.08837  -0.04358
  15   32858.7    304.3   0.035493620   0.35561  -0.28682   0.47213   0.22458
  16   34059.9    293.6   0.107791200   1.04188   0.53846   0.63722   0.58812
  17   34506.8    289.8   0.135122669   1.28914   0.21763   1.04171   0.39574
  18   34742.6    287.8   0.088740478   0.84088  -0.67399  -0.03403  -0.62086
  19   35126.2    284.7   0.079261096   0.74286  -0.02194   0.85694   0.08959
  20   35291.1    283.4   0.024084540   0.22467  -0.18183  -0.37492  -0.22594
  21   35951.9    278.1   0.314616524   2.88095  -1.54185   0.22209  -0.67403
  22   36145.0    276.7   0.075084806   0.68388  -0.45388  -0.67290  -0.15835
  23   36377.4    274.9   0.362285215   3.27865   0.91485   1.34628   0.79325
  24   36831.6    271.5   0.006732735   0.06018  -0.21221  -0.09413  -0.07927
  25   36990.9    270.3   0.256128990   2.27950   1.38956  -0.34027   0.48254
  26   37148.6    269.2   0.125804162   1.11488  -0.04887  -0.93636  -0.48552
  27   38069.7    262.7   0.104319598   0.90212   0.72982  -0.58517   0.16450
  28   38266.7    261.3   0.202972910   1.74620  -1.30538   0.00840  -0.20517
  29   38504.9    259.7   0.054259680   0.46391  -0.41731  -0.52564  -0.11604
  30   38795.5    257.8   0.080707069   0.68487   0.15262  -0.77263  -0.25419
  31   38917.4    257.0   0.024862579   0.21032  -0.00438  -0.32017  -0.32831
  32   39145.7    255.5   0.021846221   0.18372   0.27417  -0.31827   0.08521
  33   39544.3    252.9   0.002395463   0.01994   0.03540  -0.08576   0.10646
  34   39615.2    252.4   0.038422249   0.31930   0.42254  -0.37241   0.04552
  35   40179.9    248.9   0.040343724   0.33055  -0.25141  -0.44768   0.25871

FINAL SINGLE POINT ENERGY     -4209.435650350096

DIPOLE MOMENT
-------------
                                X             Y             Z
Electronic contribution:    -16.11876     -11.88377     -15.10764
Nuclear contribution   :     15.60079      10.79576      16.27187
                        -----------------------------------------
Total Dipole Moment    :     -0.51797      -1.08801       1.16423
                        -----------------------------------------
Magnitude (a.u.)       :      1.67555
Magnitude (Debye)      :      4.25891

Rotational constants in cm-1:     0.003628     0.000445     0.000405
Rotational constants in MHz :   108.774258    13.330233    12.150766

                             ****ORCA TERMINATED NORMALLY****
TOTAL RUN TIME: 0 days 0 hours 5 minutes 14 seconds 380 msec
