                         Program Version 4.2.0 -  RELEASE  -
|  1> # ORCA input file
|  2> # SCF done       -139.817500135923          0.000971141284
|  3> ! CAM-B3LYP def2-SVP def2/J RIJCOSX Grid4 TightSCF
|  4> %maxcore 5000
|  5> %tddft
|  6>     Mode sTDDFT
|  7>     Ethresh 5.0
|  8>     maxcore 5000
|  9> end
| 10>
| 11> %pal
| 12>   nprocs 6
| 13>   end
| 14> * xyz 0 1
| 15>    C        3.10660         2.85581         1.57563
| 16>    C        2.86082         4.10872         2.04735
| 17>    S        4.02731         4.56938         3.23197
| 18>    C        4.86679         3.04249         3.09496
| 19>   Cl        6.24387         2.70536         4.02092
| 20>    C        4.25590         2.24423         2.17374
| 21>    C        4.45889         0.90349         1.61774
| 22>    O        5.30098         0.09162         1.92175
| 23>    C        3.34690         0.73341         0.62538
| 24>    C        2.52540         1.94011         0.61628
| 25>    C        1.42797         2.20945        -0.15503
| 26>    C        0.74613         3.44169        -0.05569
| 27>    N        0.17883         4.43597         0.01554
| 28>    C        0.85681         1.34162        -1.10723
| 29>    N        0.34748         0.68015        -1.89528
| 30>    C        3.09790        -0.41033        -0.05477
| 31>    C        3.95077        -1.57064        -0.07776
| 32>    C        3.43198        -2.86738         0.05461
| 33>    N        4.18551        -3.94028         0.02836
| 34>    C        5.50128        -3.77355        -0.10660
| 35>    N        6.08852        -2.59118        -0.28671
| 36>    C        5.33767        -1.51911        -0.29428
| 37>    C        6.34607        -4.95590        -0.07912
| 38>    C        5.82030        -6.25067        -0.00747
| 39>    N        6.58632        -7.31848         0.01636
| 40>    C        7.90686        -7.13236        -0.02233
| 41>    N        8.50657        -5.94232        -0.08838
| 42>    C        7.74271        -4.87406        -0.11928
| 43>    C        8.76280        -8.31548         0.01238
| 44>    C       10.14566        -8.19450         0.09623
| 45>    C       10.94069        -9.34356         0.13751
| 46>    C       10.26846       -10.57377         0.07794
| 47>    N        8.95783       -10.69538        -0.00622
| 48>    C        8.21816        -9.60311        -0.03461
| 49>    C       12.37349        -9.20043         0.24662
| 50>    C       13.26799       -10.20615         0.34378
| 51>    C       14.66779        -9.97057         0.47189
| 52>    N       15.60007       -10.98111         0.55906
| 53>    C       15.35126       -12.39807         0.46157
| 54>    C       15.12576       -12.83855        -0.98305
| 55>    C       16.90806       -10.48423         0.70093
| 56>    O       17.88505       -11.20065         0.80444
| 57>    C       16.74604        -9.04959         0.70257
| 58>    C       15.35474        -8.76823         0.55937
| 59>    C       15.19427        -7.33507         0.56129
| 60>    O       14.21622        -6.61729         0.46079
| 61>    N       16.50307        -6.83810         0.70071
| 62>    C       16.75177        -5.42044         0.78784
| 63>    C       16.97752        -4.96817         2.22880
| 64>    C       17.43167        -7.84960         0.78940
| 65>    C       18.84127        -7.61598         0.92678
| 66>    C       19.73169        -8.60188         1.05029
| 67>    H        2.07809         4.79282         1.78597
| 68>    H        2.17907        -0.49969        -0.62153
| 69>    H        2.37358        -3.03222         0.21261
| 70>    H        5.83649        -0.58678        -0.52003
| 71>    H        4.75136        -6.41335         0.02863
| 72>    H        8.24092        -3.91527        -0.17387
| 73>    H       10.59416        -7.21313         0.13549
| 74>    H       10.80844       -11.51077         0.09739
| 75>    H        7.14879        -9.74187        -0.10034
| 76>    H       12.73526        -8.18061         0.25760
| 77>    H       12.94232       -11.23545         0.33831
| 78>    H       14.49720       -12.66742         1.08971
| 79>    H       16.24603       -12.88729         0.85742
| 80>    H       14.26544       -12.33323        -1.41677
| 81>    H       14.95798       -13.91143        -1.01971
| 82>    H       16.00207       -12.60294        -1.58188
| 83>    H       15.85708        -4.93408         0.38818
| 84>    H       17.60639        -5.15615         0.15832
| 85>    H       16.10276        -5.20132         2.83085
| 86>    H       17.14282        -3.89454         2.25645
| 87>    H       17.83995        -5.46790         2.66457
| 88>    H       19.16694        -6.58494         0.92311
| 89>    H       19.43025        -9.63566         1.05632
| 90>    H       20.78347        -8.39475         1.14768
| 91> *
| 92>
| 93>                          ****END OF INPUT****

CARTESIAN COORDINATES (ANGSTROEM)
---------------------------------
  C      3.106600    2.855810    1.575630
  C      2.860820    4.108720    2.047350
  S      4.027310    4.569380    3.231970
  C      4.866790    3.042490    3.094960
  Cl     6.243870    2.705360    4.020920
  C      4.255900    2.244230    2.173740
  C      4.458890    0.903490    1.617740
  O      5.300980    0.091620    1.921750
  C      3.346900    0.733410    0.625380
  C      2.525400    1.940110    0.616280
  C      1.427970    2.209450   -0.155030
  C      0.746130    3.441690   -0.055690
  N      0.178830    4.435970    0.015540
  C      0.856810    1.341620   -1.107230
  N      0.347480    0.680150   -1.895280
  C      3.097900   -0.410330   -0.054770
  C      3.950770   -1.570640   -0.077760
  C      3.431980   -2.867380    0.054610
  N      4.185510   -3.940280    0.028360
  C      5.501280   -3.773550   -0.106600
  N      6.088520   -2.591180   -0.286710
  C      5.337670   -1.519110   -0.294280
  C      6.346070   -4.955900   -0.079120
  C      5.820300   -6.250670   -0.007470
  N      6.586320   -7.318480    0.016360
  C      7.906860   -7.132360   -0.022330
  N      8.506570   -5.942320   -0.088380
  C      7.742710   -4.874060   -0.119280
  C      8.762800   -8.315480    0.012380
  C     10.145660   -8.194500    0.096230
  C     10.940690   -9.343560    0.137510
  C     10.268460  -10.573770    0.077940
  N      8.957830  -10.695380   -0.006220
  C      8.218160   -9.603110   -0.034610
  C     12.373490   -9.200430    0.246620
  C     13.267990  -10.206150    0.343780
  C     14.667790   -9.970570    0.471890
  N     15.600070  -10.981110    0.559060
  C     15.351260  -12.398070    0.461570
  C     15.125760  -12.838550   -0.983050
  C     16.908060  -10.484230    0.700930
  O     17.885050  -11.200650    0.804440
  C     16.746040   -9.049590    0.702570
  C     15.354740   -8.768230    0.559370
  C     15.194270   -7.335070    0.561290
  O     14.216220   -6.617290    0.460790
  N     16.503070   -6.838100    0.700710
  C     16.751770   -5.420440    0.787840
  C     16.977520   -4.968170    2.228800
  C     17.431670   -7.849600    0.789400
  C     18.841270   -7.615980    0.926780
  C     19.731690   -8.601880    1.050290
  H      2.078090    4.792820    1.785970
  H      2.179070   -0.499690   -0.621530
  H      2.373580   -3.032220    0.212610
  H      5.836490   -0.586780   -0.520030
  H      4.751360   -6.413350    0.028630
  H      8.240920   -3.915270   -0.173870
  H     10.594160   -7.213130    0.135490
  H     10.808440  -11.510770    0.097390
  H      7.148790   -9.741870   -0.100340
  H     12.735260   -8.180610    0.257600
  H     12.942320  -11.235450    0.338310
  H     14.497200  -12.667420    1.089710
  H     16.246030  -12.887290    0.857420
  H     14.265440  -12.333230   -1.416770
  H     14.957980  -13.911430   -1.019710
  H     16.002070  -12.602940   -1.581880
  H     15.857080   -4.934080    0.388180
  H     17.606390   -5.156150    0.158320
  H     16.102760   -5.201320    2.830850
  H     17.142820   -3.894540    2.256450
  H     17.839950   -5.467900    2.664570
  H     19.166940   -6.584940    0.923110
  H     19.430250   -9.635660    1.056320
  H     20.783470   -8.394750    1.147680

 Total Charge           Charge          ....    0
 Multiplicity           Mult            ....    1
 Number of Electrons    NEL             ....  372
 Basis Dimension        Dim             ....  856

ORBITAL ENERGIES
----------------

  NO   OCC          E(Eh)            E(eV)
   0   2.0000    -101.626971     -2765.4105
   1   2.0000     -89.004772     -2421.9430
   2   2.0000     -19.234623      -523.4007
   3   2.0000     -19.181114      -521.9446
   4   2.0000     -19.180945      -521.9400
   5   2.0000     -14.444569      -393.0567
   6   2.0000     -14.444011      -393.0415
   7   2.0000     -14.433432      -392.7537
   8   2.0000     -14.431316      -392.6961
   9   2.0000     -14.426134      -392.5551
  10   2.0000     -14.424953      -392.5229
  11   2.0000     -14.412599      -392.1868
  12   2.0000     -14.412436      -392.1823
  13   2.0000     -14.396990      -391.7620
  14   2.0000     -10.391853      -282.7767
  15   2.0000     -10.387332      -282.6537
  16   2.0000     -10.364368      -282.0288
  17   2.0000     -10.363994      -282.0186
  18   2.0000     -10.363623      -282.0085
  19   2.0000     -10.361860      -281.9605
  20   2.0000     -10.361248      -281.9439
  21   2.0000     -10.349262      -281.6177
  22   2.0000     -10.342156      -281.4244
  23   2.0000     -10.341940      -281.4185
  24   2.0000     -10.340524      -281.3800
  25   2.0000     -10.337307      -281.2924
  26   2.0000     -10.335056      -281.2312
  27   2.0000     -10.332878      -281.1719
  28   2.0000     -10.329798      -281.0881
  29   2.0000     -10.327463      -281.0245
  30   2.0000     -10.324306      -280.9387
  31   2.0000     -10.324295      -280.9383
  32   2.0000     -10.323939      -280.9287
  33   2.0000     -10.323431      -280.9148
  34   2.0000     -10.312092      -280.6063
  35   2.0000     -10.311318      -280.5852
  36   2.0000     -10.304336      -280.3952
  37   2.0000     -10.302090      -280.3341
  38   2.0000     -10.301545      -280.3193
  39   2.0000     -10.298883      -280.2469
  40   2.0000     -10.291429      -280.0440
  41   2.0000     -10.282943      -279.8131
  42   2.0000     -10.282256      -279.7944
  43   2.0000     -10.281846      -279.7832
  44   2.0000     -10.280420      -279.7444
  45   2.0000     -10.280061      -279.7347
  46   2.0000     -10.278080      -279.6808
  47   2.0000     -10.270649      -279.4786
  48   2.0000     -10.259067      -279.1634
  49   2.0000     -10.258322      -279.1431
  50   2.0000     -10.248988      -278.8891
  51   2.0000     -10.248724      -278.8819
  52   2.0000      -9.581715      -260.7317
  53   2.0000      -8.100488      -220.4255
  54   2.0000      -7.352385      -200.0686
  55   2.0000      -7.341753      -199.7792
  56   2.0000      -7.341168      -199.7633
  57   2.0000      -6.069844      -165.1689
  58   2.0000      -6.065205      -165.0426
  59   2.0000      -6.062799      -164.9771
  60   2.0000      -1.152190       -31.3527
  61   2.0000      -1.123691       -30.5772
  62   2.0000      -1.117092       -30.3976
  63   2.0000      -1.103529       -30.0285
  64   2.0000      -1.086492       -29.5649
  65   2.0000      -1.053727       -28.6734
  66   2.0000      -1.049547       -28.5596
  67   2.0000      -1.045783       -28.4572
  68   2.0000      -1.032365       -28.0921
  69   2.0000      -1.029347       -28.0099
  70   2.0000      -1.010650       -27.5012
  71   2.0000      -0.999979       -27.2108
  72   2.0000      -0.996311       -27.1110
  73   2.0000      -0.981150       -26.6984
  74   2.0000      -0.967623       -26.3304
  75   2.0000      -0.944443       -25.6996
  76   2.0000      -0.922100       -25.0916
  77   2.0000      -0.919924       -25.0324
  78   2.0000      -0.915462       -24.9110
  79   2.0000      -0.909219       -24.7411
  80   2.0000      -0.885916       -24.1070
  81   2.0000      -0.880977       -23.9726
  82   2.0000      -0.865189       -23.5430
  83   2.0000      -0.857723       -23.3398
  84   2.0000      -0.845072       -22.9956
  85   2.0000      -0.843386       -22.9497
  86   2.0000      -0.813133       -22.1265
  87   2.0000      -0.803294       -21.8587
  88   2.0000      -0.787006       -21.4155
  89   2.0000      -0.773882       -21.0584
  90   2.0000      -0.770873       -20.9765
  91   2.0000      -0.765616       -20.8335
  92   2.0000      -0.764765       -20.8103
  93   2.0000      -0.754081       -20.5196
  94   2.0000      -0.742042       -20.1920
  95   2.0000      -0.735187       -20.0055
  96   2.0000      -0.711344       -19.3567
  97   2.0000      -0.703071       -19.1315
  98   2.0000      -0.700193       -19.0532
  99   2.0000      -0.698608       -19.0101
 100   2.0000      -0.690766       -18.7967
 101   2.0000      -0.688562       -18.7367
 102   2.0000      -0.674209       -18.3462
 103   2.0000      -0.655768       -17.8444
 104   2.0000      -0.648217       -17.6389
 105   2.0000      -0.640808       -17.4373
 106   2.0000      -0.638303       -17.3691
 107   2.0000      -0.636832       -17.3291
 108   2.0000      -0.626761       -17.0550
 109   2.0000      -0.621389       -16.9089
 110   2.0000      -0.612142       -16.6572
 111   2.0000      -0.598780       -16.2936
 112   2.0000      -0.597972       -16.2716
 113   2.0000      -0.587125       -15.9765
 114   2.0000      -0.580008       -15.7828
 115   2.0000      -0.578926       -15.7534
 116   2.0000      -0.574367       -15.6293
 117   2.0000      -0.565392       -15.3851
 118   2.0000      -0.563567       -15.3354
 119   2.0000      -0.557928       -15.1820
 120   2.0000      -0.556655       -15.1473
 121   2.0000      -0.549058       -14.9406
 122   2.0000      -0.547583       -14.9005
 123   2.0000      -0.539922       -14.6920
 124   2.0000      -0.538208       -14.6454
 125   2.0000      -0.529432       -14.4066
 126   2.0000      -0.525034       -14.2869
 127   2.0000      -0.524311       -14.2672
 128   2.0000      -0.521874       -14.2009
 129   2.0000      -0.520653       -14.1677
 130   2.0000      -0.518325       -14.1043
 131   2.0000      -0.517360       -14.0781
 132   2.0000      -0.514598       -14.0029
 133   2.0000      -0.513875       -13.9833
 134   2.0000      -0.510376       -13.8880
 135   2.0000      -0.507859       -13.8195
 136   2.0000      -0.506130       -13.7725
 137   2.0000      -0.500333       -13.6148
 138   2.0000      -0.499117       -13.5817
 139   2.0000      -0.497604       -13.5405
 140   2.0000      -0.495762       -13.4904
 141   2.0000      -0.488753       -13.2997
 142   2.0000      -0.485119       -13.2008
 143   2.0000      -0.474915       -12.9231
 144   2.0000      -0.468164       -12.7394
 145   2.0000      -0.466925       -12.7057
 146   2.0000      -0.464283       -12.6338
 147   2.0000      -0.460141       -12.5211
 148   2.0000      -0.458580       -12.4786
 149   2.0000      -0.456248       -12.4151
 150   2.0000      -0.455745       -12.4015
 151   2.0000      -0.453479       -12.3398
 152   2.0000      -0.448622       -12.2076
 153   2.0000      -0.445402       -12.1200
 154   2.0000      -0.444043       -12.0830
 155   2.0000      -0.443554       -12.0697
 156   2.0000      -0.437252       -11.8982
 157   2.0000      -0.433712       -11.8019
 158   2.0000      -0.432024       -11.7560
 159   2.0000      -0.430367       -11.7109
 160   2.0000      -0.429077       -11.6758
 161   2.0000      -0.427624       -11.6362
 162   2.0000      -0.418969       -11.4007
 163   2.0000      -0.413910       -11.2631
 164   2.0000      -0.412812       -11.2332
 165   2.0000      -0.410571       -11.1722
 166   2.0000      -0.409194       -11.1347
 167   2.0000      -0.404959       -11.0195
 168   2.0000      -0.395036       -10.7495
 169   2.0000      -0.381850       -10.3907
 170   2.0000      -0.378867       -10.3095
 171   2.0000      -0.377525       -10.2730
 172   2.0000      -0.360318        -9.8048
 173   2.0000      -0.348692        -9.4884
 174   2.0000      -0.342878        -9.3302
 175   2.0000      -0.340816        -9.2741
 176   2.0000      -0.338876        -9.2213
 177   2.0000      -0.335210        -9.1215
 178   2.0000      -0.325674        -8.8620
 179   2.0000      -0.322677        -8.7805
 180   2.0000      -0.321117        -8.7380
 181   2.0000      -0.315165        -8.5761
 182   2.0000      -0.310967        -8.4619
 183   2.0000      -0.305121        -8.3028
 184   2.0000      -0.295459        -8.0399
 185   2.0000      -0.233249        -6.3470
 186   0.0000      -0.106950        -2.9102
 187   0.0000      -0.066044        -1.7971
 188   0.0000      -0.064241        -1.7481
 189   0.0000      -0.046697        -1.2707
 190   0.0000      -0.016289        -0.4432

MULLIKEN ATOMIC CHARGES
-----------------------
   0 C :    0.031054
   1 C :   -0.127603
   2 S :    0.196712
   3 C :   -0.169596
   4 Cl:    0.007436
   5 C :    0.074995
   6 C :    0.140596
   7 O :   -0.121274
   8 C :   -0.092207
   9 C :    0.293394
  10 C :   -0.320168
  11 C :   -0.194102
  12 N :    0.163426
  13 C :   -0.188627
  14 N :    0.165259
  15 C :   -0.020230
  16 C :   -0.027621
  17 C :    0.059430
  18 N :   -0.047869
  19 C :   -0.060842
  20 N :   -0.053824
  21 C :    0.114630
  22 C :    0.005670
  23 C :    0.055696
  24 N :   -0.042448
  25 C :   -0.073435
  26 N :   -0.043840
  27 C :    0.059470
  28 C :    0.061046
  29 C :   -0.017509
  30 C :    0.072074
  31 C :   -0.009133
  32 N :   -0.052775
  33 C :    0.008528
  34 C :    0.002667
  35 C :    0.007378
  36 C :    0.128446
  37 N :   -0.260927
  38 C :    0.101725
  39 C :    0.001397
  40 C :    0.159472
  41 O :   -0.209463
  42 C :   -0.061200
  43 C :   -0.071849
  44 C :    0.160818
  45 O :   -0.216959
  46 N :   -0.258194
  47 C :    0.100071
  48 C :    0.002322
  49 C :    0.101312
  50 C :   -0.031649
  51 C :    0.005545
  52 H :    0.057329
  53 H :    0.040850
  54 H :    0.013699
  55 H :    0.009059
  56 H :    0.020037
  57 H :    0.021388
  58 H :    0.018542
  59 H :   -0.004435
  60 H :    0.013126
  61 H :    0.011718
  62 H :   -0.032140
  63 H :    0.022037
  64 H :    0.041573
  65 H :    0.016415
  66 H :    0.022734
  67 H :    0.029066
  68 H :    0.041626
  69 H :    0.021619
  70 H :    0.029048
  71 H :    0.021129
  72 H :    0.016062
  73 H :   -0.021413
  74 H :    0.056200
  75 H :    0.027509
Sum of atomic charges:   -0.0000000

LOEWDIN ATOMIC CHARGES
----------------------
   0 C :   -0.060103
   1 C :   -0.146891
   2 S :    0.485125
   3 C :   -0.269995
   4 Cl:    0.197875
   5 C :   -0.118878
   6 C :    0.081162
   7 O :   -0.121466
   8 C :   -0.076670
   9 C :    0.073107
  10 C :   -0.128343
  11 C :   -0.015472
  12 N :   -0.043403
  13 C :   -0.023294
  14 N :   -0.038433
  15 C :    0.074894
  16 C :   -0.087209
  17 C :    0.067798
  18 N :   -0.079899
  19 C :    0.048371
  20 N :   -0.075331
  21 C :    0.089061
  22 C :   -0.096396
  23 C :    0.077729
  24 N :   -0.079478
  25 C :    0.048537
  26 N :   -0.078736
  27 C :    0.079422
  28 C :   -0.068967
  29 C :    0.047895
  30 C :   -0.057616
  31 C :    0.039506
  32 N :   -0.069089
  33 C :    0.049431
  34 C :    0.038279
  35 C :   -0.052377
  36 C :    0.080208
  37 N :   -0.002369
  38 C :    0.035400
  39 C :   -0.061851
  40 C :    0.081053
  41 O :   -0.202825
  42 C :   -0.125039
  43 C :   -0.128539
  44 C :    0.078746
  45 O :   -0.208403
  46 N :   -0.000151
  47 C :    0.035681
  48 C :   -0.061831
  49 C :    0.075721
  50 C :   -0.054366
  51 C :    0.018712
  52 H :    0.039080
  53 H :    0.049543
  54 H :    0.030253
  55 H :    0.028339
  56 H :    0.030117
  57 H :    0.031009
  58 H :    0.040653
  59 H :    0.018335
  60 H :    0.025073
  61 H :    0.037904
  62 H :    0.025335
  63 H :    0.022021
  64 H :    0.037011
  65 H :    0.022031
  66 H :    0.030014
  67 H :    0.032069
  68 H :    0.036643
  69 H :    0.022017
  70 H :    0.031934
  71 H :    0.029396
  72 H :    0.022164
  73 H :    0.028390
  74 H :    0.032243
  75 H :    0.028135

  Mayer bond orders larger than 0.100000
B(  0-C ,  1-C ) :   1.5372 B(  0-C ,  5-C ) :   1.2204 B(  0-C ,  9-C ) :   1.0079
B(  1-C ,  2-S ) :   1.1671 B(  1-C , 52-H ) :   0.9545 B(  2-S ,  3-C ) :   1.1564
B(  3-C ,  4-Cl) :   1.1357 B(  3-C ,  5-C ) :   1.4700 B(  5-C ,  6-C ) :   0.9515
B(  6-C ,  7-O ) :   2.2484 B(  6-C ,  8-C ) :   0.9170 B(  8-C ,  9-C ) :   1.0407
B(  8-C , 15-C ) :   1.7448 B(  9-C , 10-C ) :   1.6733 B( 10-C , 11-C ) :   1.1423
B( 10-C , 13-C ) :   1.1377 B( 11-C , 12-N ) :   2.9925 B( 13-C , 14-N ) :   2.9724
B( 15-C , 16-C ) :   1.0238 B( 15-C , 53-H ) :   0.9401 B( 16-C , 17-C ) :   1.3225
B( 16-C , 21-C ) :   1.3071 B( 17-C , 18-N ) :   1.5645 B( 17-C , 54-H ) :   0.9915
B( 18-N , 19-C ) :   1.5727 B( 19-C , 20-N ) :   1.5642 B( 19-C , 22-C ) :   0.9725
B( 20-N , 21-C ) :   1.5839 B( 21-C , 55-H ) :   0.9842 B( 22-C , 23-C ) :   1.3338
B( 22-C , 27-C ) :   1.3332 B( 23-C , 24-N ) :   1.5539 B( 23-C , 56-H ) :   0.9789
B( 24-N , 25-C ) :   1.5714 B( 25-C , 26-N ) :   1.5729 B( 25-C , 28-C ) :   0.9471
B( 26-N , 27-C ) :   1.5545 B( 27-C , 57-H ) :   0.9788 B( 28-C , 29-C ) :   1.3728
B( 28-C , 33-C ) :   1.3526 B( 29-C , 30-C ) :   1.3252 B( 29-C , 58-H ) :   0.9989
B( 30-C , 31-C ) :   1.3114 B( 30-C , 34-C ) :   1.0581 B( 31-C , 32-N ) :   1.5787
B( 31-C , 59-H ) :   0.9837 B( 32-N , 33-C ) :   1.5355 B( 33-C , 60-H ) :   0.9761
B( 34-C , 35-C ) :   1.6231 B( 34-C , 61-H ) :   0.9689 B( 35-C , 36-C ) :   1.1382
B( 35-C , 62-H ) :   0.9583 B( 36-C , 37-N ) :   1.1580 B( 36-C , 43-C ) :   1.3679
B( 37-N , 38-C ) :   0.9497 B( 37-N , 40-C ) :   1.0521 B( 38-C , 39-C ) :   1.1191
B( 38-C , 63-H ) :   0.9496 B( 38-C , 64-H ) :   0.9269 B( 39-C , 65-H ) :   0.9685
B( 39-C , 66-H ) :   0.9681 B( 39-C , 67-H ) :   0.9641 B( 40-C , 41-O ) :   2.0482
B( 40-C , 42-C ) :   0.9845 B( 42-C , 43-C ) :   1.2265 B( 42-C , 49-C ) :   1.3865
B( 43-C , 44-C ) :   0.9955 B( 44-C , 45-O ) :   2.0184 B( 44-C , 46-N ) :   1.0588
B( 45-O , 61-H ) :   0.1133 B( 46-N , 47-C ) :   0.9501 B( 46-N , 49-C ) :   1.1627
B( 47-C , 48-C ) :   1.1181 B( 47-C , 68-H ) :   0.9282 B( 47-C , 69-H ) :   0.9507
B( 48-C , 70-H ) :   0.9643 B( 48-C , 71-H ) :   0.9680 B( 48-C , 72-H ) :   0.9688
B( 49-C , 50-C ) :   1.1239 B( 50-C , 51-C ) :   1.8887 B( 50-C , 73-H ) :   0.9535
B( 51-C , 74-H ) :   0.9280 B( 51-C , 75-H ) :   0.9454

-----------------------------------------------------------------------------
         ABSORPTION SPECTRUM VIA TRANSITION ELECTRIC DIPOLE MOMENTS
-----------------------------------------------------------------------------
State   Energy  Wavelength   fosc         T2         TX        TY        TZ
        (cm-1)    (nm)                  (au**2)     (au)      (au)      (au)
-----------------------------------------------------------------------------
   0   20048.1    498.8   0.041013025   0.67348   0.50508   0.64257   0.07404
   1   20543.9    486.8   0.441414043   7.07356   2.44350   1.03143   0.19756
   2   24959.7    400.6   0.660398795   8.71049  -1.43883   2.57132   0.16899
   3   27509.9    363.5   0.005138451   0.06149  -0.21450   0.12429  -0.00566
   4   27662.8    361.5   0.041844665   0.49799  -0.40199   0.57993   0.00854
   5   28692.8    348.5   0.003490702   0.04005  -0.05137  -0.19300  -0.01286
   6   29361.3    340.6   0.214605092   2.40625  -1.00232   1.17139  -0.17157
   7   29794.2    335.6   0.229587922   2.53684   0.55575  -1.43676  -0.40459
   8   30136.3    331.8   0.007586481   0.08288  -0.01605  -0.27666  -0.07796
   9   30687.1    325.9   0.000455690   0.00489   0.00619   0.05695   0.04009
  10   31446.7    318.0   0.003872218   0.04054   0.17610  -0.01962   0.09561
  11   32153.7    311.0   0.030141146   0.30861   0.19920   0.51595   0.05218
  12   32864.0    304.3   0.020514135   0.20550   0.30687  -0.32891  -0.05613
  13   33132.9    301.8   0.085676478   0.85129  -0.11986  -0.64655  -0.64722
  14   33649.4    297.2   0.001560874   0.01527   0.10178   0.02595   0.06511
  15   34476.6    290.1   0.584299919   5.57939  -2.30388   0.39057  -0.34496
  16   34892.7    286.6   0.139131335   1.31270   0.47134  -0.93436  -0.46638
  17   35606.5    280.8   0.002093279   0.01935  -0.13876   0.00799   0.00589
  18   36291.0    275.6   0.002222726   0.02016  -0.13191   0.00737  -0.05205
  19   36432.6    274.5   0.011786358   0.10650  -0.25493   0.02884  -0.20170
  20   36566.8    273.5   0.077258729   0.69556   0.12826  -0.63168  -0.52924
  21   36729.7    272.3   0.112500222   1.00835   0.67969   0.43121   0.60035
  22   37355.1    267.7   0.045481603   0.40083  -0.13442   0.58250   0.20846
  23   37707.5    265.2   0.361312723   3.15450  -1.58370   0.11758  -0.79534
  24   38319.5    261.0   0.473977056   4.07205  -1.55966   0.21288  -1.26261
  25   38663.1    258.6   0.479886409   4.08617  -0.48729   1.85887   0.62715
  26   39076.2    255.9   0.315010685   2.65392  -0.95285   1.28847  -0.29300
  27   39344.5    254.2   0.005138955   0.04300  -0.11230   0.17319   0.01985
  28   39428.7    253.6   0.025058164   0.20922  -0.21352   0.33628  -0.22483
  29   39597.9    252.5   0.026071193   0.21675  -0.24511   0.38459   0.09364

FINAL SINGLE POINT ENERGY     -3036.293878613863

DIPOLE MOMENT
-------------
                                X             Y             Z
Electronic contribution:    -84.84791      78.79745      11.66321
Nuclear contribution   :     85.26047     -76.77646     -10.65006
                        -----------------------------------------
Total Dipole Moment    :      0.41255       2.02100       1.01314
                        -----------------------------------------
Magnitude (a.u.)       :      2.29806
Magnitude (Debye)      :      5.84120

Rotational constants in cm-1:     0.002939     0.000419     0.000375
Rotational constants in MHz :    88.102966    12.554570    11.227379

                             ****ORCA TERMINATED NORMALLY****
TOTAL RUN TIME: 0 days 0 hours 6 minutes 30 seconds 274 msec
