                         Program Version 4.2.0 -  RELEASE  -
|  1> # ORCA input file
|  2> # SCF done       -139.725741726249          0.000794278359
|  3> ! CAM-B3LYP def2-SVP def2/J RIJCOSX Grid4 TightSCF
|  4> %maxcore 5000
|  5> %tddft
|  6>     Mode sTDDFT
|  7>     Ethresh 5.0
|  8>     maxcore 5000
|  9> end
| 10>
| 11> %pal
| 12>   nprocs 6
| 13>   end
| 14> * xyz 0 1
| 15>    C        7.10443        -7.29767         3.21362
| 16>    C        7.86910        -8.12914         3.97268
| 17>    S        9.04360        -8.95010         3.00969
| 18>    C        8.50494        -8.15932         1.54891
| 19>   Cl        9.20885        -8.48637         0.04044
| 20>    C        7.47024        -7.31218         1.82946
| 21>    C        6.62083        -6.39733         1.07898
| 22>    O        6.72094        -6.11539        -0.09967
| 23>    C        5.65394        -5.84629         2.07670
| 24>    C        5.99438        -6.38536         3.39648
| 25>    C        5.40000        -6.12739         4.60037
| 26>    C        5.85501        -6.74606         5.78639
| 27>    N        6.21046        -7.23763         6.75969
| 28>    C        4.31655        -5.25629         4.83593
| 29>    N        3.43959        -4.56633         5.10569
| 30>    C        4.66859        -4.94208         1.84692
| 31>    C        4.25076        -4.37196         0.58991
| 32>    C        4.25471        -5.05867        -0.62182
| 33>    C        3.91589        -4.39155        -1.80032
| 34>    C        3.44477        -3.07702        -1.67646
| 35>    N        3.39134        -2.43595        -0.52770
| 36>    C        3.80244        -3.03820         0.56624
| 37>    C        4.06971        -5.03816        -3.07619
| 38>    S        3.13702        -4.61081        -4.48311
| 39>    C        3.96702        -5.73182        -5.52357
| 40>    C        4.94020        -6.41068        -4.80404
| 41>    C        4.98095        -6.01313        -3.42602
| 42>    N        5.96578        -6.70930        -2.80242
| 43>    C        6.55073        -7.54014        -3.73573
| 44>    C        7.61064        -8.38695        -3.38422
| 45>    N        8.47951        -9.07698        -3.08979
| 46>    C        5.94320        -7.40080        -4.96494
| 47>    C        3.60923        -5.83511        -6.91172
| 48>    C        4.50035        -6.32946        -7.86540
| 49>    C        4.09949        -6.43520        -9.19335
| 50>    C        2.82023        -5.96327        -9.52275
| 51>    N        1.98086        -5.48329        -8.63182
| 52>    C        2.34258        -5.44113        -7.36841
| 53>    C        4.99179        -6.92430       -10.22115
| 54>    C        4.67257        -7.71483       -11.26620
| 55>    C        5.60253        -7.80884       -12.44022
| 56>    O        6.74839        -7.43445       -12.47644
| 57>    C        4.78018        -8.39354       -13.50467
| 58>    C        4.91547        -8.67846       -14.83116
| 59>    S        3.44616        -9.38824       -15.45768
| 60>    C        2.67051        -9.30208       -13.91908
| 61>    C        3.49196        -8.75271       -12.98454
| 62>    C        3.45421        -8.45844       -11.56572
| 63>    C        2.54521        -8.97001       -10.68239
| 64>    C        1.43625        -9.72138       -11.12690
| 65>    N        0.52808       -10.32533       -11.48153
| 66>    C        2.65642        -8.89277        -9.27939
| 67>    N        2.73021        -8.91864        -8.13456
| 68>   Cl        6.26436        -8.42259       -15.82233
| 69>    H        7.82797        -8.31954         5.02680
| 70>    H        4.14699        -4.54224         2.70794
| 71>    H        4.46066        -6.11569        -0.64667
| 72>    H        3.09494        -2.53403        -2.54464
| 73>    H        3.78777        -2.44375         1.46939
| 74>    H        6.31525        -6.55118        -1.86652
| 75>    H        6.18707        -7.95908        -5.84589
| 76>    H        5.49020        -6.64436        -7.57620
| 77>    H        2.48510        -5.94451       -10.55181
| 78>    H        1.59636        -5.07731        -6.67453
| 79>    H        6.01101        -6.55120       -10.20061
| 80>    H        1.66303        -9.65338       -13.81516
| 81> *
| 82>
| 83>                          ****END OF INPUT****

CARTESIAN COORDINATES (ANGSTROEM)
---------------------------------
  C      7.104430   -7.297670    3.213620
  C      7.869100   -8.129140    3.972680
  S      9.043600   -8.950100    3.009690
  C      8.504940   -8.159320    1.548910
  Cl     9.208850   -8.486370    0.040440
  C      7.470240   -7.312180    1.829460
  C      6.620830   -6.397330    1.078980
  O      6.720940   -6.115390   -0.099670
  C      5.653940   -5.846290    2.076700
  C      5.994380   -6.385360    3.396480
  C      5.400000   -6.127390    4.600370
  C      5.855010   -6.746060    5.786390
  N      6.210460   -7.237630    6.759690
  C      4.316550   -5.256290    4.835930
  N      3.439590   -4.566330    5.105690
  C      4.668590   -4.942080    1.846920
  C      4.250760   -4.371960    0.589910
  C      4.254710   -5.058670   -0.621820
  C      3.915890   -4.391550   -1.800320
  C      3.444770   -3.077020   -1.676460
  N      3.391340   -2.435950   -0.527700
  C      3.802440   -3.038200    0.566240
  C      4.069710   -5.038160   -3.076190
  S      3.137020   -4.610810   -4.483110
  C      3.967020   -5.731820   -5.523570
  C      4.940200   -6.410680   -4.804040
  C      4.980950   -6.013130   -3.426020
  N      5.965780   -6.709300   -2.802420
  C      6.550730   -7.540140   -3.735730
  C      7.610640   -8.386950   -3.384220
  N      8.479510   -9.076980   -3.089790
  C      5.943200   -7.400800   -4.964940
  C      3.609230   -5.835110   -6.911720
  C      4.500350   -6.329460   -7.865400
  C      4.099490   -6.435200   -9.193350
  C      2.820230   -5.963270   -9.522750
  N      1.980860   -5.483290   -8.631820
  C      2.342580   -5.441130   -7.368410
  C      4.991790   -6.924300  -10.221150
  C      4.672570   -7.714830  -11.266200
  C      5.602530   -7.808840  -12.440220
  O      6.748390   -7.434450  -12.476440
  C      4.780180   -8.393540  -13.504670
  C      4.915470   -8.678460  -14.831160
  S      3.446160   -9.388240  -15.457680
  C      2.670510   -9.302080  -13.919080
  C      3.491960   -8.752710  -12.984540
  C      3.454210   -8.458440  -11.565720
  C      2.545210   -8.970010  -10.682390
  C      1.436250   -9.721380  -11.126900
  N      0.528080  -10.325330  -11.481530
  C      2.656420   -8.892770   -9.279390
  N      2.730210   -8.918640   -8.134560
  Cl     6.264360   -8.422590  -15.822330
  H      7.827970   -8.319540    5.026800
  H      4.146990   -4.542240    2.707940
  H      4.460660   -6.115690   -0.646670
  H      3.094940   -2.534030   -2.544640
  H      3.787770   -2.443750    1.469390
  H      6.315250   -6.551180   -1.866520
  H      6.187070   -7.959080   -5.845890
  H      5.490200   -6.644360   -7.576200
  H      2.485100   -5.944510  -10.551810
  H      1.596360   -5.077310   -6.674530
  H      6.011010   -6.551200  -10.200610
  H      1.663030   -9.653380  -13.815160

 Total Charge           Charge          ....    0
 Multiplicity           Mult            ....    1
 Number of Electrons    NEL             ....  400
 Basis Dimension        Dim             ....  836

ORBITAL ENERGIES
----------------

  NO   OCC          E(Eh)            E(eV)
   0   2.0000    -101.626831     -2765.4067
   1   2.0000    -101.622090     -2765.2777
   2   2.0000     -89.006033     -2421.9773
   3   2.0000     -88.998955     -2421.7847
   4   2.0000     -88.973449     -2421.0906
   5   2.0000     -19.246956      -523.7363
   6   2.0000     -19.226307      -523.1744
   7   2.0000     -14.466506      -393.6536
   8   2.0000     -14.433530      -392.7563
   9   2.0000     -14.431014      -392.6879
  10   2.0000     -14.425595      -392.5404
  11   2.0000     -14.423095      -392.4724
  12   2.0000     -14.419373      -392.3711
  13   2.0000     -14.417350      -392.3160
  14   2.0000     -14.414228      -392.2311
  15   2.0000     -10.403859      -283.1034
  16   2.0000     -10.389914      -282.7239
  17   2.0000     -10.382553      -282.5236
  18   2.0000     -10.381675      -282.4997
  19   2.0000     -10.362614      -281.9811
  20   2.0000     -10.361788      -281.9586
  21   2.0000     -10.355687      -281.7926
  22   2.0000     -10.355073      -281.7759
  23   2.0000     -10.348680      -281.6019
  24   2.0000     -10.341378      -281.4032
  25   2.0000     -10.339203      -281.3440
  26   2.0000     -10.335025      -281.2303
  27   2.0000     -10.334586      -281.2184
  28   2.0000     -10.332648      -281.1657
  29   2.0000     -10.327241      -281.0185
  30   2.0000     -10.327032      -281.0128
  31   2.0000     -10.325809      -280.9795
  32   2.0000     -10.325514      -280.9715
  33   2.0000     -10.324930      -280.9556
  34   2.0000     -10.324023      -280.9309
  35   2.0000     -10.323819      -280.9254
  36   2.0000     -10.323174      -280.9079
  37   2.0000     -10.318990      -280.7940
  38   2.0000     -10.318981      -280.7938
  39   2.0000     -10.318175      -280.7718
  40   2.0000     -10.317760      -280.7605
  41   2.0000     -10.316983      -280.7394
  42   2.0000     -10.313204      -280.6365
  43   2.0000     -10.313199      -280.6364
  44   2.0000     -10.311619      -280.5934
  45   2.0000     -10.310183      -280.5543
  46   2.0000     -10.309816      -280.5443
  47   2.0000     -10.308970      -280.5213
  48   2.0000     -10.306631      -280.4577
  49   2.0000     -10.306126      -280.4439
  50   2.0000     -10.305641      -280.4307
  51   2.0000     -10.304803      -280.4079
  52   2.0000     -10.291385      -280.0428
  53   2.0000     -10.290960      -280.0313
  54   2.0000      -9.581139      -260.7160
  55   2.0000      -9.576846      -260.5992
  56   2.0000      -8.101662      -220.4574
  57   2.0000      -8.094679      -220.2674
  58   2.0000      -8.067893      -219.5385
  59   2.0000      -7.351835      -200.0536
  60   2.0000      -7.347497      -199.9356
  61   2.0000      -7.341165      -199.7633
  62   2.0000      -7.340593      -199.7477
  63   2.0000      -7.336883      -199.6467
  64   2.0000      -7.336325      -199.6316
  65   2.0000      -6.071044      -165.2015
  66   2.0000      -6.066341      -165.0735
  67   2.0000      -6.064043      -165.0110
  68   2.0000      -6.063998      -165.0098
  69   2.0000      -6.059428      -164.8854
  70   2.0000      -6.056958      -164.8182
  71   2.0000      -6.037229      -164.2814
  72   2.0000      -6.032993      -164.1661
  73   2.0000      -6.030239      -164.0911
  74   2.0000      -1.162864       -31.6432
  75   2.0000      -1.143379       -31.1129
  76   2.0000      -1.097105       -29.8538
  77   2.0000      -1.055813       -28.7301
  78   2.0000      -1.052699       -28.6454
  79   2.0000      -1.050857       -28.5953
  80   2.0000      -1.043529       -28.3959
  81   2.0000      -1.029512       -28.0144
  82   2.0000      -1.021699       -27.8019
  83   2.0000      -1.010563       -27.4988
  84   2.0000      -1.002657       -27.2837
  85   2.0000      -1.001451       -27.2509
  86   2.0000      -1.000078       -27.2135
  87   2.0000      -0.993716       -27.0404
  88   2.0000      -0.986905       -26.8550
  89   2.0000      -0.967301       -26.3216
  90   2.0000      -0.961350       -26.1597
  91   2.0000      -0.940216       -25.5846
  92   2.0000      -0.933152       -25.3924
  93   2.0000      -0.924668       -25.1615
  94   2.0000      -0.917169       -24.9574
  95   2.0000      -0.910210       -24.7681
  96   2.0000      -0.895320       -24.3629
  97   2.0000      -0.884836       -24.0776
  98   2.0000      -0.863607       -23.4999
  99   2.0000      -0.858707       -23.3666
 100   2.0000      -0.846714       -23.0403
 101   2.0000      -0.845557       -23.0088
 102   2.0000      -0.838009       -22.8034
 103   2.0000      -0.807182       -21.9645
 104   2.0000      -0.798910       -21.7394
 105   2.0000      -0.792581       -21.5672
 106   2.0000      -0.771173       -20.9847
 107   2.0000      -0.761844       -20.7308
 108   2.0000      -0.754531       -20.5318
 109   2.0000      -0.747083       -20.3292
 110   2.0000      -0.738111       -20.0850
 111   2.0000      -0.730255       -19.8712
 112   2.0000      -0.719696       -19.5839
 113   2.0000      -0.703852       -19.1528
 114   2.0000      -0.699927       -19.0460
 115   2.0000      -0.695262       -18.9191
 116   2.0000      -0.689717       -18.7682
 117   2.0000      -0.681511       -18.5449
 118   2.0000      -0.669870       -18.2281
 119   2.0000      -0.665290       -18.1035
 120   2.0000      -0.649968       -17.6865
 121   2.0000      -0.636258       -17.3135
 122   2.0000      -0.628063       -17.0905
 123   2.0000      -0.625244       -17.0138
 124   2.0000      -0.622586       -16.9414
 125   2.0000      -0.619872       -16.8676
 126   2.0000      -0.609860       -16.5951
 127   2.0000      -0.607831       -16.5399
 128   2.0000      -0.603785       -16.4298
 129   2.0000      -0.596590       -16.2340
 130   2.0000      -0.580312       -15.7911
 131   2.0000      -0.576105       -15.6766
 132   2.0000      -0.571750       -15.5581
 133   2.0000      -0.566928       -15.4269
 134   2.0000      -0.564402       -15.3582
 135   2.0000      -0.553930       -15.0732
 136   2.0000      -0.551013       -14.9938
 137   2.0000      -0.548779       -14.9330
 138   2.0000      -0.546270       -14.8648
 139   2.0000      -0.539395       -14.6777
 140   2.0000      -0.537699       -14.6315
 141   2.0000      -0.535654       -14.5759
 142   2.0000      -0.533753       -14.5242
 143   2.0000      -0.529907       -14.4195
 144   2.0000      -0.525558       -14.3012
 145   2.0000      -0.520180       -14.1548
 146   2.0000      -0.518610       -14.1121
 147   2.0000      -0.514005       -13.9868
 148   2.0000      -0.510322       -13.8866
 149   2.0000      -0.508061       -13.8250
 150   2.0000      -0.507822       -13.8186
 151   2.0000      -0.505466       -13.7544
 152   2.0000      -0.500263       -13.6128
 153   2.0000      -0.496800       -13.5186
 154   2.0000      -0.494290       -13.4503
 155   2.0000      -0.493492       -13.4286
 156   2.0000      -0.489781       -13.3276
 157   2.0000      -0.481069       -13.0906
 158   2.0000      -0.471476       -12.8295
 159   2.0000      -0.470038       -12.7904
 160   2.0000      -0.467083       -12.7100
 161   2.0000      -0.464228       -12.6323
 162   2.0000      -0.461654       -12.5623
 163   2.0000      -0.460293       -12.5252
 164   2.0000      -0.458115       -12.4660
 165   2.0000      -0.457898       -12.4600
 166   2.0000      -0.457345       -12.4450
 167   2.0000      -0.451408       -12.2834
 168   2.0000      -0.449016       -12.2183
 169   2.0000      -0.448058       -12.1923
 170   2.0000      -0.444864       -12.1054
 171   2.0000      -0.443457       -12.0671
 172   2.0000      -0.440117       -11.9762
 173   2.0000      -0.434976       -11.8363
 174   2.0000      -0.430823       -11.7233
 175   2.0000      -0.430096       -11.7035
 176   2.0000      -0.428720       -11.6661
 177   2.0000      -0.427221       -11.6253
 178   2.0000      -0.425280       -11.5725
 179   2.0000      -0.423748       -11.5308
 180   2.0000      -0.414778       -11.2867
 181   2.0000      -0.410137       -11.1604
 182   2.0000      -0.408096       -11.1049
 183   2.0000      -0.404200       -10.9989
 184   2.0000      -0.396959       -10.8018
 185   2.0000      -0.382154       -10.3989
 186   2.0000      -0.371519       -10.1095
 187   2.0000      -0.357596        -9.7307
 188   2.0000      -0.352644        -9.5959
 189   2.0000      -0.350225        -9.5301
 190   2.0000      -0.348358        -9.4793
 191   2.0000      -0.343656        -9.3514
 192   2.0000      -0.340867        -9.2755
 193   2.0000      -0.337964        -9.1965
 194   2.0000      -0.333196        -9.0667
 195   2.0000      -0.328352        -8.9349
 196   2.0000      -0.315493        -8.5850
 197   2.0000      -0.311076        -8.4648
 198   2.0000      -0.307960        -8.3800
 199   2.0000      -0.255667        -6.9571
 200   0.0000      -0.106617        -2.9012
 201   0.0000      -0.096424        -2.6238
 202   0.0000      -0.072088        -1.9616
 203   0.0000      -0.059546        -1.6203
 204   0.0000      -0.053961        -1.4684

MULLIKEN ATOMIC CHARGES
-----------------------
   0 C :    0.036994
   1 C :   -0.128864
   2 S :    0.201499
   3 C :   -0.160919
   4 Cl:    0.032353
   5 C :    0.067285
   6 C :    0.177878
   7 O :   -0.184196
   8 C :   -0.078867
   9 C :    0.287533
  10 C :   -0.326821
  11 C :   -0.194262
  12 N :    0.167372
  13 C :   -0.182665
  14 N :    0.164526
  15 C :   -0.010018
  16 C :    0.016974
  17 C :    0.037535
  18 C :    0.019340
  19 C :   -0.003179
  20 N :   -0.045933
  21 C :    0.003310
  22 C :   -0.169652
  23 S :    0.153591
  24 C :   -0.152619
  25 C :    0.126668
  26 C :    0.111915
  27 N :   -0.041927
  28 C :   -0.095489
  29 C :   -0.129606
  30 N :    0.143021
  31 C :   -0.044434
  32 C :    0.098081
  33 C :    0.008971
  34 C :   -0.016388
  35 C :    0.016267
  36 N :   -0.037770
  37 C :   -0.021396
  38 C :    0.040017
  39 C :   -0.127054
  40 C :    0.134232
  41 O :   -0.121927
  42 C :    0.088692
  43 C :   -0.173803
  44 S :    0.191520
  45 C :   -0.125119
  46 C :    0.018657
  47 C :    0.258713
  48 C :   -0.310395
  49 C :   -0.190102
  50 N :    0.160668
  51 C :   -0.181608
  52 N :    0.175671
  53 Cl:    0.003894
  54 H :    0.059271
  55 H :    0.030020
  56 H :   -0.009390
  57 H :    0.010011
  58 H :    0.011639
  59 H :    0.127449
  60 H :   -0.009225
  61 H :   -0.017523
  62 H :    0.009008
  63 H :    0.010545
  64 H :    0.035388
  65 H :    0.054642
Sum of atomic charges:   -0.0000000

LOEWDIN ATOMIC CHARGES
----------------------
   0 C :   -0.058459
   1 C :   -0.146197
   2 S :    0.490754
   3 C :   -0.265507
   4 Cl:    0.218667
   5 C :   -0.123923
   6 C :    0.104836
   7 O :   -0.149786
   8 C :   -0.083364
   9 C :    0.074471
  10 C :   -0.127986
  11 C :   -0.014865
  12 N :   -0.043047
  13 C :   -0.024936
  14 N :   -0.036047
  15 C :    0.090076
  16 C :   -0.063175
  17 C :    0.036420
  18 C :   -0.053883
  19 C :    0.035983
  20 N :   -0.058757
  21 C :    0.037151
  22 C :   -0.219084
  23 S :    0.471486
  24 C :   -0.171920
  25 C :   -0.061313
  26 C :    0.001753
  27 N :    0.068181
  28 C :   -0.022733
  29 C :   -0.035827
  30 N :   -0.053708
  31 C :   -0.040704
  32 C :   -0.044913
  33 C :    0.032391
  34 C :   -0.060174
  35 C :    0.027240
  36 N :   -0.052425
  37 C :    0.030393
  38 C :    0.080096
  39 C :   -0.077350
  40 C :    0.081552
  41 O :   -0.127413
  42 C :   -0.119443
  43 C :   -0.271518
  44 S :    0.480344
  45 C :   -0.149977
  46 C :   -0.058076
  47 C :    0.066293
  48 C :   -0.124899
  49 C :   -0.015496
  50 N :   -0.044418
  51 C :   -0.019202
  52 N :   -0.039013
  53 Cl:    0.195030
  54 H :    0.039471
  55 H :    0.049669
  56 H :    0.029435
  57 H :    0.021240
  58 H :    0.026682
  59 H :    0.072564
  60 H :    0.033877
  61 H :    0.033447
  62 H :    0.022143
  63 H :    0.019086
  64 H :    0.050233
  65 H :    0.038575

  Mayer bond orders larger than 0.100000
B(  0-C ,  1-C ) :   1.5451 B(  0-C ,  5-C ) :   1.2171 B(  0-C ,  9-C ) :   1.0024
B(  1-C ,  2-S ) :   1.1624 B(  1-C , 54-H ) :   0.9531 B(  2-S ,  3-C ) :   1.1635
B(  3-C ,  4-Cl) :   1.1473 B(  3-C ,  5-C ) :   1.4500 B(  5-C ,  6-C ) :   0.9865
B(  6-C ,  7-O ) :   2.0685 B(  6-C ,  8-C ) :   0.9471 B(  7-O , 59-H ) :   0.1058
B(  8-C ,  9-C ) :   1.0490 B(  8-C , 15-C ) :   1.6854 B(  9-C , 10-C ) :   1.6729
B( 10-C , 11-C ) :   1.1469 B( 10-C , 13-C ) :   1.1331 B( 11-C , 12-N ) :   2.9931
B( 13-C , 14-N ) :   2.9664 B( 15-C , 16-C ) :   1.0473 B( 15-C , 55-H ) :   0.9374
B( 16-C , 17-C ) :   1.3743 B( 16-C , 21-C ) :   1.2996 B( 17-C , 18-C ) :   1.4105
B( 17-C , 56-H ) :   0.9734 B( 18-C , 19-C ) :   1.3188 B( 18-C , 22-C ) :   1.0286
B( 19-C , 20-N ) :   1.5662 B( 19-C , 57-H ) :   0.9845 B( 20-N , 21-C ) :   1.5666
B( 21-C , 58-H ) :   0.9901 B( 22-C , 23-S ) :   1.1138 B( 22-C , 24-C ) :   0.1310
B( 22-C , 26-C ) :   1.4484 B( 23-S , 24-C ) :   1.1551 B( 24-C , 25-C ) :   1.3776
B( 24-C , 32-C ) :   1.0609 B( 25-C , 26-C ) :   1.2109 B( 25-C , 31-C ) :   1.1526
B( 26-C , 27-N ) :   1.1835 B( 27-N , 28-C ) :   1.2151 B( 27-N , 59-H ) :   0.8920
B( 28-C , 29-C ) :   1.0593 B( 28-C , 31-C ) :   1.5886 B( 29-C , 30-N ) :   3.0253
B( 31-C , 60-H ) :   1.0062 B( 32-C , 33-C ) :   1.3789 B( 32-C , 37-C ) :   1.3078
B( 33-C , 34-C ) :   1.3762 B( 33-C , 61-H ) :   0.9922 B( 34-C , 35-C ) :   1.3246
B( 34-C , 38-C ) :   0.9848 B( 35-C , 36-N ) :   1.5684 B( 35-C , 62-H ) :   0.9854
B( 36-N , 37-C ) :   1.5697 B( 37-C , 63-H ) :   0.9827 B( 38-C , 39-C ) :   1.7811
B( 38-C , 64-H ) :   0.9451 B( 39-C , 40-C ) :   0.9219 B( 39-C , 47-C ) :   1.0067
B( 40-C , 41-O ) :   2.2922 B( 40-C , 42-C ) :   0.9247 B( 42-C , 43-C ) :   1.4782
B( 42-C , 46-C ) :   1.2210 B( 43-C , 44-S ) :   1.1566 B( 43-C , 53-Cl) :   1.1329
B( 44-S , 45-C ) :   1.1628 B( 45-C , 46-C ) :   1.5485 B( 45-C , 65-H ) :   0.9558
B( 46-C , 47-C ) :   1.0150 B( 47-C , 48-C ) :   1.6949 B( 48-C , 49-C ) :   1.1343
B( 48-C , 51-C ) :   1.1499 B( 49-C , 50-N ) :   3.0005 B( 51-C , 52-N ) :   2.9976

-----------------------------------------------------------------------------
         ABSORPTION SPECTRUM VIA TRANSITION ELECTRIC DIPOLE MOMENTS
-----------------------------------------------------------------------------
State   Energy  Wavelength   fosc         T2         TX        TY        TZ
        (cm-1)    (nm)                  (au**2)     (au)      (au)      (au)
-----------------------------------------------------------------------------
   0   17123.4    584.0   0.014496193   0.27870   0.21751  -0.37671   0.29913
   1   19812.2    504.7   0.007097849   0.11794  -0.19135   0.27918  -0.05822
   2   24877.5    402.0   0.158408214   2.09626  -0.26375  -0.05660  -1.42250
   3   24954.2    400.7   1.217464765  16.06156   0.84001   0.40113   3.89808
   4   26966.4    370.8   0.083127558   1.01484  -0.08827   0.98581   0.18768
   5   28431.7    351.7   0.012609499   0.14601   0.05757   0.36922  -0.07979
   6   28527.1    350.5   0.074081847   0.85493  -0.36628  -0.75665   0.38503
   7   29411.1    340.0   0.027693577   0.30999   0.37565  -0.41019   0.02490
   8   29578.6    338.1   0.011037871   0.12285   0.04539  -0.18784  -0.29242
   9   29997.6    333.4   0.005022353   0.05512   0.01798  -0.21582   0.09065
  10   30265.3    330.4   0.008913191   0.09695  -0.31105   0.01384   0.00301
  11   30600.8    326.8   0.000511764   0.00551   0.01096  -0.04551  -0.05757
  12   31080.0    321.8   0.090228764   0.95574   0.07602   0.54120   0.81060
  13   31900.7    313.5   0.179558694   1.85303   0.13834  -0.39042   1.29671
  14   32613.1    306.6   0.006873982   0.06939  -0.05309   0.21465  -0.14317
  15   32863.6    304.3   0.011919009   0.11940  -0.21499   0.08472   0.25691
  16   33992.4    294.2   0.074050887   0.71717  -0.17502   0.14467   0.81585
  17   34463.7    290.2   0.122808464   1.17312   0.80876  -0.67662  -0.24743
  18   34923.9    286.3   0.015867159   0.14957  -0.03316   0.07900  -0.37714
  19   35032.8    285.4   0.035780127   0.33623  -0.39488  -0.17215   0.38817
  20   35432.6    282.2   0.090438443   0.84028   0.50366  -0.41852   0.64144
  21   35997.4    277.8   0.029366799   0.26857   0.20532  -0.11778  -0.46103
  22   36199.9    276.2   0.057990121   0.52738  -0.54298   0.31202   0.36769
  23   36242.4    275.9   0.028849291   0.26206  -0.39089   0.23570  -0.23175
  24   36402.6    274.7   0.356209040   3.22143  -1.24913   0.72424   1.06611
  25   37094.1    269.6   0.052966622   0.47008   0.27756  -0.57738  -0.24429
  26   37672.3    265.4   0.734661151   6.42009   0.80715   0.27479  -2.38602
  27   37951.9    263.5   0.214279197   1.85876   0.97442  -0.95212   0.05238
  28   38113.3    262.4   0.138904883   1.19982   0.49569  -0.68941   0.69197
  29   38276.1    261.3   0.779599336   6.70532  -1.91797   1.46400   0.93989
  30   38704.2    258.4   0.082528106   0.70197   0.36849  -0.57468  -0.48573
  31   39280.8    254.6   0.019930277   0.16704   0.23423  -0.30426  -0.13998
  32   39513.5    253.1   0.043153625   0.35954  -0.42750   0.41424   0.07201
  33   39963.8    250.2   0.012917810   0.10641   0.24191  -0.11374   0.18696
  34   40054.3    249.7   0.047849288   0.39328   0.11022  -0.45672  -0.41537
  35   40139.4    249.1   0.018813804   0.15431   0.15795  -0.31995  -0.16429

FINAL SINGLE POINT ENERGY     -4193.404015041901

DIPOLE MOMENT
-------------
                                X             Y             Z
Electronic contribution:     15.58083     -14.96619     -15.49374
Nuclear contribution   :    -14.39871      14.97372      14.19145
                        -----------------------------------------
Total Dipole Moment    :      1.18213       0.00754      -1.30229
                        -----------------------------------------
Magnitude (a.u.)       :      1.75882
Magnitude (Debye)      :      4.47056

Rotational constants in cm-1:     0.003372     0.000456     0.000423
Rotational constants in MHz :   101.084985    13.656769    12.687505

                             ****ORCA TERMINATED NORMALLY****
TOTAL RUN TIME: 0 days 0 hours 4 minutes 54 seconds 871 msec
