                         Program Version 4.2.0 -  RELEASE  -
|  1> # ORCA input file
|  2> # SCF done       -179.456671527966          0.000554522612
|  3> ! CAM-B3LYP def2-SVP def2/J RIJCOSX Grid4 TightSCF
|  4> %maxcore 5000
|  5> %tddft
|  6>     Mode sTDDFT
|  7>     Ethresh 5.0
|  8>     maxcore 5000
|  9> end
| 10>
| 11> %pal
| 12>   nprocs 6
| 13>   end
| 14> * xyz 0 1
| 15>    C        1.53607        -1.09292        -5.91377
| 16>    C        0.91267        -0.50578        -6.97120
| 17>    S        1.69746        -0.89997        -8.45677
| 18>    C        2.89398        -1.87891        -7.64189
| 19>   Cl        4.11914        -2.67432        -8.49744
| 20>    C        2.67007        -1.87925        -6.29685
| 21>    C        3.28250        -2.47668        -5.10992
| 22>    O        4.25443        -3.20026        -5.06672
| 23>    C        2.45837        -2.00191        -3.96590
| 24>    C        1.38171        -1.15713        -4.47349
| 25>    C        0.38695        -0.52892        -3.77537
| 26>    C       -0.58428         0.25413        -4.43727
| 27>    N       -1.38114         0.89401        -4.95806
| 28>    C        0.18452        -0.56365        -2.38010
| 29>    N       -0.05385        -0.54029        -1.25754
| 30>    C        2.67243        -2.29112        -2.65277
| 31>    C        3.66638        -3.09921        -2.05174
| 32>    S        4.94758        -4.03251        -2.80801
| 33>    C        5.37811        -4.51649        -1.18776
| 34>    N        4.59839        -3.98151        -0.26563
| 35>    N        3.67582        -3.21928        -0.73869
| 36>    C        6.44870        -5.40457        -0.90726
| 37>    C        6.74524        -5.78650         0.36127
| 38>    C        7.78449        -6.70053         0.66403
| 39>    N        8.09984        -7.10520         1.94060
| 40>    C        7.51112        -6.62154         3.16624
| 41>    C        8.04076        -5.24093         3.54512
| 42>    C        9.14249        -8.05166         1.95359
| 43>    O        9.59003        -8.55495         2.96242
| 44>    C        9.47190        -8.22604         0.55614
| 45>    C        8.63293        -7.38264        -0.20800
| 46>    C        8.96874        -7.58847        -1.59802
| 47>    O        8.53677        -7.09646        -2.62094
| 48>    N        9.98864        -8.56520        -1.58146
| 49>    C       10.60736        -8.96217        -2.82331
| 50>    C       11.98792        -8.33464        -2.99958
| 51>    C       10.29493        -8.95463        -0.29777
| 52>    C       11.20473        -9.93467         0.18911
| 53>    C       12.00791       -10.78643        -0.48486
| 54>    C       12.84674       -11.78904         0.12591
| 55>    C       13.56196       -12.65709        -0.69987
| 56>    C       14.34910       -13.67167        -0.17998
| 57>    N       14.99681       -14.52348        -1.14149
| 58>    O       15.18701       -14.06578        -2.24737
| 59>    O       15.31601       -15.64917        -0.80813
| 60>    C       14.47070       -13.86633         1.21021
| 61>    C       13.77602       -12.96241         2.02627
| 62>    C       12.98475       -11.96394         1.51214
| 63>    C       15.26870       -14.92753         1.77945
| 64>    C       15.04039       -15.49025         2.98010
| 65>    C       15.81584       -16.57566         3.50198
| 66>    C       16.32459       -17.64097         2.84212
| 67>    C       17.37724       -18.46999         3.52069
| 68>    O       17.69137       -18.40708         4.68442
| 69>    C       17.93669       -19.29814         2.45023
| 70>    C       18.95278       -20.19602         2.30463
| 71>    S       19.01755       -20.78517         0.66162
| 72>    C       17.66294       -19.82254         0.19383
| 73>    C       17.19730       -19.08880         1.23912
| 74>    C       16.11005       -18.16092         1.49548
| 75>    C       15.01805       -18.02421         0.68700
| 76>    C       14.93201       -18.70061        -0.55027
| 77>    N       14.83984       -19.25779        -1.54806
| 78>    C       13.85429       -17.28968         0.98510
| 79>    N       12.86380       -16.74315         1.17936
| 80>   Cl       20.05030       -20.73088         3.47889
| 81>    H        0.04991         0.13000        -6.98675
| 82>    H        2.00615        -1.86300        -1.91300
| 83>    H        7.01631        -5.77795        -1.74822
| 84>    H        6.15026        -5.38550         1.16873
| 85>    H        7.78684        -7.34606         3.93774
| 86>    H        6.42231        -6.60578         3.06871
| 87>    H        9.11999        -5.27834         3.67252
| 88>    H        7.59155        -4.92050         4.48080
| 89>    H        7.80619        -4.50861         2.77605
| 90>    H        9.94142        -8.59868        -3.61208
| 91>    H       10.64885       -10.05248        -2.88452
| 92>    H       11.89886        -7.25145        -3.02804
| 93>    H       12.42764        -8.67012        -3.93474
| 94>    H       12.65238        -8.60356        -2.18150
| 95>    H       11.18286        -9.97680         1.27033
| 96>    H       12.04744       -10.77355        -1.56284
| 97>    H       13.49621       -12.56649        -1.77485
| 98>    H       13.88068       -13.04729         3.09620
| 99>    H       12.46702       -11.30714         2.19272
|100>    H       16.08102       -15.31612         1.18077
|101>    H       14.25956       -15.11311         3.62685
|102>    H       16.05649       -16.53235         4.56083
|103>    H       17.31520       -19.85865        -0.81928
|104> *
|105>
|106>                          ****END OF INPUT****

CARTESIAN COORDINATES (ANGSTROEM)
---------------------------------
  C      1.536070   -1.092920   -5.913770
  C      0.912670   -0.505780   -6.971200
  S      1.697460   -0.899970   -8.456770
  C      2.893980   -1.878910   -7.641890
  Cl     4.119140   -2.674320   -8.497440
  C      2.670070   -1.879250   -6.296850
  C      3.282500   -2.476680   -5.109920
  O      4.254430   -3.200260   -5.066720
  C      2.458370   -2.001910   -3.965900
  C      1.381710   -1.157130   -4.473490
  C      0.386950   -0.528920   -3.775370
  C     -0.584280    0.254130   -4.437270
  N     -1.381140    0.894010   -4.958060
  C      0.184520   -0.563650   -2.380100
  N     -0.053850   -0.540290   -1.257540
  C      2.672430   -2.291120   -2.652770
  C      3.666380   -3.099210   -2.051740
  S      4.947580   -4.032510   -2.808010
  C      5.378110   -4.516490   -1.187760
  N      4.598390   -3.981510   -0.265630
  N      3.675820   -3.219280   -0.738690
  C      6.448700   -5.404570   -0.907260
  C      6.745240   -5.786500    0.361270
  C      7.784490   -6.700530    0.664030
  N      8.099840   -7.105200    1.940600
  C      7.511120   -6.621540    3.166240
  C      8.040760   -5.240930    3.545120
  C      9.142490   -8.051660    1.953590
  O      9.590030   -8.554950    2.962420
  C      9.471900   -8.226040    0.556140
  C      8.632930   -7.382640   -0.208000
  C      8.968740   -7.588470   -1.598020
  O      8.536770   -7.096460   -2.620940
  N      9.988640   -8.565200   -1.581460
  C     10.607360   -8.962170   -2.823310
  C     11.987920   -8.334640   -2.999580
  C     10.294930   -8.954630   -0.297770
  C     11.204730   -9.934670    0.189110
  C     12.007910  -10.786430   -0.484860
  C     12.846740  -11.789040    0.125910
  C     13.561960  -12.657090   -0.699870
  C     14.349100  -13.671670   -0.179980
  N     14.996810  -14.523480   -1.141490
  O     15.187010  -14.065780   -2.247370
  O     15.316010  -15.649170   -0.808130
  C     14.470700  -13.866330    1.210210
  C     13.776020  -12.962410    2.026270
  C     12.984750  -11.963940    1.512140
  C     15.268700  -14.927530    1.779450
  C     15.040390  -15.490250    2.980100
  C     15.815840  -16.575660    3.501980
  C     16.324590  -17.640970    2.842120
  C     17.377240  -18.469990    3.520690
  O     17.691370  -18.407080    4.684420
  C     17.936690  -19.298140    2.450230
  C     18.952780  -20.196020    2.304630
  S     19.017550  -20.785170    0.661620
  C     17.662940  -19.822540    0.193830
  C     17.197300  -19.088800    1.239120
  C     16.110050  -18.160920    1.495480
  C     15.018050  -18.024210    0.687000
  C     14.932010  -18.700610   -0.550270
  N     14.839840  -19.257790   -1.548060
  C     13.854290  -17.289680    0.985100
  N     12.863800  -16.743150    1.179360
  Cl    20.050300  -20.730880    3.478890
  H      0.049910    0.130000   -6.986750
  H      2.006150   -1.863000   -1.913000
  H      7.016310   -5.777950   -1.748220
  H      6.150260   -5.385500    1.168730
  H      7.786840   -7.346060    3.937740
  H      6.422310   -6.605780    3.068710
  H      9.119990   -5.278340    3.672520
  H      7.591550   -4.920500    4.480800
  H      7.806190   -4.508610    2.776050
  H      9.941420   -8.598680   -3.612080
  H     10.648850  -10.052480   -2.884520
  H     11.898860   -7.251450   -3.028040
  H     12.427640   -8.670120   -3.934740
  H     12.652380   -8.603560   -2.181500
  H     11.182860   -9.976800    1.270330
  H     12.047440  -10.773550   -1.562840
  H     13.496210  -12.566490   -1.774850
  H     13.880680  -13.047290    3.096200
  H     12.467020  -11.307140    2.192720
  H     16.081020  -15.316120    1.180770
  H     14.259560  -15.113110    3.626850
  H     16.056490  -16.532350    4.560830
  H     17.315200  -19.858650   -0.819280

 Total Charge           Charge          ....    0
 Multiplicity           Mult            ....    1
 Number of Electrons    NEL             ....  492
 Basis Dimension        Dim             .... 1059

ORBITAL ENERGIES
----------------

  NO   OCC          E(Eh)            E(eV)
   0   2.0000    -101.624292     -2765.3376
   1   2.0000    -101.616143     -2765.1158
   2   2.0000     -89.000543     -2421.8279
   3   2.0000     -88.991080     -2421.5704
   4   2.0000     -88.985574     -2421.4206
   5   2.0000     -19.258100      -524.0395
   6   2.0000     -19.256600      -523.9987
   7   2.0000     -19.237821      -523.4877
   8   2.0000     -19.219291      -522.9835
   9   2.0000     -19.202238      -522.5195
  10   2.0000     -19.196985      -522.3765
  11   2.0000     -14.662709      -398.9926
  12   2.0000     -14.462854      -393.5543
  13   2.0000     -14.460317      -393.4852
  14   2.0000     -14.455956      -393.3666
  15   2.0000     -14.446587      -393.1116
  16   2.0000     -14.426233      -392.5578
  17   2.0000     -14.425988      -392.5511
  18   2.0000     -14.415515      -392.2661
  19   2.0000     -14.415288      -392.2599
  20   2.0000     -10.391401      -282.7644
  21   2.0000     -10.384137      -282.5667
  22   2.0000     -10.383897      -282.5602
  23   2.0000     -10.380888      -282.4783
  24   2.0000     -10.375164      -282.3226
  25   2.0000     -10.374529      -282.3053
  26   2.0000     -10.356587      -281.8171
  27   2.0000     -10.355964      -281.8001
  28   2.0000     -10.351903      -281.6896
  29   2.0000     -10.349059      -281.6122
  30   2.0000     -10.347618      -281.5730
  31   2.0000     -10.346568      -281.5444
  32   2.0000     -10.346104      -281.5318
  33   2.0000     -10.345015      -281.5022
  34   2.0000     -10.343868      -281.4710
  35   2.0000     -10.336233      -281.2632
  36   2.0000     -10.335531      -281.2441
  37   2.0000     -10.327745      -281.0322
  38   2.0000     -10.327236      -281.0184
  39   2.0000     -10.325661      -280.9755
  40   2.0000     -10.323968      -280.9294
  41   2.0000     -10.320378      -280.8318
  42   2.0000     -10.319948      -280.8201
  43   2.0000     -10.319161      -280.7986
  44   2.0000     -10.318298      -280.7752
  45   2.0000     -10.316992      -280.7396
  46   2.0000     -10.314569      -280.6737
  47   2.0000     -10.312113      -280.6069
  48   2.0000     -10.311268      -280.5839
  49   2.0000     -10.310565      -280.5647
  50   2.0000     -10.308570      -280.5104
  51   2.0000     -10.307846      -280.4908
  52   2.0000     -10.306791      -280.4620
  53   2.0000     -10.306582      -280.4564
  54   2.0000     -10.305275      -280.4208
  55   2.0000     -10.305156      -280.4176
  56   2.0000     -10.304996      -280.4132
  57   2.0000     -10.303833      -280.3815
  58   2.0000     -10.303141      -280.3627
  59   2.0000     -10.302491      -280.3450
  60   2.0000     -10.301828      -280.3270
  61   2.0000     -10.298565      -280.2382
  62   2.0000     -10.271044      -279.4893
  63   2.0000     -10.270330      -279.4699
  64   2.0000     -10.269833      -279.4564
  65   2.0000     -10.266527      -279.3664
  66   2.0000      -9.579081      -260.6600
  67   2.0000      -9.570902      -260.4375
  68   2.0000      -8.096260      -220.3104
  69   2.0000      -8.086881      -220.0552
  70   2.0000      -8.079614      -219.8575
  71   2.0000      -7.349726      -199.9962
  72   2.0000      -7.341549      -199.7737
  73   2.0000      -7.339109      -199.7073
  74   2.0000      -7.338565      -199.6925
  75   2.0000      -7.330936      -199.4849
  76   2.0000      -7.330404      -199.4704
  77   2.0000      -6.065614      -165.0538
  78   2.0000      -6.061021      -164.9288
  79   2.0000      -6.058542      -164.8613
  80   2.0000      -6.056253      -164.7990
  81   2.0000      -6.051659      -164.6740
  82   2.0000      -6.049114      -164.6047
  83   2.0000      -6.048398      -164.5853
  84   2.0000      -6.044466      -164.4783
  85   2.0000      -6.042362      -164.4210
  86   2.0000      -1.337798       -36.4033
  87   2.0000      -1.157014       -31.4840
  88   2.0000      -1.155822       -31.4515
  89   2.0000      -1.153871       -31.3984
  90   2.0000      -1.142412       -31.0866
  91   2.0000      -1.136213       -30.9179
  92   2.0000      -1.134626       -30.8747
  93   2.0000      -1.071530       -29.1578
  94   2.0000      -1.062717       -28.9180
  95   2.0000      -1.045977       -28.4625
  96   2.0000      -1.035977       -28.1904
  97   2.0000      -1.023748       -27.8576
  98   2.0000      -1.013684       -27.5837
  99   2.0000      -1.004274       -27.3277
 100   2.0000      -1.002591       -27.2819
 101   2.0000      -0.996485       -27.1157
 102   2.0000      -0.993879       -27.0448
 103   2.0000      -0.985871       -26.8269
 104   2.0000      -0.965822       -26.2814
 105   2.0000      -0.954386       -25.9702
 106   2.0000      -0.953437       -25.9443
 107   2.0000      -0.940737       -25.5988
 108   2.0000      -0.937787       -25.5185
 109   2.0000      -0.934539       -25.4301
 110   2.0000      -0.923837       -25.1389
 111   2.0000      -0.913919       -24.8690
 112   2.0000      -0.905486       -24.6395
 113   2.0000      -0.901178       -24.5223
 114   2.0000      -0.896025       -24.3821
 115   2.0000      -0.883105       -24.0305
 116   2.0000      -0.875284       -23.8177
 117   2.0000      -0.870654       -23.6917
 118   2.0000      -0.845443       -23.0057
 119   2.0000      -0.840176       -22.8624
 120   2.0000      -0.830271       -22.5928
 121   2.0000      -0.826947       -22.5024
 122   2.0000      -0.818285       -22.2667
 123   2.0000      -0.806313       -21.9409
 124   2.0000      -0.803257       -21.8577
 125   2.0000      -0.791001       -21.5242
 126   2.0000      -0.773986       -21.0612
 127   2.0000      -0.766947       -20.8697
 128   2.0000      -0.764181       -20.7944
 129   2.0000      -0.751715       -20.4552
 130   2.0000      -0.737702       -20.0739
 131   2.0000      -0.731996       -19.9186
 132   2.0000      -0.721158       -19.6237
 133   2.0000      -0.719858       -19.5883
 134   2.0000      -0.710715       -19.3395
 135   2.0000      -0.700969       -19.0743
 136   2.0000      -0.699391       -19.0314
 137   2.0000      -0.687799       -18.7160
 138   2.0000      -0.685192       -18.6450
 139   2.0000      -0.684243       -18.6192
 140   2.0000      -0.674106       -18.3434
 141   2.0000      -0.670569       -18.2471
 142   2.0000      -0.663368       -18.0512
 143   2.0000      -0.657763       -17.8986
 144   2.0000      -0.647805       -17.6277
 145   2.0000      -0.641454       -17.4548
 146   2.0000      -0.640981       -17.4420
 147   2.0000      -0.629693       -17.1348
 148   2.0000      -0.624480       -16.9930
 149   2.0000      -0.619450       -16.8561
 150   2.0000      -0.616389       -16.7728
 151   2.0000      -0.615744       -16.7553
 152   2.0000      -0.608993       -16.5715
 153   2.0000      -0.608441       -16.5565
 154   2.0000      -0.604379       -16.4460
 155   2.0000      -0.596094       -16.2205
 156   2.0000      -0.590360       -16.0645
 157   2.0000      -0.586381       -15.9562
 158   2.0000      -0.584419       -15.9029
 159   2.0000      -0.575849       -15.6696
 160   2.0000      -0.562981       -15.3195
 161   2.0000      -0.561936       -15.2911
 162   2.0000      -0.560779       -15.2596
 163   2.0000      -0.557216       -15.1626
 164   2.0000      -0.555974       -15.1288
 165   2.0000      -0.552462       -15.0333
 166   2.0000      -0.548930       -14.9371
 167   2.0000      -0.547908       -14.9093
 168   2.0000      -0.545726       -14.8499
 169   2.0000      -0.542792       -14.7701
 170   2.0000      -0.541280       -14.7290
 171   2.0000      -0.539015       -14.6673
 172   2.0000      -0.537532       -14.6270
 173   2.0000      -0.530512       -14.4360
 174   2.0000      -0.528044       -14.3688
 175   2.0000      -0.525276       -14.2935
 176   2.0000      -0.523053       -14.2330
 177   2.0000      -0.521761       -14.1979
 178   2.0000      -0.514187       -13.9917
 179   2.0000      -0.512807       -13.9542
 180   2.0000      -0.512508       -13.9461
 181   2.0000      -0.511175       -13.9098
 182   2.0000      -0.502419       -13.6715
 183   2.0000      -0.500238       -13.6122
 184   2.0000      -0.499657       -13.5963
 185   2.0000      -0.497489       -13.5374
 186   2.0000      -0.497084       -13.5263
 187   2.0000      -0.493504       -13.4289
 188   2.0000      -0.491126       -13.3642
 189   2.0000      -0.490305       -13.3419
 190   2.0000      -0.484652       -13.1881
 191   2.0000      -0.482512       -13.1298
 192   2.0000      -0.479399       -13.0451
 193   2.0000      -0.477678       -12.9983
 194   2.0000      -0.470229       -12.7956
 195   2.0000      -0.466727       -12.7003
 196   2.0000      -0.461974       -12.5710
 197   2.0000      -0.461673       -12.5628
 198   2.0000      -0.458280       -12.4704
 199   2.0000      -0.457529       -12.4500
 200   2.0000      -0.456317       -12.4170
 201   2.0000      -0.454075       -12.3560
 202   2.0000      -0.453395       -12.3375
 203   2.0000      -0.452382       -12.3099
 204   2.0000      -0.452250       -12.3064
 205   2.0000      -0.450576       -12.2608
 206   2.0000      -0.449824       -12.2403
 207   2.0000      -0.448670       -12.2089
 208   2.0000      -0.442889       -12.0516
 209   2.0000      -0.441792       -12.0218
 210   2.0000      -0.439436       -11.9577
 211   2.0000      -0.437833       -11.9140
 212   2.0000      -0.437052       -11.8928
 213   2.0000      -0.433683       -11.8011
 214   2.0000      -0.430638       -11.7183
 215   2.0000      -0.428725       -11.6662
 216   2.0000      -0.425659       -11.5828
 217   2.0000      -0.421473       -11.4689
 218   2.0000      -0.421325       -11.4648
 219   2.0000      -0.410760       -11.1773
 220   2.0000      -0.409696       -11.1484
 221   2.0000      -0.406270       -11.0552
 222   2.0000      -0.403613       -10.9829
 223   2.0000      -0.401526       -10.9261
 224   2.0000      -0.401458       -10.9242
 225   2.0000      -0.398996       -10.8572
 226   2.0000      -0.393180       -10.6990
 227   2.0000      -0.387802       -10.5526
 228   2.0000      -0.381964       -10.3938
 229   2.0000      -0.376022       -10.2321
 230   2.0000      -0.359229        -9.7751
 231   2.0000      -0.357427        -9.7261
 232   2.0000      -0.357221        -9.7205
 233   2.0000      -0.356966        -9.7135
 234   2.0000      -0.344720        -9.3803
 235   2.0000      -0.343302        -9.3417
 236   2.0000      -0.342372        -9.3164
 237   2.0000      -0.340259        -9.2589
 238   2.0000      -0.331199        -9.0124
 239   2.0000      -0.328090        -8.9278
 240   2.0000      -0.324385        -8.8270
 241   2.0000      -0.323796        -8.8109
 242   2.0000      -0.313026        -8.5179
 243   2.0000      -0.305976        -8.3260
 244   2.0000      -0.296789        -8.0760
 245   2.0000      -0.246466        -6.7067
 246   0.0000      -0.117040        -3.1848
 247   0.0000      -0.096619        -2.6291
 248   0.0000      -0.083177        -2.2634
 249   0.0000      -0.061957        -1.6859
 250   0.0000      -0.059713        -1.6249

MULLIKEN ATOMIC CHARGES
-----------------------
   0 C :    0.029721
   1 C :   -0.128474
   2 S :    0.193207
   3 C :   -0.168559
   4 Cl:    0.004955
   5 C :    0.075366
   6 C :    0.173510
   7 O :   -0.152349
   8 C :   -0.097273
   9 C :    0.301891
  10 C :   -0.328212
  11 C :   -0.194706
  12 N :    0.161196
  13 C :   -0.191810
  14 N :    0.176293
  15 C :    0.014603
  16 C :   -0.106248
  17 S :    0.204571
  18 C :   -0.084190
  19 N :   -0.054893
  20 N :   -0.028499
  21 C :    0.065006
  22 C :   -0.022009
  23 C :    0.146716
  24 N :   -0.259648
  25 C :    0.091233
  26 C :    0.003703
  27 C :    0.151357
  28 O :   -0.194151
  29 C :   -0.050265
  30 C :   -0.051155
  31 C :    0.159668
  32 O :   -0.203137
  33 N :   -0.263695
  34 C :    0.097298
  35 C :   -0.002457
  36 C :    0.114993
  37 C :   -0.010124
  38 C :    0.008747
  39 C :    0.110650
  40 C :   -0.074571
  41 C :    0.149909
  42 N :    0.264340
  43 O :   -0.221698
  44 O :   -0.245782
  45 C :    0.065482
  46 C :   -0.028265
  47 C :    0.025039
  48 C :    0.016905
  49 C :   -0.000036
  50 C :    0.027111
  51 C :   -0.129123
  52 C :    0.126297
  53 O :   -0.128241
  54 C :    0.091917
  55 C :   -0.170193
  56 S :    0.184262
  57 C :   -0.127956
  58 C :    0.012402
  59 C :    0.272541
  60 C :   -0.302784
  61 C :   -0.183613
  62 N :    0.157968
  63 C :   -0.185040
  64 N :    0.165453
  65 Cl:   -0.002174
  66 H :    0.056881
  67 H :    0.034511
  68 H :    0.014736
  69 H :    0.007910
  70 H :    0.045414
  71 H :    0.032090
  72 H :    0.027832
  73 H :    0.027402
  74 H :    0.020640
  75 H :    0.046847
  76 H :    0.029289
  77 H :    0.029626
  78 H :    0.024817
  79 H :    0.022573
  80 H :    0.007422
  81 H :   -0.022635
  82 H :    0.004712
  83 H :   -0.010066
  84 H :    0.004121
  85 H :    0.030434
  86 H :    0.022311
  87 H :    0.035024
  88 H :    0.055126
Sum of atomic charges:   -0.0000000

LOEWDIN ATOMIC CHARGES
----------------------
   0 C :   -0.058466
   1 C :   -0.147376
   2 S :    0.481359
   3 C :   -0.270401
   4 Cl:    0.196472
   5 C :   -0.118652
   6 C :    0.083029
   7 O :   -0.147545
   8 C :   -0.084856
   9 C :    0.072041
  10 C :   -0.127165
  11 C :   -0.013906
  12 N :   -0.046410
  13 C :   -0.027447
  14 N :   -0.030025
  15 C :    0.055283
  16 C :   -0.176488
  17 S :    0.492550
  18 C :   -0.154785
  19 N :   -0.080049
  20 N :   -0.042414
  21 C :   -0.009326
  22 C :   -0.004236
  23 C :    0.076495
  24 N :   -0.000535
  25 C :    0.036293
  26 C :   -0.060198
  27 C :    0.078564
  28 O :   -0.197143
  29 C :   -0.111023
  30 C :   -0.117656
  31 C :    0.083923
  32 O :   -0.193064
  33 N :   -0.002260
  34 C :    0.034701
  35 C :   -0.063061
  36 C :    0.072409
  37 C :   -0.023269
  38 C :   -0.001442
  39 C :   -0.022081
  40 C :    0.013377
  41 C :   -0.022550
  42 N :    0.292494
  43 O :   -0.187856
  44 O :   -0.192858
  45 C :    0.002348
  46 C :    0.002704
  47 C :    0.021489
  48 C :    0.014250
  49 C :   -0.017297
  50 C :    0.063198
  51 C :   -0.076031
  52 C :    0.080718
  53 O :   -0.132324
  54 C :   -0.120393
  55 C :   -0.272847
  56 S :    0.474539
  57 C :   -0.151834
  58 C :   -0.055377
  59 C :    0.059798
  60 C :   -0.117150
  61 C :   -0.011685
  62 N :   -0.047724
  63 C :   -0.015733
  64 N :   -0.051210
  65 Cl:    0.190607
  66 H :    0.038652
  67 H :    0.060277
  68 H :    0.038603
  69 H :    0.039163
  70 H :    0.038236
  71 H :    0.026572
  72 H :    0.031293
  73 H :    0.032769
  74 H :    0.024227
  75 H :    0.038657
  76 H :    0.021631
  77 H :    0.033032
  78 H :    0.032016
  79 H :    0.022233
  80 H :    0.044418
  81 H :    0.030288
  82 H :    0.040121
  83 H :    0.036244
  84 H :    0.039792
  85 H :    0.032245
  86 H :    0.037987
  87 H :    0.048698
  88 H :    0.038353

  Mayer bond orders larger than 0.100000
B(  0-C ,  1-C ) :   1.5458 B(  0-C ,  5-C ) :   1.2240 B(  0-C ,  9-C ) :   0.9968
B(  1-C ,  2-S ) :   1.1625 B(  1-C , 66-H ) :   0.9534 B(  2-S ,  3-C ) :   1.1548
B(  3-C ,  4-Cl) :   1.1326 B(  3-C ,  5-C ) :   1.4694 B(  5-C ,  6-C ) :   0.9687
B(  6-C ,  7-O ) :   2.1687 B(  6-C ,  8-C ) :   0.9487 B(  8-C ,  9-C ) :   1.0663
B(  8-C , 15-C ) :   1.5874 B(  9-C , 10-C ) :   1.6637 B( 10-C , 11-C ) :   1.1499
B( 10-C , 13-C ) :   1.1349 B( 11-C , 12-N ) :   2.9895 B( 13-C , 14-N ) :   2.9737
B( 15-C , 16-C ) :   1.1627 B( 15-C , 67-H ) :   0.9443 B( 16-C , 17-S ) :   1.0952
B( 16-C , 20-N ) :   1.5840 B( 17-S , 18-C ) :   1.1209 B( 17-S , 20-N ) :   0.1007
B( 18-C , 19-N ) :   1.5615 B( 18-C , 21-C ) :   1.1299 B( 19-N , 20-N ) :   1.3008
B( 21-C , 22-C ) :   1.6401 B( 21-C , 68-H ) :   0.9293 B( 22-C , 23-C ) :   1.1313
B( 22-C , 69-H ) :   0.9717 B( 23-C , 24-N ) :   1.1662 B( 23-C , 30-C ) :   1.3395
B( 24-N , 25-C ) :   0.9410 B( 24-N , 27-C ) :   1.0419 B( 25-C , 26-C ) :   1.1219
B( 25-C , 70-H ) :   0.9288 B( 25-C , 71-H ) :   0.9499 B( 26-C , 72-H ) :   0.9638
B( 26-C , 73-H ) :   0.9677 B( 26-C , 74-H ) :   0.9686 B( 27-C , 28-O ) :   2.1236
B( 27-C , 29-C ) :   0.9766 B( 29-C , 30-C ) :   1.2451 B( 29-C , 36-C ) :   1.3539
B( 30-C , 31-C ) :   0.9857 B( 31-C , 32-O ) :   2.0333 B( 31-C , 33-N ) :   1.0565
B( 32-O , 68-H ) :   0.1050 B( 33-N , 34-C ) :   0.9416 B( 33-N , 36-C ) :   1.1667
B( 34-C , 35-C ) :   1.1146 B( 34-C , 75-H ) :   0.9236 B( 34-C , 76-H ) :   0.9508
B( 35-C , 77-H ) :   0.9619 B( 35-C , 78-H ) :   0.9686 B( 35-C , 79-H ) :   0.9687
B( 36-C , 37-C ) :   1.1757 B( 37-C , 38-C ) :   1.5960 B( 37-C , 80-H ) :   0.9400
B( 38-C , 39-C ) :   1.0768 B( 38-C , 81-H ) :   0.9910 B( 39-C , 40-C ) :   1.2896
B( 39-C , 47-C ) :   1.3063 B( 40-C , 41-C ) :   1.3678 B( 40-C , 82-H ) :   0.9975
B( 41-C , 42-N ) :   0.8850 B( 41-C , 45-C ) :   1.3539 B( 42-N , 43-O ) :   1.5686
B( 42-N , 44-O ) :   1.4867 B( 43-O , 44-O ) :   0.2583 B( 45-C , 46-C ) :   1.3306
B( 45-C , 48-C ) :   1.0852 B( 46-C , 47-C ) :   1.4307 B( 46-C , 83-H ) :   0.9871
B( 47-C , 84-H ) :   0.9890 B( 48-C , 49-C ) :   1.7555 B( 48-C , 85-H ) :   0.9487
B( 49-C , 50-C ) :   1.0750 B( 49-C , 86-H ) :   0.9449 B( 50-C , 51-C ) :   1.7686
B( 50-C , 87-H ) :   0.9244 B( 51-C , 52-C ) :   0.9302 B( 51-C , 59-C ) :   1.0098
B( 52-C , 53-O ) :   2.2807 B( 52-C , 54-C ) :   0.9292 B( 54-C , 55-C ) :   1.4748
B( 54-C , 58-C ) :   1.2221 B( 55-C , 56-S ) :   1.1558 B( 55-C , 65-Cl) :   1.1273
B( 56-S , 57-C ) :   1.1566 B( 57-C , 58-C ) :   1.5550 B( 57-C , 88-H ) :   0.9553
B( 58-C , 59-C ) :   1.0062 B( 59-C , 60-C ) :   1.7059 B( 60-C , 61-C ) :   1.1303
B( 60-C , 63-C ) :   1.1590 B( 61-C , 62-N ) :   3.0028 B( 63-C , 64-N ) :   2.9801

-----------------------------------------------------------------------------
         ABSORPTION SPECTRUM VIA TRANSITION ELECTRIC DIPOLE MOMENTS
-----------------------------------------------------------------------------
State   Energy  Wavelength   fosc         T2         TX        TY        TZ
        (cm-1)    (nm)                  (au**2)     (au)      (au)      (au)
-----------------------------------------------------------------------------
   0   14135.2    707.5   1.097538940  25.56192   3.58823  -3.48568   0.73254
   1   20219.5    494.6   0.157427313   2.56322   0.66137  -1.30859  -0.64297
   2   22791.6    438.8   0.141642261   2.04595  -0.00441   0.67464  -1.26127
   3   23076.1    433.3   0.000760480   0.01085  -0.06758  -0.05532  -0.05676
   4   25347.9    394.5   0.316713539   4.11339  -1.45528   0.83824  -1.13706
   5   25829.4    387.2   0.461991896   5.88837  -1.30852   1.84562  -0.87740
   6   26260.6    380.8   0.087420590   1.09594   0.13317  -1.03490  -0.08476
   7   27013.3    370.2   0.028939089   0.35268   0.10322  -0.18014  -0.55640
   8   28175.2    354.9   0.161618489   1.88842   0.88951  -0.93167   0.47873
   9   28337.7    352.9   0.012216023   0.14192   0.31013  -0.12431   0.17403
  10   28702.7    348.4   0.148580545   1.70418  -0.96383   0.74042  -0.47643
  11   29004.2    344.8   0.001135006   0.01288  -0.03405  -0.03360  -0.10293
  12   29084.9    343.8   0.212906576   2.40989   0.47303  -0.61446   1.34483
  13   29664.9    337.1   0.134604473   1.49380  -0.92247   0.78936  -0.14058
  14   29793.8    335.6   0.033312950   0.36810   0.21157   0.16373   0.54454
  15   30209.0    331.0   0.046819028   0.51022  -0.12641   0.47049   0.52239
  16   31635.9    316.1   0.001296053   0.01349  -0.04260  -0.10744  -0.01132
  17   32190.0    310.7   0.002475290   0.02532   0.11944   0.10385  -0.01623
  18   32374.5    308.9   0.068605303   0.69764   0.01774   0.04683  -0.83375
  19   32523.6    307.5   0.017961113   0.18181   0.01304  -0.13253  -0.40506
  20   32856.8    304.4   0.033615669   0.33682   0.31144  -0.48662   0.05492
  21   33318.5    300.1   0.064929863   0.64156  -0.16031   0.45341  -0.64053
  22   33623.6    297.4   0.232328938   2.27476   1.00569  -0.78964   0.79989
  23   35030.7    285.5   0.031880311   0.29961  -0.28761   0.24934  -0.39334
  24   35486.1    281.8   0.015045521   0.13958   0.21280  -0.12689  -0.27964
  25   35548.6    281.3   0.157003339   1.45399   0.85627  -0.82934   0.18161
  26   35936.0    278.3   0.414050368   3.79314   0.74992  -0.30227  -1.77183
  27   36097.3    277.0   0.035293514   0.32188   0.48072  -0.28136  -0.10785
  28   36346.6    275.1   0.004378270   0.03966  -0.18787  -0.04540  -0.04795
  29   36361.3    275.0   0.138505724   1.25402  -0.75903   0.30257  -0.76573
  30   36811.0    271.7   0.131330181   1.17453   0.10111  -0.60499   0.89347
  31   37176.6    269.0   0.180004543   1.59400  -0.17819   0.39826   1.18475
  32   37563.4    266.2   0.235388249   2.06298   1.02039  -0.85895   0.53291
  33   37776.2    264.7   0.018886046   0.16459  -0.27573   0.29513  -0.03822
  34   38144.6    262.2   0.256195277   2.21113   1.11698  -0.77186  -0.60639
  35   38314.3    261.0   0.466545902   4.00875   1.60410  -1.16216   0.29155
  36   38930.8    256.9   0.012864203   0.10878  -0.26007   0.17815  -0.09702
  37   39160.3    255.4   0.004999369   0.04203   0.14171  -0.14322   0.03787
  38   39264.7    254.7   0.000079365   0.00067   0.01782   0.01510  -0.01094
  39   39444.7    253.5   0.000936229   0.00781  -0.04426  -0.01923  -0.07406
  40   39573.5    252.7   0.038786904   0.32267  -0.01610  -0.56001  -0.09380
  41   39916.6    250.5   0.018717121   0.15437   0.09130  -0.19537   0.32842
  42   40139.8    249.1   0.022140835   0.18159   0.19262  -0.18893   0.32983

FINAL SINGLE POINT ENERGY     -4821.566802752366

DIPOLE MOMENT
-------------
                                X             Y             Z
Electronic contribution:     -5.46868     -15.62016     -32.25825
Nuclear contribution   :      7.40298      16.07494      31.28505
                        -----------------------------------------
Total Dipole Moment    :      1.93430       0.45478      -0.97320
                        -----------------------------------------
Magnitude (a.u.)       :      2.21257
Magnitude (Debye)      :      5.62390

Rotational constants in cm-1:     0.002848     0.000189     0.000181
Rotational constants in MHz :    85.370350     5.678014     5.413396

                             ****ORCA TERMINATED NORMALLY****
TOTAL RUN TIME: 0 days 0 hours 7 minutes 57 seconds 827 msec
