                         Program Version 4.2.0 -  RELEASE  -
|  1> # ORCA input file
|  2> # SCF done       -184.926867257087          0.000998985625
|  3> ! CAM-B3LYP def2-SVP def2/J RIJCOSX Grid4 TightSCF
|  4> %maxcore 5000
|  5> %tddft
|  6>     Mode sTDDFT
|  7>     Ethresh 5.0
|  8>     maxcore 5000
|  9> end
| 10>
| 11> %pal
| 12>   nprocs 6
| 13>   end
| 14> * xyz 0 1
| 15>    C        0.31740         2.69879        -0.76906
| 16>    C       -0.75793         3.52031        -0.57566
| 17>    F       -2.00037         3.00137        -0.59595
| 18>    C       -0.62206         4.89683        -0.35219
| 19>    C        0.63197         5.44130        -0.32661
| 20>    C        1.77573         4.64070        -0.52032
| 21>    C        1.61638         3.24286        -0.74725
| 22>    C        2.74837         2.41984        -0.95289
| 23>    C        3.99848         2.97711        -0.92700
| 24>    C        4.15112         4.37409        -0.68847
| 25>    C        3.07674         5.19225        -0.49458
| 26>    C        5.58833         4.71266        -0.68616
| 27>    O        6.09266         5.80546        -0.54564
| 28>    C        6.29780         3.41559        -0.83339
| 29>    C        5.32073         2.39775        -1.14554
| 30>    C        5.57637         1.16724        -1.70051
| 31>    C        6.82801         0.80003        -2.23323
| 32>    N        7.80441         0.49976        -2.75732
| 33>    C        4.59273         0.18013        -1.89944
| 34>    N        3.83008        -0.66944        -2.02664
| 35>    C        7.63732         3.35513        -0.59337
| 36>    C        8.49252         2.22578        -0.39531
| 37>    C        9.77738         2.29871        -0.91907
| 38>    C       10.63999         1.21166        -0.90961
| 39>    C       10.29209         0.00975        -0.31479
| 40>    C        9.00709        -0.12344         0.27041
| 41>    C        8.45819        -1.31509         0.77360
| 42>   Si        7.13277        -0.71716         1.84133
| 43>    C        6.84882         0.77639         0.85068
| 44>    C        8.09073         1.01698         0.25496
| 45>    C       11.26550        -1.07411        -0.34633
| 46>    C       11.91955        -1.40676        -1.49659
| 47>    C       12.95090        -2.34969        -1.58817
| 48>    C       13.46875        -3.01790        -0.39174
| 49>    C       12.95103        -2.86270         0.84617
| 50>    S       11.62724        -1.82884         1.19918
| 51>    C       14.55726        -3.80897        -0.85064
| 52>    C       14.71478        -3.65424        -2.22987
| 53>    C       15.78203        -4.44148        -2.71922
| 54>    C       16.38826        -5.14576        -1.72790
| 55>    S       15.69837        -4.89349        -0.16224
| 56>    C       13.69540        -2.75084        -2.71029
| 57>    C       13.41684        -2.32843        -4.03350
| 58>    C       14.18341        -2.54825        -5.13158
| 59>    C       13.83994        -2.16707        -6.46520
| 60>    C       14.35063        -2.92409        -7.51989
| 61>    C       13.85649        -2.81513        -8.80487
| 62>    C       12.79236        -1.96682        -9.12041
| 63>    C       12.38044        -1.01460        -8.13377
| 64>    C       11.47980         0.03298        -8.33498
| 65>   Si       11.89082         1.20292        -7.01089
| 66>    C       12.51539        -0.09688        -5.90710
| 67>    C       12.94103        -1.10087        -6.78214
| 68>    C       12.18943        -2.11622       -10.39726
| 69>    C       10.90982        -1.87839       -10.82038
| 70>    C       10.63978        -1.80195       -12.27578
| 71>    O       11.40518        -2.07963       -13.17527
| 72>    C        9.26769        -1.26712       -12.39552
| 73>    C        8.57040        -0.93254       -13.51885
| 74>    C        7.26270        -0.41107       -13.38948
| 75>    C        6.70650        -0.24326       -12.08870
| 76>    C        5.40521         0.28140       -11.96523
| 77>    C        4.70536         0.61263       -13.09155
| 78>    C        5.23339         0.45295       -14.37911
| 79>    C        6.49659        -0.05269       -14.51670
| 80>    F        3.45939         1.11389       -12.97501
| 81>    C        7.45096        -0.60663       -10.94168
| 82>    C        8.71161        -1.11739       -11.09256
| 83>    C        9.68084        -1.61201       -10.11624
| 84>    C        9.39621        -1.92254        -8.80715
| 85>    C       10.21834        -2.71415        -7.98239
| 86>    N       10.79661        -3.42215        -7.28658
| 87>    C        8.18399        -1.59466        -8.17139
| 88>    N        7.22719        -1.31839        -7.59859
| 89>    H        0.17482         1.64348        -0.94205
| 90>    H       -1.50719         5.49547        -0.20654
| 91>    H        0.76268         6.49953        -0.15668
| 92>    H        2.59820         1.36535        -1.12144
| 93>    H        3.21633         6.24939        -0.32446
| 94>    H        8.12315         4.32609        -0.54494
| 95>    H       10.08734         3.20876        -1.41172
| 96>    H       11.61562         1.31205        -1.36191
| 97>    H        9.06778        -2.19880         0.86754
| 98>    H        6.16721         1.59065         1.04185
| 99>    H       11.59260        -0.90536        -2.39712
|100>    H       13.33432        -3.38361         1.70924
|101>    H       16.09765        -4.50372        -3.74418
|102>    H       17.21958        -5.81777        -1.81553
|103>    H       12.46754        -1.83024        -4.16520
|104>    H       15.08341        -3.13867        -5.03464
|105>    H       15.08747        -3.68494        -7.30587
|106>    H       14.21636        -3.49385        -9.56482
|107>    H       11.12802         0.26051        -9.32972
|108>    H       13.01390         0.03107        -4.95864
|109>    H       12.84838        -2.46866       -11.18675
|110>    H        9.00925        -1.06458       -14.49660
|111>    H        4.96539         0.41419       -10.98904
|112>    H        4.63389         0.73077       -15.23149
|113>    H        6.92561        -0.18551       -15.49869
|114>    H        7.00437        -0.46658        -9.97030
|115> *
|116>
|117>                          ****END OF INPUT****

CARTESIAN COORDINATES (ANGSTROEM)
---------------------------------
  C      0.317400    2.698790   -0.769060
  C     -0.757930    3.520310   -0.575660
  F     -2.000370    3.001370   -0.595950
  C     -0.622060    4.896830   -0.352190
  C      0.631970    5.441300   -0.326610
  C      1.775730    4.640700   -0.520320
  C      1.616380    3.242860   -0.747250
  C      2.748370    2.419840   -0.952890
  C      3.998480    2.977110   -0.927000
  C      4.151120    4.374090   -0.688470
  C      3.076740    5.192250   -0.494580
  C      5.588330    4.712660   -0.686160
  O      6.092660    5.805460   -0.545640
  C      6.297800    3.415590   -0.833390
  C      5.320730    2.397750   -1.145540
  C      5.576370    1.167240   -1.700510
  C      6.828010    0.800030   -2.233230
  N      7.804410    0.499760   -2.757320
  C      4.592730    0.180130   -1.899440
  N      3.830080   -0.669440   -2.026640
  C      7.637320    3.355130   -0.593370
  C      8.492520    2.225780   -0.395310
  C      9.777380    2.298710   -0.919070
  C     10.639990    1.211660   -0.909610
  C     10.292090    0.009750   -0.314790
  C      9.007090   -0.123440    0.270410
  C      8.458190   -1.315090    0.773600
  Si     7.132770   -0.717160    1.841330
  C      6.848820    0.776390    0.850680
  C      8.090730    1.016980    0.254960
  C     11.265500   -1.074110   -0.346330
  C     11.919550   -1.406760   -1.496590
  C     12.950900   -2.349690   -1.588170
  C     13.468750   -3.017900   -0.391740
  C     12.951030   -2.862700    0.846170
  S     11.627240   -1.828840    1.199180
  C     14.557260   -3.808970   -0.850640
  C     14.714780   -3.654240   -2.229870
  C     15.782030   -4.441480   -2.719220
  C     16.388260   -5.145760   -1.727900
  S     15.698370   -4.893490   -0.162240
  C     13.695400   -2.750840   -2.710290
  C     13.416840   -2.328430   -4.033500
  C     14.183410   -2.548250   -5.131580
  C     13.839940   -2.167070   -6.465200
  C     14.350630   -2.924090   -7.519890
  C     13.856490   -2.815130   -8.804870
  C     12.792360   -1.966820   -9.120410
  C     12.380440   -1.014600   -8.133770
  C     11.479800    0.032980   -8.334980
  Si    11.890820    1.202920   -7.010890
  C     12.515390   -0.096880   -5.907100
  C     12.941030   -1.100870   -6.782140
  C     12.189430   -2.116220  -10.397260
  C     10.909820   -1.878390  -10.820380
  C     10.639780   -1.801950  -12.275780
  O     11.405180   -2.079630  -13.175270
  C      9.267690   -1.267120  -12.395520
  C      8.570400   -0.932540  -13.518850
  C      7.262700   -0.411070  -13.389480
  C      6.706500   -0.243260  -12.088700
  C      5.405210    0.281400  -11.965230
  C      4.705360    0.612630  -13.091550
  C      5.233390    0.452950  -14.379110
  C      6.496590   -0.052690  -14.516700
  F      3.459390    1.113890  -12.975010
  C      7.450960   -0.606630  -10.941680
  C      8.711610   -1.117390  -11.092560
  C      9.680840   -1.612010  -10.116240
  C      9.396210   -1.922540   -8.807150
  C     10.218340   -2.714150   -7.982390
  N     10.796610   -3.422150   -7.286580
  C      8.183990   -1.594660   -8.171390
  N      7.227190   -1.318390   -7.598590
  H      0.174820    1.643480   -0.942050
  H     -1.507190    5.495470   -0.206540
  H      0.762680    6.499530   -0.156680
  H      2.598200    1.365350   -1.121440
  H      3.216330    6.249390   -0.324460
  H      8.123150    4.326090   -0.544940
  H     10.087340    3.208760   -1.411720
  H     11.615620    1.312050   -1.361910
  H      9.067780   -2.198800    0.867540
  H      6.167210    1.590650    1.041850
  H     11.592600   -0.905360   -2.397120
  H     13.334320   -3.383610    1.709240
  H     16.097650   -4.503720   -3.744180
  H     17.219580   -5.817770   -1.815530
  H     12.467540   -1.830240   -4.165200
  H     15.083410   -3.138670   -5.034640
  H     15.087470   -3.684940   -7.305870
  H     14.216360   -3.493850   -9.564820
  H     11.128020    0.260510   -9.329720
  H     13.013900    0.031070   -4.958640
  H     12.848380   -2.468660  -11.186750
  H      9.009250   -1.064580  -14.496600
  H      4.965390    0.414190  -10.989040
  H      4.633890    0.730770  -15.231490
  H      6.925610   -0.185510  -15.498690
  H      7.004370   -0.466580   -9.970300

 Total Charge           Charge          ....    0
 Multiplicity           Mult            ....    1
 Number of Electrons    NEL             ....  520
 Basis Dimension        Dim             .... 1182

ORBITAL ENERGIES
----------------

  NO   OCC          E(Eh)            E(eV)
   0   2.0000     -88.985287     -2421.4128
   1   2.0000     -88.962182     -2420.7841
   2   2.0000     -66.203683     -1801.4938
   3   2.0000     -66.187338     -1801.0490
   4   2.0000     -24.783841      -674.4026
   5   2.0000     -24.774804      -674.1567
   6   2.0000     -19.213101      -522.8151
   7   2.0000     -19.197522      -522.3911
   8   2.0000     -14.414110      -392.2279
   9   2.0000     -14.411771      -392.1642
  10   2.0000     -14.399205      -391.8223
  11   2.0000     -14.397909      -391.7870
  12   2.0000     -10.367731      -282.1203
  13   2.0000     -10.363814      -282.0137
  14   2.0000     -10.357564      -281.8436
  15   2.0000     -10.348299      -281.5915
  16   2.0000     -10.341592      -281.4090
  17   2.0000     -10.336226      -281.2630
  18   2.0000     -10.335311      -281.2381
  19   2.0000     -10.331365      -281.1307
  20   2.0000     -10.324529      -280.9447
  21   2.0000     -10.319565      -280.8096
  22   2.0000     -10.316420      -280.7240
  23   2.0000     -10.316034      -280.7136
  24   2.0000     -10.314555      -280.6733
  25   2.0000     -10.314064      -280.6600
  26   2.0000     -10.311490      -280.5899
  27   2.0000     -10.307437      -280.4796
  28   2.0000     -10.307083      -280.4700
  29   2.0000     -10.305799      -280.4351
  30   2.0000     -10.304230      -280.3924
  31   2.0000     -10.304086      -280.3884
  32   2.0000     -10.303801      -280.3807
  33   2.0000     -10.303205      -280.3645
  34   2.0000     -10.302752      -280.3521
  35   2.0000     -10.302419      -280.3431
  36   2.0000     -10.301768      -280.3254
  37   2.0000     -10.301430      -280.3162
  38   2.0000     -10.299223      -280.2561
  39   2.0000     -10.298466      -280.2355
  40   2.0000     -10.298306      -280.2312
  41   2.0000     -10.297611      -280.2122
  42   2.0000     -10.297145      -280.1995
  43   2.0000     -10.296847      -280.1915
  44   2.0000     -10.296148      -280.1724
  45   2.0000     -10.296102      -280.1712
  46   2.0000     -10.295379      -280.1515
  47   2.0000     -10.295342      -280.1505
  48   2.0000     -10.293788      -280.1082
  49   2.0000     -10.293370      -280.0968
  50   2.0000     -10.292783      -280.0809
  51   2.0000     -10.292650      -280.0772
  52   2.0000     -10.290750      -280.0255
  53   2.0000     -10.287827      -279.9460
  54   2.0000     -10.287693      -279.9423
  55   2.0000     -10.287661      -279.9415
  56   2.0000     -10.287145      -279.9274
  57   2.0000     -10.286043      -279.8975
  58   2.0000     -10.285780      -279.8903
  59   2.0000     -10.283046      -279.8159
  60   2.0000     -10.282772      -279.8085
  61   2.0000     -10.282743      -279.8077
  62   2.0000     -10.282207      -279.7931
  63   2.0000     -10.281432      -279.7720
  64   2.0000     -10.280475      -279.7460
  65   2.0000     -10.278822      -279.7010
  66   2.0000     -10.277054      -279.6529
  67   2.0000     -10.277021      -279.6519
  68   2.0000     -10.276494      -279.6376
  69   2.0000     -10.274642      -279.5872
  70   2.0000     -10.269377      -279.4440
  71   2.0000     -10.262226      -279.2494
  72   2.0000     -10.259232      -279.1679
  73   2.0000     -10.243786      -278.7476
  74   2.0000      -8.080311      -219.8764
  75   2.0000      -8.057686      -219.2608
  76   2.0000      -6.049810      -164.6237
  77   2.0000      -6.045171      -164.4975
  78   2.0000      -6.042413      -164.4224
  79   2.0000      -6.027087      -164.0054
  80   2.0000      -6.022868      -163.8906
  81   2.0000      -6.019742      -163.8055
  82   2.0000      -5.374764      -146.2548
  83   2.0000      -5.358186      -145.8037
  84   2.0000      -3.741915      -101.8227
  85   2.0000      -3.733592      -101.5962
  86   2.0000      -3.732363      -101.5628
  87   2.0000      -3.725194      -101.3677
  88   2.0000      -3.717279      -101.1523
  89   2.0000      -3.715685      -101.1089
  90   2.0000      -1.298302       -35.3286
  91   2.0000      -1.288800       -35.0700
  92   2.0000      -1.127114       -30.6703
  93   2.0000      -1.111307       -30.2402
  94   2.0000      -1.017475       -27.6869
  95   2.0000      -1.014009       -27.5926
  96   2.0000      -1.002744       -27.2860
  97   2.0000      -0.998686       -27.1756
  98   2.0000      -0.997213       -27.1355
  99   2.0000      -0.990081       -26.9415
 100   2.0000      -0.985738       -26.8233
 101   2.0000      -0.980831       -26.6898
 102   2.0000      -0.976010       -26.5586
 103   2.0000      -0.973190       -26.4819
 104   2.0000      -0.971407       -26.4333
 105   2.0000      -0.960949       -26.1487
 106   2.0000      -0.937470       -25.5099
 107   2.0000      -0.927852       -25.2481
 108   2.0000      -0.918914       -25.0049
 109   2.0000      -0.914404       -24.8822
 110   2.0000      -0.911428       -24.8012
 111   2.0000      -0.904113       -24.6022
 112   2.0000      -0.895808       -24.3762
 113   2.0000      -0.893754       -24.3203
 114   2.0000      -0.884352       -24.0644
 115   2.0000      -0.881464       -23.9858
 116   2.0000      -0.877697       -23.8833
 117   2.0000      -0.872050       -23.7297
 118   2.0000      -0.865356       -23.5475
 119   2.0000      -0.849117       -23.1056
 120   2.0000      -0.844746       -22.9867
 121   2.0000      -0.832296       -22.6479
 122   2.0000      -0.827798       -22.5255
 123   2.0000      -0.820133       -22.3170
 124   2.0000      -0.813482       -22.1360
 125   2.0000      -0.802635       -21.8408
 126   2.0000      -0.798196       -21.7200
 127   2.0000      -0.789798       -21.4915
 128   2.0000      -0.783470       -21.3193
 129   2.0000      -0.769917       -20.9505
 130   2.0000      -0.764975       -20.8160
 131   2.0000      -0.757772       -20.6200
 132   2.0000      -0.754103       -20.5202
 133   2.0000      -0.744361       -20.2551
 134   2.0000      -0.730842       -19.8872
 135   2.0000      -0.730269       -19.8716
 136   2.0000      -0.718535       -19.5523
 137   2.0000      -0.710133       -19.3237
 138   2.0000      -0.707297       -19.2465
 139   2.0000      -0.697497       -18.9799
 140   2.0000      -0.695440       -18.9239
 141   2.0000      -0.685078       -18.6419
 142   2.0000      -0.678816       -18.4715
 143   2.0000      -0.670011       -18.2319
 144   2.0000      -0.666619       -18.1396
 145   2.0000      -0.663926       -18.0663
 146   2.0000      -0.663166       -18.0457
 147   2.0000      -0.657501       -17.8915
 148   2.0000      -0.651204       -17.7202
 149   2.0000      -0.646376       -17.5888
 150   2.0000      -0.637042       -17.3348
 151   2.0000      -0.630964       -17.1694
 152   2.0000      -0.629190       -17.1211
 153   2.0000      -0.626688       -17.0530
 154   2.0000      -0.622842       -16.9484
 155   2.0000      -0.617737       -16.8095
 156   2.0000      -0.612521       -16.6675
 157   2.0000      -0.612135       -16.6570
 158   2.0000      -0.604987       -16.4625
 159   2.0000      -0.598944       -16.2981
 160   2.0000      -0.593138       -16.1401
 161   2.0000      -0.586517       -15.9599
 162   2.0000      -0.579905       -15.7800
 163   2.0000      -0.577951       -15.7269
 164   2.0000      -0.572052       -15.5663
 165   2.0000      -0.565826       -15.3969
 166   2.0000      -0.564301       -15.3554
 167   2.0000      -0.560573       -15.2540
 168   2.0000      -0.556265       -15.1367
 169   2.0000      -0.556000       -15.1295
 170   2.0000      -0.552871       -15.0444
 171   2.0000      -0.551560       -15.0087
 172   2.0000      -0.546852       -14.8806
 173   2.0000      -0.546081       -14.8596
 174   2.0000      -0.540577       -14.7099
 175   2.0000      -0.537219       -14.6185
 176   2.0000      -0.534803       -14.5527
 177   2.0000      -0.534226       -14.5370
 178   2.0000      -0.529992       -14.4218
 179   2.0000      -0.525624       -14.3030
 180   2.0000      -0.522138       -14.2081
 181   2.0000      -0.521620       -14.1940
 182   2.0000      -0.519850       -14.1458
 183   2.0000      -0.519307       -14.1311
 184   2.0000      -0.518029       -14.0963
 185   2.0000      -0.517229       -14.0745
 186   2.0000      -0.514883       -14.0107
 187   2.0000      -0.510952       -13.9037
 188   2.0000      -0.509805       -13.8725
 189   2.0000      -0.508380       -13.8337
 190   2.0000      -0.505866       -13.7653
 191   2.0000      -0.505391       -13.7524
 192   2.0000      -0.501590       -13.6489
 193   2.0000      -0.500339       -13.6149
 194   2.0000      -0.497392       -13.5347
 195   2.0000      -0.495519       -13.4838
 196   2.0000      -0.488822       -13.3015
 197   2.0000      -0.487258       -13.2590
 198   2.0000      -0.484310       -13.1787
 199   2.0000      -0.483099       -13.1458
 200   2.0000      -0.479435       -13.0461
 201   2.0000      -0.474735       -12.9182
 202   2.0000      -0.472945       -12.8695
 203   2.0000      -0.471150       -12.8207
 204   2.0000      -0.466654       -12.6983
 205   2.0000      -0.464607       -12.6426
 206   2.0000      -0.462974       -12.5982
 207   2.0000      -0.458473       -12.4757
 208   2.0000      -0.456289       -12.4163
 209   2.0000      -0.454972       -12.3804
 210   2.0000      -0.454291       -12.3619
 211   2.0000      -0.448974       -12.2172
 212   2.0000      -0.448194       -12.1960
 213   2.0000      -0.446494       -12.1497
 214   2.0000      -0.443679       -12.0731
 215   2.0000      -0.441371       -12.0103
 216   2.0000      -0.437745       -11.9116
 217   2.0000      -0.436187       -11.8693
 218   2.0000      -0.435652       -11.8547
 219   2.0000      -0.432139       -11.7591
 220   2.0000      -0.427865       -11.6428
 221   2.0000      -0.426719       -11.6116
 222   2.0000      -0.426641       -11.6095
 223   2.0000      -0.425797       -11.5865
 224   2.0000      -0.425238       -11.5713
 225   2.0000      -0.422343       -11.4925
 226   2.0000      -0.420390       -11.4394
 227   2.0000      -0.418583       -11.3902
 228   2.0000      -0.413619       -11.2552
 229   2.0000      -0.412816       -11.2333
 230   2.0000      -0.411987       -11.2107
 231   2.0000      -0.407044       -11.0762
 232   2.0000      -0.401927       -10.9370
 233   2.0000      -0.400159       -10.8889
 234   2.0000      -0.399372       -10.8675
 235   2.0000      -0.396889       -10.7999
 236   2.0000      -0.387913       -10.5557
 237   2.0000      -0.385412       -10.4876
 238   2.0000      -0.382952       -10.4207
 239   2.0000      -0.382869       -10.4184
 240   2.0000      -0.377711       -10.2780
 241   2.0000      -0.371401       -10.1063
 242   2.0000      -0.366564        -9.9747
 243   2.0000      -0.363984        -9.9045
 244   2.0000      -0.350078        -9.5261
 245   2.0000      -0.336739        -9.1631
 246   2.0000      -0.329043        -8.9537
 247   2.0000      -0.325948        -8.8695
 248   2.0000      -0.321165        -8.7394
 249   2.0000      -0.311764        -8.4835
 250   2.0000      -0.307913        -8.3787
 251   2.0000      -0.294668        -8.0183
 252   2.0000      -0.294425        -8.0117
 253   2.0000      -0.291128        -7.9220
 254   2.0000      -0.288009        -7.8371
 255   2.0000      -0.281176        -7.6512
 256   2.0000      -0.276084        -7.5126
 257   2.0000      -0.267014        -7.2658
 258   2.0000      -0.259774        -7.0688
 259   2.0000      -0.230778        -6.2798
 260   0.0000      -0.122702        -3.3389
 261   0.0000      -0.109483        -2.9792
 262   0.0000      -0.082617        -2.2481
 263   0.0000      -0.069974        -1.9041
 264   0.0000      -0.056460        -1.5364

MULLIKEN ATOMIC CHARGES
-----------------------
   0 C :   -0.098710
   1 C :    0.304599
   2 F :   -0.191648
   3 C :   -0.031439
   4 C :   -0.010537
   5 C :    0.100132
   6 C :    0.103463
   7 C :   -0.093602
   8 C :    0.056116
   9 C :    0.004379
  10 C :   -0.080299
  11 C :    0.138576
  12 O :   -0.144122
  13 C :   -0.121790
  14 C :    0.249769
  15 C :   -0.314314
  16 C :   -0.186135
  17 N :    0.163797
  18 C :   -0.180693
  19 N :    0.149748
  20 C :   -0.002689
  21 C :    0.053522
  22 C :    0.033026
  23 C :   -0.012207
  24 C :    0.107312
  25 C :   -0.003220
  26 C :   -0.165571
  27 Si:    0.365389
  28 C :   -0.155033
  29 C :   -0.020265
  30 C :   -0.150413
  31 C :   -0.000479
  32 C :    0.045627
  33 C :    0.071688
  34 C :   -0.134144
  35 S :    0.161713
  36 C :   -0.115430
  37 C :    0.058838
  38 C :   -0.003381
  39 C :   -0.066737
  40 S :    0.132173
  41 C :    0.074761
  42 C :   -0.014105
  43 C :   -0.032079
  44 C :    0.157575
  45 C :   -0.041943
  46 C :    0.038261
  47 C :    0.070865
  48 C :   -0.044387
  49 C :   -0.169793
  50 Si:    0.339606
  51 C :   -0.186961
  52 C :   -0.000317
  53 C :   -0.005199
  54 C :   -0.133899
  55 C :    0.138941
  56 O :   -0.155578
  57 C :    0.012285
  58 C :   -0.092427
  59 C :    0.105280
  60 C :    0.107758
  61 C :   -0.102611
  62 C :    0.304443
  63 C :   -0.030616
  64 C :   -0.014710
  65 F :   -0.195154
  66 C :   -0.102390
  67 C :    0.052711
  68 C :    0.266284
  69 C :   -0.319405
  70 C :   -0.191872
  71 N :    0.156734
  72 C :   -0.192249
  73 N :    0.144178
  74 H :   -0.000223
  75 H :    0.003819
  76 H :   -0.008829
  77 H :   -0.008314
  78 H :   -0.011763
  79 H :    0.026398
  80 H :   -0.002321
  81 H :   -0.005632
  82 H :    0.017738
  83 H :    0.017653
  84 H :    0.003262
  85 H :    0.039181
  86 H :   -0.011891
  87 H :    0.028042
  88 H :    0.013302
  89 H :   -0.035953
  90 H :   -0.019990
  91 H :   -0.004665
  92 H :    0.013929
  93 H :    0.017053
  94 H :    0.014919
  95 H :   -0.017318
  96 H :   -0.005192
  97 H :   -0.001121
  98 H :   -0.012687
  99 H :   -0.010395
Sum of atomic charges:   -0.0000000

LOEWDIN ATOMIC CHARGES
----------------------
   0 C :   -0.042157
   1 C :    0.093716
   2 F :   -0.066063
   3 C :   -0.037453
   4 C :    0.004381
   5 C :   -0.019472
   6 C :    0.003768
   7 C :    0.008508
   8 C :   -0.016812
   9 C :   -0.060790
  10 C :    0.034663
  11 C :    0.083789
  12 O :   -0.145644
  13 C :   -0.092746
  14 C :    0.058989
  15 C :   -0.122749
  16 C :   -0.008458
  17 N :   -0.052749
  18 C :   -0.015830
  19 N :   -0.051808
  20 C :    0.069843
  21 C :   -0.039276
  22 C :    0.041795
  23 C :   -0.013444
  24 C :   -0.006795
  25 C :   -0.011160
  26 C :   -0.204818
  27 Si:    0.438527
  28 C :   -0.229755
  29 C :   -0.008780
  30 C :   -0.157047
  31 C :   -0.010727
  32 C :   -0.008947
  33 C :   -0.049165
  34 C :   -0.138705
  35 S :    0.476066
  36 C :   -0.200869
  37 C :   -0.035988
  38 C :   -0.064659
  39 C :   -0.163468
  40 S :    0.426462
  41 C :   -0.050987
  42 C :    0.017790
  43 C :   -0.032474
  44 C :    0.040443
  45 C :   -0.044635
  46 C :    0.053341
  47 C :   -0.059937
  48 C :   -0.002933
  49 C :   -0.242765
  50 Si:    0.409541
  51 C :   -0.204916
  52 C :    0.001010
  53 C :    0.066846
  54 C :   -0.109206
  55 C :    0.082243
  56 O :   -0.155980
  57 C :   -0.058605
  58 C :    0.029957
  59 C :   -0.021081
  60 C :    0.002859
  61 C :   -0.043289
  62 C :    0.091226
  63 C :   -0.041572
  64 C :    0.002744
  65 F :   -0.069789
  66 C :    0.004397
  67 C :   -0.014076
  68 C :    0.058285
  69 C :   -0.132751
  70 C :   -0.006893
  71 N :   -0.064856
  72 C :   -0.016886
  73 N :   -0.060671
  74 H :    0.043553
  75 H :    0.041901
  76 H :    0.035652
  77 H :    0.038713
  78 H :    0.039574
  79 H :    0.047994
  80 H :    0.039154
  81 H :    0.035568
  82 H :    0.013345
  83 H :    0.024640
  84 H :    0.044610
  85 H :    0.037819
  86 H :    0.028921
  87 H :    0.024637
  88 H :    0.036951
  89 H :    0.028259
  90 H :    0.029728
  91 H :    0.037922
  92 H :    0.023576
  93 H :    0.021206
  94 H :    0.043771
  95 H :    0.037614
  96 H :    0.042260
  97 H :    0.039970
  98 H :    0.034196
  99 H :    0.037907

  Mayer bond orders larger than 0.100000
B(  0-C ,  1-C ) :   1.4402 B(  0-C ,  6-C ) :   1.2041 B(  0-C , 74-H ) :   1.0062
B(  1-C ,  2-F ) :   1.0879 B(  1-C ,  3-C ) :   1.2543 B(  3-C ,  4-C ) :   1.4606
B(  3-C , 75-H ) :   0.9931 B(  4-C ,  5-C ) :   1.2350 B(  4-C , 76-H ) :   0.9966
B(  5-C ,  6-C ) :   1.2545 B(  5-C , 10-C ) :   1.1907 B(  6-C ,  7-C ) :   1.1993
B(  7-C ,  8-C ) :   1.4608 B(  7-C , 77-H ) :   0.9939 B(  8-C ,  9-C ) :   1.2112
B(  8-C , 14-C ) :   1.0103 B(  9-C , 10-C ) :   1.4729 B(  9-C , 11-C ) :   0.9225
B( 10-C , 78-H ) :   1.0147 B( 11-C , 12-O ) :   2.2704 B( 11-C , 13-C ) :   0.9329
B( 13-C , 14-C ) :   1.0414 B( 13-C , 20-C ) :   1.6665 B( 14-C , 15-C ) :   1.6305
B( 15-C , 16-C ) :   1.1742 B( 15-C , 18-C ) :   1.1422 B( 16-C , 17-N ) :   2.9904
B( 18-C , 19-N ) :   2.9701 B( 20-C , 21-C ) :   1.0762 B( 20-C , 79-H ) :   0.9438
B( 21-C , 22-C ) :   1.4928 B( 21-C , 29-C ) :   1.1087 B( 22-C , 23-C ) :   1.1689
B( 22-C , 80-H ) :   0.9926 B( 23-C , 24-C ) :   1.5532 B( 23-C , 81-H ) :   0.9903
B( 24-C , 25-C ) :   1.1309 B( 24-C , 30-C ) :   0.9827 B( 25-C , 26-C ) :   1.6239
B( 25-C , 27-Si) :   0.1341 B( 25-C , 29-C ) :   1.0082 B( 26-C , 27-Si) :   1.0122
B( 26-C , 28-C ) :   0.1056 B( 26-C , 82-H ) :   0.9309 B( 27-Si, 28-C ) :   0.9883
B( 27-Si, 29-C ) :   0.1304 B( 28-C , 29-C ) :   1.6801 B( 28-C , 83-H ) :   0.9112
B( 30-C , 31-C ) :   1.5955 B( 30-C , 35-S ) :   1.0678 B( 31-C , 32-C ) :   1.2096
B( 31-C , 84-H ) :   0.9695 B( 32-C , 33-C ) :   1.0591 B( 32-C , 41-C ) :   1.3814
B( 33-C , 34-C ) :   1.5904 B( 33-C , 36-C ) :   1.1800 B( 34-C , 35-S ) :   1.1450
B( 34-C , 85-H ) :   0.9423 B( 36-C , 37-C ) :   1.4527 B( 36-C , 40-S ) :   1.0798
B( 37-C , 38-C ) :   1.2164 B( 37-C , 41-C ) :   1.0773 B( 38-C , 39-C ) :   1.5860
B( 38-C , 86-H ) :   0.9995 B( 39-C , 40-S ) :   1.1572 B( 39-C , 87-H ) :   0.9649
B( 41-C , 42-C ) :   1.1850 B( 42-C , 43-C ) :   1.5851 B( 42-C , 88-H ) :   0.9533
B( 43-C , 44-C ) :   1.1538 B( 43-C , 89-H ) :   0.9724 B( 44-C , 45-C ) :   1.4272
B( 44-C , 52-C ) :   1.0877 B( 45-C , 46-C ) :   1.2429 B( 45-C , 90-H ) :   0.9890
B( 46-C , 47-C ) :   1.4108 B( 46-C , 91-H ) :   0.9902 B( 47-C , 48-C ) :   1.0944
B( 47-C , 53-C ) :   1.1452 B( 48-C , 49-C ) :   1.6714 B( 48-C , 50-Si) :   0.1425
B( 48-C , 52-C ) :   0.9997 B( 49-C , 50-Si) :   1.0050 B( 49-C , 92-H ) :   0.9131
B( 50-Si, 51-C ) :   0.9620 B( 50-Si, 52-C ) :   0.1250 B( 51-C , 52-C ) :   1.6813
B( 51-C , 93-H ) :   0.9296 B( 53-C , 54-C ) :   1.5816 B( 53-C , 94-H ) :   0.9412
B( 54-C , 55-C ) :   0.9496 B( 54-C , 68-C ) :   1.0697 B( 55-C , 56-O ) :   2.2548
B( 55-C , 57-C ) :   0.9176 B( 57-C , 58-C ) :   1.4746 B( 57-C , 67-C ) :   1.2173
B( 58-C , 59-C ) :   1.1799 B( 58-C , 95-H ) :   1.0169 B( 59-C , 60-C ) :   1.2612
B( 59-C , 64-C ) :   1.2366 B( 60-C , 61-C ) :   1.2006 B( 60-C , 66-C ) :   1.1940
B( 61-C , 62-C ) :   1.4390 B( 61-C , 96-H ) :   1.0079 B( 62-C , 63-C ) :   1.2578
B( 62-C , 65-F ) :   1.0842 B( 63-C , 64-C ) :   1.4554 B( 63-C , 97-H ) :   0.9931
B( 64-C , 98-H ) :   0.9974 B( 66-C , 67-C ) :   1.4613 B( 66-C , 99-H ) :   0.9947
B( 67-C , 68-C ) :   0.9995 B( 68-C , 69-C ) :   1.6081 B( 69-C , 70-C ) :   1.1764
B( 69-C , 72-C ) :   1.1449 B( 70-C , 71-N ) :   2.9893 B( 72-C , 73-N ) :   2.9698

-----------------------------------------------------------------------------
         ABSORPTION SPECTRUM VIA TRANSITION ELECTRIC DIPOLE MOMENTS
-----------------------------------------------------------------------------
State   Energy  Wavelength   fosc         T2         TX        TY        TZ
        (cm-1)    (nm)                  (au**2)     (au)      (au)      (au)
-----------------------------------------------------------------------------
   0    8162.0   1225.2   0.205021848   8.26952  -0.05306  -0.17428  -2.86990
   1    9790.3   1021.4   0.147563477   4.96200  -1.86162   1.20307  -0.22139
   2   11219.5    891.3   0.011665805   0.34231   0.14784  -0.30249   0.47849
   3   14148.4    706.8   0.089738650   2.08809   0.27203  -1.00115   1.00587
   4   15188.0    658.4   0.126983403   2.75247  -1.05018  -0.56900   1.15145
   5   15508.9    644.8   0.101513578   2.15486   0.42345  -0.88032  -1.09571
   6   17518.8    570.8   0.194778180   3.66025  -0.90441  -0.19920  -1.67410
   7   18257.5    547.7   0.135083210   2.43576   0.54807   0.54337   1.35651
   8   19198.3    520.9   0.363965810   6.24127  -2.21797   0.96079  -0.63147
   9   19612.7    509.9   0.027468468   0.46108   0.39417  -0.43228   0.34473
  10   19719.9    507.1   0.078979090   1.31851  -0.86531   0.20626  -0.72608
  11   20784.1    481.1   0.031597309   0.50049  -0.20124  -0.12550   0.66651
  12   21405.3    467.2   0.005502130   0.08462   0.17406  -0.13314   0.19131
  13   21573.3    463.5   0.007599212   0.11597  -0.33620   0.01954  -0.05054
  14   21964.3    455.3   0.019493819   0.29218   0.06829  -0.34780   0.40811
  15   22433.3    445.8   0.200135415   2.93702  -1.36133   0.68253   0.78611
  16   24552.7    407.3   0.000196209   0.00263  -0.04215  -0.00087  -0.02921
  17   24721.9    404.5   0.016309932   0.21719   0.28583   0.09797  -0.35482
  18   24807.6    403.1   0.008721993   0.11575  -0.27341  -0.20085  -0.02553
  19   24862.1    402.2   0.042435729   0.56191  -0.34329  -0.07095  -0.66259
  20   24934.3    401.1   0.122510739   1.61753  -0.12639  -0.05956   1.26412
  21   25357.2    394.4   0.031980937   0.41521  -0.45428   0.08963  -0.44811
  22   25439.8    393.1   0.025424462   0.32901  -0.19762  -0.03563  -0.53730
  23   25532.3    391.7   0.025335204   0.32667  -0.25325   0.14189  -0.49235
  24   26540.7    376.8   0.025527246   0.31664  -0.36804   0.42376  -0.04012
  25   27174.5    368.0   0.061061647   0.73975   0.40116  -0.14553   0.74675
  26   27298.4    366.3   0.212191304   2.55897   1.45080  -0.67087  -0.06378
  27   27748.8    360.4   0.019086479   0.22644   0.46827   0.01837   0.08261
  28   27888.0    358.6   0.005377002   0.06347  -0.11108  -0.07015   0.21497
  29   27959.0    357.7   0.006740054   0.07936  -0.11198   0.06897  -0.24913
  30   28007.4    357.0   0.026291716   0.30905   0.12564   0.17187  -0.51354
  31   28156.7    355.2   0.017062143   0.19949  -0.40586  -0.05491   0.17820
  32   28758.4    347.7   0.003884382   0.04447  -0.12296  -0.10077   0.13854
  33   28924.5    345.7   0.010882609   0.12386  -0.12175   0.03617   0.32823
  34   29468.9    339.3   0.018873816   0.21085   0.18155  -0.40081  -0.13129
  35   29577.3    338.1   0.026424572   0.29412   0.37993   0.05631   0.38288
  36   29777.2    335.8   0.067426379   0.74546   0.32013   0.36869  -0.71207
  37   30008.8    333.2   0.052302751   0.57379  -0.61304   0.40687   0.18007
  38   30472.4    328.2   0.138840416   1.49998   0.72711   0.15741   0.97289
  39   30544.4    327.4   0.079256523   0.85424   0.08333   0.15515  -0.90732
  40   30750.5    325.2   0.029794017   0.31897  -0.48272   0.20578   0.20882
  41   30913.5    323.5   0.000594281   0.00633   0.00782  -0.07916   0.00075
  42   31446.3    318.0   0.005484704   0.05742  -0.11434  -0.07221   0.19782
  43   31766.3    314.8   0.146053233   1.51363  -1.09438   0.24077   0.50794
  44   32064.1    311.9   0.067796907   0.69609   0.00208   0.12868  -0.82434
  45   32436.1    308.3   0.086649164   0.87945  -0.10840   0.60044   0.71216
  46   32553.3    307.2   0.036689403   0.37104  -0.44097   0.41949   0.02481
  47   32732.7    305.5   0.024872566   0.25016  -0.17907   0.34869  -0.31066
  48   32961.7    303.4   0.039488538   0.39440  -0.20851   0.37089  -0.46191
  49   33128.7    301.9   0.066111878   0.65698   0.42247  -0.69023   0.04565
  50   33268.5    300.6   0.099922060   0.98879   0.08191   0.40442  -0.90472
  51   33388.0    299.5   0.028300166   0.27904  -0.05974   0.09275   0.51660
  52   33494.1    298.6   0.037679060   0.37035  -0.42951   0.21547   0.37342
  53   33621.0    297.4   0.050072272   0.49030  -0.60188   0.13180   0.33268
  54   33799.9    295.9   0.061479174   0.59881   0.05817   0.13002   0.76060
  55   33899.2    295.0   0.045707949   0.44389   0.06878  -0.16087   0.64287
  56   33975.6    294.3   0.248381230   2.40673   0.11625   0.06792   1.54551
  57   34244.1    292.0   0.017601435   0.16921  -0.19878   0.34250  -0.11132
  58   34405.6    290.6   0.105947036   1.01376  -0.69113   0.50196   0.53305
  59   34623.1    288.8   0.007928662   0.07539   0.15602   0.00133   0.22593
  60   34714.0    288.1   0.042108527   0.39934   0.18707  -0.57232   0.19182
  61   34959.8    286.0   0.017868459   0.16826  -0.33957   0.21612   0.07907
  62   35054.4    285.3   0.053166282   0.49931   0.47011  -0.32728  -0.41375
  63   35223.9    283.9   0.309787039   2.89535   1.33773  -1.02646   0.22853
  64   35443.1    282.1   0.023532673   0.21858   0.15219  -0.27734  -0.34424
  65   35600.6    280.9   0.531239377   4.91257   1.91340  -1.06288  -0.34891
  66   35922.6    278.4   0.453022136   4.15172  -1.21514   0.73623  -1.46052
  67   36031.9    277.5   0.311140809   2.84279   1.47808  -0.68932   0.42770
  68   36121.3    276.8   0.008446926   0.07699  -0.20249   0.18858  -0.02053
  69   36312.1    275.4   0.009539439   0.08649   0.10497   0.04494  -0.27101
  70   36396.1    274.8   0.058285553   0.52721   0.55631  -0.24952   0.39429
  71   36526.1    273.8   0.131988667   1.18962  -1.03151   0.21582   0.28113
  72   36717.9    272.3   0.069370946   0.62198   0.74598  -0.14845   0.20846
  73   36801.6    271.7   0.035042249   0.31347   0.43486  -0.30881  -0.17031
  74   37134.2    269.3   0.000984544   0.00873   0.00047  -0.08904   0.02830
  75   37175.6    269.0   0.014544467   0.12880  -0.02367   0.24828   0.25806
  76   37394.6    267.4   0.004792914   0.04220   0.09172   0.13470   0.12505
  77   37587.5    266.0   0.169267161   1.48253   0.64886  -1.02863  -0.05861
  78   37942.0    263.6   0.022318619   0.19365   0.17755   0.02947  -0.40157
  79   38265.4    261.3   0.004546097   0.03911  -0.17391  -0.03509   0.08738
  80   38275.8    261.3   0.018523187   0.15932   0.34960  -0.13732   0.13506
  81   38362.9    260.7   0.037280645   0.31992   0.34480  -0.44202  -0.07523
  82   38527.5    259.6   0.080962910   0.69182  -0.07410  -0.02443  -0.82809
  83   38826.1    257.6   0.042941608   0.36411  -0.32918   0.20109   0.46401
  84   38979.9    256.5   0.094562037   0.79864   0.60844   0.59192  -0.27942
  85   39134.9    255.5   0.051876222   0.43639   0.11670  -0.31335   0.56972
  86   39181.8    255.2   0.017983774   0.15110  -0.13332  -0.29608   0.21369
  87   39496.6    253.2   0.004746959   0.03957   0.08399  -0.14019  -0.11339
  88   39577.2    252.7   0.020344272   0.16923   0.15270  -0.24399   0.29391
  89   39811.0    251.2   0.069598511   0.57554  -0.38941   0.45582   0.46490
  90   40055.0    249.7   0.021972104   0.18059  -0.26530   0.33012   0.03498
  91   40143.1    249.1   0.051669868   0.42374  -0.62966  -0.12222  -0.11103
  92   40277.4    248.3   0.020477202   0.16737   0.00418   0.14708  -0.38174

FINAL SINGLE POINT ENERGY     -4318.278319458207

DIPOLE MOMENT
-------------
                                X             Y             Z
Electronic contribution:    -20.55339       0.70789       9.79396
Nuclear contribution   :     22.18469       0.04630      -7.62826
                        -----------------------------------------
Total Dipole Moment    :      1.63130       0.75419       2.16571
                        -----------------------------------------
Magnitude (a.u.)       :      2.81429
Magnitude (Debye)      :      7.15335

Rotational constants in cm-1:     0.000712     0.000554     0.000334
Rotational constants in MHz :    21.332683    16.610120    10.000400

                             ****ORCA TERMINATED NORMALLY****
TOTAL RUN TIME: 0 days 0 hours 14 minutes 44 seconds 392 msec
