                         Program Version 4.2.0 -  RELEASE  -
|  1> # ORCA input file
|  2> # SCF done       -157.650031230226          0.000767298802
|  3> ! CAM-B3LYP def2-SVP def2/J RIJCOSX Grid4 TightSCF
|  4> %maxcore 5000
|  5> %tddft
|  6>     Mode sTDDFT
|  7>     Ethresh 5.0
|  8>     maxcore 5000
|  9> end
| 10>
| 11> %pal
| 12>   nprocs 6
| 13>   end
| 14> * xyz 0 1
| 15>    C       -8.13043        -2.99279         8.69976
| 16>    C       -7.90708        -4.09273         9.51407
| 17>    C       -7.21229        -5.20212         9.04960
| 18>    C       -6.71668        -5.24169         7.75580
| 19>    C       -6.93791        -4.15069         6.93052
| 20>    C       -7.64782        -3.02016         7.40001
| 21>    C       -7.73276        -2.03417         6.33189
| 22>    C       -8.19780        -0.75557         6.43856
| 23>    C       -8.69535        -0.19270         7.63522
| 24>    N       -9.11026         0.31787         8.57459
| 25>    C       -8.20051         0.18829         5.38700
| 26>    N       -8.21997         0.99816         4.57474
| 27>    C       -7.21702        -2.68677         5.12485
| 28>    C       -6.50322        -3.88921         5.57127
| 29>    C       -5.45414        -4.48927         4.93294
| 30>    C       -4.85706        -3.96602         3.76364
| 31>    N       -4.31946        -3.53187         2.84834
| 32>    C       -4.84012        -5.68735         5.34828
| 33>    N       -4.33815        -6.69264         5.58346
| 34>    C       -7.52857        -2.32356         3.85437
| 35>    C       -7.36294        -3.12435         2.68237
| 36>    S       -7.47086        -4.86660         2.73940
| 37>    C       -7.06527        -5.00589         1.07790
| 38>    C       -6.91988        -3.75893         0.50081
| 39>    C       -7.12040        -2.69619         1.40063
| 40>    N       -6.47719        -3.53660        -0.84623
| 41>    O       -5.80327        -4.39608        -1.36461
| 42>    O       -6.79026        -2.48278        -1.34945
| 43>    C       -6.82454        -6.32288         0.54075
| 44>    N       -7.23649        -6.66848        -0.65735
| 45>    N       -6.96196        -7.82852        -1.17401
| 46>    C       -6.24219        -8.76619        -0.57157
| 47>    C       -5.76534        -8.51063         0.74607
| 48>    C       -6.09604        -7.25181         1.33170
| 49>    N       -5.61827        -7.12579         2.56735
| 50>    S       -4.82752        -8.47109         2.95228
| 51>    N       -5.05892        -9.27079         1.57881
| 52>    C       -5.93011        -9.97784        -1.26919
| 53>    C       -6.51576       -10.57952        -2.37373
| 54>    C       -7.85297       -10.26945        -2.99097
| 55>    O       -8.54075       -11.18232        -3.37957
| 56>    O       -8.23787        -9.01897        -3.10223
| 57>    C       -5.81492       -11.75893        -2.76612
| 58>    C       -4.73399       -12.01016        -1.95054
| 59>    S       -4.55385       -10.88033        -0.69694
| 60>    C       -6.11220       -12.61337        -3.89165
| 61>    C       -5.84404       -13.96201        -3.96449
| 62>    C       -6.19287       -14.49796        -5.20872
| 63>    C       -6.71180       -13.53258        -6.08142
| 64>    S       -6.78727       -11.98690        -5.37754
| 65>    C       -7.04455       -14.17617        -7.31230
| 66>    C       -6.73248       -15.53487        -7.20527
| 67>    C       -6.18171       -15.78549        -5.88352
| 68>    C       -5.73323       -16.97367        -5.38266
| 69>    C       -5.19327       -17.07942        -4.08450
| 70>    N       -4.74496       -17.16489        -3.03202
| 71>    C       -5.76691       -18.16886        -6.12995
| 72>    N       -5.78992       -19.14512        -6.73143
| 73>    C       -7.03180       -16.25048        -8.38001
| 74>    C       -7.55636       -15.43353        -9.33556
| 75>    S       -7.69866       -13.78079        -8.83682
| 76>    H       -8.67313        -2.14193         9.07745
| 77>    H       -8.28185        -4.08409        10.52592
| 78>    H       -7.05561        -6.04594         9.70372
| 79>    H       -6.18236        -6.10801         7.39987
| 80>    H       -7.99093        -1.35951         3.68726
| 81>    H       -7.01109        -1.66465         1.11729
| 82>    H       -7.70101        -8.37105        -2.56395
| 83>    H       -4.03251       -12.81510        -2.04837
| 84>    H       -5.44623       -14.52948        -3.14324
| 85>    H       -6.87342       -17.30464        -8.51599
| 86>    H       -7.87731       -15.70027       -10.32255
| 87> *
| 88>
| 89>                          ****END OF INPUT****

CARTESIAN COORDINATES (ANGSTROEM)
---------------------------------
  C     -8.130430   -2.992790    8.699760
  C     -7.907080   -4.092730    9.514070
  C     -7.212290   -5.202120    9.049600
  C     -6.716680   -5.241690    7.755800
  C     -6.937910   -4.150690    6.930520
  C     -7.647820   -3.020160    7.400010
  C     -7.732760   -2.034170    6.331890
  C     -8.197800   -0.755570    6.438560
  C     -8.695350   -0.192700    7.635220
  N     -9.110260    0.317870    8.574590
  C     -8.200510    0.188290    5.387000
  N     -8.219970    0.998160    4.574740
  C     -7.217020   -2.686770    5.124850
  C     -6.503220   -3.889210    5.571270
  C     -5.454140   -4.489270    4.932940
  C     -4.857060   -3.966020    3.763640
  N     -4.319460   -3.531870    2.848340
  C     -4.840120   -5.687350    5.348280
  N     -4.338150   -6.692640    5.583460
  C     -7.528570   -2.323560    3.854370
  C     -7.362940   -3.124350    2.682370
  S     -7.470860   -4.866600    2.739400
  C     -7.065270   -5.005890    1.077900
  C     -6.919880   -3.758930    0.500810
  C     -7.120400   -2.696190    1.400630
  N     -6.477190   -3.536600   -0.846230
  O     -5.803270   -4.396080   -1.364610
  O     -6.790260   -2.482780   -1.349450
  C     -6.824540   -6.322880    0.540750
  N     -7.236490   -6.668480   -0.657350
  N     -6.961960   -7.828520   -1.174010
  C     -6.242190   -8.766190   -0.571570
  C     -5.765340   -8.510630    0.746070
  C     -6.096040   -7.251810    1.331700
  N     -5.618270   -7.125790    2.567350
  S     -4.827520   -8.471090    2.952280
  N     -5.058920   -9.270790    1.578810
  C     -5.930110   -9.977840   -1.269190
  C     -6.515760  -10.579520   -2.373730
  C     -7.852970  -10.269450   -2.990970
  O     -8.540750  -11.182320   -3.379570
  O     -8.237870   -9.018970   -3.102230
  C     -5.814920  -11.758930   -2.766120
  C     -4.733990  -12.010160   -1.950540
  S     -4.553850  -10.880330   -0.696940
  C     -6.112200  -12.613370   -3.891650
  C     -5.844040  -13.962010   -3.964490
  C     -6.192870  -14.497960   -5.208720
  C     -6.711800  -13.532580   -6.081420
  S     -6.787270  -11.986900   -5.377540
  C     -7.044550  -14.176170   -7.312300
  C     -6.732480  -15.534870   -7.205270
  C     -6.181710  -15.785490   -5.883520
  C     -5.733230  -16.973670   -5.382660
  C     -5.193270  -17.079420   -4.084500
  N     -4.744960  -17.164890   -3.032020
  C     -5.766910  -18.168860   -6.129950
  N     -5.789920  -19.145120   -6.731430
  C     -7.031800  -16.250480   -8.380010
  C     -7.556360  -15.433530   -9.335560
  S     -7.698660  -13.780790   -8.836820
  H     -8.673130   -2.141930    9.077450
  H     -8.281850   -4.084090   10.525920
  H     -7.055610   -6.045940    9.703720
  H     -6.182360   -6.108010    7.399870
  H     -7.990930   -1.359510    3.687260
  H     -7.011090   -1.664650    1.117290
  H     -7.701010   -8.371050   -2.563950
  H     -4.032510  -12.815100   -2.048370
  H     -5.446230  -14.529480   -3.143240
  H     -6.873420  -17.304640   -8.515990
  H     -7.877310  -15.700270  -10.322550

 Total Charge           Charge          ....    0
 Multiplicity           Mult            ....    1
 Number of Electrons    NEL             ....  446
 Basis Dimension        Dim             ....  929

ORBITAL ENERGIES
----------------

  NO   OCC          E(Eh)            E(eV)
   0   2.0000     -89.073391     -2423.8102
   1   2.0000     -89.008380     -2422.0412
   2   2.0000     -88.985424     -2421.4165
   3   2.0000     -88.976994     -2421.1871
   4   2.0000     -88.974971     -2421.1320
   5   2.0000     -19.254949      -523.9538
   6   2.0000     -19.254410      -523.9391
   7   2.0000     -19.229757      -523.2683
   8   2.0000     -19.187354      -522.1144
   9   2.0000     -14.663761      -399.0212
  10   2.0000     -14.487111      -394.2143
  11   2.0000     -14.486526      -394.1984
  12   2.0000     -14.485162      -394.1613
  13   2.0000     -14.481157      -394.0523
  14   2.0000     -14.449165      -393.1818
  15   2.0000     -14.441720      -392.9792
  16   2.0000     -14.440596      -392.9486
  17   2.0000     -14.439372      -392.9153
  18   2.0000     -14.419647      -392.3785
  19   2.0000     -14.418068      -392.3356
  20   2.0000     -10.398146      -282.9480
  21   2.0000     -10.381689      -282.5001
  22   2.0000     -10.376957      -282.3714
  23   2.0000     -10.373833      -282.2864
  24   2.0000     -10.372642      -282.2539
  25   2.0000     -10.372317      -282.2451
  26   2.0000     -10.372149      -282.2405
  27   2.0000     -10.372082      -282.2387
  28   2.0000     -10.370451      -282.1943
  29   2.0000     -10.362465      -281.9770
  30   2.0000     -10.357689      -281.8471
  31   2.0000     -10.354820      -281.7690
  32   2.0000     -10.352657      -281.7101
  33   2.0000     -10.351208      -281.6707
  34   2.0000     -10.349789      -281.6321
  35   2.0000     -10.348033      -281.5843
  36   2.0000     -10.342618      -281.4370
  37   2.0000     -10.342020      -281.4207
  38   2.0000     -10.340782      -281.3870
  39   2.0000     -10.339527      -281.3528
  40   2.0000     -10.337484      -281.2972
  41   2.0000     -10.335600      -281.2460
  42   2.0000     -10.335267      -281.2369
  43   2.0000     -10.329644      -281.0839
  44   2.0000     -10.322827      -280.8984
  45   2.0000     -10.321340      -280.8579
  46   2.0000     -10.320985      -280.8483
  47   2.0000     -10.320699      -280.8405
  48   2.0000     -10.319348      -280.8037
  49   2.0000     -10.319145      -280.7982
  50   2.0000     -10.318695      -280.7860
  51   2.0000     -10.317789      -280.7613
  52   2.0000     -10.316972      -280.7391
  53   2.0000     -10.314818      -280.6805
  54   2.0000     -10.310247      -280.5561
  55   2.0000     -10.309904      -280.5468
  56   2.0000     -10.301199      -280.3099
  57   2.0000     -10.287864      -279.9470
  58   2.0000     -10.287477      -279.9365
  59   2.0000     -10.287145      -279.9275
  60   2.0000     -10.285326      -279.8780
  61   2.0000      -8.164202      -222.1592
  62   2.0000      -8.102898      -220.4911
  63   2.0000      -8.080750      -219.8884
  64   2.0000      -8.072020      -219.6508
  65   2.0000      -8.069277      -219.5762
  66   2.0000      -6.135237      -166.9483
  67   2.0000      -6.127327      -166.7330
  68   2.0000      -6.127062      -166.7258
  69   2.0000      -6.072278      -165.2351
  70   2.0000      -6.067785      -165.1128
  71   2.0000      -6.065150      -165.0411
  72   2.0000      -6.049998      -164.6288
  73   2.0000      -6.045411      -164.5040
  74   2.0000      -6.043284      -164.4461
  75   2.0000      -6.041227      -164.3901
  76   2.0000      -6.038460      -164.3149
  77   2.0000      -6.036836      -164.2707
  78   2.0000      -6.034674      -164.2118
  79   2.0000      -6.034144      -164.1974
  80   2.0000      -6.031885      -164.1359
  81   2.0000      -1.338246       -36.4155
  82   2.0000      -1.180181       -32.1144
  83   2.0000      -1.169145       -31.8141
  84   2.0000      -1.158740       -31.5309
  85   2.0000      -1.155508       -31.4430
  86   2.0000      -1.081735       -29.4355
  87   2.0000      -1.061824       -28.8937
  88   2.0000      -1.047962       -28.5165
  89   2.0000      -1.040197       -28.3052
  90   2.0000      -1.032001       -28.0822
  91   2.0000      -1.030341       -28.0370
  92   2.0000      -1.028856       -27.9966
  93   2.0000      -1.021130       -27.7864
  94   2.0000      -1.018502       -27.7148
  95   2.0000      -1.013166       -27.5696
  96   2.0000      -1.009478       -27.4693
  97   2.0000      -0.996753       -27.1230
  98   2.0000      -0.983604       -26.7652
  99   2.0000      -0.981803       -26.7162
 100   2.0000      -0.971774       -26.4433
 101   2.0000      -0.963873       -26.2283
 102   2.0000      -0.955218       -25.9928
 103   2.0000      -0.943675       -25.6787
 104   2.0000      -0.937031       -25.4979
 105   2.0000      -0.918541       -24.9948
 106   2.0000      -0.907410       -24.6919
 107   2.0000      -0.900844       -24.5132
 108   2.0000      -0.887710       -24.1558
 109   2.0000      -0.880152       -23.9502
 110   2.0000      -0.870410       -23.6851
 111   2.0000      -0.860616       -23.4185
 112   2.0000      -0.848721       -23.0949
 113   2.0000      -0.839363       -22.8402
 114   2.0000      -0.823816       -22.4172
 115   2.0000      -0.818700       -22.2780
 116   2.0000      -0.814035       -22.1510
 117   2.0000      -0.794494       -21.6193
 118   2.0000      -0.784960       -21.3599
 119   2.0000      -0.771215       -20.9858
 120   2.0000      -0.763811       -20.7844
 121   2.0000      -0.752442       -20.4750
 122   2.0000      -0.739393       -20.1199
 123   2.0000      -0.736267       -20.0348
 124   2.0000      -0.729815       -19.8593
 125   2.0000      -0.713817       -19.4240
 126   2.0000      -0.706542       -19.2260
 127   2.0000      -0.696420       -18.9506
 128   2.0000      -0.695581       -18.9277
 129   2.0000      -0.691411       -18.8142
 130   2.0000      -0.687923       -18.7193
 131   2.0000      -0.686620       -18.6839
 132   2.0000      -0.677815       -18.4443
 133   2.0000      -0.668001       -18.1772
 134   2.0000      -0.662997       -18.0411
 135   2.0000      -0.660803       -17.9814
 136   2.0000      -0.652431       -17.7536
 137   2.0000      -0.645391       -17.5620
 138   2.0000      -0.642736       -17.4897
 139   2.0000      -0.636657       -17.3243
 140   2.0000      -0.628760       -17.1094
 141   2.0000      -0.613218       -16.6865
 142   2.0000      -0.611433       -16.6379
 143   2.0000      -0.608914       -16.5694
 144   2.0000      -0.605440       -16.4749
 145   2.0000      -0.603086       -16.4108
 146   2.0000      -0.599898       -16.3241
 147   2.0000      -0.595404       -16.2018
 148   2.0000      -0.590302       -16.0629
 149   2.0000      -0.569303       -15.4915
 150   2.0000      -0.568021       -15.4566
 151   2.0000      -0.562857       -15.3161
 152   2.0000      -0.560053       -15.2398
 153   2.0000      -0.557372       -15.1669
 154   2.0000      -0.551914       -15.0183
 155   2.0000      -0.550465       -14.9789
 156   2.0000      -0.541497       -14.7349
 157   2.0000      -0.539113       -14.6700
 158   2.0000      -0.534185       -14.5359
 159   2.0000      -0.532982       -14.5032
 160   2.0000      -0.528518       -14.3817
 161   2.0000      -0.527129       -14.3439
 162   2.0000      -0.525966       -14.3123
 163   2.0000      -0.520428       -14.1616
 164   2.0000      -0.519515       -14.1367
 165   2.0000      -0.514121       -13.9899
 166   2.0000      -0.509904       -13.8752
 167   2.0000      -0.503949       -13.7132
 168   2.0000      -0.500124       -13.6091
 169   2.0000      -0.493490       -13.4285
 170   2.0000      -0.489969       -13.3327
 171   2.0000      -0.486851       -13.2479
 172   2.0000      -0.485092       -13.2000
 173   2.0000      -0.481694       -13.1076
 174   2.0000      -0.479309       -13.0427
 175   2.0000      -0.478465       -13.0197
 176   2.0000      -0.477681       -12.9984
 177   2.0000      -0.473925       -12.8962
 178   2.0000      -0.471088       -12.8189
 179   2.0000      -0.469265       -12.7694
 180   2.0000      -0.468309       -12.7433
 181   2.0000      -0.466254       -12.6874
 182   2.0000      -0.464598       -12.6424
 183   2.0000      -0.462343       -12.5810
 184   2.0000      -0.457526       -12.4499
 185   2.0000      -0.455562       -12.3965
 186   2.0000      -0.452910       -12.3243
 187   2.0000      -0.451533       -12.2868
 188   2.0000      -0.450788       -12.2666
 189   2.0000      -0.449542       -12.2327
 190   2.0000      -0.446516       -12.1503
 191   2.0000      -0.443757       -12.0752
 192   2.0000      -0.440325       -11.9819
 193   2.0000      -0.439292       -11.9537
 194   2.0000      -0.437357       -11.9011
 195   2.0000      -0.432598       -11.7716
 196   2.0000      -0.429907       -11.6984
 197   2.0000      -0.429294       -11.6817
 198   2.0000      -0.427698       -11.6383
 199   2.0000      -0.418867       -11.3980
 200   2.0000      -0.415422       -11.3042
 201   2.0000      -0.413404       -11.2493
 202   2.0000      -0.407613       -11.0917
 203   2.0000      -0.405826       -11.0431
 204   2.0000      -0.404537       -11.0080
 205   2.0000      -0.400180       -10.8895
 206   2.0000      -0.396617       -10.7925
 207   2.0000      -0.391905       -10.6643
 208   2.0000      -0.386694       -10.5225
 209   2.0000      -0.382583       -10.4106
 210   2.0000      -0.375210       -10.2100
 211   2.0000      -0.368571       -10.0293
 212   2.0000      -0.364508        -9.9188
 213   2.0000      -0.353121        -9.6089
 214   2.0000      -0.351538        -9.5658
 215   2.0000      -0.347991        -9.4693
 216   2.0000      -0.339024        -9.2253
 217   2.0000      -0.330250        -8.9866
 218   2.0000      -0.328742        -8.9455
 219   2.0000      -0.322435        -8.7739
 220   2.0000      -0.308398        -8.3919
 221   2.0000      -0.305063        -8.3012
 222   2.0000      -0.258612        -7.0372
 223   0.0000      -0.128874        -3.5068
 224   0.0000      -0.111321        -3.0292
 225   0.0000      -0.108148        -2.9428
 226   0.0000      -0.088584        -2.4105
 227   0.0000      -0.060843        -1.6556

MULLIKEN ATOMIC CHARGES
-----------------------
   0 C :   -0.029289
   1 C :    0.050883
   2 C :    0.050459
   3 C :   -0.034363
   4 C :    0.019741
   5 C :    0.013675
   6 C :    0.277393
   7 C :   -0.330109
   8 C :   -0.185988
   9 N :    0.174014
  10 C :   -0.188338
  11 N :    0.175511
  12 C :   -0.065757
  13 C :    0.195535
  14 C :   -0.319661
  15 C :   -0.186463
  16 N :    0.190049
  17 C :   -0.149193
  18 N :    0.140058
  19 C :    0.092919
  20 C :   -0.149899
  21 S :    0.225116
  22 C :   -0.184156
  23 C :    0.229590
  24 C :    0.036843
  25 N :    0.255384
  26 O :   -0.217085
  27 O :   -0.227882
  28 C :   -0.066508
  29 N :    0.034918
  30 N :   -0.159413
  31 C :    0.128610
  32 C :   -0.022679
  33 C :    0.067067
  34 N :   -0.261156
  35 S :    0.592006
  36 N :   -0.250217
  37 C :   -0.228893
  38 C :    0.011884
  39 C :    0.140140
  40 O :   -0.199318
  41 O :   -0.156310
  42 C :    0.080147
  43 C :   -0.096747
  44 S :    0.201946
  45 C :   -0.085771
  46 C :   -0.033833
  47 C :   -0.000351
  48 C :   -0.101649
  49 S :    0.232680
  50 C :   -0.117394
  51 C :   -0.032260
  52 C :    0.301584
  53 C :   -0.307698
  54 C :   -0.189229
  55 N :    0.162236
  56 C :   -0.190474
  57 N :    0.167232
  58 C :    0.032980
  59 C :   -0.082816
  60 S :    0.182765
  61 H :    0.012049
  62 H :    0.011374
  63 H :    0.011370
  64 H :    0.006816
  65 H :    0.039060
  66 H :    0.023694
  67 H :    0.198672
  68 H :    0.043515
  69 H :   -0.001963
  70 H :    0.010261
  71 H :    0.032686
Sum of atomic charges:    0.0000000

LOEWDIN ATOMIC CHARGES
----------------------
   0 C :    0.008788
   1 C :    0.008446
   2 C :    0.009423
   3 C :    0.001759
   4 C :   -0.010911
   5 C :   -0.011770
   6 C :    0.075204
   7 C :   -0.119881
   8 C :   -0.019577
   9 N :   -0.032465
  10 C :   -0.023459
  11 N :   -0.030197
  12 C :   -0.044057
  13 C :    0.058818
  14 C :   -0.128722
  15 C :   -0.033393
  16 N :   -0.033675
  17 C :   -0.008519
  18 N :   -0.063155
  19 C :    0.047966
  20 C :   -0.180657
  21 S :    0.538147
  22 C :   -0.140370
  23 C :   -0.043372
  24 C :    0.008688
  25 N :    0.284530
  26 O :   -0.185838
  27 O :   -0.191226
  28 C :   -0.039767
  29 N :   -0.010981
  30 N :   -0.022935
  31 C :    0.010936
  32 C :   -0.064994
  33 C :   -0.056245
  34 N :   -0.279250
  35 S :    0.724754
  36 N :   -0.269763
  37 C :   -0.186690
  38 C :   -0.071497
  39 C :    0.055070
  40 O :   -0.178104
  41 O :   -0.025158
  42 C :   -0.056220
  43 C :   -0.159079
  44 S :    0.511065
  45 C :   -0.167236
  46 C :   -0.027612
  47 C :   -0.081299
  48 C :   -0.178710
  49 S :    0.523576
  50 C :   -0.182665
  51 C :   -0.077612
  52 C :    0.087457
  53 C :   -0.113939
  54 C :   -0.014357
  55 N :   -0.045872
  56 C :   -0.017330
  57 N :   -0.040883
  58 C :   -0.035523
  59 C :   -0.181351
  60 S :    0.479674
  61 H :    0.043617
  62 H :    0.040912
  63 H :    0.040407
  64 H :    0.040956
  65 H :    0.056115
  66 H :    0.052637
  67 H :    0.039708
  68 H :    0.033176
  69 H :    0.036700
  70 H :    0.041629
  71 H :    0.026159

  Mayer bond orders larger than 0.100000
B(  0-C ,  1-C ) :   1.3757 B(  0-C ,  5-C ) :   1.3803 B(  0-C , 61-H ) :   0.9842
B(  1-C ,  2-C ) :   1.3724 B(  1-C , 62-H ) :   0.9857 B(  2-C ,  3-C ) :   1.3719
B(  2-C , 63-H ) :   0.9861 B(  3-C ,  4-C ) :   1.3756 B(  3-C , 64-H ) :   0.9875
B(  4-C ,  5-C ) :   1.3040 B(  4-C , 13-C ) :   1.0334 B(  5-C ,  6-C ) :   1.0130
B(  6-C ,  7-C ) :   1.6769 B(  6-C , 12-C ) :   1.0205 B(  7-C ,  8-C ) :   1.1413
B(  7-C , 10-C ) :   1.1316 B(  8-C ,  9-N ) :   2.9841 B( 10-C , 11-N ) :   2.9912
B( 12-C , 13-C ) :   0.9864 B( 12-C , 19-C ) :   1.6956 B( 13-C , 14-C ) :   1.6725
B( 14-C , 15-C ) :   1.1465 B( 14-C , 17-C ) :   1.1485 B( 15-C , 16-N ) :   3.0092
B( 17-C , 18-N ) :   2.9493 B( 19-C , 20-C ) :   1.0846 B( 19-C , 65-H ) :   0.9367
B( 20-C , 21-S ) :   1.1229 B( 20-C , 22-C ) :   0.1022 B( 20-C , 24-C ) :   1.4458
B( 21-S , 22-C ) :   1.2135 B( 22-C , 23-C ) :   1.5099 B( 22-C , 28-C ) :   1.0357
B( 23-C , 24-C ) :   1.2659 B( 23-C , 25-N ) :   0.8941 B( 24-C , 66-H ) :   1.0087
B( 25-N , 26-O ) :   1.5562 B( 25-N , 27-O ) :   1.5438 B( 26-O , 27-O ) :   0.2792
B( 28-C , 29-N ) :   1.7267 B( 28-C , 33-C ) :   1.1136 B( 29-N , 30-N ) :   1.2279
B( 30-N , 31-C ) :   1.5526 B( 30-N , 67-H ) :   0.1670 B( 31-C , 32-C ) :   1.1156
B( 31-C , 37-C ) :   1.1498 B( 32-C , 33-C ) :   1.2198 B( 32-C , 36-N ) :   1.5266
B( 33-C , 34-N ) :   1.5225 B( 34-N , 35-S ) :   1.2790 B( 34-N , 36-N ) :   0.1404
B( 35-S , 36-N ) :   1.2937 B( 37-C , 38-C ) :   1.4620 B( 37-C , 44-S ) :   1.1701
B( 38-C , 39-C ) :   0.8763 B( 38-C , 42-C ) :   1.2864 B( 39-C , 40-O ) :   2.1029
B( 39-C , 41-O ) :   1.3407 B( 41-O , 67-H ) :   0.8585 B( 42-C , 43-C ) :   1.5157
B( 42-C , 45-C ) :   1.0163 B( 43-C , 44-S ) :   1.1780 B( 43-C , 68-H ) :   0.9666
B( 45-C , 46-C ) :   1.5175 B( 45-C , 49-S ) :   1.1258 B( 46-C , 47-C ) :   1.2690
B( 46-C , 69-H ) :   0.9945 B( 47-C , 48-C ) :   1.4471 B( 47-C , 52-C ) :   1.0010
B( 48-C , 49-S ) :   1.1729 B( 48-C , 50-C ) :   1.1673 B( 50-C , 51-C ) :   1.4655
B( 50-C , 60-S ) :   1.1411 B( 51-C , 52-C ) :   1.0110 B( 51-C , 58-C ) :   1.2780
B( 52-C , 53-C ) :   1.6991 B( 53-C , 54-C ) :   1.1364 B( 53-C , 56-C ) :   1.1306
B( 54-C , 55-N ) :   2.9908 B( 56-C , 57-N ) :   3.0025 B( 58-C , 59-C ) :   1.5490
B( 58-C , 70-H ) :   0.9961 B( 59-C , 60-S ) :   1.1519 B( 59-C , 71-H ) :   0.9639

-----------------------------------------------------------------------------
         ABSORPTION SPECTRUM VIA TRANSITION ELECTRIC DIPOLE MOMENTS
-----------------------------------------------------------------------------
State   Energy  Wavelength   fosc         T2         TX        TY        TZ
        (cm-1)    (nm)                  (au**2)     (au)      (au)      (au)
-----------------------------------------------------------------------------
   0   15495.3    645.4   0.162333011   3.44891   0.00288   1.24130   1.38133
   1   16249.7    615.4   0.093346353   1.89116   0.31466  -1.14271  -0.69739
   2   21446.4    466.3   0.400774567   6.15208   0.12847   1.68245   1.81795
   3   22313.5    448.2   0.012753697   0.18817  -0.22109   0.36696   0.06805
   4   22568.4    443.1   0.083572654   1.21910  -0.08974  -0.84950  -0.69957
   5   24899.5    401.6   0.418179922   5.52902   0.66720  -1.90616  -1.20434
   6   25317.5    395.0   0.006953135   0.09041   0.15827  -0.25513  -0.01653
   7   26308.2    380.1   0.062005437   0.77591  -0.28101   0.37613  -0.74530
   8   26811.8    373.0   0.010453801   0.12836   0.18051  -0.29512   0.09315
   9   27483.7    363.9   0.256025472   3.06679   0.38096  -1.14509  -1.26902
  10   27838.1    359.2   0.052428047   0.62001   0.41693  -0.36632  -0.55856
  11   28796.8    347.3   0.061668485   0.70501  -0.41749   0.04856   0.72688
  12   30328.3    329.7   0.021699882   0.23555   0.26977   0.07199  -0.39698
  13   30590.3    326.9   0.061424333   0.66105  -0.53140   0.61366   0.04571
  14   31032.0    322.2   0.463677026   4.91905  -0.51022   2.14209  -0.26489
  15   31189.2    320.6   0.148802274   1.57066  -0.51703   1.02935   0.49373
  16   31592.0    316.5   0.006202034   0.06463   0.18132   0.00935  -0.17795
  17   31959.4    312.9   0.031090124   0.32026  -0.28911   0.47017   0.12495
  18   32151.4    311.0   0.005361347   0.05490  -0.03185   0.17936   0.14735
  19   32302.3    309.6   0.061548481   0.62728  -0.43734   0.12571   0.64824
  20   32473.6    307.9   0.142307533   1.44269   0.57516  -1.01784  -0.27547
  21   32868.2    304.2   0.192322616   1.92633  -0.48804   1.00158  -0.82764
  22   33189.7    301.3   0.218454416   2.16687  -0.75552   1.02749   0.73508
  23   33331.5    300.0   0.086800020   0.85732   0.10964  -0.29326   0.87137
  24   33635.7    297.3   0.043859937   0.42928   0.12029  -0.51344  -0.38883
  25   33975.2    294.3   0.024198553   0.23448   0.20854  -0.20863   0.38401
  26   34332.7    291.3   0.040539300   0.38873  -0.25957  -0.54610  -0.15206
  27   34666.5    288.5   0.224429207   2.13130   0.31220  -1.02471   0.99187
  28   35246.8    283.7   0.208252235   1.94512  -0.18804  -1.36780   0.19717
  29   35408.7    282.4   0.020134664   0.18720   0.00494   0.10870   0.41876
  30   35513.0    281.6   0.644307618   5.97285   0.16216   0.83025   2.29287
  31   35738.0    279.8   0.470809290   4.33701   0.76459   0.70406   1.80463
  32   36254.7    275.8   0.028415091   0.25802   0.29350   0.41030   0.05949
  33   36376.7    274.9   0.032380999   0.29305  -0.16913  -0.36711   0.36011
  34   36523.0    273.8   0.023973858   0.21610   0.09830   0.37456  -0.25717
  35   36644.1    272.9   0.002514438   0.02259   0.00565  -0.02071   0.14876
  36   37079.4    269.7   0.010715606   0.09514   0.19097   0.01866  -0.24150
  37   37334.8    267.8   0.006417838   0.05659  -0.06729   0.06986   0.21721
  38   37646.9    265.6   0.032499652   0.28420   0.15299   0.08673  -0.50326
  39   38014.6    263.1   0.029321042   0.25392   0.14327   0.35964   0.32258
  40   38087.0    262.6   0.002567836   0.02220  -0.07775   0.03880  -0.12101
  41   38347.3    260.8   0.017303463   0.14855   0.22452  -0.27461   0.15076
  42   38464.3    260.0   0.015354703   0.13142  -0.26590   0.15961  -0.18773
  43   38624.0    258.9   0.016929061   0.14430  -0.11933   0.23751  -0.27137
  44   38784.3    257.8   0.021688412   0.18410  -0.01011  -0.18523  -0.38689
  45   38984.3    256.5   0.018402796   0.15541   0.00299  -0.38738   0.07305
  46   39172.3    255.3   0.021883246   0.18391   0.02912  -0.30395   0.30113
  47   39845.9    251.0   0.051521729   0.42568  -0.07476   0.53287  -0.36896
  48   40234.2    248.5   0.023663916   0.19363  -0.05170   0.22752   0.37308

FINAL SINGLE POINT ENERGY     -4459.112289759825

DIPOLE MOMENT
-------------
                                X             Y             Z
Electronic contribution:      4.74984      -0.13500      -9.74672
Nuclear contribution   :     -4.60367       0.81455      13.20043
                        -----------------------------------------
Total Dipole Moment    :      0.14617       0.67955       3.45371
                        -----------------------------------------
Magnitude (a.u.)       :      3.52297
Magnitude (Debye)      :      8.95467

Rotational constants in cm-1:     0.003433     0.000387     0.000361
Rotational constants in MHz :   102.930896    11.587907    10.830972

                             ****ORCA TERMINATED NORMALLY****
TOTAL RUN TIME: 0 days 0 hours 6 minutes 54 seconds 739 msec
