                         Program Version 4.2.0 -  RELEASE  -
|  1> # ORCA input file
|  2> # SCF done       -145.009959800844          0.000551059340
|  3> ! CAM-B3LYP def2-SVP def2/J RIJCOSX Grid4 TightSCF
|  4> %maxcore 5000
|  5> %tddft
|  6>     Mode sTDDFT
|  7>     Ethresh 5.0
|  8>     maxcore 5000
|  9> end
| 10>
| 11> %pal
| 12>   nprocs 6
| 13>   end
| 14> * xyz 0 1
| 15>    C       -1.98549        -0.87978        -2.66385
| 16>    C       -1.32591        -0.74129        -1.44850
| 17>    N       -0.87087         0.41891        -1.01861
| 18>    C       -1.07258         1.47406        -1.80938
| 19>    N       -1.69142         1.44830        -2.99199
| 20>    C       -2.14038         0.28161        -3.40977
| 21>    C       -0.59197         2.75279        -1.36369
| 22>    C        0.07542         3.05617        -0.19860
| 23>    C        0.37136         4.41972        -0.11916
| 24>    C       -0.08498         5.13632        -1.24282
| 25>    S       -0.86731         4.14204        -2.38652
| 26>    C        0.25145         6.50300        -1.06722
| 27>    C        0.91814         6.65170         0.15789
| 28>    C        1.01443         5.34349         0.79562
| 29>    C        1.58321         5.06230         2.00352
| 30>    C        2.17364         6.06263         2.80370
| 31>    N        2.65154         6.87458         3.45761
| 32>    C        1.61816         3.75745         2.53905
| 33>    N        1.65594         2.70330         2.98846
| 34>    C        1.28103         7.97056         0.42634
| 35>    C        0.88953         8.83470        -0.58143
| 36>    S        0.06714         7.98862        -1.88978
| 37>    C        1.07179        10.24645        -0.64226
| 38>    C        0.55021        11.01322        -1.65644
| 39>    C        0.66877        12.39739        -1.75935
| 40>    C        1.30567        13.17281        -0.68445
| 41>    C        1.91004        12.62320         0.39103
| 42>    S        2.00744        10.93517         0.67958
| 43>    C        1.11764        14.53700        -1.03801
| 44>    C        0.41635        14.61564        -2.24153
| 45>    C        0.19661        15.95129        -2.64406
| 46>    C        0.72244        16.83199        -1.75314
| 47>    S        1.50529        16.08476        -0.40077
| 48>    C        0.15407        13.28498        -2.72476
| 49>    C       -0.49921        13.02338        -3.95341
| 50>    C       -0.43932        11.87034        -4.67152
| 51>    C       -1.13547        11.64155        -5.88293
| 52>    C       -2.08310        12.42962        -6.52190
| 53>    C       -2.54256        11.84796        -7.69927
| 54>    C       -1.94679        10.60556        -7.97260
| 55>    S       -0.82304        10.15297        -6.76714
| 56>    C       -2.47873        10.10972        -9.18864
| 57>    C       -3.41483        11.03492        -9.68200
| 58>    C       -3.49109        12.15385        -8.76519
| 59>    C       -4.28343        13.26092        -8.86600
| 60>    C       -5.17606        13.44798        -9.94149
| 61>    N       -5.90239        13.60164       -10.81560
| 62>    C       -4.26212        14.28730        -7.89995
| 63>    N       -4.24332        15.12385        -7.11537
| 64>    C       -3.99231        10.62845       -10.89000
| 65>    C       -3.50701         9.41491       -11.31972
| 66>    S       -2.30907         8.75268       -10.20540
| 67>    C       -3.85515         8.68837       -12.50944
| 68>    C       -3.22396         7.48865       -12.86766
| 69>    N       -3.53223         6.81556       -13.95673
| 70>    C       -4.48146         7.32216       -14.72471
| 71>    N       -5.15016         8.43898       -14.49628
| 72>    C       -4.84746         9.11419       -13.40708
| 73>    H       -2.35473        -1.83132        -3.00723
| 74>    H       -1.15361        -1.58495        -0.79219
| 75>    H       -2.63827         0.28449        -4.37126
| 76>    H        0.31857         2.30918         0.53430
| 77>    H        1.79691         8.30022         1.31005
| 78>    H       -0.03082        10.48785        -2.40137
| 79>    H        2.38526        13.21707         1.15575
| 80>    H       -0.32144        16.25042        -3.53696
| 81>    H        0.70406        17.90327        -1.80010
| 82>    H       -1.05591        13.85617        -4.36238
| 83>    H        0.20824        11.06781        -4.35042
| 84>    H       -2.41970        13.37351        -6.13581
| 85>    H       -4.72762        11.19725       -11.42867
| 86>    H       -2.44168         7.06430       -12.24863
| 87>    H       -4.73447         6.77261       -15.62105
| 88>    H       -5.41339        10.02102       -13.24179
| 89> *
| 90>
| 91>                          ****END OF INPUT****

CARTESIAN COORDINATES (ANGSTROEM)
---------------------------------
  C     -1.985490   -0.879780   -2.663850
  C     -1.325910   -0.741290   -1.448500
  N     -0.870870    0.418910   -1.018610
  C     -1.072580    1.474060   -1.809380
  N     -1.691420    1.448300   -2.991990
  C     -2.140380    0.281610   -3.409770
  C     -0.591970    2.752790   -1.363690
  C      0.075420    3.056170   -0.198600
  C      0.371360    4.419720   -0.119160
  C     -0.084980    5.136320   -1.242820
  S     -0.867310    4.142040   -2.386520
  C      0.251450    6.503000   -1.067220
  C      0.918140    6.651700    0.157890
  C      1.014430    5.343490    0.795620
  C      1.583210    5.062300    2.003520
  C      2.173640    6.062630    2.803700
  N      2.651540    6.874580    3.457610
  C      1.618160    3.757450    2.539050
  N      1.655940    2.703300    2.988460
  C      1.281030    7.970560    0.426340
  C      0.889530    8.834700   -0.581430
  S      0.067140    7.988620   -1.889780
  C      1.071790   10.246450   -0.642260
  C      0.550210   11.013220   -1.656440
  C      0.668770   12.397390   -1.759350
  C      1.305670   13.172810   -0.684450
  C      1.910040   12.623200    0.391030
  S      2.007440   10.935170    0.679580
  C      1.117640   14.537000   -1.038010
  C      0.416350   14.615640   -2.241530
  C      0.196610   15.951290   -2.644060
  C      0.722440   16.831990   -1.753140
  S      1.505290   16.084760   -0.400770
  C      0.154070   13.284980   -2.724760
  C     -0.499210   13.023380   -3.953410
  C     -0.439320   11.870340   -4.671520
  C     -1.135470   11.641550   -5.882930
  C     -2.083100   12.429620   -6.521900
  C     -2.542560   11.847960   -7.699270
  C     -1.946790   10.605560   -7.972600
  S     -0.823040   10.152970   -6.767140
  C     -2.478730   10.109720   -9.188640
  C     -3.414830   11.034920   -9.682000
  C     -3.491090   12.153850   -8.765190
  C     -4.283430   13.260920   -8.866000
  C     -5.176060   13.447980   -9.941490
  N     -5.902390   13.601640  -10.815600
  C     -4.262120   14.287300   -7.899950
  N     -4.243320   15.123850   -7.115370
  C     -3.992310   10.628450  -10.890000
  C     -3.507010    9.414910  -11.319720
  S     -2.309070    8.752680  -10.205400
  C     -3.855150    8.688370  -12.509440
  C     -3.223960    7.488650  -12.867660
  N     -3.532230    6.815560  -13.956730
  C     -4.481460    7.322160  -14.724710
  N     -5.150160    8.438980  -14.496280
  C     -4.847460    9.114190  -13.407080
  H     -2.354730   -1.831320   -3.007230
  H     -1.153610   -1.584950   -0.792190
  H     -2.638270    0.284490   -4.371260
  H      0.318570    2.309180    0.534300
  H      1.796910    8.300220    1.310050
  H     -0.030820   10.487850   -2.401370
  H      2.385260   13.217070    1.155750
  H     -0.321440   16.250420   -3.536960
  H      0.704060   17.903270   -1.800100
  H     -1.055910   13.856170   -4.362380
  H      0.208240   11.067810   -4.350420
  H     -2.419700   13.373510   -6.135810
  H     -4.727620   11.197250  -11.428670
  H     -2.441680    7.064300  -12.248630
  H     -4.734470    6.772610  -15.621050
  H     -5.413390   10.021020  -13.241790

 Total Charge           Charge          ....    0
 Multiplicity           Mult            ....    1
 Number of Electrons    NEL             ....  432
 Basis Dimension        Dim             ....  916

ORBITAL ENERGIES
----------------

  NO   OCC          E(Eh)            E(eV)
   0   2.0000     -88.991944     -2421.5939
   1   2.0000     -88.988828     -2421.5091
   2   2.0000     -88.985325     -2421.4138
   3   2.0000     -88.984628     -2421.3948
   4   2.0000     -88.980534     -2421.2834
   5   2.0000     -88.958146     -2420.6742
   6   2.0000     -14.429349      -392.6425
   7   2.0000     -14.429277      -392.6406
   8   2.0000     -14.429185      -392.6381
   9   2.0000     -14.427340      -392.5879
  10   2.0000     -14.421675      -392.4337
  11   2.0000     -14.419391      -392.3716
  12   2.0000     -14.413826      -392.2202
  13   2.0000     -14.412871      -392.1941
  14   2.0000     -10.362839      -281.9872
  15   2.0000     -10.362441      -281.9764
  16   2.0000     -10.358188      -281.8606
  17   2.0000     -10.350235      -281.6442
  18   2.0000     -10.350173      -281.6425
  19   2.0000     -10.333240      -281.1817
  20   2.0000     -10.333236      -281.1816
  21   2.0000     -10.333009      -281.1755
  22   2.0000     -10.331725      -281.1405
  23   2.0000     -10.331616      -281.1376
  24   2.0000     -10.331407      -281.1319
  25   2.0000     -10.330636      -281.1109
  26   2.0000     -10.330523      -281.1078
  27   2.0000     -10.330144      -281.0975
  28   2.0000     -10.329843      -281.0893
  29   2.0000     -10.329822      -281.0887
  30   2.0000     -10.329757      -281.0870
  31   2.0000     -10.327369      -281.0220
  32   2.0000     -10.326227      -280.9909
  33   2.0000     -10.325496      -280.9710
  34   2.0000     -10.323808      -280.9251
  35   2.0000     -10.322105      -280.8788
  36   2.0000     -10.320044      -280.8227
  37   2.0000     -10.310155      -280.5536
  38   2.0000     -10.307335      -280.4768
  39   2.0000     -10.304468      -280.3988
  40   2.0000     -10.302610      -280.3483
  41   2.0000     -10.302243      -280.3383
  42   2.0000     -10.301854      -280.3277
  43   2.0000     -10.300992      -280.3042
  44   2.0000     -10.300750      -280.2977
  45   2.0000     -10.298701      -280.2419
  46   2.0000     -10.298572      -280.2384
  47   2.0000     -10.297992      -280.2226
  48   2.0000     -10.297511      -280.2095
  49   2.0000     -10.293777      -280.1079
  50   2.0000     -10.292713      -280.0790
  51   2.0000     -10.290910      -280.0299
  52   2.0000     -10.288469      -279.9635
  53   2.0000     -10.288030      -279.9515
  54   2.0000     -10.287401      -279.9344
  55   2.0000     -10.279617      -279.7226
  56   2.0000     -10.276127      -279.6276
  57   2.0000     -10.275136      -279.6007
  58   2.0000      -8.086286      -220.0390
  59   2.0000      -8.083258      -219.9566
  60   2.0000      -8.079376      -219.8510
  61   2.0000      -8.079353      -219.8504
  62   2.0000      -8.075736      -219.7519
  63   2.0000      -8.053481      -219.1464
  64   2.0000      -6.055580      -164.7807
  65   2.0000      -6.052511      -164.6972
  66   2.0000      -6.051493      -164.6695
  67   2.0000      -6.048569      -164.5899
  68   2.0000      -6.048547      -164.5893
  69   2.0000      -6.048514      -164.5884
  70   2.0000      -6.048320      -164.5832
  71   2.0000      -6.045690      -164.5116
  72   2.0000      -6.045386      -164.5033
  73   2.0000      -6.044444      -164.4777
  74   2.0000      -6.044264      -164.4728
  75   2.0000      -6.042023      -164.4118
  76   2.0000      -6.041787      -164.4054
  77   2.0000      -6.040773      -164.3778
  78   2.0000      -6.037507      -164.2889
  79   2.0000      -6.022948      -163.8927
  80   2.0000      -6.018684      -163.7767
  81   2.0000      -6.015500      -163.6901
  82   2.0000      -1.094770       -29.7902
  83   2.0000      -1.084949       -29.5230
  84   2.0000      -1.043016       -28.3819
  85   2.0000      -1.041460       -28.3396
  86   2.0000      -1.020499       -27.7692
  87   2.0000      -1.020438       -27.7675
  88   2.0000      -1.010332       -27.4925
  89   2.0000      -1.006909       -27.3994
  90   2.0000      -1.005694       -27.3663
  91   2.0000      -0.997665       -27.1478
  92   2.0000      -0.994481       -27.0612
  93   2.0000      -0.988415       -26.8961
  94   2.0000      -0.980479       -26.6802
  95   2.0000      -0.973864       -26.5002
  96   2.0000      -0.958618       -26.0853
  97   2.0000      -0.955284       -25.9946
  98   2.0000      -0.932390       -25.3716
  99   2.0000      -0.922160       -25.0933
 100   2.0000      -0.916864       -24.9491
 101   2.0000      -0.901365       -24.5274
 102   2.0000      -0.894519       -24.3411
 103   2.0000      -0.883895       -24.0520
 104   2.0000      -0.877750       -23.8848
 105   2.0000      -0.866827       -23.5876
 106   2.0000      -0.860452       -23.4141
 107   2.0000      -0.852552       -23.1991
 108   2.0000      -0.850870       -23.1534
 109   2.0000      -0.843542       -22.9539
 110   2.0000      -0.823458       -22.4074
 111   2.0000      -0.806445       -21.9445
 112   2.0000      -0.796892       -21.6845
 113   2.0000      -0.784887       -21.3579
 114   2.0000      -0.779859       -21.2211
 115   2.0000      -0.772714       -21.0266
 116   2.0000      -0.759905       -20.6781
 117   2.0000      -0.752334       -20.4720
 118   2.0000      -0.747621       -20.3438
 119   2.0000      -0.746594       -20.3159
 120   2.0000      -0.729290       -19.8450
 121   2.0000      -0.720266       -19.5994
 122   2.0000      -0.701850       -19.0983
 123   2.0000      -0.698350       -19.0031
 124   2.0000      -0.693179       -18.8624
 125   2.0000      -0.679302       -18.4848
 126   2.0000      -0.676269       -18.4022
 127   2.0000      -0.673416       -18.3246
 128   2.0000      -0.665039       -18.0966
 129   2.0000      -0.650539       -17.7021
 130   2.0000      -0.644029       -17.5249
 131   2.0000      -0.632979       -17.2242
 132   2.0000      -0.628768       -17.1097
 133   2.0000      -0.625988       -17.0340
 134   2.0000      -0.624454       -16.9922
 135   2.0000      -0.618852       -16.8398
 136   2.0000      -0.614759       -16.7284
 137   2.0000      -0.611082       -16.6284
 138   2.0000      -0.609813       -16.5939
 139   2.0000      -0.602801       -16.4030
 140   2.0000      -0.597388       -16.2558
 141   2.0000      -0.591000       -16.0819
 142   2.0000      -0.584486       -15.9047
 143   2.0000      -0.570880       -15.5344
 144   2.0000      -0.561406       -15.2766
 145   2.0000      -0.557126       -15.1602
 146   2.0000      -0.548008       -14.9121
 147   2.0000      -0.546960       -14.8835
 148   2.0000      -0.545253       -14.8371
 149   2.0000      -0.544152       -14.8071
 150   2.0000      -0.533559       -14.5189
 151   2.0000      -0.528762       -14.3883
 152   2.0000      -0.523685       -14.2502
 153   2.0000      -0.523364       -14.2415
 154   2.0000      -0.519418       -14.1341
 155   2.0000      -0.515737       -14.0339
 156   2.0000      -0.513301       -13.9676
 157   2.0000      -0.509323       -13.8594
 158   2.0000      -0.507322       -13.8049
 159   2.0000      -0.505077       -13.7438
 160   2.0000      -0.502717       -13.6796
 161   2.0000      -0.501950       -13.6587
 162   2.0000      -0.499380       -13.5888
 163   2.0000      -0.496746       -13.5171
 164   2.0000      -0.491724       -13.3805
 165   2.0000      -0.490417       -13.3449
 166   2.0000      -0.488563       -13.2945
 167   2.0000      -0.485500       -13.2111
 168   2.0000      -0.481594       -13.1048
 169   2.0000      -0.478478       -13.0200
 170   2.0000      -0.472479       -12.8568
 171   2.0000      -0.469186       -12.7672
 172   2.0000      -0.460825       -12.5397
 173   2.0000      -0.460013       -12.5176
 174   2.0000      -0.459562       -12.5053
 175   2.0000      -0.458158       -12.4671
 176   2.0000      -0.457031       -12.4364
 177   2.0000      -0.455715       -12.4006
 178   2.0000      -0.452615       -12.3163
 179   2.0000      -0.448625       -12.2077
 180   2.0000      -0.444507       -12.0957
 181   2.0000      -0.442515       -12.0415
 182   2.0000      -0.439736       -11.9658
 183   2.0000      -0.439390       -11.9564
 184   2.0000      -0.438425       -11.9301
 185   2.0000      -0.438393       -11.9293
 186   2.0000      -0.436648       -11.8818
 187   2.0000      -0.433810       -11.8046
 188   2.0000      -0.432631       -11.7725
 189   2.0000      -0.425680       -11.5833
 190   2.0000      -0.424888       -11.5618
 191   2.0000      -0.421278       -11.4636
 192   2.0000      -0.420790       -11.4503
 193   2.0000      -0.413573       -11.2539
 194   2.0000      -0.410419       -11.1681
 195   2.0000      -0.402134       -10.9426
 196   2.0000      -0.396615       -10.7925
 197   2.0000      -0.395279       -10.7561
 198   2.0000      -0.392558       -10.6820
 199   2.0000      -0.391297       -10.6477
 200   2.0000      -0.382121       -10.3980
 201   2.0000      -0.375991       -10.2312
 202   2.0000      -0.375333       -10.2133
 203   2.0000      -0.348095        -9.4722
 204   2.0000      -0.346411        -9.4263
 205   2.0000      -0.345390        -9.3985
 206   2.0000      -0.339621        -9.2416
 207   2.0000      -0.333577        -9.0771
 208   2.0000      -0.324541        -8.8312
 209   2.0000      -0.324085        -8.8188
 210   2.0000      -0.319532        -8.6949
 211   2.0000      -0.317541        -8.6407
 212   2.0000      -0.290650        -7.9090
 213   2.0000      -0.279450        -7.6042
 214   2.0000      -0.260058        -7.0765
 215   2.0000      -0.224705        -6.1145
 216   0.0000      -0.105781        -2.8784
 217   0.0000      -0.101963        -2.7746
 218   0.0000      -0.069734        -1.8976
 219   0.0000      -0.040176        -1.0932
 220   0.0000      -0.034161        -0.9296

MULLIKEN ATOMIC CHARGES
-----------------------
   0 C :   -0.023013
   1 C :    0.074844
   2 N :   -0.059064
   3 C :   -0.080365
   4 N :   -0.089205
   5 C :    0.075828
   6 C :   -0.031800
   7 C :   -0.039449
   8 C :    0.002581
   9 C :   -0.094913
  10 S :    0.232825
  11 C :   -0.098318
  12 C :    0.018992
  13 C :    0.300174
  14 C :   -0.299987
  15 C :   -0.188258
  16 N :    0.171206
  17 C :   -0.191823
  18 N :    0.180756
  19 C :   -0.058053
  20 C :   -0.058613
  21 S :    0.163961
  22 C :   -0.022135
  23 C :   -0.102183
  24 C :    0.053805
  25 C :    0.056463
  26 C :   -0.123505
  27 S :    0.136688
  28 C :   -0.107336
  29 C :    0.051468
  30 C :    0.008445
  31 C :   -0.069115
  32 S :    0.130562
  33 C :    0.079258
  34 C :   -0.024049
  35 C :    0.020915
  36 C :   -0.077121
  37 C :   -0.038002
  38 C :    0.011543
  39 C :   -0.113837
  40 S :    0.177202
  41 C :   -0.090685
  42 C :    0.005519
  43 C :    0.303769
  44 C :   -0.301525
  45 C :   -0.187827
  46 N :    0.170073
  47 C :   -0.183066
  48 N :    0.168777
  49 C :   -0.043518
  50 C :   -0.056241
  51 S :    0.166584
  52 C :    0.034167
  53 C :   -0.008469
  54 N :   -0.084276
  55 C :    0.063675
  56 N :   -0.083652
  57 C :    0.016656
  58 H :    0.009965
  59 H :    0.017629
  60 H :    0.014404
  61 H :    0.019231
  62 H :    0.020069
  63 H :   -0.009020
  64 H :    0.039797
  65 H :   -0.012534
  66 H :    0.029749
  67 H :   -0.013280
  68 H :   -0.022432
  69 H :    0.004986
  70 H :    0.007713
  71 H :    0.013113
  72 H :    0.020191
  73 H :    0.013085
Sum of atomic charges:    0.0000000

LOEWDIN ATOMIC CHARGES
----------------------
   0 C :   -0.074068
   1 C :    0.056644
   2 N :   -0.083844
   3 C :    0.012014
   4 N :   -0.105022
   5 C :    0.054460
   6 C :   -0.189790
   7 C :   -0.000485
   8 C :   -0.077673
   9 C :   -0.175937
  10 S :    0.511003
  11 C :   -0.181202
  12 C :   -0.064210
  13 C :    0.081699
  14 C :   -0.101952
  15 C :   -0.016034
  16 N :   -0.035172
  17 C :   -0.018594
  18 N :   -0.028521
  19 C :   -0.041096
  20 C :   -0.176851
  21 S :    0.472492
  22 C :   -0.181570
  23 C :   -0.034309
  24 C :   -0.018995
  25 C :   -0.046598
  26 C :   -0.138898
  27 S :    0.463378
  28 C :   -0.204456
  29 C :   -0.039071
  30 C :   -0.063357
  31 C :   -0.162693
  32 S :    0.423029
  33 C :   -0.052445
  34 C :   -0.001021
  35 C :   -0.066100
  36 C :   -0.152853
  37 C :   -0.036518
  38 C :   -0.060929
  39 C :   -0.200407
  40 S :    0.466601
  41 C :   -0.167506
  42 C :   -0.080335
  43 C :    0.084517
  44 C :   -0.105084
  45 C :   -0.016296
  46 N :   -0.035027
  47 C :   -0.015079
  48 N :   -0.036964
  49 C :   -0.023652
  50 C :   -0.169128
  51 S :    0.471559
  52 C :   -0.080119
  53 C :    0.031054
  54 N :   -0.077006
  55 C :    0.041290
  56 N :   -0.075322
  57 C :    0.051163
  58 H :    0.036639
  59 H :    0.029424
  60 H :    0.028224
  61 H :    0.046410
  62 H :    0.035083
  63 H :    0.024906
  64 H :    0.038256
  65 H :    0.031943
  66 H :    0.024521
  67 H :    0.032246
  68 H :    0.023250
  69 H :    0.037598
  70 H :    0.039657
  71 H :    0.016609
  72 H :    0.019346
  73 H :    0.027177

  Mayer bond orders larger than 0.100000
B(  0-C ,  1-C ) :   1.3702 B(  0-C ,  5-C ) :   1.3813 B(  0-C , 58-H ) :   0.9742
B(  1-C ,  2-N ) :   1.5446 B(  1-C , 59-H ) :   0.9827 B(  2-N ,  3-C ) :   1.5996
B(  3-C ,  4-N ) :   1.5906 B(  3-C ,  6-C ) :   1.0172 B(  4-N ,  5-C ) :   1.5432
B(  5-C , 60-H ) :   0.9818 B(  6-C ,  7-C ) :   1.4966 B(  6-C , 10-S ) :   1.1049
B(  7-C ,  8-C ) :   1.2562 B(  7-C , 61-H ) :   1.0058 B(  8-C ,  9-C ) :   1.4293
B(  8-C , 13-C ) :   1.0020 B(  9-C , 10-S ) :   1.1330 B(  9-C , 11-C ) :   1.1862
B( 11-C , 12-C ) :   1.4592 B( 11-C , 21-S ) :   1.1176 B( 12-C , 13-C ) :   0.9942
B( 12-C , 19-C ) :   1.2985 B( 13-C , 14-C ) :   1.7121 B( 14-C , 15-C ) :   1.1326
B( 14-C , 17-C ) :   1.1344 B( 15-C , 16-N ) :   2.9893 B( 17-C , 18-N ) :   3.0014
B( 19-C , 20-C ) :   1.4595 B( 19-C , 62-H ) :   0.9796 B( 20-C , 21-S ) :   1.1053
B( 20-C , 22-C ) :   1.1650 B( 22-C , 23-C ) :   1.5202 B( 22-C , 27-S ) :   1.0590
B( 23-C , 24-C ) :   1.2458 B( 23-C , 63-H ) :   0.9583 B( 24-C , 25-C ) :   1.0553
B( 24-C , 33-C ) :   1.3841 B( 25-C , 26-C ) :   1.6117 B( 25-C , 28-C ) :   1.1765
B( 26-C , 27-S ) :   1.1355 B( 26-C , 64-H ) :   0.9405 B( 28-C , 29-C ) :   1.4412
B( 28-C , 32-S ) :   1.0759 B( 29-C , 30-C ) :   1.2209 B( 29-C , 33-C ) :   1.0985
B( 30-C , 31-C ) :   1.5859 B( 30-C , 65-H ) :   0.9979 B( 31-C , 32-S ) :   1.1555
B( 31-C , 66-H ) :   0.9660 B( 33-C , 34-C ) :   1.1617 B( 34-C , 35-C ) :   1.6432
B( 34-C , 67-H ) :   0.9609 B( 35-C , 36-C ) :   1.1278 B( 35-C , 68-H ) :   0.9569
B( 36-C , 37-C ) :   1.4424 B( 36-C , 40-S ) :   1.1126 B( 37-C , 38-C ) :   1.3080
B( 37-C , 69-H ) :   0.9890 B( 38-C , 39-C ) :   1.4425 B( 38-C , 43-C ) :   0.9904
B( 39-C , 40-S ) :   1.1042 B( 39-C , 41-C ) :   1.1931 B( 41-C , 42-C ) :   1.4426
B( 41-C , 51-S ) :   1.1327 B( 42-C , 43-C ) :   1.0096 B( 42-C , 49-C ) :   1.2691
B( 43-C , 44-C ) :   1.7065 B( 44-C , 45-C ) :   1.1340 B( 44-C , 47-C ) :   1.1351
B( 45-C , 46-N ) :   2.9904 B( 47-C , 48-N ) :   2.9872 B( 49-C , 50-C ) :   1.5163
B( 49-C , 70-H ) :   0.9884 B( 50-C , 51-S ) :   1.0890 B( 50-C , 52-C ) :   1.0668
B( 52-C , 53-C ) :   1.3265 B( 52-C , 57-C ) :   1.3356 B( 53-C , 54-N ) :   1.5842
B( 53-C , 71-H ) :   0.9825 B( 54-N , 55-C ) :   1.5042 B( 55-C , 56-N ) :   1.4989
B( 55-C , 72-H ) :   0.9759 B( 56-N , 57-C ) :   1.5823 B( 57-C , 73-H ) :   0.9876

-----------------------------------------------------------------------------
         ABSORPTION SPECTRUM VIA TRANSITION ELECTRIC DIPOLE MOMENTS
-----------------------------------------------------------------------------
State   Energy  Wavelength   fosc         T2         TX        TY        TZ
        (cm-1)    (nm)                  (au**2)     (au)      (au)      (au)
-----------------------------------------------------------------------------
   0   10140.2    986.2   0.168424899   5.46808   0.83716  -0.52031   2.12050
   1   11253.8    888.6   0.108110576   3.16261   0.23366   1.76266  -0.03226
   2   17414.4    574.2   0.241122044   4.55832   0.79502  -0.64143   1.87479
   3   17883.3    559.2   0.297906841   5.48413  -0.47336   1.64905  -1.59396
   4   19475.5    513.5   0.127957608   2.16298  -0.43587   0.86064  -1.11009
   5   22971.1    435.3   0.191842553   2.74941  -0.34362   1.09240  -1.19917
   6   24590.6    406.7   0.522874106   7.00009   0.98000   1.75191   1.72351
   7   25021.8    399.7   0.010595267   0.13940   0.12900   0.28836   0.19902
   8   26858.1    372.3   0.231230961   2.83431  -0.67522  -0.99883  -1.17504
   9   27083.0    369.2   0.803617128   9.76849  -1.10953  -2.29889  -1.80347
  10   27385.1    365.2   0.419413528   5.04201   0.73613   1.39454   1.59856
  11   29028.5    344.5   0.139836422   1.58588   0.16194   1.23122  -0.20919
  12   30238.2    330.7   0.028668998   0.31213   0.42417   0.35053  -0.09659
  13   30763.0    325.1   0.044721576   0.47859  -0.22865  -0.50606  -0.41257
  14   31109.5    321.4   0.042107470   0.44560   0.11015  -0.18459   0.63197
  15   31254.4    320.0   0.768484039   8.09469   1.56811  -0.13423   2.37017
  16   31695.1    315.5   0.549499286   5.70756  -1.09802   2.12157   0.02892
  17   32277.7    309.8   0.000039133   0.00040  -0.00414   0.01463  -0.01296
  18   32420.8    308.4   0.066156605   0.67178  -0.50529   0.38135   0.52060
  19   32446.4    308.2   0.016172636   0.16409  -0.32138   0.19735   0.14786
  20   33149.3    301.7   0.605077976   6.00914   0.21059   2.11019   1.22959
  21   33306.5    300.2   0.546851818   5.40525  -0.34239   1.95430  -1.21191
  22   34059.5    293.6   0.264562907   2.55721   0.36627   1.54894   0.15445
  23   34345.7    291.2   0.018278486   0.17520   0.29201  -0.13192   0.26931
  24   35015.8    285.6   0.333635120   3.13677   0.37190   1.65167   0.52006
  25   35529.8    281.5   0.015712423   0.14559  -0.12835   0.32343   0.15654
  26   36223.2    276.1   0.010859307   0.09869  -0.02845  -0.22668  -0.21564
  27   36281.7    275.6   0.068599434   0.62246   0.05365  -0.72964  -0.29530
  28   36409.1    274.7   0.049657584   0.44901  -0.39024   0.34910  -0.41814
  29   36448.2    274.4   0.076831852   0.69397   0.19983   0.16026   0.79269
  30   37441.7    267.1   0.048325638   0.42491  -0.28672  -0.26016  -0.52442
  31   37744.0    264.9   0.136577534   1.19126  -0.46636  -0.25832  -0.95239
  32   38066.4    262.7   0.025206594   0.21800   0.33242   0.18888   0.26799
  33   38125.1    262.3   0.001622774   0.01401   0.06511   0.05450   0.08248
  34   38577.4    259.2   0.008398814   0.07167   0.22655  -0.06164  -0.12865
  35   38726.6    258.2   0.134447212   1.14292  -0.02006  -1.06330  -0.10914
  36   39472.7    253.3   0.004631398   0.03863  -0.16951   0.02943   0.09501
  37   39588.8    252.6   0.024379004   0.20273   0.21732  -0.26976   0.28764
  38   39815.1    251.2   0.016378494   0.13543  -0.02152  -0.33444   0.15203
  39   39978.7    250.1   0.005672596   0.04671   0.01519  -0.15188  -0.15302
  40   40251.2    248.4   0.007320267   0.05987  -0.00573   0.16677   0.17896

FINAL SINGLE POINT ENERGY     -4509.898835634481

DIPOLE MOMENT
-------------
                                X             Y             Z
Electronic contribution:      7.04450       2.74392      11.66390
Nuclear contribution   :     -6.40847      -3.88226     -11.67347
                        -----------------------------------------
Total Dipole Moment    :      0.63603      -1.13834      -0.00957
                        -----------------------------------------
Magnitude (a.u.)       :      1.30401
Magnitude (Debye)      :      3.31453

Rotational constants in cm-1:     0.001049     0.000644     0.000409
Rotational constants in MHz :    31.438913    19.299795    12.263973

                             ****ORCA TERMINATED NORMALLY****
TOTAL RUN TIME: 0 days 0 hours 6 minutes 4 seconds 761 msec
