                         Program Version 4.2.0 -  RELEASE  -
|  1> # ORCA input file
|  2> # SCF done       -176.082522555912          0.000738042502
|  3> ! CAM-B3LYP def2-SVP def2/J RIJCOSX Grid4 TightSCF
|  4> %maxcore 5000
|  5> %tddft
|  6>     Mode sTDDFT
|  7>     Ethresh 5.0
|  8>     maxcore 5000
|  9> end
| 10>
| 11> %pal
| 12>   nprocs 6
| 13>   end
| 14> * xyz 0 1
| 15>    C        4.80956         0.37280        -4.39956
| 16>    C        5.43177         1.11181        -3.44053
| 17>    C        4.58820         2.12622        -2.94743
| 18>    C        3.33066         2.12093        -3.56289
| 19>    S        3.18694         0.88562        -4.73141
| 20>    C        2.54813         3.17342        -3.00800
| 21>    C        3.31621         3.83553        -2.04189
| 22>    C        4.62863         3.20199        -1.97572
| 23>    C        5.67308         3.56271        -1.17515
| 24>    C        5.58745         4.64485        -0.27470
| 25>    N        5.51960         5.52671         0.45529
| 26>    C        6.90940         2.88430        -1.20129
| 27>    N        7.91699         2.33702        -1.21945
| 28>    C        2.63582         4.89261        -1.43519
| 29>    C        1.35771         5.04011        -1.93979
| 30>    S        0.98935         3.84968        -3.17950
| 31>    C        0.38963         6.01267        -1.58062
| 32>    C       -0.85512         6.21135        -2.14513
| 33>    C       -1.53066         7.28269        -1.55873
| 34>    C       -0.79373         7.89882        -0.53159
| 35>    S        0.72956         7.16194        -0.29146
| 36>    C       -1.55000         8.98027        -0.01856
| 37>    C       -2.76157         9.05470        -0.72641
| 38>    C       -2.79302         7.98259        -1.71104
| 39>    C       -3.79789         7.69810        -2.58945
| 40>    C       -4.98553         8.45666        -2.64293
| 41>    N       -5.95251         9.07160        -2.68959
| 42>    C       -3.71574         6.62442        -3.50029
| 43>    N       -3.65154         5.75391        -4.24439
| 44>    C       -3.57018        10.11062        -0.31394
| 45>    C       -2.99200        10.84341         0.70905
| 46>    S       -1.41619        10.20244         1.16917
| 47>    C       -3.52523        11.99227         1.35963
| 48>    C       -2.90155        12.60022         2.42315
| 49>    C       -3.36938        13.73175         3.08885
| 50>    C       -4.55542        14.44627         2.59114
| 51>    C       -5.33442        14.01574         1.57606
| 52>    S       -5.04785        12.57472         0.69228
| 53>    C       -4.66824        15.60902         3.40091
| 54>    C       -3.64618        15.61704         4.34917
| 55>    C       -3.71367        16.74799         5.19291
| 56>    C       -4.75943        17.55161         4.86720
| 57>    S       -5.70484        16.97273         3.53617
| 58>    C       -2.83983        14.43378         4.19063
| 59>    C       -1.77751        14.11952         5.07432
| 60>    C       -1.17678        12.91301         5.23161
| 61>    C       -0.14050        12.60383         6.16464
| 62>    C        0.44070        13.48737         7.06936
| 63>    C        1.40836        13.09588         7.98456
| 64>    C        1.88825        11.79386         8.08312
| 65>    C        1.35149        10.85976         7.15601
| 66>    C        0.34958        11.26872         6.20976
| 67>    N       -0.03028        10.26582         5.42056
| 68>    S        0.79041         8.94267         5.82487
| 69>    N        1.66211         9.57209         7.01929
| 70>    C        2.85207        11.40635         9.06548
| 71>    C        3.35340        10.14220         9.30917
| 72>    C        4.26201        10.13109        10.36826
| 73>    C        4.46011        11.39730        10.93410
| 74>    S        3.52612        12.60188        10.16896
| 75>    C        5.39644        11.27480        11.99922
| 76>    C        5.78306         9.93333        12.10285
| 77>    C        5.08472         9.16614        11.08824
| 78>    C        5.16593         7.82324        10.86056
| 79>    C        5.99487         6.98206        11.63164
| 80>    N        6.66463         6.29342        12.25841
| 81>    C        4.42370         7.17883         9.84859
| 82>    N        3.82335         6.63775         9.03507
| 83>    C        6.71168         9.72055        13.14025
| 84>    C        7.00539        10.88034        13.78915
| 85>    S        6.16465        12.26134        13.16150
| 86>    H        5.20414        -0.45931        -4.94739
| 87>    H        6.43858         0.93456        -3.10936
| 88>    H        3.03696         5.53231        -0.66968
| 89>    H       -1.23394         5.60438        -2.94785
| 90>    H       -4.53385        10.34571        -0.72859
| 91>    H       -1.96293        12.16496         2.73573
| 92>    H       -6.21288        14.55120         1.25205
| 93>    H       -3.03143        16.96346         5.99519
| 94>    H       -5.04977        18.47304         5.33299
| 95>    H       -1.47697        14.93767         5.71629
| 96>    H       -1.50867        12.06192         4.65758
| 97>    H        0.12478        14.51875         7.07743
| 98>    H        1.80221        13.83744         8.66561
| 99>    H        3.05293         9.28958         8.72870
|100>    H        7.14030         8.76883        13.39581
|101>    H        7.67491        11.02201        14.61364
|102> *
|103>
|104>                          ****END OF INPUT****

CARTESIAN COORDINATES (ANGSTROEM)
---------------------------------
  C      4.809560    0.372800   -4.399560
  C      5.431770    1.111810   -3.440530
  C      4.588200    2.126220   -2.947430
  C      3.330660    2.120930   -3.562890
  S      3.186940    0.885620   -4.731410
  C      2.548130    3.173420   -3.008000
  C      3.316210    3.835530   -2.041890
  C      4.628630    3.201990   -1.975720
  C      5.673080    3.562710   -1.175150
  C      5.587450    4.644850   -0.274700
  N      5.519600    5.526710    0.455290
  C      6.909400    2.884300   -1.201290
  N      7.916990    2.337020   -1.219450
  C      2.635820    4.892610   -1.435190
  C      1.357710    5.040110   -1.939790
  S      0.989350    3.849680   -3.179500
  C      0.389630    6.012670   -1.580620
  C     -0.855120    6.211350   -2.145130
  C     -1.530660    7.282690   -1.558730
  C     -0.793730    7.898820   -0.531590
  S      0.729560    7.161940   -0.291460
  C     -1.550000    8.980270   -0.018560
  C     -2.761570    9.054700   -0.726410
  C     -2.793020    7.982590   -1.711040
  C     -3.797890    7.698100   -2.589450
  C     -4.985530    8.456660   -2.642930
  N     -5.952510    9.071600   -2.689590
  C     -3.715740    6.624420   -3.500290
  N     -3.651540    5.753910   -4.244390
  C     -3.570180   10.110620   -0.313940
  C     -2.992000   10.843410    0.709050
  S     -1.416190   10.202440    1.169170
  C     -3.525230   11.992270    1.359630
  C     -2.901550   12.600220    2.423150
  C     -3.369380   13.731750    3.088850
  C     -4.555420   14.446270    2.591140
  C     -5.334420   14.015740    1.576060
  S     -5.047850   12.574720    0.692280
  C     -4.668240   15.609020    3.400910
  C     -3.646180   15.617040    4.349170
  C     -3.713670   16.747990    5.192910
  C     -4.759430   17.551610    4.867200
  S     -5.704840   16.972730    3.536170
  C     -2.839830   14.433780    4.190630
  C     -1.777510   14.119520    5.074320
  C     -1.176780   12.913010    5.231610
  C     -0.140500   12.603830    6.164640
  C      0.440700   13.487370    7.069360
  C      1.408360   13.095880    7.984560
  C      1.888250   11.793860    8.083120
  C      1.351490   10.859760    7.156010
  C      0.349580   11.268720    6.209760
  N     -0.030280   10.265820    5.420560
  S      0.790410    8.942670    5.824870
  N      1.662110    9.572090    7.019290
  C      2.852070   11.406350    9.065480
  C      3.353400   10.142200    9.309170
  C      4.262010   10.131090   10.368260
  C      4.460110   11.397300   10.934100
  S      3.526120   12.601880   10.168960
  C      5.396440   11.274800   11.999220
  C      5.783060    9.933330   12.102850
  C      5.084720    9.166140   11.088240
  C      5.165930    7.823240   10.860560
  C      5.994870    6.982060   11.631640
  N      6.664630    6.293420   12.258410
  C      4.423700    7.178830    9.848590
  N      3.823350    6.637750    9.035070
  C      6.711680    9.720550   13.140250
  C      7.005390   10.880340   13.789150
  S      6.164650   12.261340   13.161500
  H      5.204140   -0.459310   -4.947390
  H      6.438580    0.934560   -3.109360
  H      3.036960    5.532310   -0.669680
  H     -1.233940    5.604380   -2.947850
  H     -4.533850   10.345710   -0.728590
  H     -1.962930   12.164960    2.735730
  H     -6.212880   14.551200    1.252050
  H     -3.031430   16.963460    5.995190
  H     -5.049770   18.473040    5.332990
  H     -1.476970   14.937670    5.716290
  H     -1.508670   12.061920    4.657580
  H      0.124780   14.518750    7.077430
  H      1.802210   13.837440    8.665610
  H      3.052930    9.289580    8.728700
  H      7.140300    8.768830   13.395810
  H      7.674910   11.022010   14.613640

 Total Charge           Charge          ....    0
 Multiplicity           Mult            ....    1
 Number of Electrons    NEL             ....  540
 Basis Dimension        Dim             .... 1110

ORBITAL ENERGIES
----------------

  NO   OCC          E(Eh)            E(eV)
   0   2.0000     -89.021601     -2422.4009
   1   2.0000     -88.991800     -2421.5900
   2   2.0000     -88.990526     -2421.5553
   3   2.0000     -88.990298     -2421.5491
   4   2.0000     -88.986447     -2421.4443
   5   2.0000     -88.979564     -2421.2570
   6   2.0000     -88.977544     -2421.2021
   7   2.0000     -88.977357     -2421.1970
   8   2.0000     -88.957010     -2420.6433
   9   2.0000     -14.437001      -392.8508
  10   2.0000     -14.435509      -392.8102
  11   2.0000     -14.432004      -392.7148
  12   2.0000     -14.431509      -392.7013
  13   2.0000     -14.428500      -392.6195
  14   2.0000     -14.427554      -392.5937
  15   2.0000     -14.420067      -392.3900
  16   2.0000     -14.418343      -392.3431
  17   2.0000     -10.365852      -282.0692
  18   2.0000     -10.362004      -281.9645
  19   2.0000     -10.352964      -281.7185
  20   2.0000     -10.352730      -281.7121
  21   2.0000     -10.349713      -281.6300
  22   2.0000     -10.340388      -281.3763
  23   2.0000     -10.333114      -281.1783
  24   2.0000     -10.332361      -281.1578
  25   2.0000     -10.331877      -281.1447
  26   2.0000     -10.331785      -281.1422
  27   2.0000     -10.330287      -281.1014
  28   2.0000     -10.330049      -281.0949
  29   2.0000     -10.329987      -281.0932
  30   2.0000     -10.329030      -281.0672
  31   2.0000     -10.328920      -281.0642
  32   2.0000     -10.328575      -281.0548
  33   2.0000     -10.328384      -281.0496
  34   2.0000     -10.327872      -281.0357
  35   2.0000     -10.327869      -281.0356
  36   2.0000     -10.321863      -280.8722
  37   2.0000     -10.320892      -280.8457
  38   2.0000     -10.320687      -280.8402
  39   2.0000     -10.319485      -280.8075
  40   2.0000     -10.319184      -280.7993
  41   2.0000     -10.318781      -280.7883
  42   2.0000     -10.310647      -280.5670
  43   2.0000     -10.310103      -280.5522
  44   2.0000     -10.303902      -280.3834
  45   2.0000     -10.303804      -280.3808
  46   2.0000     -10.303033      -280.3598
  47   2.0000     -10.302742      -280.3519
  48   2.0000     -10.301772      -280.3255
  49   2.0000     -10.301307      -280.3128
  50   2.0000     -10.301051      -280.3059
  51   2.0000     -10.298926      -280.2480
  52   2.0000     -10.298901      -280.2474
  53   2.0000     -10.298409      -280.2339
  54   2.0000     -10.297653      -280.2134
  55   2.0000     -10.297274      -280.2031
  56   2.0000     -10.296068      -280.1703
  57   2.0000     -10.291186      -280.0374
  58   2.0000     -10.290152      -280.0093
  59   2.0000     -10.289485      -279.9911
  60   2.0000     -10.288303      -279.9589
  61   2.0000     -10.288280      -279.9583
  62   2.0000     -10.287267      -279.9308
  63   2.0000     -10.286371      -279.9064
  64   2.0000     -10.283110      -279.8176
  65   2.0000     -10.280808      -279.7550
  66   2.0000     -10.280290      -279.7409
  67   2.0000     -10.276160      -279.6285
  68   2.0000     -10.275829      -279.6195
  69   2.0000     -10.272868      -279.5389
  70   2.0000     -10.270988      -279.4878
  71   2.0000      -8.113360      -220.7757
  72   2.0000      -8.086129      -220.0348
  73   2.0000      -8.084727      -219.9966
  74   2.0000      -8.084516      -219.9909
  75   2.0000      -8.081326      -219.9041
  76   2.0000      -8.074568      -219.7202
  77   2.0000      -8.072712      -219.6697
  78   2.0000      -8.071829      -219.6456
  79   2.0000      -8.052359      -219.1158
  80   2.0000      -6.084606      -165.5706
  81   2.0000      -6.076842      -165.3593
  82   2.0000      -6.075685      -165.3278
  83   2.0000      -6.055430      -164.7766
  84   2.0000      -6.054014      -164.7381
  85   2.0000      -6.053825      -164.7330
  86   2.0000      -6.051274      -164.6635
  87   2.0000      -6.050589      -164.6449
  88   2.0000      -6.049876      -164.6255
  89   2.0000      -6.049687      -164.6203
  90   2.0000      -6.048401      -164.5854
  91   2.0000      -6.046999      -164.5472
  92   2.0000      -6.046833      -164.5427
  93   2.0000      -6.046125      -164.5234
  94   2.0000      -6.043990      -164.4653
  95   2.0000      -6.043816      -164.4606
  96   2.0000      -6.042344      -164.4205
  97   2.0000      -6.041069      -164.3858
  98   2.0000      -6.039404      -164.3405
  99   2.0000      -6.037772      -164.2961
 100   2.0000      -6.037174      -164.2799
 101   2.0000      -6.036915      -164.2728
 102   2.0000      -6.034504      -164.2072
 103   2.0000      -6.034269      -164.2008
 104   2.0000      -6.021803      -163.8616
 105   2.0000      -6.017586      -163.7468
 106   2.0000      -6.014372      -163.6594
 107   2.0000      -1.121821       -30.5263
 108   2.0000      -1.046015       -28.4635
 109   2.0000      -1.041457       -28.3395
 110   2.0000      -1.032116       -28.0853
 111   2.0000      -1.023423       -27.8488
 112   2.0000      -1.019743       -27.7486
 113   2.0000      -1.010755       -27.5040
 114   2.0000      -1.009836       -27.4790
 115   2.0000      -1.008509       -27.4429
 116   2.0000      -1.005636       -27.3647
 117   2.0000      -1.002271       -27.2732
 118   2.0000      -0.996632       -27.1197
 119   2.0000      -0.990644       -26.9568
 120   2.0000      -0.987827       -26.8801
 121   2.0000      -0.975992       -26.5581
 122   2.0000      -0.972805       -26.4714
 123   2.0000      -0.961507       -26.1639
 124   2.0000      -0.958207       -26.0741
 125   2.0000      -0.952478       -25.9182
 126   2.0000      -0.943336       -25.6695
 127   2.0000      -0.928939       -25.2777
 128   2.0000      -0.917774       -24.9739
 129   2.0000      -0.905293       -24.6343
 130   2.0000      -0.901364       -24.5274
 131   2.0000      -0.889726       -24.2107
 132   2.0000      -0.880963       -23.9722
 133   2.0000      -0.870423       -23.6854
 134   2.0000      -0.866606       -23.5815
 135   2.0000      -0.859581       -23.3904
 136   2.0000      -0.859404       -23.3856
 137   2.0000      -0.855409       -23.2769
 138   2.0000      -0.849415       -23.1138
 139   2.0000      -0.847511       -23.0619
 140   2.0000      -0.839519       -22.8445
 141   2.0000      -0.834321       -22.7030
 142   2.0000      -0.828424       -22.5426
 143   2.0000      -0.809067       -22.0158
 144   2.0000      -0.795361       -21.6429
 145   2.0000      -0.783324       -21.3153
 146   2.0000      -0.774741       -21.0818
 147   2.0000      -0.774481       -21.0747
 148   2.0000      -0.766614       -20.8606
 149   2.0000      -0.762200       -20.7405
 150   2.0000      -0.748398       -20.3649
 151   2.0000      -0.737551       -20.0698
 152   2.0000      -0.725648       -19.7459
 153   2.0000      -0.712900       -19.3990
 154   2.0000      -0.708932       -19.2910
 155   2.0000      -0.703012       -19.1299
 156   2.0000      -0.701389       -19.0858
 157   2.0000      -0.695413       -18.9232
 158   2.0000      -0.690824       -18.7983
 159   2.0000      -0.686248       -18.6738
 160   2.0000      -0.676664       -18.4130
 161   2.0000      -0.673891       -18.3375
 162   2.0000      -0.666595       -18.1390
 163   2.0000      -0.661067       -17.9886
 164   2.0000      -0.651864       -17.7381
 165   2.0000      -0.647822       -17.6281
 166   2.0000      -0.635762       -17.3000
 167   2.0000      -0.629359       -17.1257
 168   2.0000      -0.628549       -17.1037
 169   2.0000      -0.622379       -16.9358
 170   2.0000      -0.619978       -16.8705
 171   2.0000      -0.616915       -16.7871
 172   2.0000      -0.614883       -16.7318
 173   2.0000      -0.611991       -16.6531
 174   2.0000      -0.608730       -16.5644
 175   2.0000      -0.602556       -16.3964
 176   2.0000      -0.596335       -16.2271
 177   2.0000      -0.590512       -16.0687
 178   2.0000      -0.586164       -15.9503
 179   2.0000      -0.575321       -15.6553
 180   2.0000      -0.568271       -15.4634
 181   2.0000      -0.563396       -15.3308
 182   2.0000      -0.562078       -15.2949
 183   2.0000      -0.553814       -15.0700
 184   2.0000      -0.549123       -14.9424
 185   2.0000      -0.547300       -14.8928
 186   2.0000      -0.546279       -14.8650
 187   2.0000      -0.543496       -14.7893
 188   2.0000      -0.540925       -14.7193
 189   2.0000      -0.533991       -14.5306
 190   2.0000      -0.531509       -14.4631
 191   2.0000      -0.525193       -14.2912
 192   2.0000      -0.519054       -14.1242
 193   2.0000      -0.514875       -14.0105
 194   2.0000      -0.513850       -13.9826
 195   2.0000      -0.511225       -13.9111
 196   2.0000      -0.508456       -13.8358
 197   2.0000      -0.506613       -13.7856
 198   2.0000      -0.501946       -13.6586
 199   2.0000      -0.499502       -13.5921
 200   2.0000      -0.498068       -13.5531
 201   2.0000      -0.496646       -13.5144
 202   2.0000      -0.493865       -13.4388
 203   2.0000      -0.493416       -13.4265
 204   2.0000      -0.491474       -13.3737
 205   2.0000      -0.486961       -13.2509
 206   2.0000      -0.484706       -13.1895
 207   2.0000      -0.482686       -13.1345
 208   2.0000      -0.480464       -13.0741
 209   2.0000      -0.476214       -12.9584
 210   2.0000      -0.474932       -12.9236
 211   2.0000      -0.471620       -12.8334
 212   2.0000      -0.467908       -12.7324
 213   2.0000      -0.465756       -12.6739
 214   2.0000      -0.463401       -12.6098
 215   2.0000      -0.462960       -12.5978
 216   2.0000      -0.460081       -12.5194
 217   2.0000      -0.459447       -12.5022
 218   2.0000      -0.458816       -12.4850
 219   2.0000      -0.457432       -12.4474
 220   2.0000      -0.456548       -12.4233
 221   2.0000      -0.455504       -12.3949
 222   2.0000      -0.451787       -12.2937
 223   2.0000      -0.451182       -12.2773
 224   2.0000      -0.450190       -12.2503
 225   2.0000      -0.448334       -12.1998
 226   2.0000      -0.446966       -12.1626
 227   2.0000      -0.442233       -12.0338
 228   2.0000      -0.441828       -12.0228
 229   2.0000      -0.441374       -12.0104
 230   2.0000      -0.440060       -11.9746
 231   2.0000      -0.438292       -11.9265
 232   2.0000      -0.437983       -11.9181
 233   2.0000      -0.436497       -11.8777
 234   2.0000      -0.435796       -11.8586
 235   2.0000      -0.432098       -11.7580
 236   2.0000      -0.430272       -11.7083
 237   2.0000      -0.428097       -11.6491
 238   2.0000      -0.428069       -11.6484
 239   2.0000      -0.427711       -11.6386
 240   2.0000      -0.425757       -11.5854
 241   2.0000      -0.424844       -11.5606
 242   2.0000      -0.423546       -11.5253
 243   2.0000      -0.420888       -11.4529
 244   2.0000      -0.415039       -11.2938
 245   2.0000      -0.410820       -11.1790
 246   2.0000      -0.407411       -11.0862
 247   2.0000      -0.406908       -11.0725
 248   2.0000      -0.396841       -10.7986
 249   2.0000      -0.396486       -10.7889
 250   2.0000      -0.392036       -10.6678
 251   2.0000      -0.381728       -10.3874
 252   2.0000      -0.367804       -10.0085
 253   2.0000      -0.364892        -9.9292
 254   2.0000      -0.358058        -9.7433
 255   2.0000      -0.351072        -9.5531
 256   2.0000      -0.349639        -9.5142
 257   2.0000      -0.345299        -9.3961
 258   2.0000      -0.337185        -9.1753
 259   2.0000      -0.334154        -9.0928
 260   2.0000      -0.332523        -9.0484
 261   2.0000      -0.323086        -8.7916
 262   2.0000      -0.319663        -8.6985
 263   2.0000      -0.311183        -8.4677
 264   2.0000      -0.305284        -8.3072
 265   2.0000      -0.304108        -8.2752
 266   2.0000      -0.279474        -7.6049
 267   2.0000      -0.263208        -7.1623
 268   2.0000      -0.247365        -6.7312
 269   2.0000      -0.219884        -5.9834
 270   0.0000      -0.107752        -2.9321
 271   0.0000      -0.100127        -2.7246
 272   0.0000      -0.094027        -2.5586
 273   0.0000      -0.076667        -2.0862
 274   0.0000      -0.050328        -1.3695

MULLIKEN ATOMIC CHARGES
-----------------------
   0 C :   -0.081588
   1 C :    0.037461
   2 C :   -0.031948
   3 C :   -0.116298
   4 S :    0.183959
   5 C :   -0.100391
   6 C :    0.013994
   7 C :    0.295175
   8 C :   -0.294123
   9 C :   -0.188034
  10 N :    0.170942
  11 C :   -0.189718
  12 N :    0.173362
  13 C :   -0.062601
  14 C :   -0.055160
  15 S :    0.190419
  16 C :   -0.050572
  17 C :   -0.063865
  18 C :    0.012213
  19 C :   -0.098876
  20 S :    0.195031
  21 C :   -0.096020
  22 C :    0.017035
  23 C :    0.301618
  24 C :   -0.295773
  25 C :   -0.186877
  26 N :    0.172112
  27 C :   -0.189920
  28 N :    0.173585
  29 C :   -0.058654
  30 C :   -0.062209
  31 S :    0.183566
  32 C :   -0.022540
  33 C :   -0.096566
  34 C :    0.048463
  35 C :    0.057522
  36 C :   -0.123651
  37 S :    0.129200
  38 C :   -0.107337
  39 C :    0.048428
  40 C :    0.006450
  41 C :   -0.066693
  42 S :    0.128134
  43 C :    0.085171
  44 C :    0.008623
  45 C :   -0.050432
  46 C :    0.085725
  47 C :   -0.045314
  48 C :   -0.057294
  49 C :    0.140024
  50 C :    0.014471
  51 C :    0.014316
  52 N :   -0.291788
  53 S :    0.517568
  54 N :   -0.280999
  55 C :   -0.117430
  56 C :   -0.054192
  57 C :    0.025742
  58 C :   -0.091676
  59 S :    0.150040
  60 C :   -0.117870
  61 C :   -0.032758
  62 C :    0.300087
  63 C :   -0.304724
  64 C :   -0.192547
  65 N :    0.170105
  66 C :   -0.185698
  67 N :    0.173328
  68 C :    0.038107
  69 C :   -0.084836
  70 S :    0.174101
  71 H :    0.036690
  72 H :    0.012238
  73 H :    0.010143
  74 H :    0.010103
  75 H :    0.020359
  76 H :    0.000663
  77 H :    0.037650
  78 H :   -0.019255
  79 H :    0.025230
  80 H :   -0.034001
  81 H :   -0.010841
  82 H :   -0.025067
  83 H :   -0.016152
  84 H :    0.019594
  85 H :    0.009690
  86 H :    0.033858
Sum of atomic charges:   -0.0000000

LOEWDIN ATOMIC CHARGES
----------------------
   0 C :   -0.177866
   1 C :   -0.033581
   2 C :   -0.077765
   3 C :   -0.183639
   4 S :    0.478999
   5 C :   -0.180160
   6 C :   -0.068791
   7 C :    0.083595
   8 C :   -0.103185
   9 C :   -0.016053
  10 N :   -0.035178
  11 C :   -0.016918
  12 N :   -0.032343
  13 C :   -0.039311
  14 C :   -0.181542
  15 S :    0.482792
  16 C :   -0.178581
  17 C :   -0.040048
  18 C :   -0.070074
  19 C :   -0.178722
  20 S :    0.483278
  21 C :   -0.180365
  22 C :   -0.069191
  23 C :    0.083806
  24 C :   -0.101802
  25 C :   -0.016280
  26 N :   -0.032227
  27 C :   -0.016125
  28 N :   -0.033805
  29 C :   -0.041676
  30 C :   -0.178114
  31 S :    0.485201
  32 C :   -0.180434
  33 C :   -0.029626
  34 C :   -0.019176
  35 C :   -0.046402
  36 C :   -0.139856
  37 S :    0.460378
  38 C :   -0.204511
  39 C :   -0.039873
  40 C :   -0.065485
  41 C :   -0.164695
  42 S :    0.421473
  43 C :   -0.049722
  44 C :   -0.003267
  45 C :   -0.032837
  46 C :   -0.026210
  47 C :   -0.018261
  48 C :   -0.021955
  49 C :   -0.050403
  50 C :   -0.039921
  51 C :   -0.042519
  52 N :   -0.289262
  53 S :    0.645414
  54 N :   -0.278846
  55 C :   -0.158844
  56 C :   -0.022461
  57 C :   -0.073134
  58 C :   -0.181504
  59 S :    0.464699
  60 C :   -0.182789
  61 C :   -0.077799
  62 C :    0.084055
  63 C :   -0.104961
  64 C :   -0.016048
  65 N :   -0.038344
  66 C :   -0.017327
  67 N :   -0.033452
  68 C :   -0.034570
  69 C :   -0.180771
  70 S :    0.471086
  71 H :    0.027778
  72 H :    0.042665
  73 H :    0.035132
  74 H :    0.035158
  75 H :    0.034349
  76 H :    0.028964
  77 H :    0.037522
  78 H :    0.028876
  79 H :    0.023076
  80 H :    0.025542
  81 H :    0.027009
  82 H :    0.029024
  83 H :    0.022351
  84 H :    0.038245
  85 H :    0.041800
  86 H :    0.026343

  Mayer bond orders larger than 0.100000
B(  0-C ,  1-C ) :   1.5497 B(  0-C ,  4-S ) :   1.1481 B(  0-C , 71-H ) :   0.9645
B(  1-C ,  2-C ) :   1.2781 B(  1-C , 72-H ) :   0.9953 B(  2-C ,  3-C ) :   1.4556
B(  2-C ,  7-C ) :   1.0176 B(  3-C ,  4-S ) :   1.1383 B(  3-C ,  5-C ) :   1.1809
B(  5-C ,  6-C ) :   1.4678 B(  5-C , 15-S ) :   1.1202 B(  6-C ,  7-C ) :   0.9900
B(  6-C , 13-C ) :   1.2943 B(  7-C ,  8-C ) :   1.7116 B(  8-C ,  9-C ) :   1.1320
B(  8-C , 11-C ) :   1.1297 B(  9-C , 10-N ) :   2.9912 B( 11-C , 12-N ) :   3.0022
B( 13-C , 14-C ) :   1.4629 B( 13-C , 73-H ) :   0.9884 B( 14-C , 15-S ) :   1.1104
B( 14-C , 16-C ) :   1.1657 B( 16-C , 17-C ) :   1.4628 B( 16-C , 20-S ) :   1.1067
B( 17-C , 18-C ) :   1.2950 B( 17-C , 74-H ) :   0.9877 B( 18-C , 19-C ) :   1.4465
B( 18-C , 23-C ) :   0.9960 B( 19-C , 20-S ) :   1.1174 B( 19-C , 21-C ) :   1.1883
B( 21-C , 22-C ) :   1.4442 B( 21-C , 31-S ) :   1.1237 B( 22-C , 23-C ) :   0.9969
B( 22-C , 29-C ) :   1.3071 B( 23-C , 24-C ) :   1.7115 B( 24-C , 25-C ) :   1.1332
B( 24-C , 27-C ) :   1.1336 B( 25-C , 26-N ) :   2.9898 B( 27-C , 28-N ) :   2.9929
B( 29-C , 30-C ) :   1.4539 B( 29-C , 75-H ) :   0.9783 B( 30-C , 31-S ) :   1.1066
B( 30-C , 32-C ) :   1.1698 B( 32-C , 33-C ) :   1.5200 B( 32-C , 37-S ) :   1.0557
B( 33-C , 34-C ) :   1.2481 B( 33-C , 76-H ) :   0.9602 B( 34-C , 35-C ) :   1.0549
B( 34-C , 43-C ) :   1.3805 B( 35-C , 36-C ) :   1.6108 B( 35-C , 38-C ) :   1.1744
B( 36-C , 37-S ) :   1.1352 B( 36-C , 77-H ) :   0.9414 B( 38-C , 39-C ) :   1.4443
B( 38-C , 42-S ) :   1.0743 B( 39-C , 40-C ) :   1.2196 B( 39-C , 43-C ) :   1.0981
B( 40-C , 41-C ) :   1.5848 B( 40-C , 78-H ) :   0.9976 B( 41-C , 42-S ) :   1.1550
B( 41-C , 79-H ) :   0.9662 B( 43-C , 44-C ) :   1.1650 B( 44-C , 45-C ) :   1.5889
B( 44-C , 80-H ) :   0.9581 B( 45-C , 46-C ) :   1.1448 B( 45-C , 81-H ) :   0.9785
B( 46-C , 47-C ) :   1.4124 B( 46-C , 49-C ) :   0.1120 B( 46-C , 51-C ) :   1.1509
B( 47-C , 48-C ) :   1.2765 B( 47-C , 82-H ) :   0.9869 B( 48-C , 49-C ) :   1.4232
B( 48-C , 83-H ) :   0.9832 B( 49-C , 50-C ) :   1.1941 B( 49-C , 55-C ) :   1.1225
B( 50-C , 51-C ) :   1.1615 B( 50-C , 54-N ) :   1.5307 B( 51-C , 52-N ) :   1.5372
B( 52-N , 53-S ) :   1.2634 B( 52-N , 54-N ) :   0.1474 B( 53-S , 54-N ) :   1.2571
B( 55-C , 56-C ) :   1.4912 B( 55-C , 59-S ) :   1.0874 B( 56-C , 57-C ) :   1.2372
B( 56-C , 84-H ) :   0.9828 B( 57-C , 58-C ) :   1.4586 B( 57-C , 62-C ) :   0.9960
B( 58-C , 59-S ) :   1.1237 B( 58-C , 60-C ) :   1.1799 B( 60-C , 61-C ) :   1.4579
B( 60-C , 70-S ) :   1.1339 B( 61-C , 62-C ) :   1.0139 B( 61-C , 68-C ) :   1.2751
B( 62-C , 63-C ) :   1.7074 B( 63-C , 64-C ) :   1.1312 B( 63-C , 66-C ) :   1.1369
B( 64-C , 65-N ) :   3.0023 B( 66-C , 67-N ) :   2.9895 B( 68-C , 69-C ) :   1.5493
B( 68-C , 85-H ) :   0.9963 B( 69-C , 70-S ) :   1.1461 B( 69-C , 86-H ) :   0.9650

-----------------------------------------------------------------------------
         ABSORPTION SPECTRUM VIA TRANSITION ELECTRIC DIPOLE MOMENTS
-----------------------------------------------------------------------------
State   Energy  Wavelength   fosc         T2         TX        TY        TZ
        (cm-1)    (nm)                  (au**2)     (au)      (au)      (au)
-----------------------------------------------------------------------------
   0    9406.4   1063.1   0.153771376   5.38180   0.44845  -1.58209  -1.63636
   1   12893.0    775.6   0.270081018   6.89632  -1.43169  -0.05099  -2.20090
   2   13270.5    753.6   0.111101838   2.75620   1.20249  -1.13893  -0.11429
   3   15165.9    659.4   0.130918717   2.84190  -1.21911   0.33759  -1.11432
   4   15799.8    632.9   0.399615180   8.32656  -1.27156  -0.45674  -2.54972
   5   18741.1    533.6   0.009813377   0.17238   0.23918  -0.33447  -0.05752
   6   20467.7    488.6   0.043084240   0.69299  -0.34029  -0.20418  -0.73178
   7   20967.2    476.9   0.387789431   6.08879  -1.51348   1.94416   0.13570
   8   22128.6    451.9   0.077356012   1.15084  -0.74569   0.65004  -0.41501
   9   22967.3    435.4   0.586544106   8.40750   1.77581  -2.21191  -0.60120
  10   23491.8    425.7   0.207833122   2.91255  -0.79964  -0.32610  -1.47200
  11   24759.1    403.9   0.024517293   0.32600   0.31611  -0.45024  -0.15282
  12   25165.7    397.4   0.016902631   0.22112  -0.36961   0.28328   0.06526
  13   25747.1    388.4   0.016384939   0.20950  -0.29798   0.28130   0.20392
  14   27034.9    369.9   0.384438061   4.68142  -1.53298   1.47385   0.39893
  15   27744.3    360.4   0.002879079   0.03416  -0.01070   0.05830  -0.17507
  16   28416.4    351.9   0.535759557   6.20692   2.03009  -1.44418  -0.00431
  17   28743.3    347.9   0.006845910   0.07841   0.21378  -0.14559   0.10730
  18   29067.0    344.0   0.338281002   3.83136   1.57517  -0.93454   0.69053
  19   30069.5    332.6   0.082086265   0.89871  -0.54902  -0.39262  -0.66568
  20   30421.9    328.7   0.005275797   0.05709   0.09298  -0.19028  -0.11064
  21   31108.3    321.5   0.299549753   3.17006  -0.58340  -1.59719  -0.52791
  22   31360.2    318.9   0.283825498   2.97954   0.54366  -1.56646   0.47976
  23   31722.1    315.2   0.220858602   2.29207  -1.15056   0.80072  -0.57195
  24   31891.0    313.6   1.147441105  11.84508   2.11090   1.19021   2.44389
  25   32236.6    310.2   0.057089265   0.58302   0.67595   0.04862   0.35177
  26   32470.1    308.0   0.325791435   3.30317   0.48160   1.13074   1.33890
  27   33066.1    302.4   0.051248703   0.51024  -0.51441   0.43823   0.23148
  28   33089.4    302.2   0.332421073   3.30731   0.83013  -1.51159  -0.57731
  29   33332.2    300.0   0.234499260   2.31607  -1.20967   0.18212  -0.90532
  30   33597.0    297.6   0.065448862   0.64132   0.48682  -0.45697   0.44215
  31   33693.2    296.8   0.016567123   0.16188  -0.11341  -0.09680  -0.37369
  32   33807.9    295.8   0.358731156   3.49322  -1.53229   1.07002  -0.01913
  33   34260.4    291.9   0.010893475   0.10468   0.15965   0.19668   0.20126
  34   34811.1    287.3   0.192294107   1.81854  -0.33418  -0.88109  -0.96465
  35   34948.8    286.1   0.046737661   0.44026   0.23069  -0.59815  -0.17107
  36   35417.5    282.3   0.243386968   2.26233  -0.12750   1.38039   0.58360
  37   35622.5    280.7   0.070869977   0.65496   0.09498   0.73455   0.32614
  38   35869.3    278.8   0.012726213   0.11680  -0.12664  -0.21755  -0.23116
  39   35911.2    278.5   0.045903651   0.42082  -0.12569   0.50829   0.38295
  40   36461.8    274.3   0.043338729   0.39130   0.39109  -0.17601   0.45538
  41   36787.4    271.8   0.007656499   0.06852   0.05264  -0.24313   0.08145
  42   37026.8    270.1   0.004484678   0.03987   0.04804  -0.18585  -0.05499
  43   37192.0    268.9   0.018581017   0.16447  -0.21951  -0.17958  -0.28990
  44   37488.4    266.7   0.019422998   0.17057   0.24416  -0.33280  -0.01393
  45   37519.1    266.5   0.007674611   0.06734   0.12461  -0.04720  -0.22268
  46   37676.6    265.4   0.007249368   0.06334   0.18893  -0.12314   0.11173
  47   38094.8    262.5   0.019370047   0.16739   0.35449  -0.11237   0.17059
  48   38576.7    259.2   0.018332448   0.15645  -0.02659   0.32138   0.22904
  49   38637.8    258.8   0.039602978   0.33744  -0.08790   0.46162   0.34150
  50   38720.2    258.3   0.006869957   0.05841  -0.10562   0.21735  -0.00354
  51   38880.8    257.2   0.025060650   0.21219  -0.27182  -0.06861  -0.36551
  52   39038.1    256.2   0.093154345   0.78558  -0.09381  -0.78218  -0.40617
  53   39351.5    254.1   0.005364123   0.04488   0.09177   0.12434   0.14490
  54   39596.0    252.6   0.030688818   0.25515   0.14124   0.19528   0.44393
  55   39852.8    250.9   0.021653249   0.17887  -0.04846   0.40633   0.10684

FINAL SINGLE POINT ENERGY     -6084.608537671227

DIPOLE MOMENT
-------------
                                X             Y             Z
Electronic contribution:      2.63359     -19.60391     -14.09157
Nuclear contribution   :     -3.36450      21.85770      13.98586
                        -----------------------------------------
Total Dipole Moment    :     -0.73090       2.25379      -0.10572
                        -----------------------------------------
Magnitude (a.u.)       :      2.37170
Magnitude (Debye)      :      6.02838

Rotational constants in cm-1:     0.000621     0.000407     0.000253
Rotational constants in MHz :    18.626059    12.187987     7.572017

                             ****ORCA TERMINATED NORMALLY****
TOTAL RUN TIME: 0 days 0 hours 8 minutes 28 seconds 893 msec
