                         Program Version 4.2.0 -  RELEASE  -
|  1> # ORCA input file
|  2> # SCF done       -226.851369740669          0.000746277230
|  3> ! CAM-B3LYP def2-SVP def2/J RIJCOSX Grid4 TightSCF
|  4> %maxcore 5000
|  5> %tddft
|  6>     Mode sTDDFT
|  7>     Ethresh 5.0
|  8>     maxcore 5000
|  9> end
| 10>
| 11> %pal
| 12>   nprocs 6
| 13>   end
| 14> * xyz 0 1
| 15>    C       -0.11322         0.46276        -2.10871
| 16>    C       -0.13102         1.54398        -1.22660
| 17>    C       -0.72856         2.81479        -1.77605
| 18>    O       -0.78294         2.99715        -2.95962
| 19>    O       -1.20837         3.71726        -0.91976
| 20>    C        0.43482         1.41677         0.05433
| 21>    C        0.45287         2.47384         0.99493
| 22>    N        0.47795         3.29557         1.79556
| 23>    C        1.03692         0.21540         0.44983
| 24>    C        1.04013        -0.83742        -0.43602
| 25>    C        0.45724        -0.73390        -1.71116
| 26>    C        0.61478        -2.01375        -2.39872
| 27>    C        0.00584        -2.36070        -3.57426
| 28>    C       -0.83494        -1.50186        -4.31729
| 29>    N       -1.53526        -0.86445        -4.96399
| 30>    C        0.07585        -3.63835        -4.17232
| 31>    N        0.07267        -4.65878        -4.69809
| 32>    C        1.42232        -2.87368        -1.55168
| 33>    C        1.63816        -2.18254        -0.26126
| 34>    O        2.22569        -2.57169         0.72314
| 35>    C        2.01625        -4.03312        -1.97736
| 36>    C        2.72279        -5.00533        -1.24749
| 37>    C        2.78981        -5.28018         0.11489
| 38>    C        3.57367        -6.39105         0.38572
| 39>    C        4.13044        -6.97588        -0.77678
| 40>    S        3.65336        -6.17675        -2.19607
| 41>    C        4.92703        -8.07636        -0.38750
| 42>    C        4.86873        -8.20408         1.01277
| 43>    C        4.00969        -7.15460         1.54347
| 44>    C        3.67380        -6.95253         2.84869
| 45>    C        4.17674        -7.77649         3.87903
| 46>    N        4.58949        -8.44902         4.71061
| 47>    C        2.78799        -5.93326         3.26304
| 48>    N        2.05893        -5.12662         3.62455
| 49>    C        5.61890        -9.27594         1.49019
| 50>    C        6.25430        -9.95839         0.46578
| 51>    S        5.91548        -9.26813        -1.11221
| 52>    C        7.09065       -11.09714         0.57552
| 53>    C        7.78882       -11.72598        -0.44073
| 54>    C        8.50247       -12.82830         0.02372
| 55>    C        8.34006       -13.04441         1.40445
| 56>    S        7.32143       -11.88305         2.13108
| 57>    C        9.08372       -14.19380         1.77184
| 58>    C        9.72280       -14.69915         0.62483
| 59>    C        9.38203       -13.85616        -0.51039
| 60>    C        9.79644       -14.00083        -1.80095
| 61>    C       10.65508       -15.04885        -2.19657
| 62>    N       11.35145       -15.90267        -2.51274
| 63>    C        9.39151       -13.11177        -2.81965
| 64>    N        9.05915       -12.38695        -3.64307
| 65>    C       10.47065       -15.84585         0.88099
| 66>    C       10.39981       -16.22256         2.21100
| 67>    S        9.40059       -15.13276         3.16202
| 68>    C       11.00728       -17.35112         2.81552
| 69>    C       10.87540       -17.78275         4.12519
| 70>    C       11.58998       -18.95506         4.35902
| 71>    C       12.27900       -19.41431         3.22050
| 72>    S       12.04187       -18.40330         1.86400
| 73>    C       12.96209       -20.60838         3.55141
| 74>    C       12.69264       -20.91132         4.90458
| 75>    C       11.83696       -19.87657         5.45746
| 76>    C       11.39300       -19.78599         6.74378
| 77>    C       11.73940       -20.76030         7.70411
| 78>    N       12.02949       -21.56924         8.46329
| 79>    C       10.57034       -18.72625         7.18052
| 80>    N        9.89648       -17.86432         7.52225
| 81>    C       13.32541       -22.06576         5.33627
| 82>    C       14.09103       -22.65378         4.33547
| 83>    S       13.98185       -21.75555         2.82202
| 84>    C       14.84243       -23.84254         4.37324
| 85>    C       15.25530       -24.57229         5.45199
| 86>    C       15.61678       -25.99994         5.23684
| 87>    O       15.80021       -26.55066         4.17857
| 88>    C       15.64314       -26.59870         6.59186
| 89>    C       15.45052       -25.58802         7.55143
| 90>    C       15.40214       -25.91306         8.89751
| 91>    C       15.55786       -27.24439         9.27860
| 92>    C       15.77260       -28.24175         8.31227
| 93>    C       15.80787       -27.91805         6.95230
| 94>    C       15.92171       -29.60779         8.66648
| 95>    N       16.01570       -30.73779         8.82676
| 96>    C       15.56643       -27.65952        10.72326
| 97>    O       16.17507       -28.61928        11.10006
| 98>    O       14.85922       -26.90472        11.57033
| 99>    C       15.35013       -24.29644         6.86753
|100>    C       15.56562       -23.08011         7.46308
|101>    C       15.71290       -21.87404         6.75034
|102>    N       15.85729       -20.87495         6.20406
|103>    C       15.73887       -22.90627         8.85229
|104>    N       15.87078       -22.72644         9.97766
|105>    H       -0.53856         0.60721        -3.08970
|106>    H       -1.07906         3.51633         0.01904
|107>    H        1.49012         0.11891         1.42496
|108>    H        1.96813        -4.23741        -3.04100
|109>    H        2.28467        -4.68671         0.85406
|110>    H        5.71324        -9.55787         2.52351
|111>    H        7.76812       -11.38436        -1.46010
|112>    H       11.03624       -16.39445         0.14930
|113>    H       10.28020       -17.26249         4.85422
|114>    H       13.20223       -22.49962         6.31138
|115>    H       15.06729       -24.29650         3.41251
|116>    H       15.26906       -25.14028         9.64018
|117>    H       15.96336       -28.68111         6.20494
|118>    H       14.40078       -26.16110        11.15610
|119> *
|120>
|121>                          ****END OF INPUT****

CARTESIAN COORDINATES (ANGSTROEM)
---------------------------------
  C     -0.113220    0.462760   -2.108710
  C     -0.131020    1.543980   -1.226600
  C     -0.728560    2.814790   -1.776050
  O     -0.782940    2.997150   -2.959620
  O     -1.208370    3.717260   -0.919760
  C      0.434820    1.416770    0.054330
  C      0.452870    2.473840    0.994930
  N      0.477950    3.295570    1.795560
  C      1.036920    0.215400    0.449830
  C      1.040130   -0.837420   -0.436020
  C      0.457240   -0.733900   -1.711160
  C      0.614780   -2.013750   -2.398720
  C      0.005840   -2.360700   -3.574260
  C     -0.834940   -1.501860   -4.317290
  N     -1.535260   -0.864450   -4.963990
  C      0.075850   -3.638350   -4.172320
  N      0.072670   -4.658780   -4.698090
  C      1.422320   -2.873680   -1.551680
  C      1.638160   -2.182540   -0.261260
  O      2.225690   -2.571690    0.723140
  C      2.016250   -4.033120   -1.977360
  C      2.722790   -5.005330   -1.247490
  C      2.789810   -5.280180    0.114890
  C      3.573670   -6.391050    0.385720
  C      4.130440   -6.975880   -0.776780
  S      3.653360   -6.176750   -2.196070
  C      4.927030   -8.076360   -0.387500
  C      4.868730   -8.204080    1.012770
  C      4.009690   -7.154600    1.543470
  C      3.673800   -6.952530    2.848690
  C      4.176740   -7.776490    3.879030
  N      4.589490   -8.449020    4.710610
  C      2.787990   -5.933260    3.263040
  N      2.058930   -5.126620    3.624550
  C      5.618900   -9.275940    1.490190
  C      6.254300   -9.958390    0.465780
  S      5.915480   -9.268130   -1.112210
  C      7.090650  -11.097140    0.575520
  C      7.788820  -11.725980   -0.440730
  C      8.502470  -12.828300    0.023720
  C      8.340060  -13.044410    1.404450
  S      7.321430  -11.883050    2.131080
  C      9.083720  -14.193800    1.771840
  C      9.722800  -14.699150    0.624830
  C      9.382030  -13.856160   -0.510390
  C      9.796440  -14.000830   -1.800950
  C     10.655080  -15.048850   -2.196570
  N     11.351450  -15.902670   -2.512740
  C      9.391510  -13.111770   -2.819650
  N      9.059150  -12.386950   -3.643070
  C     10.470650  -15.845850    0.880990
  C     10.399810  -16.222560    2.211000
  S      9.400590  -15.132760    3.162020
  C     11.007280  -17.351120    2.815520
  C     10.875400  -17.782750    4.125190
  C     11.589980  -18.955060    4.359020
  C     12.279000  -19.414310    3.220500
  S     12.041870  -18.403300    1.864000
  C     12.962090  -20.608380    3.551410
  C     12.692640  -20.911320    4.904580
  C     11.836960  -19.876570    5.457460
  C     11.393000  -19.785990    6.743780
  C     11.739400  -20.760300    7.704110
  N     12.029490  -21.569240    8.463290
  C     10.570340  -18.726250    7.180520
  N      9.896480  -17.864320    7.522250
  C     13.325410  -22.065760    5.336270
  C     14.091030  -22.653780    4.335470
  S     13.981850  -21.755550    2.822020
  C     14.842430  -23.842540    4.373240
  C     15.255300  -24.572290    5.451990
  C     15.616780  -25.999940    5.236840
  O     15.800210  -26.550660    4.178570
  C     15.643140  -26.598700    6.591860
  C     15.450520  -25.588020    7.551430
  C     15.402140  -25.913060    8.897510
  C     15.557860  -27.244390    9.278600
  C     15.772600  -28.241750    8.312270
  C     15.807870  -27.918050    6.952300
  C     15.921710  -29.607790    8.666480
  N     16.015700  -30.737790    8.826760
  C     15.566430  -27.659520   10.723260
  O     16.175070  -28.619280   11.100060
  O     14.859220  -26.904720   11.570330
  C     15.350130  -24.296440    6.867530
  C     15.565620  -23.080110    7.463080
  C     15.712900  -21.874040    6.750340
  N     15.857290  -20.874950    6.204060
  C     15.738870  -22.906270    8.852290
  N     15.870780  -22.726440    9.977660
  H     -0.538560    0.607210   -3.089700
  H     -1.079060    3.516330    0.019040
  H      1.490120    0.118910    1.424960
  H      1.968130   -4.237410   -3.041000
  H      2.284670   -4.686710    0.854060
  H      5.713240   -9.557870    2.523510
  H      7.768120  -11.384360   -1.460100
  H     11.036240  -16.394450    0.149300
  H     10.280200  -17.262490    4.854220
  H     13.202230  -22.499620    6.311380
  H     15.067290  -24.296500    3.412510
  H     15.269060  -25.140280    9.640180
  H     15.963360  -28.681110    6.204940
  H     14.400780  -26.161100   11.156100

 Total Charge           Charge          ....    0
 Multiplicity           Mult            ....    1
 Number of Electrons    NEL             ....  638
 Basis Dimension        Dim             .... 1354

ORBITAL ENERGIES
----------------

  NO   OCC          E(Eh)            E(eV)
   0   2.0000     -89.016095     -2422.2511
   1   2.0000     -89.015928     -2422.2465
   2   2.0000     -89.015687     -2422.2400
   3   2.0000     -89.015598     -2422.2376
   4   2.0000     -89.015492     -2422.2347
   5   2.0000     -89.013631     -2422.1840
   6   2.0000     -19.279250      -524.6151
   7   2.0000     -19.274142      -524.4761
   8   2.0000     -19.242079      -523.6036
   9   2.0000     -19.239961      -523.5459
  10   2.0000     -19.217679      -522.9396
  11   2.0000     -19.215174      -522.8715
  12   2.0000     -14.452716      -393.2784
  13   2.0000     -14.451740      -393.2518
  14   2.0000     -14.451638      -393.2491
  15   2.0000     -14.450884      -393.2285
  16   2.0000     -14.449600      -393.1936
  17   2.0000     -14.448526      -393.1644
  18   2.0000     -14.445821      -393.0908
  19   2.0000     -14.439745      -392.9254
  20   2.0000     -14.436789      -392.8450
  21   2.0000     -14.435164      -392.8008
  22   2.0000     -14.429393      -392.6437
  23   2.0000     -14.413273      -392.2051
  24   2.0000     -10.423801      -283.6461
  25   2.0000     -10.423761      -283.6450
  26   2.0000     -10.393809      -282.8299
  27   2.0000     -10.391053      -282.7549
  28   2.0000     -10.388127      -282.6753
  29   2.0000     -10.387987      -282.6715
  30   2.0000     -10.386259      -282.6245
  31   2.0000     -10.374721      -282.3105
  32   2.0000     -10.374356      -282.3006
  33   2.0000     -10.372263      -282.2436
  34   2.0000     -10.368890      -282.1518
  35   2.0000     -10.367252      -282.1073
  36   2.0000     -10.365600      -282.0623
  37   2.0000     -10.365416      -282.0573
  38   2.0000     -10.365221      -282.0520
  39   2.0000     -10.361542      -281.9519
  40   2.0000     -10.361022      -281.9377
  41   2.0000     -10.358978      -281.8821
  42   2.0000     -10.358692      -281.8743
  43   2.0000     -10.357688      -281.8470
  44   2.0000     -10.357301      -281.8365
  45   2.0000     -10.356009      -281.8013
  46   2.0000     -10.354784      -281.7680
  47   2.0000     -10.354397      -281.7575
  48   2.0000     -10.354054      -281.7481
  49   2.0000     -10.353316      -281.7281
  50   2.0000     -10.352795      -281.7139
  51   2.0000     -10.351569      -281.6805
  52   2.0000     -10.351500      -281.6786
  53   2.0000     -10.350639      -281.6552
  54   2.0000     -10.349356      -281.6203
  55   2.0000     -10.347856      -281.5795
  56   2.0000     -10.347407      -281.5672
  57   2.0000     -10.347060      -281.5578
  58   2.0000     -10.345724      -281.5215
  59   2.0000     -10.345308      -281.5101
  60   2.0000     -10.344653      -281.4923
  61   2.0000     -10.342593      -281.4363
  62   2.0000     -10.341265      -281.4001
  63   2.0000     -10.340842      -281.3886
  64   2.0000     -10.340041      -281.3668
  65   2.0000     -10.338724      -281.3310
  66   2.0000     -10.338303      -281.3195
  67   2.0000     -10.336918      -281.2818
  68   2.0000     -10.335426      -281.2412
  69   2.0000     -10.335101      -281.2324
  70   2.0000     -10.334290      -281.2103
  71   2.0000     -10.333184      -281.1802
  72   2.0000     -10.332972      -281.1745
  73   2.0000     -10.331761      -281.1415
  74   2.0000     -10.330524      -281.1079
  75   2.0000     -10.328316      -281.0478
  76   2.0000     -10.328277      -281.0467
  77   2.0000     -10.327769      -281.0329
  78   2.0000     -10.327600      -281.0283
  79   2.0000     -10.327546      -281.0268
  80   2.0000     -10.327437      -281.0238
  81   2.0000     -10.327122      -281.0153
  82   2.0000     -10.326700      -281.0038
  83   2.0000     -10.326231      -280.9910
  84   2.0000     -10.325478      -280.9705
  85   2.0000     -10.325113      -280.9606
  86   2.0000     -10.324270      -280.9377
  87   2.0000     -10.320847      -280.8445
  88   2.0000     -10.320380      -280.8318
  89   2.0000     -10.313352      -280.6406
  90   2.0000      -8.110656      -220.7022
  91   2.0000      -8.110489      -220.6976
  92   2.0000      -8.110063      -220.6860
  93   2.0000      -8.110001      -220.6844
  94   2.0000      -8.109955      -220.6831
  95   2.0000      -8.108463      -220.6425
  96   2.0000      -6.079804      -165.4399
  97   2.0000      -6.079773      -165.4390
  98   2.0000      -6.079325      -165.4268
  99   2.0000      -6.079295      -165.4260
 100   2.0000      -6.079253      -165.4249
 101   2.0000      -6.077544      -165.3784
 102   2.0000      -6.075649      -165.3268
 103   2.0000      -6.075617      -165.3259
 104   2.0000      -6.075156      -165.3134
 105   2.0000      -6.075146      -165.3131
 106   2.0000      -6.075102      -165.3119
 107   2.0000      -6.073452      -165.2670
 108   2.0000      -6.073145      -165.2587
 109   2.0000      -6.072742      -165.2477
 110   2.0000      -6.072312      -165.2360
 111   2.0000      -6.072309      -165.2359
 112   2.0000      -6.072167      -165.2321
 113   2.0000      -6.070986      -165.1999
 114   2.0000      -1.203285       -32.7430
 115   2.0000      -1.200444       -32.6657
 116   2.0000      -1.158056       -31.5123
 117   2.0000      -1.156025       -31.4570
 118   2.0000      -1.118335       -30.4314
 119   2.0000      -1.114495       -30.3270
 120   2.0000      -1.072071       -29.1725
 121   2.0000      -1.070184       -29.1212
 122   2.0000      -1.067338       -29.0437
 123   2.0000      -1.045026       -28.4366
 124   2.0000      -1.044387       -28.4192
 125   2.0000      -1.043423       -28.3930
 126   2.0000      -1.043102       -28.3842
 127   2.0000      -1.040584       -28.3157
 128   2.0000      -1.034708       -28.1558
 129   2.0000      -1.033397       -28.1202
 130   2.0000      -1.029365       -28.0104
 131   2.0000      -1.028898       -27.9977
 132   2.0000      -1.026683       -27.9375
 133   2.0000      -1.025265       -27.8989
 134   2.0000      -1.023664       -27.8553
 135   2.0000      -1.020158       -27.7599
 136   2.0000      -1.016569       -27.6622
 137   2.0000      -1.013475       -27.5781
 138   2.0000      -1.009612       -27.4729
 139   2.0000      -1.001624       -27.2556
 140   2.0000      -0.989769       -26.9330
 141   2.0000      -0.984627       -26.7930
 142   2.0000      -0.980554       -26.6822
 143   2.0000      -0.977067       -26.5873
 144   2.0000      -0.975748       -26.5515
 145   2.0000      -0.947057       -25.7707
 146   2.0000      -0.942149       -25.6372
 147   2.0000      -0.931887       -25.3579
 148   2.0000      -0.928343       -25.2615
 149   2.0000      -0.926013       -25.1981
 150   2.0000      -0.912538       -24.8314
 151   2.0000      -0.910586       -24.7783
 152   2.0000      -0.901743       -24.5377
 153   2.0000      -0.900887       -24.5144
 154   2.0000      -0.896222       -24.3874
 155   2.0000      -0.895399       -24.3650
 156   2.0000      -0.890568       -24.2336
 157   2.0000      -0.886374       -24.1195
 158   2.0000      -0.880069       -23.9479
 159   2.0000      -0.875149       -23.8140
 160   2.0000      -0.865663       -23.5559
 161   2.0000      -0.853289       -23.2192
 162   2.0000      -0.840868       -22.8812
 163   2.0000      -0.821663       -22.3586
 164   2.0000      -0.808853       -22.0100
 165   2.0000      -0.807764       -21.9804
 166   2.0000      -0.804308       -21.8863
 167   2.0000      -0.800201       -21.7746
 168   2.0000      -0.795497       -21.6466
 169   2.0000      -0.787848       -21.4384
 170   2.0000      -0.771348       -20.9895
 171   2.0000      -0.756818       -20.5941
 172   2.0000      -0.755096       -20.5472
 173   2.0000      -0.749719       -20.4009
 174   2.0000      -0.739143       -20.1131
 175   2.0000      -0.729658       -19.8550
 176   2.0000      -0.725407       -19.7393
 177   2.0000      -0.722223       -19.6527
 178   2.0000      -0.720477       -19.6052
 179   2.0000      -0.716794       -19.5050
 180   2.0000      -0.715009       -19.4564
 181   2.0000      -0.713886       -19.4258
 182   2.0000      -0.710371       -19.3302
 183   2.0000      -0.706743       -19.2314
 184   2.0000      -0.703862       -19.1531
 185   2.0000      -0.700040       -19.0491
 186   2.0000      -0.691425       -18.8146
 187   2.0000      -0.689413       -18.7599
 188   2.0000      -0.675437       -18.3796
 189   2.0000      -0.670253       -18.2385
 190   2.0000      -0.660394       -17.9702
 191   2.0000      -0.658681       -17.9236
 192   2.0000      -0.656582       -17.8665
 193   2.0000      -0.656399       -17.8615
 194   2.0000      -0.651827       -17.7371
 195   2.0000      -0.650989       -17.7143
 196   2.0000      -0.644750       -17.5445
 197   2.0000      -0.644075       -17.5262
 198   2.0000      -0.639752       -17.4085
 199   2.0000      -0.635319       -17.2879
 200   2.0000      -0.624378       -16.9902
 201   2.0000      -0.619512       -16.8578
 202   2.0000      -0.617696       -16.8084
 203   2.0000      -0.609651       -16.5894
 204   2.0000      -0.602061       -16.3829
 205   2.0000      -0.600623       -16.3438
 206   2.0000      -0.596000       -16.2180
 207   2.0000      -0.587411       -15.9843
 208   2.0000      -0.575067       -15.6484
 209   2.0000      -0.574688       -15.6380
 210   2.0000      -0.572638       -15.5823
 211   2.0000      -0.572098       -15.5676
 212   2.0000      -0.570781       -15.5317
 213   2.0000      -0.568927       -15.4813
 214   2.0000      -0.566213       -15.4074
 215   2.0000      -0.565762       -15.3952
 216   2.0000      -0.565077       -15.3765
 217   2.0000      -0.561915       -15.2905
 218   2.0000      -0.558533       -15.1984
 219   2.0000      -0.552597       -15.0369
 220   2.0000      -0.551231       -14.9998
 221   2.0000      -0.549594       -14.9552
 222   2.0000      -0.542795       -14.7702
 223   2.0000      -0.542275       -14.7561
 224   2.0000      -0.540385       -14.7046
 225   2.0000      -0.538802       -14.6615
 226   2.0000      -0.535246       -14.5648
 227   2.0000      -0.533109       -14.5066
 228   2.0000      -0.531844       -14.4722
 229   2.0000      -0.530857       -14.4454
 230   2.0000      -0.530053       -14.4235
 231   2.0000      -0.528835       -14.3903
 232   2.0000      -0.527426       -14.3520
 233   2.0000      -0.526035       -14.3141
 234   2.0000      -0.523580       -14.2473
 235   2.0000      -0.522086       -14.2067
 236   2.0000      -0.518321       -14.1042
 237   2.0000      -0.517378       -14.0786
 238   2.0000      -0.515178       -14.0187
 239   2.0000      -0.514764       -14.0074
 240   2.0000      -0.512351       -13.9418
 241   2.0000      -0.511070       -13.9069
 242   2.0000      -0.507834       -13.8189
 243   2.0000      -0.506753       -13.7895
 244   2.0000      -0.502864       -13.6836
 245   2.0000      -0.502156       -13.6644
 246   2.0000      -0.499522       -13.5927
 247   2.0000      -0.494961       -13.4686
 248   2.0000      -0.492146       -13.3920
 249   2.0000      -0.488781       -13.3004
 250   2.0000      -0.486358       -13.2345
 251   2.0000      -0.482605       -13.1324
 252   2.0000      -0.481889       -13.1129
 253   2.0000      -0.481240       -13.0952
 254   2.0000      -0.479306       -13.0426
 255   2.0000      -0.479113       -13.0373
 256   2.0000      -0.478837       -13.0298
 257   2.0000      -0.478399       -13.0179
 258   2.0000      -0.473679       -12.8895
 259   2.0000      -0.472810       -12.8658
 260   2.0000      -0.472458       -12.8562
 261   2.0000      -0.471517       -12.8306
 262   2.0000      -0.471232       -12.8229
 263   2.0000      -0.467942       -12.7334
 264   2.0000      -0.466836       -12.7033
 265   2.0000      -0.465418       -12.6647
 266   2.0000      -0.465185       -12.6583
 267   2.0000      -0.464669       -12.6443
 268   2.0000      -0.463685       -12.6175
 269   2.0000      -0.462547       -12.5865
 270   2.0000      -0.461619       -12.5613
 271   2.0000      -0.461426       -12.5560
 272   2.0000      -0.460914       -12.5421
 273   2.0000      -0.459191       -12.4952
 274   2.0000      -0.458608       -12.4794
 275   2.0000      -0.456878       -12.4323
 276   2.0000      -0.456520       -12.4226
 277   2.0000      -0.455722       -12.4008
 278   2.0000      -0.455070       -12.3831
 279   2.0000      -0.450502       -12.2588
 280   2.0000      -0.448601       -12.2071
 281   2.0000      -0.448175       -12.1955
 282   2.0000      -0.446726       -12.1560
 283   2.0000      -0.445672       -12.1273
 284   2.0000      -0.444400       -12.0927
 285   2.0000      -0.443033       -12.0555
 286   2.0000      -0.442046       -12.0287
 287   2.0000      -0.440892       -11.9973
 288   2.0000      -0.440636       -11.9903
 289   2.0000      -0.434561       -11.8250
 290   2.0000      -0.431659       -11.7460
 291   2.0000      -0.427983       -11.6460
 292   2.0000      -0.426428       -11.6037
 293   2.0000      -0.424213       -11.5434
 294   2.0000      -0.423785       -11.5318
 295   2.0000      -0.415002       -11.2928
 296   2.0000      -0.408995       -11.1293
 297   2.0000      -0.407426       -11.0866
 298   2.0000      -0.404147       -10.9974
 299   2.0000      -0.394010       -10.7216
 300   2.0000      -0.379666       -10.3312
 301   2.0000      -0.377416       -10.2700
 302   2.0000      -0.377181       -10.2636
 303   2.0000      -0.376877       -10.2554
 304   2.0000      -0.374024       -10.1777
 305   2.0000      -0.371086       -10.0978
 306   2.0000      -0.365170        -9.9368
 307   2.0000      -0.364190        -9.9101
 308   2.0000      -0.363461        -9.8903
 309   2.0000      -0.361926        -9.8485
 310   2.0000      -0.355342        -9.6693
 311   2.0000      -0.346280        -9.4228
 312   2.0000      -0.345059        -9.3895
 313   2.0000      -0.343067        -9.3353
 314   2.0000      -0.341169        -9.2837
 315   2.0000      -0.334498        -9.1022
 316   2.0000      -0.315225        -8.5777
 317   2.0000      -0.288814        -7.8590
 318   2.0000      -0.263090        -7.1590
 319   0.0000      -0.137936        -3.7534
 320   0.0000      -0.130474        -3.5504
 321   0.0000      -0.124838        -3.3970
 322   0.0000      -0.111314        -3.0290
 323   0.0000      -0.109989        -2.9930

MULLIKEN ATOMIC CHARGES
-----------------------
   0 C :   -0.073713
   1 C :    0.006656
   2 C :    0.171547
   3 O :   -0.155765
   4 O :   -0.132595
   5 C :   -0.048862
   6 C :   -0.222984
   7 N :    0.133774
   8 C :   -0.029416
   9 C :   -0.001347
  10 C :    0.065404
  11 C :    0.293409
  12 C :   -0.324338
  13 C :   -0.192183
  14 N :    0.181625
  15 C :   -0.207308
  16 N :    0.168287
  17 C :   -0.107756
  18 C :    0.162524
  19 O :   -0.137814
  20 C :    0.043232
  21 C :   -0.115931
  22 C :    0.022114
  23 C :   -0.018126
  24 C :   -0.076149
  25 S :    0.216821
  26 C :   -0.104755
  27 C :    0.028199
  28 C :    0.304305
  29 C :   -0.284698
  30 C :   -0.189325
  31 N :    0.177045
  32 C :   -0.186881
  33 N :    0.192688
  34 C :   -0.068222
  35 C :   -0.042037
  36 S :    0.209427
  37 C :   -0.054356
  38 C :   -0.060773
  39 C :    0.017137
  40 C :   -0.094945
  41 S :    0.210551
  42 C :   -0.096257
  43 C :    0.014308
  44 C :    0.299765
  45 C :   -0.284941
  46 C :   -0.185097
  47 N :    0.175833
  48 C :   -0.186876
  49 N :    0.177511
  50 C :   -0.060856
  51 C :   -0.053681
  52 S :    0.210714
  53 C :   -0.044072
  54 C :   -0.065820
  55 C :    0.026343
  56 C :   -0.106820
  57 S :    0.209970
  58 C :   -0.063894
  59 C :   -0.007019
  60 C :    0.301543
  61 C :   -0.277332
  62 C :   -0.178966
  63 N :    0.167224
  64 C :   -0.185857
  65 N :    0.178480
  66 C :    0.003287
  67 C :   -0.113090
  68 S :    0.225698
  69 C :    0.090287
  70 C :   -0.150056
  71 C :    0.143795
  72 O :   -0.127765
  73 C :    0.009755
  74 C :    0.027733
  75 C :   -0.079999
  76 C :    0.014129
  77 C :   -0.076679
  78 C :   -0.031173
  79 C :   -0.157133
  80 N :    0.141848
  81 C :    0.184150
  82 O :   -0.144505
  83 O :   -0.137020
  84 C :    0.271134
  85 C :   -0.322722
  86 C :   -0.201942
  87 N :    0.177200
  88 C :   -0.161945
  89 N :    0.160445
  90 H :    0.032705
  91 H :    0.181310
  92 H :    0.018023
  93 H :    0.025469
  94 H :    0.037401
  95 H :    0.016133
  96 H :    0.015844
  97 H :    0.016181
  98 H :    0.016481
  99 H :    0.023977
 100 H :    0.026808
 101 H :   -0.004371
 102 H :    0.020174
 103 H :    0.189763
Sum of atomic charges:   -0.0000000

LOEWDIN ATOMIC CHARGES
----------------------
   0 C :    0.038131
   1 C :   -0.032391
   2 C :    0.081728
   3 O :   -0.135484
   4 O :   -0.008724
   5 C :   -0.054823
   6 C :   -0.042141
   7 N :   -0.026776
   8 C :    0.048577
   9 C :   -0.031550
  10 C :    0.003406
  11 C :    0.066845
  12 C :   -0.122839
  13 C :   -0.025834
  14 N :   -0.027145
  15 C :   -0.024304
  16 N :   -0.039787
  17 C :   -0.103241
  18 C :    0.084534
  19 O :   -0.127407
  20 C :    0.049284
  21 C :   -0.179451
  22 C :    0.026512
  23 C :   -0.075037
  24 C :   -0.153247
  25 S :    0.501485
  26 C :   -0.192412
  27 C :   -0.046614
  28 C :    0.074556
  29 C :   -0.088559
  30 C :   -0.015197
  31 N :   -0.026384
  32 C :   -0.021121
  33 N :   -0.012141
  34 C :   -0.040738
  35 C :   -0.164747
  36 S :    0.493698
  37 C :   -0.182872
  38 C :   -0.030873
  39 C :   -0.065499
  40 C :   -0.176076
  41 S :    0.495050
  42 C :   -0.177250
  43 C :   -0.064871
  44 C :    0.079770
  45 C :   -0.094324
  46 C :   -0.016239
  47 N :   -0.026092
  48 C :   -0.016547
  49 N :   -0.025525
  50 C :   -0.031907
  51 C :   -0.181938
  52 S :    0.494412
  53 C :   -0.166516
  54 C :   -0.038557
  55 C :   -0.049827
  56 C :   -0.188227
  57 S :    0.495795
  58 C :   -0.152188
  59 C :   -0.067797
  60 C :    0.080855
  61 C :   -0.092642
  62 C :   -0.010455
  63 N :   -0.030638
  64 C :   -0.017010
  65 N :   -0.023993
  66 C :    0.015844
  67 C :   -0.184176
  68 S :    0.507589
  69 C :    0.051212
  70 C :   -0.101220
  71 C :    0.083832
  72 O :   -0.128259
  73 C :   -0.033551
  74 C :    0.003179
  75 C :   -0.002274
  76 C :   -0.035780
  77 C :   -0.022578
  78 C :    0.050638
  79 C :   -0.034850
  80 N :   -0.023539
  81 C :    0.081128
  82 O :   -0.116244
  83 O :   -0.012380
  84 C :    0.061050
  85 C :   -0.130223
  86 C :   -0.015818
  87 N :   -0.035461
  88 C :   -0.019837
  89 N :   -0.038439
  90 H :    0.051526
  91 H :    0.086983
  92 H :    0.053112
  93 H :    0.045415
  94 H :    0.045484
  95 H :    0.037578
  96 H :    0.037355
  97 H :    0.037056
  98 H :    0.037986
  99 H :    0.042338
 100 H :    0.048519
 101 H :    0.035742
 102 H :    0.054374
 103 H :    0.098011

  Mayer bond orders larger than 0.100000
B(  0-C ,  1-C ) :   1.3773 B(  0-C , 10-C ) :   1.3253 B(  0-C , 90-H ) :   0.9874
B(  1-C ,  2-C ) :   0.8565 B(  1-C ,  5-C ) :   1.3508 B(  2-C ,  3-O ) :   2.1749
B(  2-C ,  4-O ) :   1.2753 B(  4-O , 91-H ) :   0.9389 B(  5-C ,  6-C ) :   1.0567
B(  5-C ,  8-C ) :   1.3522 B(  6-C ,  7-N ) :   2.9914 B(  8-C ,  9-C ) :   1.3764
B(  8-C , 92-H ) :   1.0116 B(  9-C , 10-C ) :   1.3313 B(  9-C , 18-C ) :   0.9283
B( 10-C , 11-C ) :   0.9734 B( 11-C , 12-C ) :   1.6566 B( 11-C , 17-C ) :   1.0775
B( 12-C , 13-C ) :   1.1385 B( 12-C , 15-C ) :   1.1392 B( 13-C , 14-N ) :   2.9843
B( 15-C , 16-N ) :   2.9949 B( 17-C , 18-C ) :   0.9550 B( 17-C , 20-C ) :   1.5722
B( 18-C , 19-O ) :   2.1994 B( 20-C , 21-C ) :   1.2246 B( 20-C , 93-H ) :   0.9234
B( 21-C , 22-C ) :   1.3860 B( 21-C , 25-S ) :   1.0687 B( 22-C , 23-C ) :   1.3449
B( 22-C , 94-H ) :   0.9734 B( 23-C , 24-C ) :   1.3691 B( 23-C , 28-C ) :   0.9956
B( 24-C , 25-S ) :   1.1742 B( 24-C , 26-C ) :   1.2104 B( 26-C , 27-C ) :   1.4336
B( 26-C , 36-S ) :   1.1056 B( 27-C , 28-C ) :   0.9936 B( 27-C , 34-C ) :   1.3147
B( 28-C , 29-C ) :   1.7220 B( 29-C , 30-C ) :   1.1348 B( 29-C , 32-C ) :   1.1330
B( 30-C , 31-N ) :   2.9873 B( 32-C , 33-N ) :   2.9928 B( 34-C , 35-C ) :   1.4402
B( 34-C , 95-H ) :   0.9870 B( 35-C , 36-S ) :   1.1254 B( 35-C , 37-C ) :   1.1738
B( 37-C , 38-C ) :   1.4484 B( 37-C , 41-S ) :   1.1081 B( 38-C , 39-C ) :   1.3110
B( 38-C , 96-H ) :   0.9861 B( 39-C , 40-C ) :   1.4376 B( 39-C , 44-C ) :   0.9947
B( 40-C , 41-S ) :   1.1273 B( 40-C , 42-C ) :   1.1896 B( 42-C , 43-C ) :   1.4388
B( 42-C , 52-S ) :   1.1252 B( 43-C , 44-C ) :   0.9937 B( 43-C , 50-C ) :   1.3105
B( 44-C , 45-C ) :   1.7201 B( 45-C , 46-C ) :   1.1305 B( 45-C , 48-C ) :   1.1319
B( 46-C , 47-N ) :   2.9891 B( 48-C , 49-N ) :   2.9894 B( 50-C , 51-C ) :   1.4490
B( 50-C , 97-H ) :   0.9856 B( 51-C , 52-S ) :   1.1102 B( 51-C , 53-C ) :   1.1731
B( 53-C , 54-C ) :   1.4430 B( 53-C , 57-S ) :   1.1247 B( 54-C , 55-C ) :   1.3132
B( 54-C , 98-H ) :   0.9875 B( 55-C , 56-C ) :   1.4365 B( 55-C , 60-C ) :   0.9907
B( 56-C , 57-S ) :   1.1100 B( 56-C , 58-C ) :   1.2024 B( 58-C , 59-C ) :   1.3939
B( 58-C , 68-S ) :   1.1654 B( 59-C , 60-C ) :   1.0004 B( 59-C , 66-C ) :   1.3780
B( 60-C , 61-C ) :   1.7219 B( 61-C , 62-C ) :   1.1333 B( 61-C , 64-C ) :   1.1296
B( 62-C , 63-N ) :   2.9780 B( 64-C , 65-N ) :   2.9912 B( 66-C , 67-C ) :   1.3702
B( 66-C , 99-H ) :   0.9766 B( 67-C , 68-S ) :   1.0817 B( 67-C , 69-C ) :   1.1705
B( 69-C , 70-C ) :   1.6338 B( 69-C ,100-H ) :   0.9274 B( 70-C , 71-C ) :   0.9511
B( 70-C , 84-C ) :   1.0524 B( 71-C , 72-O ) :   2.2750 B( 71-C , 73-C ) :   0.9001
B( 73-C , 74-C ) :   1.3408 B( 73-C , 78-C ) :   1.3589 B( 74-C , 75-C ) :   1.4007
B( 74-C , 84-C ) :   0.9935 B( 75-C , 76-C ) :   1.3179 B( 75-C ,101-H ) :   0.9600
B( 76-C , 77-C ) :   1.3951 B( 76-C , 81-C ) :   0.8678 B( 77-C , 78-C ) :   1.3664
B( 77-C , 79-C ) :   1.0674 B( 78-C ,102-H ) :   1.0149 B( 79-C , 80-N ) :   3.0369
B( 81-C , 82-O ) :   2.1661 B( 81-C , 83-O ) :   1.2582 B( 83-O ,103-H ) :   0.9492
B( 84-C , 85-C ) :   1.6482 B( 85-C , 86-C ) :   1.1744 B( 85-C , 88-C ) :   1.1250
B( 86-C , 87-N ) :   2.9930 B( 88-C , 89-N ) :   2.9729

-----------------------------------------------------------------------------
         ABSORPTION SPECTRUM VIA TRANSITION ELECTRIC DIPOLE MOMENTS
-----------------------------------------------------------------------------
State   Energy  Wavelength   fosc         T2         TX        TY        TZ
        (cm-1)    (nm)                  (au**2)     (au)      (au)      (au)
-----------------------------------------------------------------------------
   0   11412.5    876.2   0.886931164  25.58493  -2.62299   4.05804  -1.49571
   1   12775.0    782.8   0.102049676   2.62982   0.78095  -1.25872   0.65996
   2   13322.7    750.6   0.121832256   3.01055  -1.01852   1.37817  -0.27167
   3   18714.6    534.3   1.169858925  20.57918  -2.41641   3.33831  -1.89627
   4   20046.9    498.8   0.637414362  10.46767  -1.77961   2.61038  -0.69753
   5   20364.4    491.1   0.006729407   0.10879  -0.13889   0.20418  -0.21865
   6   21908.9    456.4   0.058829017   0.88399  -0.56780   0.31678  -0.67915
   7   22846.5    437.7   0.021606460   0.31134   0.26544  -0.39967   0.28486
   8   23844.6    419.4   0.345622728   4.77186  -0.83288   2.01909   0.03775
   9   24642.0    405.8   0.314665139   4.20386   0.92177  -1.71702   0.63720
  10   26412.3    378.6   0.014299516   0.17823   0.26685  -0.20903   0.25165
  11   27199.2    367.7   0.018511065   0.22405   0.12426   0.17847   0.42043
  12   27545.9    363.0   0.053363712   0.63777   0.00710  -0.76124  -0.24132
  13   27745.7    360.4   0.032150000   0.38147  -0.39659   0.41382   0.23010
  14   28062.7    356.3   0.136651037   1.60309  -0.54008   1.13645  -0.14106
  15   29052.0    344.2   0.340411157   3.85747   1.08914  -1.35971   0.90689
  16   29187.1    342.6   0.044509535   0.50204   0.30673  -0.56852  -0.29109
  17   29860.0    334.9   0.013555323   0.14945  -0.31720   0.08148   0.20541
  18   30284.1    330.2   0.175783907   1.91091  -0.57153   0.51499   1.14850
  19   30482.2    328.1   0.086208921   0.93107  -0.01787  -0.25568   0.93026
  20   30867.7    324.0   0.061500997   0.65592  -0.24045  -0.47693   0.60881
  21   31131.4    321.2   0.008077583   0.08542  -0.26400   0.04534  -0.11690
  22   31282.5    319.7   0.168968073   1.77819   0.48259   0.56881  -1.10533
  23   31426.6    318.2   0.833375561   8.73010   0.87024  -0.60096  -2.75892
  24   31510.9    317.4   0.182318048   1.90478  -0.40179  -0.55013   1.20029
  25   31948.9    313.0   0.051215013   0.52774  -0.26642   0.09624   0.66895
  26   32248.9    310.1   0.016283753   0.16623  -0.37847   0.07659  -0.13088
  27   32537.7    307.3   0.106433897   1.07688   0.21083  -0.43282   0.91930
  28   32746.0    305.4   0.013890385   0.13965  -0.20970   0.18672   0.24659
  29   32935.3    303.6   0.379296852   3.79135   0.10212   1.27021  -1.47224
  30   33074.4    302.3   0.481106194   4.78878  -0.79034   1.84421   0.87351
  31   33307.7    300.2   0.064735526   0.63984   0.11323  -0.76164  -0.21662
  32   33431.1    299.1   0.145458122   1.43239  -0.64330   0.98988  -0.19674
  33   33715.3    296.6   0.026530564   0.25906  -0.27453   0.42227  -0.07335
  34   34004.8    294.1   0.076148632   0.73722  -0.48556   0.04093  -0.70695
  35   34191.1    292.5   0.101499682   0.97730   0.40688  -0.19564  -0.87948
  36   34285.7    291.7   0.144326226   1.38582   0.12097  -0.91331  -0.73285
  37   34548.2    289.5   0.196401129   1.87152   0.20888  -1.04114   0.86251
  38   34962.6    286.0   0.067224100   0.63299   0.32688  -0.38402   0.61536
  39   35044.5    285.4   0.023847628   0.22403  -0.34748   0.16064   0.27835
  40   35119.2    284.7   0.623936335   5.84887  -0.50942   2.20023   0.86508
  41   35164.0    284.4   0.108450282   1.01533   0.12572   0.77665   0.62955
  42   35349.1    282.9   0.115453352   1.07524   0.43350   0.46288  -0.82040
  43   35884.2    278.7   0.046923065   0.43049   0.26290   0.59502   0.08556
  44   36004.7    277.7   0.068954448   0.63049   0.25778  -0.48683  -0.57187
  45   36141.2    276.7   0.008671807   0.07899   0.26066   0.06258   0.08444
  46   36261.2    275.8   0.123501585   1.12126   0.34083   0.58114   0.81693
  47   36835.6    271.5   0.048494906   0.43341  -0.19428   0.46166  -0.42724
  48   36863.6    271.3   0.042484308   0.37941   0.01928  -0.48002  -0.38551
  49   37204.6    268.8   0.342766078   3.03303  -0.01621   0.92854   1.47329
  50   37482.4    266.8   0.034530848   0.30329  -0.25008   0.41649  -0.25938
  51   37767.3    264.8   0.061937840   0.53990  -0.02431  -0.70533  -0.20451
  52   38116.3    262.4   0.012181132   0.10521   0.07795  -0.31124  -0.04759
  53   38149.5    262.1   0.008206140   0.07082  -0.23695   0.10330  -0.06322
  54   38324.0    260.9   0.040655994   0.34924   0.21288  -0.07186   0.54659
  55   38392.6    260.5   0.016464354   0.14118  -0.23946   0.08078  -0.27805
  56   38506.9    259.7   0.010206591   0.08726  -0.02601   0.05580  -0.28891
  57   38814.0    257.6   0.023773733   0.20164  -0.13002   0.23635   0.35900
  58   38965.5    256.6   0.003255676   0.02751  -0.16106   0.03615   0.01610
  59   38986.6    256.5   0.030275397   0.25565   0.19642   0.15514   0.43932
  60   39243.8    254.8   0.035205521   0.29534   0.11408   0.18462   0.49824
  61   39325.3    254.3   0.053315808   0.44633   0.20241  -0.33594   0.54084
  62   39375.4    254.0   0.029633370   0.24776   0.22246   0.14861   0.41974
  63   39468.3    253.4   0.060563336   0.50517   0.12771  -0.13638  -0.68576
  64   39777.7    251.4   0.027828421   0.23032  -0.33793   0.29951   0.16253
  65   39818.2    251.1   0.042926194   0.35491  -0.19691   0.27971  -0.48775
  66   39856.2    250.9   0.001622966   0.01341   0.03677  -0.10928   0.01056
  67   39918.4    250.5   0.027762527   0.22896   0.04346   0.19573  -0.43447
  68   40154.6    249.0   0.014608735   0.11977  -0.04656   0.32389  -0.11269
  69   40220.0    248.6   0.092713050   0.75888   0.46977  -0.58108   0.44781

FINAL SINGLE POINT ENERGY     -6015.413596792738

DIPOLE MOMENT
-------------
                                X             Y             Z
Electronic contribution:      3.08503      -2.08685      -7.05952
Nuclear contribution   :     -2.75211       1.91473       5.25154
                        -----------------------------------------
Total Dipole Moment    :      0.33292      -0.17212      -1.80799
                        -----------------------------------------
Magnitude (a.u.)       :      1.84642
Magnitude (Debye)      :      4.69323

Rotational constants in cm-1:     0.002064     0.000100     0.000096
Rotational constants in MHz :    61.889525     2.995243     2.891796

                             ****ORCA TERMINATED NORMALLY****
TOTAL RUN TIME: 0 days 0 hours 18 minutes 20 seconds 241 msec
