                         Program Version 4.2.0 -  RELEASE  -
|  1> # ORCA input file
|  2> # SCF done       -198.139607379745          0.000613272397
|  3> ! CAM-B3LYP def2-SVP def2/J RIJCOSX Grid4 TightSCF
|  4> %maxcore 5000
|  5> %tddft
|  6>     Mode sTDDFT
|  7>     Ethresh 5.0
|  8>     maxcore 5000
|  9> end
| 10>
| 11> %pal
| 12>   nprocs 6
| 13>   end
| 14> * xyz 0 1
| 15>    C        2.02700        -2.95388        -1.85077
| 16>    C        0.78948        -3.46770        -1.57944
| 17>    F        0.10892        -4.10633        -2.55182
| 18>    C        0.19013        -3.35788        -0.31848
| 19>    C        0.86670        -2.71368         0.68052
| 20>    C        2.14544        -2.16586         0.45632
| 21>    C        2.73613        -2.28564        -0.83442
| 22>    C        4.01609        -1.73587        -1.08665
| 23>    C        4.68051        -1.09632        -0.07727
| 24>    C        4.09368        -0.99714         1.21655
| 25>    C        2.85783        -1.50659         1.48505
| 26>    C        5.03959        -0.31165         2.12191
| 27>    O        4.86614        -0.01021         3.28402
| 28>    C        6.27154        -0.11133         1.32508
| 29>    C        5.98249        -0.42948        -0.04448
| 30>    C        6.67399        -0.00348        -1.15796
| 31>    C        7.77767         0.86504        -1.11266
| 32>    N        8.65514         1.60714        -1.13653
| 33>    C        6.29829        -0.30040        -2.48067
| 34>    N        6.05284        -0.52067        -3.58151
| 35>    C        7.41871         0.30124         1.96843
| 36>    C        8.75317         0.20171         1.57699
| 37>    S        9.92565         1.26846         2.30283
| 38>    C       11.21075         0.72980         1.27821
| 39>    C       10.78166        -0.36515         0.48833
| 40>    C        9.39756        -0.66002         0.66001
| 41>    C        8.83670        -1.78018         0.02746
| 42>    C        9.62278        -2.54595        -0.79184
| 43>    F        9.09800        -3.62295        -1.39710
| 44>    C       10.98416        -2.24770        -0.97348
| 45>    F       11.73332        -3.04413        -1.75514
| 46>    C       11.56898        -1.19030        -0.32771
| 47>    C       12.43960         1.40797         1.32730
| 48>    C       13.35942         1.43294         0.31645
| 49>    C       14.60633         2.08197         0.30611
| 50>    S       15.51539         1.99607        -1.18959
| 51>    C       16.82733         2.93819        -0.53576
| 52>    C       16.55199         3.28179         0.79174
| 53>    C       15.30908         2.83278         1.25044
| 54>    S       14.68511         3.20408         2.86457
| 55>    C       14.45438         5.01362         2.69256
| 56>    C       13.35219         5.34263         1.70714
| 57>    S       17.70812         4.22967         1.73339
| 58>    C       18.13659         3.00658         3.03889
| 59>    C       19.01205         3.67006         4.08145
| 60>    C       17.97200         3.24205        -1.28134
| 61>    C       18.12010         2.90505        -2.60412
| 62>    C       19.24804         3.16577        -3.37962
| 63>    C       19.30153         2.84865        -4.72209
| 64>    C       20.39118         3.05566        -5.55353
| 65>    C       20.38663         2.76225        -6.90991
| 66>    C       21.44595         2.90195        -7.82367
| 67>    C       21.13218         2.53975        -9.10806
| 68>    C       19.80647         2.10735        -9.26555
| 69>    S       18.96657         2.15442        -7.73309
| 70>    C       19.15890         1.70362       -10.42839
| 71>    C       19.68838         1.59380       -11.72755
| 72>    C       18.77605         1.18566       -12.65876
| 73>    C       17.47768         0.95757       -12.14902
| 74>    S       17.47087         1.26956       -10.42091
| 75>    C       16.38433         0.57164       -12.89037
| 76>    C       15.06232         0.35946       -12.46414
| 77>    C       14.50338         0.45730       -11.17674
| 78>    C       13.12730         0.17240       -11.26059
| 79>    C       12.13752         0.14138       -10.29201
| 80>    C       10.83955        -0.16865       -10.70087
| 81>    C        9.64248        -0.27380        -9.99295
| 82>    C        8.59419        -0.61067       -10.89351
| 83>    C        9.13887        -0.71950       -12.16763
| 84>    C       10.53615        -0.45167       -12.09424
| 85>    C       11.51229        -0.42817       -13.05807
| 86>    C       12.82458        -0.11378       -12.65250
| 87>    C       14.00472        -0.00039       -13.36466
| 88>    C        7.22017        -0.79147       -10.48736
| 89>    C        6.20869        -1.08718       -11.29924
| 90>    H        2.45718        -3.05519        -2.83493
| 91>    H       -0.78874        -3.78292        -0.16255
| 92>    H        0.42598        -2.61702         1.66150
| 93>    H        4.44215        -1.84623        -2.07126
| 94>    H        2.42699        -1.41240         2.47061
| 95>    H        7.24252         0.73929         2.94697
| 96>    H        7.81716        -2.07637         0.20829
| 97>    H       12.63048        -1.04161        -0.42774
| 98>    H       12.61453         2.00463         2.21100
| 99>    H       13.10593         0.95729        -0.62075
|100>    H       15.40900         5.44427         2.39367
|101>    H       14.20446         5.34595         3.69932
|102>    H       13.59957         4.97171         0.71390
|103>    H       13.22466         6.42167         1.64927
|104>    H       12.40968         4.89620         2.01707
|105>    H       18.65580         2.18598         2.54246
|106>    H       17.20514         2.64660         3.47301
|107>    H       19.92516         4.05215         3.62973
|108>    H       19.27738         2.94744         4.85017
|109>    H       18.48484         4.49909         4.54831
|110>    H       18.75571         3.78184        -0.76742
|111>    H       17.29112         2.40157        -3.08862
|112>    H       20.10288         3.63698        -2.91280
|113>    H       18.41934         2.40386        -5.16822
|114>    H       21.30257         3.46666        -5.13968
|115>    H       22.41155         3.26296        -7.51606
|116>    H       21.82167         2.58379        -9.93202
|117>    H       20.71772         1.81454       -11.94544
|118>    H       18.99879         1.04690       -13.70231
|119>    H       16.56937         0.42728       -13.94857
|120>    H       15.02297         0.70551       -10.27151
|121>    H       12.35918         0.35260        -9.25577
|122>    H        9.51958        -0.12492        -8.93503
|123>    H        8.61038        -0.96378       -13.07003
|124>    H       11.29363        -0.63896       -14.09563
|125>    H       14.12822        -0.14881       -14.42268
|126>    H        7.03640        -0.66784        -9.42765
|127>    H        6.34380        -1.22046       -12.35907
|128>    H        5.20651        -1.20939       -10.92722
|129> *
|130>
|131>                          ****END OF INPUT****

CARTESIAN COORDINATES (ANGSTROEM)
---------------------------------
  C      2.027000   -2.953880   -1.850770
  C      0.789480   -3.467700   -1.579440
  F      0.108920   -4.106330   -2.551820
  C      0.190130   -3.357880   -0.318480
  C      0.866700   -2.713680    0.680520
  C      2.145440   -2.165860    0.456320
  C      2.736130   -2.285640   -0.834420
  C      4.016090   -1.735870   -1.086650
  C      4.680510   -1.096320   -0.077270
  C      4.093680   -0.997140    1.216550
  C      2.857830   -1.506590    1.485050
  C      5.039590   -0.311650    2.121910
  O      4.866140   -0.010210    3.284020
  C      6.271540   -0.111330    1.325080
  C      5.982490   -0.429480   -0.044480
  C      6.673990   -0.003480   -1.157960
  C      7.777670    0.865040   -1.112660
  N      8.655140    1.607140   -1.136530
  C      6.298290   -0.300400   -2.480670
  N      6.052840   -0.520670   -3.581510
  C      7.418710    0.301240    1.968430
  C      8.753170    0.201710    1.576990
  S      9.925650    1.268460    2.302830
  C     11.210750    0.729800    1.278210
  C     10.781660   -0.365150    0.488330
  C      9.397560   -0.660020    0.660010
  C      8.836700   -1.780180    0.027460
  C      9.622780   -2.545950   -0.791840
  F      9.098000   -3.622950   -1.397100
  C     10.984160   -2.247700   -0.973480
  F     11.733320   -3.044130   -1.755140
  C     11.568980   -1.190300   -0.327710
  C     12.439600    1.407970    1.327300
  C     13.359420    1.432940    0.316450
  C     14.606330    2.081970    0.306110
  S     15.515390    1.996070   -1.189590
  C     16.827330    2.938190   -0.535760
  C     16.551990    3.281790    0.791740
  C     15.309080    2.832780    1.250440
  S     14.685110    3.204080    2.864570
  C     14.454380    5.013620    2.692560
  C     13.352190    5.342630    1.707140
  S     17.708120    4.229670    1.733390
  C     18.136590    3.006580    3.038890
  C     19.012050    3.670060    4.081450
  C     17.972000    3.242050   -1.281340
  C     18.120100    2.905050   -2.604120
  C     19.248040    3.165770   -3.379620
  C     19.301530    2.848650   -4.722090
  C     20.391180    3.055660   -5.553530
  C     20.386630    2.762250   -6.909910
  C     21.445950    2.901950   -7.823670
  C     21.132180    2.539750   -9.108060
  C     19.806470    2.107350   -9.265550
  S     18.966570    2.154420   -7.733090
  C     19.158900    1.703620  -10.428390
  C     19.688380    1.593800  -11.727550
  C     18.776050    1.185660  -12.658760
  C     17.477680    0.957570  -12.149020
  S     17.470870    1.269560  -10.420910
  C     16.384330    0.571640  -12.890370
  C     15.062320    0.359460  -12.464140
  C     14.503380    0.457300  -11.176740
  C     13.127300    0.172400  -11.260590
  C     12.137520    0.141380  -10.292010
  C     10.839550   -0.168650  -10.700870
  C      9.642480   -0.273800   -9.992950
  C      8.594190   -0.610670  -10.893510
  C      9.138870   -0.719500  -12.167630
  C     10.536150   -0.451670  -12.094240
  C     11.512290   -0.428170  -13.058070
  C     12.824580   -0.113780  -12.652500
  C     14.004720   -0.000390  -13.364660
  C      7.220170   -0.791470  -10.487360
  C      6.208690   -1.087180  -11.299240
  H      2.457180   -3.055190   -2.834930
  H     -0.788740   -3.782920   -0.162550
  H      0.425980   -2.617020    1.661500
  H      4.442150   -1.846230   -2.071260
  H      2.426990   -1.412400    2.470610
  H      7.242520    0.739290    2.946970
  H      7.817160   -2.076370    0.208290
  H     12.630480   -1.041610   -0.427740
  H     12.614530    2.004630    2.211000
  H     13.105930    0.957290   -0.620750
  H     15.409000    5.444270    2.393670
  H     14.204460    5.345950    3.699320
  H     13.599570    4.971710    0.713900
  H     13.224660    6.421670    1.649270
  H     12.409680    4.896200    2.017070
  H     18.655800    2.185980    2.542460
  H     17.205140    2.646600    3.473010
  H     19.925160    4.052150    3.629730
  H     19.277380    2.947440    4.850170
  H     18.484840    4.499090    4.548310
  H     18.755710    3.781840   -0.767420
  H     17.291120    2.401570   -3.088620
  H     20.102880    3.636980   -2.912800
  H     18.419340    2.403860   -5.168220
  H     21.302570    3.466660   -5.139680
  H     22.411550    3.262960   -7.516060
  H     21.821670    2.583790   -9.932020
  H     20.717720    1.814540  -11.945440
  H     18.998790    1.046900  -13.702310
  H     16.569370    0.427280  -13.948570
  H     15.022970    0.705510  -10.271510
  H     12.359180    0.352600   -9.255770
  H      9.519580   -0.124920   -8.935030
  H      8.610380   -0.963780  -13.070030
  H     11.293630   -0.638960  -14.095630
  H     14.128220   -0.148810  -14.422680
  H      7.036400   -0.667840   -9.427650
  H      6.343800   -1.220460  -12.359070
  H      5.206510   -1.209390  -10.927220

 Total Charge           Charge          ....    0
 Multiplicity           Mult            ....    1
 Number of Electrons    NEL             ....  562
 Basis Dimension        Dim             .... 1269

ORBITAL ENERGIES
----------------

  NO   OCC          E(Eh)            E(eV)
   0   2.0000     -88.971270     -2421.0313
   1   2.0000     -88.957121     -2420.6463
   2   2.0000     -88.947232     -2420.3772
   3   2.0000     -88.942914     -2420.2597
   4   2.0000     -88.924818     -2419.7673
   5   2.0000     -88.919366     -2419.6190
   6   2.0000     -24.789263      -674.5502
   7   2.0000     -24.785382      -674.4445
   8   2.0000     -24.774374      -674.1450
   9   2.0000     -19.195051      -522.3239
  10   2.0000     -14.397552      -391.7773
  11   2.0000     -14.396970      -391.7615
  12   2.0000     -10.373396      -282.2745
  13   2.0000     -10.367338      -282.1096
  14   2.0000     -10.356968      -281.8274
  15   2.0000     -10.346615      -281.5457
  16   2.0000     -10.328585      -281.0551
  17   2.0000     -10.321342      -280.8580
  18   2.0000     -10.320502      -280.8351
  19   2.0000     -10.313788      -280.6524
  20   2.0000     -10.310686      -280.5680
  21   2.0000     -10.309206      -280.5278
  22   2.0000     -10.307235      -280.4741
  23   2.0000     -10.307125      -280.4711
  24   2.0000     -10.307004      -280.4678
  25   2.0000     -10.305190      -280.4185
  26   2.0000     -10.304926      -280.4113
  27   2.0000     -10.304467      -280.3988
  28   2.0000     -10.302927      -280.3569
  29   2.0000     -10.302063      -280.3334
  30   2.0000     -10.301979      -280.3311
  31   2.0000     -10.300638      -280.2946
  32   2.0000     -10.300515      -280.2913
  33   2.0000     -10.299558      -280.2652
  34   2.0000     -10.298752      -280.2433
  35   2.0000     -10.296932      -280.1938
  36   2.0000     -10.294673      -280.1323
  37   2.0000     -10.292024      -280.0602
  38   2.0000     -10.290541      -280.0199
  39   2.0000     -10.290050      -280.0065
  40   2.0000     -10.288397      -279.9615
  41   2.0000     -10.287569      -279.9390
  42   2.0000     -10.286958      -279.9224
  43   2.0000     -10.286939      -279.9218
  44   2.0000     -10.286751      -279.9167
  45   2.0000     -10.286665      -279.9144
  46   2.0000     -10.286157      -279.9006
  47   2.0000     -10.285874      -279.8929
  48   2.0000     -10.285373      -279.8792
  49   2.0000     -10.284699      -279.8609
  50   2.0000     -10.283946      -279.8404
  51   2.0000     -10.282926      -279.8126
  52   2.0000     -10.282336      -279.7966
  53   2.0000     -10.282130      -279.7910
  54   2.0000     -10.279285      -279.7136
  55   2.0000     -10.279265      -279.7130
  56   2.0000     -10.277523      -279.6656
  57   2.0000     -10.276843      -279.6471
  58   2.0000     -10.276674      -279.6425
  59   2.0000     -10.276602      -279.6406
  60   2.0000     -10.275908      -279.6217
  61   2.0000     -10.273740      -279.5627
  62   2.0000     -10.271398      -279.4989
  63   2.0000     -10.270980      -279.4876
  64   2.0000     -10.270907      -279.4856
  65   2.0000     -10.268170      -279.4111
  66   2.0000     -10.268110      -279.4095
  67   2.0000     -10.266361      -279.3619
  68   2.0000     -10.265460      -279.3374
  69   2.0000     -10.265035      -279.3258
  70   2.0000     -10.264525      -279.3119
  71   2.0000     -10.264028      -279.2984
  72   2.0000     -10.262248      -279.2500
  73   2.0000     -10.257270      -279.1145
  74   2.0000     -10.254893      -279.0498
  75   2.0000      -8.066817      -219.5093
  76   2.0000      -8.052849      -219.1292
  77   2.0000      -8.043120      -218.8644
  78   2.0000      -8.039344      -218.7617
  79   2.0000      -8.019289      -218.2160
  80   2.0000      -8.013902      -218.0694
  81   2.0000      -6.035790      -164.2422
  82   2.0000      -6.031775      -164.1329
  83   2.0000      -6.029400      -164.0683
  84   2.0000      -6.021967      -163.8660
  85   2.0000      -6.018274      -163.7656
  86   2.0000      -6.014783      -163.6706
  87   2.0000      -6.012800      -163.6166
  88   2.0000      -6.008969      -163.5124
  89   2.0000      -6.008729      -163.5058
  90   2.0000      -6.005015      -163.4048
  91   2.0000      -6.004239      -163.3836
  92   2.0000      -6.000380      -163.2786
  93   2.0000      -5.989888      -162.9931
  94   2.0000      -5.985780      -162.8814
  95   2.0000      -5.984371      -162.8430
  96   2.0000      -5.980477      -162.7371
  97   2.0000      -5.978827      -162.6921
  98   2.0000      -5.973514      -162.5476
  99   2.0000      -1.309288       -35.6276
 100   2.0000      -1.294013       -35.2119
 101   2.0000      -1.288544       -35.0631
 102   2.0000      -1.109464       -30.1900
 103   2.0000      -1.010906       -27.5082
 104   2.0000      -0.999277       -27.1917
 105   2.0000      -0.996162       -27.1069
 106   2.0000      -0.995106       -27.0782
 107   2.0000      -0.987780       -26.8789
 108   2.0000      -0.984768       -26.7969
 109   2.0000      -0.976003       -26.5584
 110   2.0000      -0.973067       -26.4785
 111   2.0000      -0.961097       -26.1528
 112   2.0000      -0.960957       -26.1490
 113   2.0000      -0.947520       -25.7833
 114   2.0000      -0.924091       -25.1458
 115   2.0000      -0.916914       -24.9505
 116   2.0000      -0.910120       -24.7656
 117   2.0000      -0.906226       -24.6597
 118   2.0000      -0.900961       -24.5164
 119   2.0000      -0.896485       -24.3946
 120   2.0000      -0.884363       -24.0647
 121   2.0000      -0.881311       -23.9817
 122   2.0000      -0.874366       -23.7927
 123   2.0000      -0.870892       -23.6982
 124   2.0000      -0.865728       -23.5576
 125   2.0000      -0.865003       -23.5379
 126   2.0000      -0.852021       -23.1847
 127   2.0000      -0.851175       -23.1617
 128   2.0000      -0.842847       -22.9350
 129   2.0000      -0.841450       -22.8970
 130   2.0000      -0.839276       -22.8379
 131   2.0000      -0.837187       -22.7810
 132   2.0000      -0.821194       -22.3458
 133   2.0000      -0.820251       -22.3202
 134   2.0000      -0.815939       -22.2028
 135   2.0000      -0.806681       -21.9509
 136   2.0000      -0.799062       -21.7436
 137   2.0000      -0.793470       -21.5914
 138   2.0000      -0.782523       -21.2935
 139   2.0000      -0.768687       -20.9170
 140   2.0000      -0.763856       -20.7856
 141   2.0000      -0.752174       -20.4677
 142   2.0000      -0.749369       -20.3914
 143   2.0000      -0.744852       -20.2685
 144   2.0000      -0.739038       -20.1102
 145   2.0000      -0.736406       -20.0386
 146   2.0000      -0.720277       -19.5997
 147   2.0000      -0.717246       -19.5173
 148   2.0000      -0.705319       -19.1927
 149   2.0000      -0.696567       -18.9545
 150   2.0000      -0.694616       -18.9015
 151   2.0000      -0.687779       -18.7154
 152   2.0000      -0.679276       -18.4840
 153   2.0000      -0.675015       -18.3681
 154   2.0000      -0.671929       -18.2841
 155   2.0000      -0.669190       -18.2096
 156   2.0000      -0.667633       -18.1672
 157   2.0000      -0.661146       -17.9907
 158   2.0000      -0.654834       -17.8189
 159   2.0000      -0.649049       -17.6615
 160   2.0000      -0.644497       -17.5376
 161   2.0000      -0.642004       -17.4698
 162   2.0000      -0.636800       -17.3282
 163   2.0000      -0.627428       -17.0732
 164   2.0000      -0.626323       -17.0431
 165   2.0000      -0.621103       -16.9011
 166   2.0000      -0.619371       -16.8540
 167   2.0000      -0.617714       -16.8088
 168   2.0000      -0.614941       -16.7334
 169   2.0000      -0.614443       -16.7198
 170   2.0000      -0.611000       -16.6261
 171   2.0000      -0.602649       -16.3989
 172   2.0000      -0.600387       -16.3374
 173   2.0000      -0.592404       -16.1201
 174   2.0000      -0.586312       -15.9544
 175   2.0000      -0.581589       -15.8259
 176   2.0000      -0.580525       -15.7969
 177   2.0000      -0.575892       -15.6708
 178   2.0000      -0.574990       -15.6463
 179   2.0000      -0.571851       -15.5608
 180   2.0000      -0.565380       -15.3848
 181   2.0000      -0.557234       -15.1631
 182   2.0000      -0.552469       -15.0334
 183   2.0000      -0.550548       -14.9812
 184   2.0000      -0.546494       -14.8708
 185   2.0000      -0.545716       -14.8497
 186   2.0000      -0.543799       -14.7975
 187   2.0000      -0.540804       -14.7160
 188   2.0000      -0.538745       -14.6600
 189   2.0000      -0.536837       -14.6081
 190   2.0000      -0.535813       -14.5802
 191   2.0000      -0.534415       -14.5422
 192   2.0000      -0.532513       -14.4904
 193   2.0000      -0.528386       -14.3781
 194   2.0000      -0.527479       -14.3534
 195   2.0000      -0.522509       -14.2182
 196   2.0000      -0.520242       -14.1565
 197   2.0000      -0.516564       -14.0564
 198   2.0000      -0.514580       -14.0024
 199   2.0000      -0.510247       -13.8845
 200   2.0000      -0.509283       -13.8583
 201   2.0000      -0.507603       -13.8126
 202   2.0000      -0.505860       -13.7652
 203   2.0000      -0.501512       -13.6468
 204   2.0000      -0.499103       -13.5813
 205   2.0000      -0.498596       -13.5675
 206   2.0000      -0.495757       -13.4902
 207   2.0000      -0.493419       -13.4266
 208   2.0000      -0.493029       -13.4160
 209   2.0000      -0.491674       -13.3791
 210   2.0000      -0.490013       -13.3339
 211   2.0000      -0.489194       -13.3116
 212   2.0000      -0.484638       -13.1877
 213   2.0000      -0.481719       -13.1082
 214   2.0000      -0.480039       -13.0625
 215   2.0000      -0.478293       -13.0150
 216   2.0000      -0.478050       -13.0084
 217   2.0000      -0.472259       -12.8508
 218   2.0000      -0.468866       -12.7585
 219   2.0000      -0.468530       -12.7494
 220   2.0000      -0.466191       -12.6857
 221   2.0000      -0.465487       -12.6665
 222   2.0000      -0.463099       -12.6016
 223   2.0000      -0.460981       -12.5439
 224   2.0000      -0.460332       -12.5263
 225   2.0000      -0.456519       -12.4225
 226   2.0000      -0.453720       -12.3463
 227   2.0000      -0.452267       -12.3068
 228   2.0000      -0.451899       -12.2968
 229   2.0000      -0.447448       -12.1757
 230   2.0000      -0.446333       -12.1453
 231   2.0000      -0.443161       -12.0590
 232   2.0000      -0.442112       -12.0305
 233   2.0000      -0.439569       -11.9613
 234   2.0000      -0.438192       -11.9238
 235   2.0000      -0.436008       -11.8644
 236   2.0000      -0.435537       -11.8516
 237   2.0000      -0.432767       -11.7762
 238   2.0000      -0.431364       -11.7380
 239   2.0000      -0.429558       -11.6889
 240   2.0000      -0.428695       -11.6654
 241   2.0000      -0.427684       -11.6379
 242   2.0000      -0.424167       -11.5422
 243   2.0000      -0.422093       -11.4857
 244   2.0000      -0.420526       -11.4431
 245   2.0000      -0.419022       -11.4022
 246   2.0000      -0.416441       -11.3319
 247   2.0000      -0.415120       -11.2960
 248   2.0000      -0.412576       -11.2268
 249   2.0000      -0.408926       -11.1274
 250   2.0000      -0.406607       -11.0643
 251   2.0000      -0.406143       -11.0517
 252   2.0000      -0.402491       -10.9523
 253   2.0000      -0.399920       -10.8824
 254   2.0000      -0.394388       -10.7318
 255   2.0000      -0.393387       -10.7046
 256   2.0000      -0.389081       -10.5874
 257   2.0000      -0.386631       -10.5208
 258   2.0000      -0.381282       -10.3752
 259   2.0000      -0.372599       -10.1389
 260   2.0000      -0.367994       -10.0136
 261   2.0000      -0.366811        -9.9814
 262   2.0000      -0.362928        -9.8758
 263   2.0000      -0.347598        -9.4586
 264   2.0000      -0.336919        -9.1680
 265   2.0000      -0.332605        -9.0506
 266   2.0000      -0.328636        -8.9426
 267   2.0000      -0.322840        -8.7849
 268   2.0000      -0.321836        -8.7576
 269   2.0000      -0.317263        -8.6332
 270   2.0000      -0.314784        -8.5657
 271   2.0000      -0.303971        -8.2715
 272   2.0000      -0.297090        -8.0842
 273   2.0000      -0.294232        -8.0065
 274   2.0000      -0.289080        -7.8663
 275   2.0000      -0.284000        -7.7280
 276   2.0000      -0.272085        -7.4038
 277   2.0000      -0.268859        -7.3160
 278   2.0000      -0.249016        -6.7761
 279   2.0000      -0.231083        -6.2881
 280   2.0000      -0.193510        -5.2657
 281   0.0000      -0.104523        -2.8442
 282   0.0000      -0.097846        -2.6625
 283   0.0000      -0.078861        -2.1459
 284   0.0000      -0.050020        -1.3611
 285   0.0000      -0.035723        -0.9721

MULLIKEN ATOMIC CHARGES
-----------------------
   0 C :   -0.100283
   1 C :    0.302484
   2 F :   -0.195932
   3 C :   -0.030336
   4 C :   -0.011580
   5 C :    0.101437
   6 C :    0.102491
   7 C :   -0.096863
   8 C :    0.043324
   9 C :    0.020602
  10 C :   -0.093316
  11 C :    0.133796
  12 O :   -0.155907
  13 C :   -0.168679
  14 C :    0.252932
  15 C :   -0.356440
  16 C :   -0.195905
  17 N :    0.155263
  18 C :   -0.186774
  19 N :    0.141836
  20 C :    0.075953
  21 C :   -0.154119
  22 S :    0.192839
  23 C :   -0.081429
  24 C :    0.130523
  25 C :    0.113363
  26 C :   -0.086396
  27 C :    0.223484
  28 F :   -0.171128
  29 C :    0.230734
  30 F :   -0.179679
  31 C :   -0.124180
  32 C :    0.027506
  33 C :    0.032932
  34 C :   -0.092269
  35 S :    0.110193
  36 C :   -0.050108
  37 C :   -0.044277
  38 C :   -0.053670
  39 S :   -0.017670
  40 C :   -0.098887
  41 C :    0.022095
  42 S :   -0.034451
  43 C :   -0.100173
  44 C :    0.014904
  45 C :   -0.025752
  46 C :    0.022983
  47 C :    0.009045
  48 C :    0.015385
  49 C :   -0.014595
  50 C :   -0.012463
  51 C :    0.023162
  52 C :    0.026246
  53 C :   -0.051843
  54 S :    0.071164
  55 C :   -0.022020
  56 C :    0.016542
  57 C :    0.042490
  58 C :   -0.033529
  59 S :    0.059790
  60 C :   -0.001144
  61 C :    0.045757
  62 C :   -0.031270
  63 C :    0.040382
  64 C :    0.012163
  65 C :    0.050748
  66 C :   -0.012812
  67 C :    0.053265
  68 C :   -0.014552
  69 C :    0.045336
  70 C :    0.005853
  71 C :    0.057069
  72 C :   -0.029359
  73 C :    0.008645
  74 C :   -0.018278
  75 H :   -0.006126
  76 H :   -0.001869
  77 H :   -0.013298
  78 H :   -0.008378
  79 H :   -0.017592
  80 H :    0.016150
  81 H :    0.004079
  82 H :   -0.007421
  83 H :   -0.001319
  84 H :    0.000266
  85 H :    0.060585
  86 H :    0.047546
  87 H :    0.035941
  88 H :    0.023880
  89 H :    0.021998
  90 H :    0.048137
  91 H :    0.054154
  92 H :    0.023473
  93 H :    0.028651
  94 H :    0.025133
  95 H :   -0.008402
  96 H :   -0.004991
  97 H :   -0.015810
  98 H :   -0.001641
  99 H :   -0.019491
 100 H :   -0.015531
 101 H :   -0.012640
 102 H :   -0.016779
 103 H :   -0.012377
 104 H :   -0.022406
 105 H :   -0.008525
 106 H :   -0.018725
 107 H :   -0.011107
 108 H :   -0.026001
 109 H :   -0.023245
 110 H :   -0.023476
 111 H :   -0.010464
 112 H :    0.007617
 113 H :    0.023359
Sum of atomic charges:   -0.0000000

LOEWDIN ATOMIC CHARGES
----------------------
   0 C :   -0.043622
   1 C :    0.090693
   2 F :   -0.069964
   3 C :   -0.041963
   4 C :    0.002615
   5 C :   -0.021246
   6 C :    0.002000
   7 C :    0.004078
   8 C :   -0.015435
   9 C :   -0.057277
  10 C :    0.028617
  11 C :    0.078738
  12 O :   -0.159460
  13 C :   -0.121990
  14 C :    0.054325
  15 C :   -0.156720
  16 C :   -0.014358
  17 N :   -0.068062
  18 C :   -0.019560
  19 N :   -0.071409
  20 C :    0.035197
  21 C :   -0.195584
  22 S :    0.500726
  23 C :   -0.116720
  24 C :   -0.046285
  25 C :   -0.020311
  26 C :   -0.038506
  27 C :    0.079061
  28 F :   -0.049461
  29 C :    0.056081
  30 F :   -0.058072
  31 C :   -0.026363
  32 C :   -0.063486
  33 C :   -0.017339
  34 C :   -0.187872
  35 S :    0.432674
  36 C :   -0.155325
  37 C :   -0.219358
  38 C :   -0.194571
  39 S :    0.305044
  40 C :   -0.123982
  41 C :   -0.071336
  42 S :    0.276646
  43 C :   -0.123406
  44 C :   -0.070443
  45 C :   -0.070768
  46 C :   -0.010046
  47 C :   -0.039251
  48 C :   -0.013967
  49 C :   -0.075862
  50 C :   -0.132054
  51 C :   -0.049138
  52 C :   -0.024289
  53 C :   -0.194049
  54 S :    0.376784
  55 C :   -0.163346
  56 C :   -0.051798
  57 C :   -0.019621
  58 C :   -0.164519
  59 S :    0.391109
  60 C :   -0.028025
  61 C :   -0.078285
  62 C :    0.012847
  63 C :   -0.066364
  64 C :    0.084542
  65 C :   -0.072555
  66 C :    0.056342
  67 C :   -0.062481
  68 C :    0.035669
  69 C :   -0.062329
  70 C :    0.081345
  71 C :   -0.071361
  72 C :    0.045209
  73 C :   -0.024460
  74 C :   -0.045026
  75 H :    0.041762
  76 H :    0.039747
  77 H :    0.034082
  78 H :    0.037898
  79 H :    0.037472
  80 H :    0.043185
  81 H :    0.045305
  82 H :    0.041591
  83 H :    0.012381
  84 H :    0.031590
  85 H :    0.011319
  86 H :    0.025448
  87 H :    0.029060
  88 H :    0.029514
  89 H :    0.024601
  90 H :    0.020081
  91 H :    0.007412
  92 H :    0.024791
  93 H :    0.032723
  94 H :    0.026202
  95 H :    0.026369
  96 H :    0.020518
  97 H :    0.027726
  98 H :    0.022082
  99 H :    0.031292
 100 H :    0.032193
 101 H :    0.032000
 102 H :    0.030617
 103 H :    0.033412
 104 H :    0.034820
 105 H :    0.013596
 106 H :    0.037509
 107 H :    0.030099
 108 H :    0.024655
 109 H :    0.035402
 110 H :    0.025176
 111 H :    0.031292
 112 H :    0.018109
 113 H :    0.025701

  Mayer bond orders larger than 0.100000
B(  0-C ,  1-C ) :   1.4368 B(  0-C ,  6-C ) :   1.2049 B(  0-C , 75-H ) :   1.0071
B(  1-C ,  2-F ) :   1.0830 B(  1-C ,  3-C ) :   1.2604 B(  3-C ,  4-C ) :   1.4541
B(  3-C , 76-H ) :   0.9925 B(  4-C ,  5-C ) :   1.2398 B(  4-C , 77-H ) :   0.9965
B(  5-C ,  6-C ) :   1.2642 B(  5-C , 10-C ) :   1.1768 B(  6-C ,  7-C ) :   1.1911
B(  7-C ,  8-C ) :   1.4711 B(  7-C , 78-H ) :   0.9947 B(  8-C ,  9-C ) :   1.2213
B(  8-C , 14-C ) :   0.9855 B(  9-C , 10-C ) :   1.4768 B(  9-C , 11-C ) :   0.9138
B( 10-C , 79-H ) :   1.0168 B( 11-C , 12-O ) :   2.2595 B( 11-C , 13-C ) :   0.9637
B( 13-C , 14-C ) :   1.1133 B( 13-C , 20-C ) :   1.5034 B( 14-C , 15-C ) :   1.5873
B( 15-C , 16-C ) :   1.1733 B( 15-C , 18-C ) :   1.1488 B( 16-C , 17-N ) :   3.0044
B( 18-C , 19-N ) :   2.9777 B( 20-C , 21-C ) :   1.2751 B( 20-C , 80-H ) :   0.9258
B( 21-C , 22-S ) :   1.0920 B( 21-C , 25-C ) :   1.2552 B( 22-S , 23-C ) :   1.2069
B( 23-C , 24-C ) :   1.2544 B( 23-C , 32-C ) :   1.2092 B( 24-C , 25-C ) :   1.2533
B( 24-C , 31-C ) :   1.1927 B( 25-C , 26-C ) :   1.2231 B( 26-C , 27-C ) :   1.4483
B( 26-C , 31-C ) :   0.1052 B( 26-C , 81-H ) :   0.9869 B( 27-C , 28-F ) :   1.1414
B( 27-C , 29-C ) :   1.1951 B( 29-C , 30-F ) :   1.1242 B( 29-C , 31-C ) :   1.4574
B( 31-C , 82-H ) :   0.9953 B( 32-C , 33-C ) :   1.6017 B( 32-C , 83-H ) :   0.9242
B( 33-C , 34-C ) :   1.2167 B( 33-C , 84-H ) :   0.9420 B( 34-C , 35-S ) :   1.0975
B( 34-C , 38-C ) :   1.4482 B( 35-S , 36-C ) :   1.1127 B( 36-C , 37-C ) :   1.4484
B( 36-C , 45-C ) :   1.2142 B( 37-C , 38-C ) :   1.3160 B( 37-C , 42-S ) :   1.0419
B( 38-C , 39-S ) :   1.0484 B( 39-S , 40-C ) :   1.0007 B( 40-C , 41-C ) :   1.0593
B( 40-C , 85-H ) :   0.9431 B( 40-C , 86-H ) :   0.9535 B( 41-C , 87-H ) :   0.9741
B( 41-C , 88-H ) :   0.9612 B( 41-C , 89-H ) :   0.9721 B( 42-S , 43-C ) :   0.9794
B( 43-C , 44-C ) :   1.0922 B( 43-C , 90-H ) :   0.9512 B( 43-C , 91-H ) :   0.9415
B( 44-C , 92-H ) :   0.9705 B( 44-C , 93-H ) :   0.9673 B( 44-C , 94-H ) :   0.9708
B( 45-C , 46-C ) :   1.5157 B( 45-C , 95-H ) :   0.9725 B( 46-C , 47-C ) :   1.2249
B( 46-C , 96-H ) :   0.9762 B( 47-C , 48-C ) :   1.5133 B( 47-C , 97-H ) :   0.9950
B( 48-C , 49-C ) :   1.2217 B( 48-C , 98-H ) :   0.9738 B( 49-C , 50-C ) :   1.4751
B( 49-C , 99-H ) :   0.9835 B( 50-C , 51-C ) :   1.1905 B( 50-C , 54-S ) :   1.0576
B( 51-C , 52-C ) :   1.5325 B( 51-C ,100-H ) :   0.9999 B( 52-C , 53-C ) :   1.2342
B( 52-C ,101-H ) :   0.9952 B( 53-C , 54-S ) :   1.0426 B( 53-C , 55-C ) :   1.4475
B( 55-C , 56-C ) :   1.2146 B( 55-C , 59-S ) :   1.0654 B( 56-C , 57-C ) :   1.5592
B( 56-C ,102-H ) :   0.9934 B( 57-C , 58-C ) :   1.1651 B( 57-C ,103-H ) :   0.9985
B( 58-C , 59-S ) :   1.0257 B( 58-C , 60-C ) :   1.5439 B( 60-C , 61-C ) :   1.1564
B( 60-C ,104-H ) :   0.9688 B( 61-C , 62-C ) :   1.3747 B( 61-C , 72-C ) :   1.1596
B( 62-C , 63-C ) :   1.1946 B( 62-C ,105-H ) :   0.9933 B( 63-C , 64-C ) :   1.3561
B( 63-C , 71-C ) :   1.1427 B( 64-C , 65-C ) :   1.1982 B( 64-C ,106-H ) :   1.0048
B( 65-C , 66-C ) :   1.3386 B( 65-C , 69-C ) :   1.1303 B( 66-C , 67-C ) :   1.2024
B( 66-C ,107-H ) :   1.0144 B( 67-C , 68-C ) :   1.4550 B( 67-C , 73-C ) :   1.0734
B( 68-C , 69-C ) :   1.1324 B( 68-C ,108-H ) :   1.0100 B( 69-C , 70-C ) :   1.4212
B( 70-C , 71-C ) :   1.1462 B( 70-C ,109-H ) :   1.0044 B( 71-C , 72-C ) :   1.3906
B( 72-C ,110-H ) :   1.0155 B( 73-C , 74-C ) :   1.9478 B( 73-C ,111-H ) :   0.9669
B( 74-C ,112-H ) :   0.9533 B( 74-C ,113-H ) :   0.9487

-----------------------------------------------------------------------------
         ABSORPTION SPECTRUM VIA TRANSITION ELECTRIC DIPOLE MOMENTS
-----------------------------------------------------------------------------
State   Energy  Wavelength   fosc         T2         TX        TY        TZ
        (cm-1)    (nm)                  (au**2)     (au)      (au)      (au)
-----------------------------------------------------------------------------
   0    4849.0   2062.3   0.030347703   2.06038   0.41079   0.25073   1.35232
   1    8296.2   1205.4   0.725753053  28.79962  -2.48003  -0.17456   4.75590
   2   12544.7    797.2   0.019165709   0.50297  -0.46454  -0.20923  -0.49335
   3   13870.3    721.0   1.483733042  35.21655   4.85330   1.79655   2.90421
   4   15801.4    632.9   0.583978643  12.16683   3.38249   0.78617   0.32796
   5   19680.2    508.1   0.029653097   0.49604  -0.17690  -0.06779   0.67834
   6   20152.5    496.2   0.152090261   2.48456  -0.75708  -0.31428   1.34633
   7   20779.9    481.2   0.501968158   7.95257  -2.41726  -0.94046   1.10678
   8   22183.5    450.8   0.184377947   2.73624  -1.54609  -0.54962   0.20916
   9   22257.2    449.3   0.038029380   0.56250   0.70150   0.25707  -0.06567
  10   23583.0    424.0   0.677685540   9.46030  -2.81271  -0.44654   1.16171
  11   24630.9    406.0   0.021488616   0.28721   0.22404   0.24892  -0.41839
  12   24824.1    402.8   0.080263939   1.06444   0.55295  -0.58936  -0.64136
  13   25141.0    397.8   0.016295849   0.21339  -0.24184  -0.37955   0.10414
  14   25620.6    390.3   0.050414281   0.64780  -0.34853   0.23918   0.68492
  15   25816.4    387.3   0.021952291   0.27994   0.35672   0.00995  -0.39063
  16   26076.1    383.5   0.447494775   5.64964   2.08196  -0.12647  -1.13977
  17   26517.3    377.1   0.059084904   0.73354  -0.76004   0.12615   0.37412
  18   27080.3    369.3   0.020339036   0.24726   0.31404   0.30543  -0.23527
  19   27654.3    361.6   0.043251716   0.51489   0.69312   0.01252  -0.18526
  20   27890.2    358.5   0.116728269   1.37785   0.94426   0.39935  -0.57160
  21   28312.3    353.2   0.105698522   1.22905   0.73514  -0.21946  -0.80029
  22   29293.6    341.4   0.027636012   0.31058   0.31411  -0.07947   0.45344
  23   29391.3    340.2   0.019564592   0.21914   0.26761   0.31525  -0.21942
  24   29473.9    339.3   0.051218620   0.57209   0.18570  -0.43089  -0.59325
  25   29818.4    335.4   0.001941839   0.02144  -0.12021  -0.03288  -0.07686
  26   30239.0    330.7   0.061770362   0.67249   0.30247  -0.56899  -0.50720
  27   30257.9    330.5   0.073520015   0.79991   0.64917  -0.35516  -0.50235
  28   31027.2    322.3   0.019025266   0.20187   0.10758   0.12449   0.41809
  29   31496.0    317.5   0.012674112   0.13248   0.33269  -0.13613   0.05712
  30   31670.0    315.8   0.053359996   0.55468  -0.71643  -0.15480   0.13211
  31   31843.1    314.0   0.065482868   0.67700   0.73916   0.22978  -0.27899
  32   32144.4    311.1   0.249270984   2.55294  -1.41983  -0.30202   0.66769
  33   32238.9    310.2   0.014805955   0.15119  -0.37546  -0.08146   0.05990
  34   32512.9    307.6   0.098298247   0.99533   0.89205   0.43743  -0.09066
  35   32767.2    305.2   0.002282485   0.02293   0.14325   0.03634  -0.03302
  36   32894.6    304.0   0.011895367   0.11905  -0.29311  -0.17983   0.02826
  37   33067.6    302.4   0.017912556   0.17833  -0.24023   0.17321  -0.30103
  38   33344.5    299.9   0.034749309   0.34308   0.28903   0.39571   0.32087
  39   33521.5    298.3   0.057135567   0.56112  -0.57333  -0.25181   0.41110
  40   33701.3    296.7   0.020312565   0.19842   0.43283   0.08092  -0.06736
  41   34045.6    293.7   0.039170663   0.37877  -0.54424  -0.25958   0.12325
  42   34290.8    291.6   0.265635163   2.55026  -1.22014  -0.97171  -0.34247
  43   34445.3    290.3   0.052324985   0.50010  -0.66070  -0.18061   0.17594
  44   34676.5    288.4   0.041740144   0.39627   0.53976   0.32335  -0.01952
  45   35031.4    285.5   0.161806383   1.52059   1.04934   0.51054   0.39853
  46   35120.6    284.7   0.129239911   1.21146  -0.84214  -0.13645   0.69545
  47   35482.6    281.8   0.066906921   0.62077   0.72566   0.30653   0.01503
  48   35710.6    280.0   0.039576752   0.36485  -0.06978   0.06356   0.59661
  49   36195.4    276.3   0.008718894   0.07930   0.08218  -0.04955  -0.26475
  50   36254.4    275.8   0.002551202   0.02317   0.14439  -0.04005  -0.02671
  51   36672.2    272.7   0.007719343   0.06930  -0.09339   0.01451   0.24569
  52   36904.6    271.0   0.114158860   1.01837  -0.92501  -0.36992   0.16090
  53   36956.7    270.6   0.083371224   0.74267  -0.58054  -0.29122   0.56642
  54   37028.5    270.1   0.014520364   0.12910   0.28278   0.20775  -0.07728
  55   37347.1    267.8   0.008060762   0.07106  -0.00682  -0.25762   0.06810
  56   37425.4    267.2   0.127316619   1.11994   0.86571   0.05628  -0.60607
  57   37732.5    265.0   0.037896234   0.33064   0.26338   0.43672  -0.26560
  58   38092.2    262.5   0.078807954   0.68110   0.77114   0.08942  -0.28007
  59   38247.2    261.5   0.063941023   0.55037   0.63594   0.11127  -0.36547
  60   38441.1    260.1   0.030242406   0.25900  -0.38987  -0.18368   0.27067
  61   38792.9    257.8   0.033039560   0.28039   0.50972   0.07133   0.12445
  62   38867.7    257.3   0.010812659   0.09158  -0.16414  -0.24399  -0.07150
  63   39096.8    255.8   0.079592754   0.67020   0.55619   0.00499  -0.60069
  64   39383.0    253.9   0.014150627   0.11829   0.17066   0.00827  -0.29849
  65   39523.0    253.0   0.103721370   0.86396  -0.71974   0.21330   0.54813
  66   39592.9    252.6   0.126163555   1.04904  -0.72214   0.15902   0.70870
  67   39744.0    251.6   0.041847050   0.34663  -0.07578   0.21950   0.54102
  68   39877.1    250.8   0.030200473   0.24933   0.10485   0.09498   0.47886
  69   39969.4    250.2   0.043962763   0.36210   0.40849  -0.15835  -0.41251

FINAL SINGLE POINT ENERGY     -5292.994140048479

DIPOLE MOMENT
-------------
                                X             Y             Z
Electronic contribution:    -53.13845     -37.74412      12.07692
Nuclear contribution   :     55.94735      38.05840     -13.53869
                        -----------------------------------------
Total Dipole Moment    :      2.80890       0.31428      -1.46176
                        -----------------------------------------
Magnitude (a.u.)       :      3.18205
Magnitude (Debye)      :      8.08813

Rotational constants in cm-1:     0.000608     0.000352     0.000231
Rotational constants in MHz :    18.216803    10.560136     6.920813

                             ****ORCA TERMINATED NORMALLY****
TOTAL RUN TIME: 0 days 0 hours 15 minutes 3 seconds 578 msec
