                         Program Version 4.2.0 -  RELEASE  -
|  1> # ORCA input file
|  2> # SCF done       -194.389852320890          0.000886770967
|  3> ! CAM-B3LYP def2-SVP def2/J RIJCOSX Grid4 TightSCF
|  4> %maxcore 5000
|  5> %tddft
|  6>     Mode sTDDFT
|  7>     Ethresh 5.0
|  8>     maxcore 5000
|  9> end
| 10>
| 11> %pal
| 12>   nprocs 6
| 13>   end
| 14> * xyz 0 1
| 15>    C       -4.97681         1.40120        -1.35256
| 16>    C       -4.99754         0.08775        -0.96855
| 17>    C       -3.88696        -0.77780        -1.04678
| 18>    N       -3.01103        -1.51861        -1.06730
| 19>    C       -6.13486        -0.55753        -0.44177
| 20>    N       -7.03852        -1.11648        -0.00744
| 21>    C       -3.82827         2.10846        -1.91591
| 22>    C       -4.22188         3.43148        -2.24116
| 23>    C       -3.35206         4.36207        -2.75745
| 24>    C       -2.01785         3.98260        -2.92773
| 25>    C       -1.63314         2.65857        -2.60777
| 26>    C       -2.52289         1.70657        -2.12147
| 27>    S        0.07676         2.42912        -2.80786
| 28>    C        0.25527         4.10095        -3.26137
| 29>    C       -0.91142         4.78642        -3.31225
| 30>   Br        1.95942         4.82603        -3.52150
| 31>    C       -5.63395         3.60770        -1.88925
| 32>    O       -6.30683         4.62691        -2.04398
| 33>    C       -6.07788         2.34000        -1.30837
| 34>    C       -7.35895         2.17281        -0.83432
| 35>    N       -8.24071         3.16671        -0.96885
| 36>    C       -9.55063         3.23138        -0.61342
| 37>    S      -10.23838         2.27344         0.65463
| 38>    C      -11.71905         3.16444         0.49023
| 39>    N      -12.78550         2.81650         1.33274
| 40>    O      -13.81934         3.44626         1.22308
| 41>    O      -12.58754         1.90676         2.11726
| 42>    C      -11.68014         4.13420        -0.47772
| 43>    C      -10.44561         4.17217        -1.14679
| 44>    C      -10.08686         5.03253        -2.25151
| 45>    C       -9.24590         4.58559        -3.20646
| 46>    C       -8.53994         5.33401        -4.19545
| 47>    C       -7.42731         4.71623        -4.80496
| 48>    C       -6.53705         5.41707        -5.70433
| 49>    N       -5.40274         4.81867        -6.10370
| 50>    C       -5.13412         3.60439        -5.68913
| 51>    C       -6.08056         2.86583        -4.90628
| 52>    N       -7.18223         3.43342        -4.48979
| 53>    C       -5.79907         1.53345        -4.52362
| 54>    N       -5.51863         0.47218        -4.19246
| 55>    C       -3.86657         3.02882        -5.91934
| 56>    N       -2.83650         2.53176        -6.00980
| 57>    C       -6.82764         6.72685        -6.14414
| 58>    C       -7.93901         7.34284        -5.52873
| 59>    C       -8.75817         6.67844        -4.53924
| 60>    N       -9.71292         7.47954        -4.06341
| 61>    S       -9.59105         8.91553        -4.77294
| 62>    N       -8.33790         8.60454        -5.72084
| 63>    C       -6.15334         7.39022        -7.24092
| 64>    C       -6.92142         8.12138        -8.12999
| 65>    S       -6.10488         8.68741        -9.52206
| 66>    C       -4.64327         7.98774        -8.93717
| 67>    C       -4.80326         7.34117        -7.70031
| 68>    N       -3.58583         6.84487        -7.28612
| 69>    C       -3.20371         6.65917        -5.90516
| 70>    C       -2.42815         7.87154        -5.38988
| 71>    C       -2.67612         7.12832        -8.28201
| 72>    C       -3.30063         7.85707        -9.30418
| 73>    S       -2.20414         8.33023       -10.54557
| 74>    C       -0.92905         7.51474        -9.71131
| 75>    C       -1.29534         6.89414        -8.54515
| 76>    C       -0.40046         5.99189        -7.84755
| 77>    C        0.97932         6.09066        -7.75365
| 78>    C        1.47788         4.90043        -7.14750
| 79>    C        2.75900         4.46801        -6.88781
| 80>    C        2.91063         3.19577        -6.31561
| 81>    C        4.04598         2.49274        -5.91830
| 82>    C        3.64765         1.24380        -5.36122
| 83>    C        2.26200         1.17281        -5.41800
| 84>    C        1.76194         2.37002        -6.00888
| 85>    C        0.48231         2.79154        -6.28426
| 86>    C        0.33446         4.06255        -6.86357
| 87>    C       -0.79893         4.74156        -7.30088
| 88>    C        4.50698         0.21602        -4.82595
| 89>    C        5.83628         0.26057        -4.79012
| 90>    H       -3.68138         5.36489        -2.98339
| 91>    H       -2.18108         0.71179        -1.89058
| 92>    H       -0.98004         5.82558        -3.57588
| 93>    H       -7.69843         1.25585        -0.37051
| 94>    H       -7.85569         3.99794        -1.45952
| 95>    H      -12.52087         4.76373        -0.70640
| 96>    H      -10.48142         6.03709        -2.27421
| 97>    H       -8.97896         3.53741        -3.21788
| 98>    H       -7.97460         8.29842        -8.05079
| 99>    H       -2.59329         5.75708        -5.80931
|100>    H       -4.11549         6.53357        -5.32313
|101>    H       -1.47296         7.96088        -5.90197
|102>    H       -2.24483         7.77412        -4.32269
|103>    H       -2.99951         8.78243        -5.55697
|104>    H        0.04126         7.48887       -10.16589
|105>    H        1.57953         6.92088        -8.07708
|106>    H        3.62195         5.07724        -7.11612
|107>    H        5.05798         2.84190        -6.00892
|108>    H        1.65594         0.35469        -5.07312
|109>    H       -0.38629         2.18563        -6.07095
|110>    H       -1.79910         4.35070        -7.30163
|111>    H        3.98955        -0.64971        -4.43173
|112>    H        6.39415         1.09877        -5.17110
|113>    H        6.41512        -0.54622        -4.37552
|114> *
|115>
|116>                          ****END OF INPUT****

CARTESIAN COORDINATES (ANGSTROEM)
---------------------------------
  C     -4.976810    1.401200   -1.352560
  C     -4.997540    0.087750   -0.968550
  C     -3.886960   -0.777800   -1.046780
  N     -3.011030   -1.518610   -1.067300
  C     -6.134860   -0.557530   -0.441770
  N     -7.038520   -1.116480   -0.007440
  C     -3.828270    2.108460   -1.915910
  C     -4.221880    3.431480   -2.241160
  C     -3.352060    4.362070   -2.757450
  C     -2.017850    3.982600   -2.927730
  C     -1.633140    2.658570   -2.607770
  C     -2.522890    1.706570   -2.121470
  S      0.076760    2.429120   -2.807860
  C      0.255270    4.100950   -3.261370
  C     -0.911420    4.786420   -3.312250
  Br     1.959420    4.826030   -3.521500
  C     -5.633950    3.607700   -1.889250
  O     -6.306830    4.626910   -2.043980
  C     -6.077880    2.340000   -1.308370
  C     -7.358950    2.172810   -0.834320
  N     -8.240710    3.166710   -0.968850
  C     -9.550630    3.231380   -0.613420
  S    -10.238380    2.273440    0.654630
  C    -11.719050    3.164440    0.490230
  N    -12.785500    2.816500    1.332740
  O    -13.819340    3.446260    1.223080
  O    -12.587540    1.906760    2.117260
  C    -11.680140    4.134200   -0.477720
  C    -10.445610    4.172170   -1.146790
  C    -10.086860    5.032530   -2.251510
  C     -9.245900    4.585590   -3.206460
  C     -8.539940    5.334010   -4.195450
  C     -7.427310    4.716230   -4.804960
  C     -6.537050    5.417070   -5.704330
  N     -5.402740    4.818670   -6.103700
  C     -5.134120    3.604390   -5.689130
  C     -6.080560    2.865830   -4.906280
  N     -7.182230    3.433420   -4.489790
  C     -5.799070    1.533450   -4.523620
  N     -5.518630    0.472180   -4.192460
  C     -3.866570    3.028820   -5.919340
  N     -2.836500    2.531760   -6.009800
  C     -6.827640    6.726850   -6.144140
  C     -7.939010    7.342840   -5.528730
  C     -8.758170    6.678440   -4.539240
  N     -9.712920    7.479540   -4.063410
  S     -9.591050    8.915530   -4.772940
  N     -8.337900    8.604540   -5.720840
  C     -6.153340    7.390220   -7.240920
  C     -6.921420    8.121380   -8.129990
  S     -6.104880    8.687410   -9.522060
  C     -4.643270    7.987740   -8.937170
  C     -4.803260    7.341170   -7.700310
  N     -3.585830    6.844870   -7.286120
  C     -3.203710    6.659170   -5.905160
  C     -2.428150    7.871540   -5.389880
  C     -2.676120    7.128320   -8.282010
  C     -3.300630    7.857070   -9.304180
  S     -2.204140    8.330230  -10.545570
  C     -0.929050    7.514740   -9.711310
  C     -1.295340    6.894140   -8.545150
  C     -0.400460    5.991890   -7.847550
  C      0.979320    6.090660   -7.753650
  C      1.477880    4.900430   -7.147500
  C      2.759000    4.468010   -6.887810
  C      2.910630    3.195770   -6.315610
  C      4.045980    2.492740   -5.918300
  C      3.647650    1.243800   -5.361220
  C      2.262000    1.172810   -5.418000
  C      1.761940    2.370020   -6.008880
  C      0.482310    2.791540   -6.284260
  C      0.334460    4.062550   -6.863570
  C     -0.798930    4.741560   -7.300880
  C      4.506980    0.216020   -4.825950
  C      5.836280    0.260570   -4.790120
  H     -3.681380    5.364890   -2.983390
  H     -2.181080    0.711790   -1.890580
  H     -0.980040    5.825580   -3.575880
  H     -7.698430    1.255850   -0.370510
  H     -7.855690    3.997940   -1.459520
  H    -12.520870    4.763730   -0.706400
  H    -10.481420    6.037090   -2.274210
  H     -8.978960    3.537410   -3.217880
  H     -7.974600    8.298420   -8.050790
  H     -2.593290    5.757080   -5.809310
  H     -4.115490    6.533570   -5.323130
  H     -1.472960    7.960880   -5.901970
  H     -2.244830    7.774120   -4.322690
  H     -2.999510    8.782430   -5.556970
  H      0.041260    7.488870  -10.165890
  H      1.579530    6.920880   -8.077080
  H      3.621950    5.077240   -7.116120
  H      5.057980    2.841900   -6.008920
  H      1.655940    0.354690   -5.073120
  H     -0.386290    2.185630   -6.070950
  H     -1.799100    4.350700   -7.301630
  H      3.989550   -0.649710   -4.431730
  H      6.394150    1.098770   -5.171100
  H      6.415120   -0.546220   -4.375520

 Total Charge           Charge          ....    0
 Multiplicity           Mult            ....    1
 Number of Electrons    NEL             ....  570
 Basis Dimension        Dim             .... 1208

ORBITAL ENERGIES
----------------

  NO   OCC          E(Eh)            E(eV)
   0   2.0000    -482.881445    -13139.8721
   1   2.0000     -89.058248     -2423.3981
   2   2.0000     -88.996843     -2421.7272
   3   2.0000     -88.977114     -2421.1904
   4   2.0000     -88.967960     -2420.9413
   5   2.0000     -88.950820     -2420.4749
   6   2.0000     -62.558709     -1702.3090
   7   2.0000     -56.392693     -1534.5232
   8   2.0000     -56.389992     -1534.4497
   9   2.0000     -56.389918     -1534.4477
  10   2.0000     -19.244037      -523.6569
  11   2.0000     -19.243371      -523.6387
  12   2.0000     -19.235469      -523.4237
  13   2.0000     -14.655640      -398.8002
  14   2.0000     -14.496461      -394.4688
  15   2.0000     -14.475102      -393.8876
  16   2.0000     -14.473365      -393.8403
  17   2.0000     -14.467152      -393.6712
  18   2.0000     -14.464927      -393.6107
  19   2.0000     -14.461508      -393.5176
  20   2.0000     -14.450479      -393.2175
  21   2.0000     -14.444099      -393.0439
  22   2.0000     -14.418715      -392.3532
  23   2.0000     -14.412856      -392.1937
  24   2.0000     -10.392803      -282.8026
  25   2.0000     -10.391639      -282.7709
  26   2.0000     -10.382204      -282.5141
  27   2.0000     -10.377772      -282.3935
  28   2.0000     -10.372205      -282.2421
  29   2.0000     -10.358733      -281.8755
  30   2.0000     -10.358625      -281.8725
  31   2.0000     -10.357470      -281.8411
  32   2.0000     -10.355040      -281.7750
  33   2.0000     -10.353837      -281.7422
  34   2.0000     -10.353586      -281.7354
  35   2.0000     -10.344862      -281.4980
  36   2.0000     -10.344635      -281.4918
  37   2.0000     -10.341278      -281.4005
  38   2.0000     -10.337506      -281.2978
  39   2.0000     -10.336896      -281.2812
  40   2.0000     -10.327909      -281.0367
  41   2.0000     -10.321827      -280.8712
  42   2.0000     -10.320910      -280.8462
  43   2.0000     -10.318022      -280.7677
  44   2.0000     -10.315779      -280.7066
  45   2.0000     -10.315717      -280.7049
  46   2.0000     -10.313033      -280.6319
  47   2.0000     -10.312036      -280.6048
  48   2.0000     -10.311336      -280.5857
  49   2.0000     -10.310745      -280.5696
  50   2.0000     -10.309508      -280.5360
  51   2.0000     -10.309205      -280.5277
  52   2.0000     -10.308721      -280.5146
  53   2.0000     -10.306915      -280.4654
  54   2.0000     -10.304030      -280.3869
  55   2.0000     -10.300953      -280.3032
  56   2.0000     -10.300739      -280.2974
  57   2.0000     -10.300670      -280.2955
  58   2.0000     -10.296804      -280.1903
  59   2.0000     -10.296755      -280.1889
  60   2.0000     -10.296632      -280.1856
  61   2.0000     -10.294069      -280.1158
  62   2.0000     -10.288337      -279.9599
  63   2.0000     -10.287821      -279.9459
  64   2.0000     -10.286980      -279.9230
  65   2.0000     -10.281553      -279.7753
  66   2.0000     -10.279535      -279.7204
  67   2.0000     -10.275012      -279.5973
  68   2.0000     -10.269763      -279.4544
  69   2.0000     -10.269160      -279.4381
  70   2.0000     -10.268427      -279.4181
  71   2.0000     -10.268275      -279.4140
  72   2.0000     -10.262868      -279.2668
  73   2.0000     -10.260056      -279.1903
  74   2.0000     -10.257670      -279.1254
  75   2.0000     -10.257200      -279.1126
  76   2.0000     -10.255289      -279.0606
  77   2.0000     -10.253894      -279.0226
  78   2.0000     -10.250903      -278.9413
  79   2.0000      -8.787970      -239.1328
  80   2.0000      -8.149606      -221.7621
  81   2.0000      -8.092201      -220.2000
  82   2.0000      -8.072467      -219.6630
  83   2.0000      -8.063281      -219.4130
  84   2.0000      -8.046085      -218.9451
  85   2.0000      -6.624385      -180.2587
  86   2.0000      -6.609646      -179.8576
  87   2.0000      -6.609443      -179.8521
  88   2.0000      -6.120625      -166.5507
  89   2.0000      -6.112750      -166.3364
  90   2.0000      -6.112561      -166.3312
  91   2.0000      -6.061729      -164.9480
  92   2.0000      -6.057387      -164.8299
  93   2.0000      -6.053837      -164.7333
  94   2.0000      -6.042172      -164.4159
  95   2.0000      -6.037840      -164.2980
  96   2.0000      -6.033790      -164.1878
  97   2.0000      -6.032667      -164.1572
  98   2.0000      -6.028477      -164.0432
  99   2.0000      -6.025334      -163.9577
 100   2.0000      -6.015747      -163.6968
 101   2.0000      -6.011511      -163.5815
 102   2.0000      -6.007659      -163.4767
 103   2.0000      -2.740252       -74.5660
 104   2.0000      -2.736103       -74.4531
 105   2.0000      -2.735954       -74.4491
 106   2.0000      -2.724246       -74.1305
 107   2.0000      -2.724239       -74.1303
 108   2.0000      -1.325869       -36.0787
 109   2.0000      -1.154380       -31.4123
 110   2.0000      -1.150725       -31.3128
 111   2.0000      -1.145038       -31.1581
 112   2.0000      -1.131915       -30.8010
 113   2.0000      -1.105797       -30.0903
 114   2.0000      -1.089541       -29.6479
 115   2.0000      -1.059159       -28.8212
 116   2.0000      -1.033195       -28.1147
 117   2.0000      -1.026045       -27.9201
 118   2.0000      -1.020680       -27.7741
 119   2.0000      -1.017168       -27.6786
 120   2.0000      -1.013385       -27.5756
 121   2.0000      -1.009766       -27.4771
 122   2.0000      -0.995441       -27.0873
 123   2.0000      -0.994702       -27.0672
 124   2.0000      -0.991767       -26.9873
 125   2.0000      -0.981564       -26.7097
 126   2.0000      -0.977664       -26.6036
 127   2.0000      -0.968440       -26.3526
 128   2.0000      -0.952303       -25.9135
 129   2.0000      -0.945201       -25.7202
 130   2.0000      -0.934626       -25.4325
 131   2.0000      -0.921030       -25.0625
 132   2.0000      -0.913617       -24.8608
 133   2.0000      -0.910194       -24.7676
 134   2.0000      -0.899093       -24.4656
 135   2.0000      -0.893189       -24.3049
 136   2.0000      -0.889253       -24.1978
 137   2.0000      -0.884772       -24.0759
 138   2.0000      -0.881460       -23.9857
 139   2.0000      -0.863625       -23.5004
 140   2.0000      -0.856368       -23.3030
 141   2.0000      -0.853569       -23.2268
 142   2.0000      -0.851553       -23.1719
 143   2.0000      -0.842754       -22.9325
 144   2.0000      -0.839165       -22.8348
 145   2.0000      -0.832355       -22.6495
 146   2.0000      -0.831250       -22.6195
 147   2.0000      -0.811797       -22.0901
 148   2.0000      -0.804698       -21.8969
 149   2.0000      -0.797084       -21.6898
 150   2.0000      -0.791261       -21.5313
 151   2.0000      -0.786383       -21.3986
 152   2.0000      -0.766668       -20.8621
 153   2.0000      -0.764398       -20.8003
 154   2.0000      -0.755289       -20.5525
 155   2.0000      -0.750347       -20.4180
 156   2.0000      -0.741707       -20.1829
 157   2.0000      -0.738193       -20.0872
 158   2.0000      -0.729241       -19.8437
 159   2.0000      -0.726545       -19.7703
 160   2.0000      -0.716216       -19.4892
 161   2.0000      -0.710454       -19.3324
 162   2.0000      -0.702475       -19.1153
 163   2.0000      -0.696984       -18.9659
 164   2.0000      -0.694429       -18.8964
 165   2.0000      -0.689823       -18.7710
 166   2.0000      -0.683990       -18.6123
 167   2.0000      -0.677706       -18.4413
 168   2.0000      -0.666164       -18.1272
 169   2.0000      -0.663270       -18.0485
 170   2.0000      -0.661976       -18.0133
 171   2.0000      -0.659699       -17.9513
 172   2.0000      -0.650975       -17.7139
 173   2.0000      -0.647487       -17.6190
 174   2.0000      -0.642267       -17.4770
 175   2.0000      -0.637236       -17.3401
 176   2.0000      -0.636540       -17.3211
 177   2.0000      -0.632023       -17.1982
 178   2.0000      -0.630490       -17.1565
 179   2.0000      -0.623384       -16.9631
 180   2.0000      -0.619109       -16.8468
 181   2.0000      -0.616612       -16.7789
 182   2.0000      -0.610065       -16.6007
 183   2.0000      -0.606790       -16.5116
 184   2.0000      -0.600853       -16.3501
 185   2.0000      -0.597268       -16.2525
 186   2.0000      -0.593209       -16.1420
 187   2.0000      -0.591052       -16.0833
 188   2.0000      -0.586949       -15.9717
 189   2.0000      -0.580245       -15.7893
 190   2.0000      -0.573865       -15.6157
 191   2.0000      -0.572651       -15.5826
 192   2.0000      -0.568139       -15.4598
 193   2.0000      -0.561778       -15.2867
 194   2.0000      -0.561197       -15.2709
 195   2.0000      -0.556638       -15.1469
 196   2.0000      -0.551766       -15.0143
 197   2.0000      -0.550857       -14.9896
 198   2.0000      -0.550172       -14.9710
 199   2.0000      -0.546472       -14.8703
 200   2.0000      -0.541458       -14.7338
 201   2.0000      -0.540482       -14.7073
 202   2.0000      -0.533580       -14.5195
 203   2.0000      -0.531181       -14.4542
 204   2.0000      -0.529522       -14.4090
 205   2.0000      -0.528421       -14.3791
 206   2.0000      -0.523254       -14.2385
 207   2.0000      -0.520878       -14.1738
 208   2.0000      -0.518538       -14.1101
 209   2.0000      -0.517069       -14.0702
 210   2.0000      -0.510950       -13.9036
 211   2.0000      -0.507378       -13.8065
 212   2.0000      -0.505733       -13.7617
 213   2.0000      -0.503797       -13.7090
 214   2.0000      -0.499386       -13.5890
 215   2.0000      -0.496900       -13.5213
 216   2.0000      -0.496487       -13.5101
 217   2.0000      -0.494490       -13.4558
 218   2.0000      -0.491846       -13.3838
 219   2.0000      -0.489053       -13.3078
 220   2.0000      -0.485493       -13.2109
 221   2.0000      -0.483931       -13.1684
 222   2.0000      -0.481600       -13.1050
 223   2.0000      -0.480580       -13.0772
 224   2.0000      -0.477718       -12.9994
 225   2.0000      -0.473751       -12.8914
 226   2.0000      -0.471918       -12.8416
 227   2.0000      -0.470116       -12.7925
 228   2.0000      -0.468400       -12.7458
 229   2.0000      -0.466430       -12.6922
 230   2.0000      -0.465898       -12.6777
 231   2.0000      -0.461668       -12.5626
 232   2.0000      -0.460758       -12.5379
 233   2.0000      -0.459239       -12.4965
 234   2.0000      -0.456758       -12.4290
 235   2.0000      -0.453857       -12.3501
 236   2.0000      -0.453226       -12.3329
 237   2.0000      -0.450382       -12.2555
 238   2.0000      -0.449483       -12.2311
 239   2.0000      -0.447982       -12.1902
 240   2.0000      -0.446893       -12.1606
 241   2.0000      -0.443386       -12.0652
 242   2.0000      -0.441064       -12.0020
 243   2.0000      -0.439726       -11.9655
 244   2.0000      -0.437878       -11.9153
 245   2.0000      -0.435235       -11.8434
 246   2.0000      -0.429914       -11.6986
 247   2.0000      -0.428528       -11.6608
 248   2.0000      -0.427919       -11.6443
 249   2.0000      -0.427262       -11.6264
 250   2.0000      -0.425956       -11.5908
 251   2.0000      -0.423566       -11.5258
 252   2.0000      -0.416695       -11.3388
 253   2.0000      -0.414212       -11.2713
 254   2.0000      -0.413572       -11.2539
 255   2.0000      -0.410691       -11.1755
 256   2.0000      -0.406601       -11.0642
 257   2.0000      -0.401706       -10.9310
 258   2.0000      -0.397715       -10.8224
 259   2.0000      -0.395580       -10.7643
 260   2.0000      -0.393587       -10.7101
 261   2.0000      -0.391791       -10.6612
 262   2.0000      -0.390790       -10.6339
 263   2.0000      -0.383121       -10.4253
 264   2.0000      -0.381076       -10.3696
 265   2.0000      -0.372923       -10.1478
 266   2.0000      -0.372121       -10.1259
 267   2.0000      -0.370705       -10.0874
 268   2.0000      -0.367589       -10.0026
 269   2.0000      -0.361888        -9.8475
 270   2.0000      -0.360656        -9.8140
 271   2.0000      -0.359570        -9.7844
 272   2.0000      -0.358312        -9.7502
 273   2.0000      -0.348657        -9.4874
 274   2.0000      -0.339801        -9.2464
 275   2.0000      -0.333071        -9.0633
 276   2.0000      -0.318835        -8.6760
 277   2.0000      -0.306337        -8.3358
 278   2.0000      -0.297458        -8.0942
 279   2.0000      -0.293006        -7.9731
 280   2.0000      -0.279148        -7.5960
 281   2.0000      -0.268876        -7.3165
 282   2.0000      -0.259959        -7.0739
 283   2.0000      -0.254016        -6.9121
 284   2.0000      -0.231813        -6.3080
 285   0.0000      -0.131289        -3.5725
 286   0.0000      -0.092889        -2.5276
 287   0.0000      -0.086521        -2.3544
 288   0.0000      -0.079047        -2.1510
 289   0.0000      -0.060915        -1.6576

MULLIKEN ATOMIC CHARGES
-----------------------
   0 C :    0.324337
   1 C :   -0.332937
   2 C :   -0.179708
   3 N :    0.153788
   4 C :   -0.197365
   5 N :    0.146510
   6 C :    0.023718
   7 C :   -0.021674
   8 C :   -0.098730
   9 C :    0.124234
  10 C :   -0.080651
  11 C :   -0.015791
  12 S :    0.195420
  13 C :   -0.130438
  14 C :    0.063765
  15 Br:    0.044338
  16 C :    0.156065
  17 O :   -0.236174
  18 C :   -0.119965
  19 C :    0.037189
  20 N :   -0.025241
  21 C :   -0.111351
  22 S :    0.205337
  23 C :   -0.005089
  24 N :    0.274482
  25 O :   -0.245273
  26 O :   -0.255114
  27 C :    0.017758
  28 C :    0.102452
  29 C :    0.018115
  30 C :   -0.119853
  31 C :    0.094285
  32 C :   -0.004726
  33 C :   -0.085316
  34 N :    0.049718
  35 C :   -0.116683
  36 C :   -0.153341
  37 N :    0.031017
  38 C :   -0.193784
  39 N :    0.234022
  40 C :   -0.178447
  41 N :    0.215460
  42 C :    0.131744
  43 C :   -0.022670
  44 C :    0.006579
  45 N :   -0.284911
  46 S :    0.553169
  47 N :   -0.271327
  48 C :   -0.033575
  49 C :   -0.110914
  50 S :    0.168478
  51 C :   -0.165104
  52 C :    0.110575
  53 N :   -0.162263
  54 C :    0.094112
  55 C :    0.010871
  56 C :    0.053399
  57 C :   -0.121022
  58 S :    0.131039
  59 C :   -0.153820
  60 C :    0.112265
  61 C :    0.026682
  62 C :   -0.047681
  63 C :    0.071588
  64 C :   -0.022675
  65 C :    0.062228
  66 C :   -0.031261
  67 C :    0.063523
  68 C :   -0.026862
  69 C :    0.034516
  70 C :    0.011769
  71 C :    0.031921
  72 C :   -0.039533
  73 C :    0.013434
  74 C :   -0.028860
  75 H :   -0.024265
  76 H :   -0.005843
  77 H :   -0.022471
  78 H :    0.037197
  79 H :    0.194487
  80 H :    0.013650
  81 H :    0.019138
  82 H :    0.022473
  83 H :    0.024915
  84 H :    0.018157
  85 H :    0.026106
  86 H :    0.040257
  87 H :    0.017795
  88 H :    0.023204
  89 H :    0.011837
  90 H :   -0.035005
  91 H :   -0.031087
  92 H :   -0.029269
  93 H :   -0.027026
  94 H :   -0.022651
  95 H :   -0.023692
  96 H :   -0.019874
  97 H :    0.004051
  98 H :    0.018145
Sum of atomic charges:   -0.0000000

LOEWDIN ATOMIC CHARGES
----------------------
   0 C :    0.078669
   1 C :   -0.136131
   2 C :   -0.014985
   3 N :   -0.051534
   4 C :   -0.016259
   5 N :   -0.054518
   6 C :   -0.018054
   7 C :   -0.063022
   8 C :    0.008527
   9 C :   -0.033387
  10 C :   -0.140443
  11 C :   -0.000358
  12 S :    0.454520
  13 C :   -0.262850
  14 C :   -0.072581
  15 Br:    0.170600
  16 C :    0.085544
  17 O :   -0.187237
  18 C :   -0.146509
  19 C :    0.114863
  20 N :    0.082477
  21 C :   -0.112693
  22 S :    0.481819
  23 C :   -0.201097
  24 N :    0.272821
  25 O :   -0.210876
  26 O :   -0.221754
  27 C :    0.001928
  28 C :   -0.083917
  29 C :   -0.001592
  30 C :   -0.020812
  31 C :   -0.023174
  32 C :    0.003901
  33 C :   -0.017547
  34 N :    0.013361
  35 C :   -0.037441
  36 C :   -0.031668
  37 N :    0.006014
  38 C :   -0.034996
  39 N :   -0.007003
  40 C :   -0.014471
  41 N :   -0.011866
  42 C :    0.001916
  43 C :   -0.041640
  44 C :   -0.035806
  45 N :   -0.284826
  46 S :    0.684653
  47 N :   -0.270669
  48 C :   -0.074582
  49 C :   -0.152612
  50 S :    0.454155
  51 C :   -0.226185
  52 C :   -0.018396
  53 N :    0.038245
  54 C :    0.035158
  55 C :   -0.061383
  56 C :   -0.018157
  57 C :   -0.227433
  58 S :    0.414473
  59 C :   -0.178016
  60 C :   -0.071333
  61 C :   -0.065495
  62 C :    0.005990
  63 C :   -0.068167
  64 C :    0.072231
  65 C :   -0.075993
  66 C :    0.046657
  67 C :   -0.068038
  68 C :    0.018112
  69 C :   -0.079803
  70 C :    0.077615
  71 C :   -0.069435
  72 C :    0.028744
  73 C :   -0.019996
  74 C :   -0.060801
  75 H :    0.034715
  76 H :    0.042895
  77 H :    0.035448
  78 H :    0.039226
  79 H :    0.087659
  80 H :    0.048736
  81 H :    0.033470
  82 H :    0.031122
  83 H :    0.020387
  84 H :    0.022383
  85 H :    0.021521
  86 H :    0.032759
  87 H :    0.022635
  88 H :    0.031047
  89 H :    0.020342
  90 H :    0.021020
  91 H :    0.031906
  92 H :    0.022969
  93 H :    0.022652
  94 H :    0.031562
  95 H :    0.021490
  96 H :    0.029157
  97 H :    0.016145
  98 H :    0.023303

  Mayer bond orders larger than 0.100000
B(  0-C ,  1-C ) :   1.6464 B(  0-C ,  6-C ) :   0.9957 B(  0-C , 18-C ) :   1.0825
B(  1-C ,  2-C ) :   1.1435 B(  1-C ,  4-C ) :   1.1497 B(  2-C ,  3-N ) :   2.9705
B(  4-C ,  5-N ) :   2.9571 B(  6-C ,  7-C ) :   1.2723 B(  6-C , 11-C ) :   1.4241
B(  7-C ,  8-C ) :   1.4113 B(  7-C , 16-C ) :   0.9822 B(  8-C ,  9-C ) :   1.2371
B(  8-C , 75-H ) :   1.0204 B(  9-C , 10-C ) :   1.3085 B(  9-C , 14-C ) :   1.1610
B( 10-C , 11-C ) :   1.3148 B( 10-C , 12-S ) :   1.0892 B( 11-C , 76-H ) :   0.9797
B( 12-S , 13-C ) :   1.0928 B( 13-C , 14-C ) :   1.6096 B( 13-C , 15-Br) :   1.0377
B( 14-C , 77-H ) :   0.9958 B( 16-C , 17-O ) :   1.9811 B( 16-C , 18-C ) :   1.0216
B( 17-O , 79-H ) :   0.1496 B( 18-C , 19-C ) :   1.4374 B( 19-C , 20-N ) :   1.3484
B( 19-C , 78-H ) :   0.9338 B( 20-N , 21-C ) :   1.1635 B( 20-N , 79-H ) :   0.8162
B( 21-C , 22-S ) :   1.1482 B( 21-C , 28-C ) :   1.3943 B( 22-S , 23-C ) :   1.0933
B( 23-C , 24-N ) :   0.9602 B( 23-C , 27-C ) :   1.4893 B( 24-N , 25-O ) :   1.5411
B( 24-N , 26-O ) :   1.5201 B( 25-O , 26-O ) :   0.2633 B( 27-C , 28-C ) :   1.2283
B( 27-C , 80-H ) :   1.0081 B( 28-C , 29-C ) :   1.0466 B( 29-C , 30-C ) :   1.6773
B( 29-C , 81-H ) :   0.9590 B( 30-C , 31-C ) :   1.2009 B( 30-C , 82-H ) :   0.9380
B( 31-C , 32-C ) :   1.2766 B( 31-C , 42-C ) :   0.1319 B( 31-C , 44-C ) :   1.1791
B( 32-C , 33-C ) :   1.1063 B( 32-C , 37-N ) :   1.3937 B( 33-C , 34-N ) :   1.4270
B( 33-C , 42-C ) :   1.2991 B( 34-N , 35-C ) :   1.7316 B( 35-C , 36-C ) :   1.1835
B( 35-C , 40-C ) :   1.1479 B( 36-C , 37-N ) :   1.7454 B( 36-C , 38-C ) :   1.1461
B( 38-C , 39-N ) :   3.0095 B( 40-C , 41-N ) :   2.9485 B( 42-C , 43-C ) :   1.2293
B( 42-C , 48-C ) :   1.0269 B( 43-C , 44-C ) :   1.0970 B( 43-C , 47-N ) :   1.5036
B( 44-C , 45-N ) :   1.5122 B( 45-N , 46-S ) :   1.2732 B( 45-N , 47-N ) :   0.1521
B( 46-S , 47-N ) :   1.3010 B( 48-C , 49-C ) :   1.4935 B( 48-C , 52-C ) :   1.2250
B( 49-C , 50-S ) :   1.1874 B( 49-C , 83-H ) :   0.9545 B( 50-S , 51-C ) :   1.0415
B( 51-C , 52-C ) :   1.4222 B( 51-C , 57-C ) :   1.3650 B( 52-C , 53-N ) :   1.1635
B( 53-N , 54-C ) :   0.9576 B( 53-N , 56-C ) :   1.1573 B( 54-C , 55-C ) :   1.1073
B( 54-C , 84-H ) :   0.9369 B( 54-C , 85-H ) :   0.9427 B( 55-C , 86-H ) :   0.9592
B( 55-C , 87-H ) :   0.9599 B( 55-C , 88-H ) :   0.9614 B( 56-C , 57-C ) :   1.4331
B( 56-C , 60-C ) :   1.2013 B( 57-C , 58-S ) :   1.0485 B( 58-S , 59-C ) :   1.1300
B( 59-C , 60-C ) :   1.5670 B( 59-C , 89-H ) :   0.9611 B( 60-C , 61-C ) :   0.9468
B( 61-C , 62-C ) :   1.4907 B( 61-C , 72-C ) :   1.2089 B( 62-C , 63-C ) :   1.1012
B( 62-C , 90-H ) :   1.0185 B( 63-C , 64-C ) :   1.3974 B( 63-C , 71-C ) :   1.1602
B( 64-C , 65-C ) :   1.1473 B( 64-C , 91-H ) :   1.0067 B( 65-C , 66-C ) :   1.3806
B( 65-C , 69-C ) :   1.1496 B( 66-C , 67-C ) :   1.1776 B( 66-C , 92-H ) :   1.0113
B( 67-C , 68-C ) :   1.4630 B( 67-C , 73-C ) :   1.0850 B( 68-C , 69-C ) :   1.1061
B( 68-C , 93-H ) :   1.0188 B( 69-C , 70-C ) :   1.3952 B( 70-C , 71-C ) :   1.1493
B( 70-C , 94-H ) :   1.0071 B( 71-C , 72-C ) :   1.3845 B( 72-C , 95-H ) :   1.0023
B( 73-C , 74-C ) :   1.9345 B( 73-C , 96-H ) :   0.9660 B( 74-C , 97-H ) :   0.9525
B( 74-C , 98-H ) :   0.9490

-----------------------------------------------------------------------------
         ABSORPTION SPECTRUM VIA TRANSITION ELECTRIC DIPOLE MOMENTS
-----------------------------------------------------------------------------
State   Energy  Wavelength   fosc         T2         TX        TY        TZ
        (cm-1)    (nm)                  (au**2)     (au)      (au)      (au)
-----------------------------------------------------------------------------
   0    8064.1   1240.1   0.000247744   0.01011   0.08562  -0.04943   0.01843
   1    9065.2   1103.1   0.034035278   1.23603  -0.48364  -0.49516   0.87002
   2   10502.1    952.2   0.147312497   4.61785  -1.01558  -0.95673   1.63436
   3   13749.0    727.3   0.034477204   0.82554   0.22155   0.47988  -0.73903
   4   15738.4    635.4   0.008640944   0.18075  -0.41488   0.08261  -0.04239
   5   16207.6    617.0   0.002777486   0.05642  -0.21855   0.04268  -0.08264
   6   19572.1    510.9   0.016683144   0.28062  -0.39501  -0.11293   0.33442
   7   20101.3    497.5   0.004430038   0.07255   0.22037   0.11629  -0.10231
   8   20387.5    490.5   0.005251185   0.08479   0.26969   0.10981  -0.00108
   9   20877.6    479.0   0.018157238   0.28631   0.40349   0.26688  -0.22866
  10   21132.8    473.2   0.000563972   0.00879   0.06707  -0.05660   0.03291
  11   22064.1    453.2   0.179568325   2.67929   0.61392  -1.27536   0.82210
  12   22179.6    450.9   0.432051338   6.41294   2.31542  -1.01972   0.10924
  13   22723.4    440.1   0.006878770   0.09966  -0.30998   0.04035   0.04409
  14   23419.9    427.0   0.065241817   0.91710   0.92938  -0.17018   0.15620
  15   24469.2    408.7   0.006237255   0.08392   0.22756  -0.09528  -0.15184
  16   24765.6    403.8   0.022146122   0.29439  -0.26057   0.36236  -0.30853
  17   25125.7    398.0   0.042556972   0.55761   0.72675  -0.01771   0.17068
  18   25271.9    395.7   0.099416877   1.29508  -0.51413   0.88781  -0.49249
  19   25529.4    391.7   0.057029421   0.73542  -0.74918  -0.18186   0.37561
  20   25779.9    387.9   0.020883127   0.26668  -0.38236  -0.13195   0.32104
  21   26200.0    381.7   0.315488125   3.96421  -1.82525   0.06052   0.79311
  22   26562.6    376.5   0.040473739   0.50162   0.65371  -0.19015  -0.19526
  23   26655.4    375.2   0.019063448   0.23545   0.06615   0.25930  -0.40476
  24   26680.6    374.8   0.030291398   0.37377   0.44256  -0.36272  -0.21528
  25   27196.0    367.7   0.019588499   0.23712   0.28353  -0.26409  -0.29494
  26   27452.5    364.3   0.034456541   0.41320   0.17351  -0.51407   0.34472
  27   27561.2    362.8   0.072606632   0.86727   0.74353   0.05147  -0.55837
  28   27975.0    357.5   0.032546796   0.38301  -0.51656   0.11535   0.32074
  29   28557.5    350.2   0.024253729   0.27960   0.31067  -0.42704  -0.02690
  30   28671.1    348.8   0.009611857   0.11037   0.20033  -0.22878  -0.13376
  31   28955.8    345.4   0.176412793   2.00572   0.51744   1.20905  -0.52552
  32   29168.8    342.8   0.003359953   0.03792  -0.14699  -0.01107   0.12725
  33   29280.1    341.5   0.005851177   0.06579   0.21207  -0.06899  -0.12670
  34   29565.6    338.2   0.084965924   0.94609  -0.67500  -0.49181   0.49860
  35   29932.2    334.1   0.221247194   2.43341  -1.36473  -0.66164   0.36492
  36   30286.6    330.2   0.169696378   1.84458   1.08232   0.56893  -0.59116
  37   30481.8    328.1   0.185621401   2.00476   1.05411   0.19108  -0.92579
  38   30728.3    325.4   0.040187489   0.43055  -0.53079  -0.25421   0.29017
  39   30939.1    323.2   0.008205547   0.08731   0.26734  -0.12160   0.03250
  40   31142.2    321.1   0.102563588   1.08423  -0.44038  -0.84413   0.42160
  41   31246.8    320.0   0.037511588   0.39522  -0.21410  -0.21002  -0.55251
  42   31496.0    317.5   0.101125277   1.05701  -0.62254  -0.36370   0.73293
  43   31599.4    316.5   0.002863809   0.02984  -0.01103   0.02599  -0.17041
  44   31944.3    313.0   0.097048703   1.00017   0.74077  -0.66853  -0.06697
  45   32112.4    311.4   0.044202933   0.45316  -0.44321   0.05016   0.50419
  46   32572.4    307.0   0.029949081   0.30270  -0.39787   0.28387   0.25262
  47   32872.3    304.2   0.139856654   1.40065  -0.73654   0.92597   0.02720
  48   33184.9    301.3   0.360602088   3.57737  -1.00395   0.85685  -1.35471
  49   33333.7    300.0   0.088465341   0.87371  -0.71807   0.56513   0.19673
  50   33482.3    298.7   0.166412310   1.63624   1.09718   0.39934  -0.52247
  51   33685.5    296.9   0.904789341   8.84260   2.22607  -1.86724   0.63296
  52   33862.2    295.3   0.032777219   0.31866  -0.29298   0.39846  -0.27214
  53   33938.0    294.7   0.336666443   3.26580  -0.02566  -1.50428   1.00113
  54   34029.2    293.9   0.093525947   0.90481  -0.80957   0.47050   0.16740
  55   34224.8    292.2   0.022463265   0.21608  -0.34193   0.20899  -0.23555
  56   34428.4    290.5   0.132969039   1.27148  -0.11961   0.90943  -0.65582
  57   34448.9    290.3   0.284745991   2.72118  -0.81338   1.37804  -0.40075
  58   34537.0    289.5   0.044160790   0.42095  -0.47480   0.10807  -0.42875
  59   34605.6    289.0   0.341197572   3.24590  -0.73718  -1.29210   1.01634
  60   34858.5    286.9   0.210280969   1.98594   1.32943   0.34995  -0.31001
  61   35442.0    282.2   0.156098736   1.44996   0.56389  -0.91776  -0.53825
  62   35633.7    280.6   0.860003460   7.94539   2.39713  -1.46139   0.25198
  63   35807.7    279.3   0.103152108   0.94837   0.73304  -0.59804  -0.23103
  64   36426.1    274.5   0.107897551   0.97516   0.54799  -0.81731   0.08285
  65   36463.5    274.2   0.071669686   0.64707   0.47182  -0.65111   0.02269
  66   36640.4    272.9   0.018307854   0.16450  -0.36891   0.16229   0.04543
  67   36699.3    272.5   0.058398883   0.52387   0.21363  -0.59445   0.35336
  68   36712.5    272.4   0.024242917   0.21739  -0.02785  -0.45540  -0.09606
  69   36993.6    270.3   0.094624152   0.84208   0.41967  -0.73327   0.35816
  70   37146.6    269.2   0.083161210   0.73702  -0.67710   0.48731   0.20270
  71   37448.6    267.0   0.003160619   0.02779   0.00110   0.13988  -0.09065
  72   37732.5    265.0   0.244516084   2.13338   1.02285   0.46367  -0.93390
  73   37754.9    264.9   0.079336700   0.69179  -0.67101   0.29630   0.39211
  74   38093.5    262.5   0.007786223   0.06729  -0.11184   0.23252  -0.02678
  75   38258.3    261.4   0.033478119   0.28808  -0.20249   0.46585  -0.17337
  76   38485.3    259.8   0.098278194   0.84069  -0.64038   0.63600  -0.16159
  77   38593.4    259.1   0.146488082   1.24958  -1.04624   0.30359  -0.25060
  78   38807.6    257.7   0.075109456   0.63717  -0.59109   0.52177  -0.12466
  79   39233.7    254.9   0.007979053   0.06695  -0.19439  -0.17067  -0.00599
  80   39276.4    254.6   0.145892037   1.22286   0.93846   0.10581  -0.57529
  81   39583.8    252.6   0.046212335   0.38434   0.60904  -0.09000   0.07284
  82   39610.1    252.5   0.033570277   0.27901  -0.44627  -0.19443   0.20507
  83   39853.7    250.9   0.015212510   0.12566   0.25927   0.08409  -0.22665
  84   40018.7    249.9   0.019659069   0.16172  -0.40202   0.00456  -0.00912
  85   40250.0    248.4   0.038720961   0.31671  -0.44468   0.34480  -0.00890
  86   40316.2    248.0   0.063416564   0.51784   0.70846  -0.12588   0.00934

FINAL SINGLE POINT ENERGY     -7498.574203181000

DIPOLE MOMENT
-------------
                                X             Y             Z
Electronic contribution:     10.19012       7.43147      16.34995
Nuclear contribution   :     -9.75811      -3.16772     -17.97186
                        -----------------------------------------
Total Dipole Moment    :      0.43201       4.26375      -1.62190
                        -----------------------------------------
Magnitude (a.u.)       :      4.58222
Magnitude (Debye)      :     11.64709

Rotational constants in cm-1:     0.001099     0.000589     0.000414
Rotational constants in MHz :    32.949701    17.661931    12.423628

                             ****ORCA TERMINATED NORMALLY****
TOTAL RUN TIME: 0 days 0 hours 13 minutes 49 seconds 911 msec
