                         Program Version 4.2.0 -  RELEASE  -
|  1> # ORCA input file
|  2> # SCF done       -184.916280956308          0.000431146133
|  3> ! CAM-B3LYP def2-SVP def2/J RIJCOSX Grid4 TightSCF
|  4> %maxcore 5000
|  5> %tddft
|  6>     Mode sTDDFT
|  7>     Ethresh 5.0
|  8>     maxcore 5000
|  9> end
| 10>
| 11> %pal
| 12>   nprocs 6
| 13>   end
| 14> * xyz 0 1
| 15>    C      -15.08812         3.08517        -3.88890
| 16>    C      -15.67167         2.43289        -2.83172
| 17>    C      -17.04501         2.13064        -2.74751
| 18>    N      -18.15400         1.85933        -2.62508
| 19>    C      -14.96822         1.98789        -1.69510
| 20>    N      -14.43480         1.61065        -0.75063
| 21>    C      -15.78229         3.56853        -5.08182
| 22>    C      -14.83975         4.19543        -5.93827
| 23>    C      -15.18277         4.75252        -7.14658
| 24>    C      -16.52710         4.69065        -7.52908
| 25>    C      -17.46207         4.06667        -6.67025
| 26>    C      -17.11158         3.50087        -5.44813
| 27>    S      -19.06452         4.10525        -7.33791
| 28>    C      -18.46428         4.94760        -8.74284
| 29>    C      -17.13206         5.18819        -8.71529
| 30>   Br      -19.65499         5.42867       -10.10943
| 31>    C      -13.52131         4.12767        -5.30722
| 32>    O      -12.46211         4.57080        -5.75347
| 33>    C      -13.69436         3.42970        -4.03801
| 34>    C      -12.63095         3.18487        -3.19451
| 35>    N      -11.40241         3.60115        -3.52398
| 36>    C      -10.25859         3.44216        -2.81619
| 37>    S      -10.30462         2.63567        -1.27065
| 38>    C       -8.59884         2.89250        -1.10574
| 39>    N       -7.96511         2.42671         0.05456
| 40>    O       -6.77074         2.63556         0.16593
| 41>    O       -8.65982         1.84782         0.86986
| 42>    C       -8.04183         3.54717        -2.16632
| 43>    C       -8.97019         3.87900        -3.18207
| 44>    C       -8.51254         4.55695        -4.35282
| 45>    C       -9.18622         4.93024        -5.47565
| 46>    C       -8.60024         5.58729        -6.57060
| 47>    S       -6.90938         5.99756        -6.64486
| 48>    C       -7.04109         6.68169        -8.24207
| 49>    C       -8.38264         6.60359        -8.69639
| 50>    C       -9.25541         5.99262        -7.75303
| 51>    C      -10.62233         5.85600        -8.05151
| 52>    C      -11.08386         6.31702        -9.25285
| 53>    F      -12.39329         6.19863        -9.54844
| 54>    C      -10.22087         6.91781       -10.18810
| 55>    F      -10.71934         7.35773       -11.35786
| 56>    C       -8.88550         7.06349        -9.92107
| 57>    C       -5.94901         7.19858        -8.92638
| 58>    C       -4.66502         7.29531        -8.42334
| 59>    C       -3.59742         7.77633        -9.16037
| 60>    C       -2.29973         7.92177        -8.68898
| 61>    C       -1.18650         8.35860        -9.42642
| 62>    C       -0.02257         8.41512        -8.70531
| 63>    C       -0.17083         8.03614        -7.36262
| 64>    S       -1.82952         7.58483        -7.03809
| 65>    C        0.80811         8.02081        -6.37348
| 66>    C        2.17196         8.33649        -6.51768
| 67>    C        2.88082         8.25383        -5.35340
| 68>    C        2.11611         7.87686        -4.22704
| 69>    S        0.45099         7.60836        -4.71814
| 70>    C        2.60053         7.76798        -2.94340
| 71>    C        1.91512         7.44285        -1.76200
| 72>    C        0.56650         7.09543        -1.56384
| 73>    C        0.35358         6.88877        -0.18727
| 74>    C       -0.78328         6.54236         0.52421
| 75>    C       -0.67286         6.43403         1.91180
| 76>    C       -1.60939         6.12309         2.89682
| 77>    C       -0.97908         6.16499         4.17189
| 78>    C        0.35705         6.49549         3.98203
| 79>    C        0.59202         6.67261         2.58819
| 80>    C        1.72486         7.00415         1.88994
| 81>    C        1.61946         7.11774         0.48934
| 82>    C        2.55287         7.44385        -0.47624
| 83>    C       -1.66834         5.90414         5.41382
| 84>    C       -1.12673         5.97922         6.62654
| 85>    H      -14.44567         5.22043        -7.78049
| 86>    H      -17.86236         3.03611        -4.83123
| 87>    H      -16.59387         5.69451        -9.49570
| 88>    H      -12.74613         2.65671        -2.25742
| 89>    H      -11.36702         4.10432        -4.42271
| 90>    H       -6.99265         3.77799        -2.21299
| 91>    H       -7.45540         4.79234        -4.32451
| 92>    H      -10.23509         4.72975        -5.60845
| 93>    H      -11.31356         5.40797        -7.35763
| 94>    H       -8.24853         7.53163       -10.65319
| 95>    H       -6.12658         7.55068        -9.93351
| 96>    H       -4.48320         6.97829        -7.40362
| 97>    H       -3.76812         8.06152       -10.19082
| 98>    H       -1.26620         8.61787       -10.46737
| 99>    H        0.92213         8.72745        -9.11230
|100>    H        2.59796         8.61399        -7.46469
|101>    H        3.93349         8.46055        -5.27067
|102>    H        3.65660         7.98491        -2.83050
|103>    H       -0.18475         6.99830        -2.32393
|104>    H       -1.72585         6.36598         0.02631
|105>    H       -2.64552         5.88807         2.73044
|106>    H        1.10407         6.60380         4.74585
|107>    H        2.66952         7.17982         2.38540
|108>    H        3.59040         7.67288        -0.31008
|109>    H       -2.71126         5.63239         5.30988
|110>    H       -0.09551         6.24910         6.77787
|111>    H       -1.70060         5.77344         7.51324
|112> *
|113>
|114>                          ****END OF INPUT****

CARTESIAN COORDINATES (ANGSTROEM)
---------------------------------
  C    -15.088120    3.085170   -3.888900
  C    -15.671670    2.432890   -2.831720
  C    -17.045010    2.130640   -2.747510
  N    -18.154000    1.859330   -2.625080
  C    -14.968220    1.987890   -1.695100
  N    -14.434800    1.610650   -0.750630
  C    -15.782290    3.568530   -5.081820
  C    -14.839750    4.195430   -5.938270
  C    -15.182770    4.752520   -7.146580
  C    -16.527100    4.690650   -7.529080
  C    -17.462070    4.066670   -6.670250
  C    -17.111580    3.500870   -5.448130
  S    -19.064520    4.105250   -7.337910
  C    -18.464280    4.947600   -8.742840
  C    -17.132060    5.188190   -8.715290
  Br   -19.654990    5.428670  -10.109430
  C    -13.521310    4.127670   -5.307220
  O    -12.462110    4.570800   -5.753470
  C    -13.694360    3.429700   -4.038010
  C    -12.630950    3.184870   -3.194510
  N    -11.402410    3.601150   -3.523980
  C    -10.258590    3.442160   -2.816190
  S    -10.304620    2.635670   -1.270650
  C     -8.598840    2.892500   -1.105740
  N     -7.965110    2.426710    0.054560
  O     -6.770740    2.635560    0.165930
  O     -8.659820    1.847820    0.869860
  C     -8.041830    3.547170   -2.166320
  C     -8.970190    3.879000   -3.182070
  C     -8.512540    4.556950   -4.352820
  C     -9.186220    4.930240   -5.475650
  C     -8.600240    5.587290   -6.570600
  S     -6.909380    5.997560   -6.644860
  C     -7.041090    6.681690   -8.242070
  C     -8.382640    6.603590   -8.696390
  C     -9.255410    5.992620   -7.753030
  C    -10.622330    5.856000   -8.051510
  C    -11.083860    6.317020   -9.252850
  F    -12.393290    6.198630   -9.548440
  C    -10.220870    6.917810  -10.188100
  F    -10.719340    7.357730  -11.357860
  C     -8.885500    7.063490   -9.921070
  C     -5.949010    7.198580   -8.926380
  C     -4.665020    7.295310   -8.423340
  C     -3.597420    7.776330   -9.160370
  C     -2.299730    7.921770   -8.688980
  C     -1.186500    8.358600   -9.426420
  C     -0.022570    8.415120   -8.705310
  C     -0.170830    8.036140   -7.362620
  S     -1.829520    7.584830   -7.038090
  C      0.808110    8.020810   -6.373480
  C      2.171960    8.336490   -6.517680
  C      2.880820    8.253830   -5.353400
  C      2.116110    7.876860   -4.227040
  S      0.450990    7.608360   -4.718140
  C      2.600530    7.767980   -2.943400
  C      1.915120    7.442850   -1.762000
  C      0.566500    7.095430   -1.563840
  C      0.353580    6.888770   -0.187270
  C     -0.783280    6.542360    0.524210
  C     -0.672860    6.434030    1.911800
  C     -1.609390    6.123090    2.896820
  C     -0.979080    6.164990    4.171890
  C      0.357050    6.495490    3.982030
  C      0.592020    6.672610    2.588190
  C      1.724860    7.004150    1.889940
  C      1.619460    7.117740    0.489340
  C      2.552870    7.443850   -0.476240
  C     -1.668340    5.904140    5.413820
  C     -1.126730    5.979220    6.626540
  H    -14.445670    5.220430   -7.780490
  H    -17.862360    3.036110   -4.831230
  H    -16.593870    5.694510   -9.495700
  H    -12.746130    2.656710   -2.257420
  H    -11.367020    4.104320   -4.422710
  H     -6.992650    3.777990   -2.212990
  H     -7.455400    4.792340   -4.324510
  H    -10.235090    4.729750   -5.608450
  H    -11.313560    5.407970   -7.357630
  H     -8.248530    7.531630  -10.653190
  H     -6.126580    7.550680   -9.933510
  H     -4.483200    6.978290   -7.403620
  H     -3.768120    8.061520  -10.190820
  H     -1.266200    8.617870  -10.467370
  H      0.922130    8.727450   -9.112300
  H      2.597960    8.613990   -7.464690
  H      3.933490    8.460550   -5.270670
  H      3.656600    7.984910   -2.830500
  H     -0.184750    6.998300   -2.323930
  H     -1.725850    6.365980    0.026310
  H     -2.645520    5.888070    2.730440
  H      1.104070    6.603800    4.745850
  H      2.669520    7.179820    2.385400
  H      3.590400    7.672880   -0.310080
  H     -2.711260    5.632390    5.309880
  H     -0.095510    6.249100    6.777870
  H     -1.700600    5.773440    7.513240

 Total Charge           Charge          ....    0
 Multiplicity           Mult            ....    1
 Number of Electrons    NEL             ....  542
 Basis Dimension        Dim             .... 1153

ORBITAL ENERGIES
----------------

  NO   OCC          E(Eh)            E(eV)
   0   2.0000    -482.886373    -13140.0062
   1   2.0000     -88.985952     -2421.4309
   2   2.0000     -88.977990     -2421.2142
   3   2.0000     -88.961903     -2420.7764
   4   2.0000     -88.948605     -2420.4146
   5   2.0000     -88.945604     -2420.3329
   6   2.0000     -62.564078     -1702.4551
   7   2.0000     -56.398034     -1534.6685
   8   2.0000     -56.395306     -1534.5943
   9   2.0000     -56.395279     -1534.5935
  10   2.0000     -24.787576      -674.5042
  11   2.0000     -24.782408      -674.3636
  12   2.0000     -19.238628      -523.5097
  13   2.0000     -19.238526      -523.5069
  14   2.0000     -19.237205      -523.4710
  15   2.0000     -14.649673      -398.6379
  16   2.0000     -14.499411      -394.5490
  17   2.0000     -14.420294      -392.3962
  18   2.0000     -14.415998      -392.2792
  19   2.0000     -10.383556      -282.5509
  20   2.0000     -10.371126      -282.2127
  21   2.0000     -10.367910      -282.1252
  22   2.0000     -10.363090      -281.9940
  23   2.0000     -10.362365      -281.9743
  24   2.0000     -10.360395      -281.9207
  25   2.0000     -10.347921      -281.5812
  26   2.0000     -10.345394      -281.5125
  27   2.0000     -10.343497      -281.4609
  28   2.0000     -10.328698      -281.0582
  29   2.0000     -10.322583      -280.8918
  30   2.0000     -10.319136      -280.7980
  31   2.0000     -10.313934      -280.6564
  32   2.0000     -10.312972      -280.6302
  33   2.0000     -10.309995      -280.5492
  34   2.0000     -10.309822      -280.5445
  35   2.0000     -10.309389      -280.5327
  36   2.0000     -10.308294      -280.5029
  37   2.0000     -10.307408      -280.4788
  38   2.0000     -10.307368      -280.4777
  39   2.0000     -10.307034      -280.4687
  40   2.0000     -10.306240      -280.4470
  41   2.0000     -10.305611      -280.4299
  42   2.0000     -10.303590      -280.3749
  43   2.0000     -10.302917      -280.3566
  44   2.0000     -10.301745      -280.3247
  45   2.0000     -10.301172      -280.3091
  46   2.0000     -10.298951      -280.2487
  47   2.0000     -10.298171      -280.2275
  48   2.0000     -10.289539      -279.9926
  49   2.0000     -10.289528      -279.9923
  50   2.0000     -10.287920      -279.9485
  51   2.0000     -10.287907      -279.9482
  52   2.0000     -10.287871      -279.9472
  53   2.0000     -10.287115      -279.9266
  54   2.0000     -10.286503      -279.9100
  55   2.0000     -10.286463      -279.9089
  56   2.0000     -10.285893      -279.8934
  57   2.0000     -10.284078      -279.8440
  58   2.0000     -10.283114      -279.8178
  59   2.0000     -10.280910      -279.7578
  60   2.0000     -10.280274      -279.7405
  61   2.0000     -10.280137      -279.7368
  62   2.0000     -10.279508      -279.7196
  63   2.0000     -10.278829      -279.7012
  64   2.0000     -10.277320      -279.6601
  65   2.0000     -10.275030      -279.5978
  66   2.0000     -10.272256      -279.5223
  67   2.0000     -10.269711      -279.4531
  68   2.0000     -10.268556      -279.4216
  69   2.0000     -10.267628      -279.3964
  70   2.0000     -10.266300      -279.3602
  71   2.0000     -10.265891      -279.3491
  72   2.0000     -10.265506      -279.3386
  73   2.0000     -10.257667      -279.1253
  74   2.0000      -8.793506      -239.2835
  75   2.0000      -8.081151      -219.8993
  76   2.0000      -8.074038      -219.7057
  77   2.0000      -8.056808      -219.2369
  78   2.0000      -8.044408      -218.8995
  79   2.0000      -8.041881      -218.8307
  80   2.0000      -6.629855      -180.4075
  81   2.0000      -6.615219      -180.0093
  82   2.0000      -6.615011      -180.0036
  83   2.0000      -6.050828      -164.6514
  84   2.0000      -6.046455      -164.5324
  85   2.0000      -6.043707      -164.4576
  86   2.0000      -6.042569      -164.4266
  87   2.0000      -6.039424      -164.3411
  88   2.0000      -6.035277      -164.2282
  89   2.0000      -6.025810      -163.9706
  90   2.0000      -6.022001      -163.8670
  91   2.0000      -6.019307      -163.7937
  92   2.0000      -6.014068      -163.6511
  93   2.0000      -6.011505      -163.5814
  94   2.0000      -6.010036      -163.5414
  95   2.0000      -6.007560      -163.4740
  96   2.0000      -6.005561      -163.4196
  97   2.0000      -6.002968      -163.3491
  98   2.0000      -2.745673       -74.7136
  99   2.0000      -2.741635       -74.6037
 100   2.0000      -2.741467       -74.5991
 101   2.0000      -2.729840       -74.2827
 102   2.0000      -2.729814       -74.2820
 103   2.0000      -1.319296       -35.8999
 104   2.0000      -1.305436       -35.5227
 105   2.0000      -1.290447       -35.1148
 106   2.0000      -1.152391       -31.3582
 107   2.0000      -1.138060       -30.9682
 108   2.0000      -1.104797       -30.0631
 109   2.0000      -1.026792       -27.9404
 110   2.0000      -1.016151       -27.6509
 111   2.0000      -1.007494       -27.4153
 112   2.0000      -0.998729       -27.1768
 113   2.0000      -0.997315       -27.1383
 114   2.0000      -0.995667       -27.0935
 115   2.0000      -0.993534       -27.0354
 116   2.0000      -0.988927       -26.9101
 117   2.0000      -0.974017       -26.5044
 118   2.0000      -0.962252       -26.1842
 119   2.0000      -0.945202       -25.7202
 120   2.0000      -0.940471       -25.5915
 121   2.0000      -0.923600       -25.1324
 122   2.0000      -0.912678       -24.8352
 123   2.0000      -0.910819       -24.7847
 124   2.0000      -0.903285       -24.5796
 125   2.0000      -0.897385       -24.4191
 126   2.0000      -0.889258       -24.1980
 127   2.0000      -0.887143       -24.1404
 128   2.0000      -0.877329       -23.8733
 129   2.0000      -0.870486       -23.6871
 130   2.0000      -0.866757       -23.5856
 131   2.0000      -0.853466       -23.2240
 132   2.0000      -0.852476       -23.1970
 133   2.0000      -0.845728       -23.0134
 134   2.0000      -0.842148       -22.9160
 135   2.0000      -0.838751       -22.8236
 136   2.0000      -0.832856       -22.6632
 137   2.0000      -0.828096       -22.5336
 138   2.0000      -0.821734       -22.3605
 139   2.0000      -0.806318       -21.9410
 140   2.0000      -0.800275       -21.7766
 141   2.0000      -0.795277       -21.6406
 142   2.0000      -0.783015       -21.3069
 143   2.0000      -0.767932       -20.8965
 144   2.0000      -0.765366       -20.8267
 145   2.0000      -0.751171       -20.4404
 146   2.0000      -0.750407       -20.4196
 147   2.0000      -0.739717       -20.1287
 148   2.0000      -0.732273       -19.9262
 149   2.0000      -0.731122       -19.8948
 150   2.0000      -0.722467       -19.6593
 151   2.0000      -0.708341       -19.2749
 152   2.0000      -0.700958       -19.0740
 153   2.0000      -0.693976       -18.8841
 154   2.0000      -0.684827       -18.6351
 155   2.0000      -0.679135       -18.4802
 156   2.0000      -0.674540       -18.3552
 157   2.0000      -0.670649       -18.2493
 158   2.0000      -0.667065       -18.1517
 159   2.0000      -0.660446       -17.9716
 160   2.0000      -0.651767       -17.7355
 161   2.0000      -0.645100       -17.5541
 162   2.0000      -0.644777       -17.5453
 163   2.0000      -0.642137       -17.4734
 164   2.0000      -0.636786       -17.3278
 165   2.0000      -0.630818       -17.1654
 166   2.0000      -0.629623       -17.1329
 167   2.0000      -0.627202       -17.0670
 168   2.0000      -0.623695       -16.9716
 169   2.0000      -0.622731       -16.9454
 170   2.0000      -0.616574       -16.7778
 171   2.0000      -0.613233       -16.6869
 172   2.0000      -0.608247       -16.5513
 173   2.0000      -0.606491       -16.5035
 174   2.0000      -0.603847       -16.4315
 175   2.0000      -0.595270       -16.1981
 176   2.0000      -0.594323       -16.1723
 177   2.0000      -0.587534       -15.9876
 178   2.0000      -0.584402       -15.9024
 179   2.0000      -0.581933       -15.8352
 180   2.0000      -0.578269       -15.7355
 181   2.0000      -0.570465       -15.5232
 182   2.0000      -0.570132       -15.5141
 183   2.0000      -0.569077       -15.4854
 184   2.0000      -0.561012       -15.2659
 185   2.0000      -0.560012       -15.2387
 186   2.0000      -0.555797       -15.1240
 187   2.0000      -0.551116       -14.9966
 188   2.0000      -0.545994       -14.8572
 189   2.0000      -0.543421       -14.7872
 190   2.0000      -0.537015       -14.6129
 191   2.0000      -0.535868       -14.5817
 192   2.0000      -0.534844       -14.5538
 193   2.0000      -0.533484       -14.5168
 194   2.0000      -0.533112       -14.5067
 195   2.0000      -0.527873       -14.3642
 196   2.0000      -0.524069       -14.2606
 197   2.0000      -0.523289       -14.2394
 198   2.0000      -0.519987       -14.1496
 199   2.0000      -0.513037       -13.9605
 200   2.0000      -0.511300       -13.9132
 201   2.0000      -0.507308       -13.8046
 202   2.0000      -0.503459       -13.6998
 203   2.0000      -0.502069       -13.6620
 204   2.0000      -0.499651       -13.5962
 205   2.0000      -0.499335       -13.5876
 206   2.0000      -0.498863       -13.5748
 207   2.0000      -0.497522       -13.5383
 208   2.0000      -0.494492       -13.4558
 209   2.0000      -0.494050       -13.4438
 210   2.0000      -0.492566       -13.4034
 211   2.0000      -0.485617       -13.2143
 212   2.0000      -0.481708       -13.1079
 213   2.0000      -0.478144       -13.0109
 214   2.0000      -0.476297       -12.9607
 215   2.0000      -0.473145       -12.8749
 216   2.0000      -0.469830       -12.7847
 217   2.0000      -0.469291       -12.7701
 218   2.0000      -0.468444       -12.7470
 219   2.0000      -0.464769       -12.6470
 220   2.0000      -0.463951       -12.6247
 221   2.0000      -0.461497       -12.5580
 222   2.0000      -0.455478       -12.3942
 223   2.0000      -0.453381       -12.3371
 224   2.0000      -0.453110       -12.3297
 225   2.0000      -0.452931       -12.3249
 226   2.0000      -0.450741       -12.2653
 227   2.0000      -0.447864       -12.1870
 228   2.0000      -0.445954       -12.1350
 229   2.0000      -0.442147       -12.0314
 230   2.0000      -0.441058       -12.0018
 231   2.0000      -0.439012       -11.9461
 232   2.0000      -0.431550       -11.7431
 233   2.0000      -0.430912       -11.7257
 234   2.0000      -0.430006       -11.7011
 235   2.0000      -0.428823       -11.6689
 236   2.0000      -0.426502       -11.6057
 237   2.0000      -0.422933       -11.5086
 238   2.0000      -0.421641       -11.4734
 239   2.0000      -0.418287       -11.3822
 240   2.0000      -0.415447       -11.3049
 241   2.0000      -0.412782       -11.2324
 242   2.0000      -0.410138       -11.1604
 243   2.0000      -0.407090       -11.0775
 244   2.0000      -0.402172       -10.9437
 245   2.0000      -0.397064       -10.8047
 246   2.0000      -0.391294       -10.6477
 247   2.0000      -0.386868       -10.5272
 248   2.0000      -0.385703       -10.4955
 249   2.0000      -0.378786       -10.3073
 250   2.0000      -0.375899       -10.2287
 251   2.0000      -0.374905       -10.2017
 252   2.0000      -0.371671       -10.1137
 253   2.0000      -0.369181       -10.0459
 254   2.0000      -0.366956        -9.9854
 255   2.0000      -0.361744        -9.8436
 256   2.0000      -0.357564        -9.7298
 257   2.0000      -0.340954        -9.2778
 258   2.0000      -0.337809        -9.1922
 259   2.0000      -0.329291        -8.9605
 260   2.0000      -0.323887        -8.8134
 261   2.0000      -0.323173        -8.7940
 262   2.0000      -0.320920        -8.7327
 263   2.0000      -0.311420        -8.4742
 264   2.0000      -0.300142        -8.1673
 265   2.0000      -0.296551        -8.0696
 266   2.0000      -0.283466        -7.7135
 267   2.0000      -0.270481        -7.3602
 268   2.0000      -0.259371        -7.0578
 269   2.0000      -0.233618        -6.3571
 270   2.0000      -0.190789        -5.1916
 271   0.0000      -0.104949        -2.8558
 272   0.0000      -0.095517        -2.5991
 273   0.0000      -0.083937        -2.2840
 274   0.0000      -0.072118        -1.9624
 275   0.0000      -0.047238        -1.2854

MULLIKEN ATOMIC CHARGES
-----------------------
   0 C :    0.327603
   1 C :   -0.343572
   2 C :   -0.184498
   3 N :    0.150992
   4 C :   -0.198047
   5 N :    0.146323
   6 C :    0.005943
   7 C :   -0.004194
   8 C :   -0.066621
   9 C :    0.107084
  10 C :   -0.090569
  11 C :   -0.019182
  12 S :    0.190417
  13 C :   -0.124352
  14 C :    0.040846
  15 Br:    0.026659
  16 C :    0.191538
  17 O :   -0.234890
  18 C :   -0.120855
  19 C :    0.026351
  20 N :    0.004262
  21 C :   -0.145558
  22 S :    0.162038
  23 C :    0.016508
  24 N :    0.273680
  25 O :   -0.251978
  26 O :   -0.254896
  27 C :   -0.008557
  28 C :    0.166677
  29 C :   -0.050000
  30 C :    0.010424
  31 C :   -0.114043
  32 S :    0.119921
  33 C :   -0.053945
  34 C :    0.132109
  35 C :    0.128288
  36 C :   -0.113526
  37 C :    0.223369
  38 F :   -0.188328
  39 C :    0.221744
  40 F :   -0.185262
  41 C :   -0.119910
  42 C :   -0.043280
  43 C :    0.017100
  44 C :   -0.018553
  45 C :   -0.017349
  46 C :    0.024188
  47 C :    0.024234
  48 C :   -0.052537
  49 S :    0.080249
  50 C :   -0.023862
  51 C :    0.015541
  52 C :    0.038426
  53 C :   -0.033032
  54 S :    0.064878
  55 C :   -0.005150
  56 C :    0.051313
  57 C :   -0.031659
  58 C :    0.043458
  59 C :    0.009331
  60 C :    0.051183
  61 C :   -0.013412
  62 C :    0.056228
  63 C :   -0.017246
  64 C :    0.045729
  65 C :    0.005009
  66 C :    0.055733
  67 C :   -0.028926
  68 C :    0.007391
  69 C :   -0.015426
  70 H :   -0.015910
  71 H :   -0.006031
  72 H :    0.003544
  73 H :    0.049976
  74 H :    0.179011
  75 H :    0.012218
  76 H :   -0.017808
  77 H :   -0.027752
  78 H :   -0.022554
  79 H :   -0.014570
  80 H :   -0.019098
  81 H :    0.000246
  82 H :   -0.021030
  83 H :   -0.015933
  84 H :   -0.014777
  85 H :   -0.017090
  86 H :   -0.012737
  87 H :   -0.022909
  88 H :   -0.012134
  89 H :   -0.020583
  90 H :   -0.014351
  91 H :   -0.025370
  92 H :   -0.023784
  93 H :   -0.023153
  94 H :   -0.016778
  95 H :    0.007814
  96 H :    0.021983
Sum of atomic charges:   -0.0000000

LOEWDIN ATOMIC CHARGES
----------------------
   0 C :    0.078851
   1 C :   -0.148187
   2 C :   -0.019627
   3 N :   -0.053707
   4 C :   -0.021220
   5 N :   -0.052356
   6 C :   -0.017873
   7 C :   -0.053420
   8 C :    0.027336
   9 C :   -0.033788
  10 C :   -0.143361
  11 C :   -0.007670
  12 S :    0.436787
  13 C :   -0.271312
  14 C :   -0.067235
  15 Br:    0.138962
  16 C :    0.104454
  17 O :   -0.181229
  18 C :   -0.145460
  19 C :    0.108934
  20 N :    0.088901
  21 C :   -0.122257
  22 S :    0.463869
  23 C :   -0.202556
  24 N :    0.273797
  25 O :   -0.217806
  26 O :   -0.221329
  27 C :    0.001296
  28 C :   -0.075134
  29 C :   -0.059922
  30 C :   -0.038007
  31 C :   -0.186597
  32 S :    0.455503
  33 C :   -0.153950
  34 C :   -0.050693
  35 C :   -0.036181
  36 C :   -0.040511
  37 C :    0.059379
  38 F :   -0.066269
  39 C :    0.054812
  40 F :   -0.063128
  41 C :   -0.037637
  42 C :   -0.060320
  43 C :   -0.022486
  44 C :   -0.070131
  45 C :   -0.140210
  46 C :   -0.047081
  47 C :   -0.027698
  48 C :   -0.191479
  49 S :    0.376775
  50 C :   -0.166399
  51 C :   -0.050702
  52 C :   -0.021847
  53 C :   -0.162999
  54 S :    0.389846
  55 C :   -0.031070
  56 C :   -0.076909
  57 C :    0.010484
  58 C :   -0.065001
  59 C :    0.082022
  60 C :   -0.071596
  61 C :    0.053355
  62 C :   -0.063323
  63 C :    0.033648
  64 C :   -0.061965
  65 C :    0.081246
  66 C :   -0.070799
  67 C :    0.046481
  68 C :   -0.024839
  69 C :   -0.045593
  70 H :    0.040642
  71 H :    0.041856
  72 H :    0.041675
  73 H :    0.035781
  74 H :    0.085746
  75 H :    0.045860
  76 H :    0.023429
  77 H :    0.026932
  78 H :    0.034019
  79 H :    0.038703
  80 H :    0.031178
  81 H :    0.017272
  82 H :    0.031562
  83 H :    0.032127
  84 H :    0.031470
  85 H :    0.030426
  86 H :    0.033285
  87 H :    0.034628
  88 H :    0.013824
  89 H :    0.036895
  90 H :    0.028851
  91 H :    0.024648
  92 H :    0.035385
  93 H :    0.025333
  94 H :    0.029076
  95 H :    0.018450
  96 H :    0.025081

  Mayer bond orders larger than 0.100000
B(  0-C ,  1-C ) :   1.6264 B(  0-C ,  6-C ) :   0.9997 B(  0-C , 18-C ) :   1.0986
B(  1-C ,  2-C ) :   1.1444 B(  1-C ,  4-C ) :   1.1492 B(  2-C ,  3-N ) :   2.9684
B(  4-C ,  5-N ) :   2.9540 B(  6-C ,  7-C ) :   1.2670 B(  6-C , 11-C ) :   1.4311
B(  7-C ,  8-C ) :   1.4117 B(  7-C , 16-C ) :   0.9792 B(  8-C ,  9-C ) :   1.2488
B(  8-C , 70-H ) :   1.0169 B(  9-C , 10-C ) :   1.3085 B(  9-C , 14-C ) :   1.1648
B( 10-C , 11-C ) :   1.3143 B( 10-C , 12-S ) :   1.0921 B( 11-C , 71-H ) :   0.9809
B( 12-S , 13-C ) :   1.0875 B( 13-C , 14-C ) :   1.6156 B( 13-C , 15-Br) :   1.0199
B( 14-C , 72-H ) :   1.0009 B( 16-C , 17-O ) :   1.9288 B( 16-C , 18-C ) :   1.0446
B( 17-O , 74-H ) :   0.1196 B( 18-C , 19-C ) :   1.4260 B( 19-C , 20-N ) :   1.3496
B( 19-C , 73-H ) :   0.9286 B( 20-N , 21-C ) :   1.1897 B( 20-N , 74-H ) :   0.8412
B( 21-C , 22-S ) :   1.1245 B( 21-C , 28-C ) :   1.3439 B( 22-S , 23-C ) :   1.0818
B( 23-C , 24-N ) :   0.9637 B( 23-C , 27-C ) :   1.4974 B( 24-N , 25-O ) :   1.5340
B( 24-N , 26-O ) :   1.5191 B( 25-O , 26-O ) :   0.2623 B( 27-C , 28-C ) :   1.1923
B( 27-C , 75-H ) :   1.0071 B( 28-C , 29-C ) :   1.1389 B( 29-C , 30-C ) :   1.5732
B( 29-C , 76-H ) :   0.9642 B( 30-C , 31-C ) :   1.2778 B( 30-C , 77-H ) :   0.9374
B( 31-C , 32-S ) :   1.0980 B( 31-C , 35-C ) :   1.2968 B( 32-S , 33-C ) :   1.1258
B( 33-C , 34-C ) :   1.2651 B( 33-C , 42-C ) :   1.2630 B( 34-C , 35-C ) :   1.2216
B( 34-C , 41-C ) :   1.1829 B( 35-C , 36-C ) :   1.1759 B( 36-C , 37-C ) :   1.4882
B( 36-C , 41-C ) :   0.1176 B( 36-C , 78-H ) :   0.9848 B( 37-C , 38-F ) :   1.0928
B( 37-C , 39-C ) :   1.1779 B( 39-C , 40-F ) :   1.1207 B( 39-C , 41-C ) :   1.4900
B( 41-C , 79-H ) :   0.9988 B( 42-C , 43-C ) :   1.4966 B( 42-C , 80-H ) :   0.9741
B( 43-C , 44-C ) :   1.2570 B( 43-C , 81-H ) :   0.9707 B( 44-C , 45-C ) :   1.4548
B( 44-C , 82-H ) :   0.9840 B( 45-C , 46-C ) :   1.1973 B( 45-C , 49-S ) :   1.0548
B( 46-C , 47-C ) :   1.5265 B( 46-C , 83-H ) :   0.9999 B( 47-C , 48-C ) :   1.2389
B( 47-C , 84-H ) :   0.9943 B( 48-C , 49-S ) :   1.0443 B( 48-C , 50-C ) :   1.4426
B( 50-C , 51-C ) :   1.2159 B( 50-C , 54-S ) :   1.0630 B( 51-C , 52-C ) :   1.5558
B( 51-C , 85-H ) :   0.9941 B( 52-C , 53-C ) :   1.1659 B( 52-C , 86-H ) :   0.9991
B( 53-C , 54-S ) :   1.0259 B( 53-C , 55-C ) :   1.5435 B( 55-C , 56-C ) :   1.1548
B( 55-C , 87-H ) :   0.9679 B( 56-C , 57-C ) :   1.3790 B( 56-C , 67-C ) :   1.1560
B( 57-C , 58-C ) :   1.1876 B( 57-C , 88-H ) :   0.9959 B( 58-C , 59-C ) :   1.3645
B( 58-C , 66-C ) :   1.1406 B( 59-C , 60-C ) :   1.1905 B( 59-C , 89-H ) :   1.0046
B( 60-C , 61-C ) :   1.3473 B( 60-C , 64-C ) :   1.1304 B( 61-C , 62-C ) :   1.1983
B( 61-C , 90-H ) :   1.0134 B( 62-C , 63-C ) :   1.4582 B( 62-C , 68-C ) :   1.0736
B( 63-C , 64-C ) :   1.1296 B( 63-C , 91-H ) :   1.0109 B( 64-C , 65-C ) :   1.4251
B( 65-C , 66-C ) :   1.1427 B( 65-C , 92-H ) :   1.0044 B( 66-C , 67-C ) :   1.3948
B( 67-C , 93-H ) :   1.0155 B( 68-C , 69-C ) :   1.9495 B( 68-C , 94-H ) :   0.9656
B( 69-C , 95-H ) :   0.9523 B( 69-C , 96-H ) :   0.9486

-----------------------------------------------------------------------------
         ABSORPTION SPECTRUM VIA TRANSITION ELECTRIC DIPOLE MOMENTS
-----------------------------------------------------------------------------
State   Energy  Wavelength   fosc         T2         TX        TY        TZ
        (cm-1)    (nm)                  (au**2)     (au)      (au)      (au)
-----------------------------------------------------------------------------
   0    4548.0   2198.8   0.048581798   3.51668   1.35381   0.17720   1.28549
   1    8166.5   1224.5   0.846822914  34.13739   5.50133   1.36620   1.41644
   2   11796.4    847.7   0.050565887   1.41119   0.42118  -0.07668   1.10811
   3   12273.7    814.7   0.123725727   3.31864   0.37556  -0.21824   1.76917
   4   14610.0    684.5   0.007944697   0.17902  -0.02768   0.01360  -0.42198
   5   16737.9    597.4   0.121140288   2.38267  -1.38309  -0.43509   0.52955
   6   18658.2    536.0   1.084275968  19.13137   1.32621   1.25439  -3.97480
   7   20613.3    485.1   0.067164036   1.07267   0.48561   0.34470  -0.84737
   8   21234.7    470.9   0.302287569   4.68650  -0.25432   0.61408  -2.06027
   9   21570.4    463.6   0.051166671   0.78092   0.44235   0.21067  -0.73543
  10   22147.1    451.5   0.507500609   7.54388   0.44106   0.59546  -2.64476
  11   23514.5    425.3   0.015859045   0.22203  -0.19445   0.04478  -0.42687
  12   24048.3    415.8   0.036562203   0.50052  -0.31758  -0.29366   0.55985
  13   25154.8    397.5   0.108902088   1.42525  -0.90672   0.12897  -0.76582
  14   25377.3    394.1   0.354375789   4.59721   1.43385  -0.27077   1.57098
  15   26612.1    375.8   0.332683954   4.11555   1.90600   0.15862  -0.67643
  16   27450.7    364.3   0.288863772   3.46429  -1.47268  -0.36650   1.07758
  17   27696.4    361.1   0.044378319   0.52750   0.19226   0.22670  -0.66268
  18   28082.6    356.1   0.046927818   0.55013   0.60133   0.29285  -0.32059
  19   28278.5    353.6   0.141550558   1.64790  -1.28095   0.05242   0.06567
  20   28600.9    349.6   0.109174717   1.25666   1.06800   0.20990  -0.26827
  21   29109.2    343.5   0.466993734   5.28149   1.31216  -0.70917   1.74838
  22   29776.7    335.8   0.326603530   3.61093  -1.19309   0.63357  -1.33643
  23   30073.2    332.5   0.060946674   0.66718   0.75647  -0.11839   0.28446
  24   30595.5    326.8   0.127836777   1.37554   0.06168   0.36637  -1.11243
  25   31194.7    320.6   0.012801991   0.13511   0.05079   0.08439  -0.35412
  26   31272.2    319.8   0.005007542   0.05272  -0.06638   0.04455  -0.21523
  27   31404.1    318.4   0.162664276   1.70523  -1.25879   0.07061  -0.34013
  28   31822.1    314.2   0.062771232   0.64939  -0.06268   0.19839  -0.77853
  29   31926.4    313.2   0.104972753   1.08244   0.29229   0.28966  -0.95556
  30   32381.3    308.8   0.037024726   0.37642  -0.45367   0.08633  -0.40392
  31   32479.7    307.9   0.047388672   0.48033   0.51301  -0.11837   0.45071
  32   32676.6    306.0   0.062988967   0.63460   0.37925  -0.17914   0.67726
  33   33344.9    299.9   0.003134364   0.03095   0.03677  -0.08825   0.14767
  34   33572.2    297.9   0.487749468   4.78291  -0.11176   1.00458  -1.93939
  35   33802.4    295.8   0.120345543   1.17208  -0.98535   0.16648  -0.41647
  36   34091.9    293.3   0.115113336   1.11160   0.04229   0.19960  -1.03440
  37   34328.7    291.3   0.030304089   0.29062  -0.00882  -0.22059   0.49181
  38   34387.6    290.8   0.011409865   0.10923  -0.00750   0.13943  -0.29956
  39   34761.9    287.7   0.224912174   2.13003   0.23168   0.44490  -1.37055
  40   34932.8    286.3   0.000563856   0.00531  -0.00989  -0.04222   0.05859
  41   35210.9    284.0   0.058789513   0.54967  -0.09442  -0.24902   0.69191
  42   35418.9    282.3   0.014316151   0.13307  -0.16523  -0.10471   0.30789
  43   35604.1    280.9   0.002190242   0.02025  -0.09507  -0.00889  -0.10552
  44   35753.6    279.7   0.054536946   0.50217  -0.35556   0.19530  -0.58104
  45   36036.4    277.5   0.000628299   0.00574   0.07429  -0.01485  -0.00052
  46   36084.9    277.1   0.006490407   0.05921   0.11036  -0.03876   0.21338
  47   36246.8    275.9   0.234350739   2.12849  -0.19316   0.27638  -1.41943
  48   36361.3    275.0   0.108226737   0.97987   0.98391   0.03238   0.10362
  49   36588.9    273.3   0.032450858   0.29198  -0.51788  -0.02936  -0.15140
  50   36844.4    271.4   0.058755465   0.52499   0.45296  -0.08307   0.55939
  51   37233.0    268.6   0.106963651   0.94577  -0.51719  -0.27614   0.77590
  52   37480.1    266.8   0.001369400   0.01203  -0.10275  -0.03477   0.01616
  53   37684.8    265.4   0.000444653   0.00388   0.05653  -0.00415  -0.02592
  54   37841.8    264.3   0.023060009   0.20061  -0.42031  -0.15456  -0.00806
  55   37923.4    263.7   0.041084185   0.35665  -0.58919  -0.03829  -0.08969
  56   38030.2    262.9   0.020770311   0.17980  -0.41166   0.00102  -0.10166
  57   38054.7    262.8   0.004170121   0.03608  -0.17869  -0.06419  -0.00485
  58   38253.7    261.4   0.005814870   0.05004  -0.21822  -0.04921  -0.00068
  59   38384.9    260.5   0.038285283   0.32836  -0.23591   0.22049  -0.47338
  60   38614.0    259.0   0.163523096   1.39415   0.22778   0.53422  -1.02805
  61   38898.0    257.1   0.001864498   0.01578  -0.00498   0.02367  -0.12327
  62   39196.0    255.1   0.085953845   0.72194   0.77713   0.01093   0.34333
  63   39327.8    254.3   0.031717875   0.26551   0.06010   0.29724  -0.41659
  64   39526.4    253.0   0.046316155   0.38576  -0.55696  -0.24392   0.12671
  65   39644.0    252.2   0.078826983   0.65460   0.57701   0.14074  -0.54940
  66   39981.8    250.1   0.003442149   0.02834  -0.09397   0.04573  -0.13199

FINAL SINGLE POINT ENERGY     -7317.082959671911

DIPOLE MOMENT
-------------
                                X             Y             Z
Electronic contribution:   -202.99358     -16.71064     -93.66985
Nuclear contribution   :    206.18698      18.93268      91.70361
                        -----------------------------------------
Total Dipole Moment    :      3.19340       2.22204      -1.96624
                        -----------------------------------------
Magnitude (a.u.)       :      4.35905
Magnitude (Debye)      :     11.07983

Rotational constants in cm-1:     0.000978     0.000273     0.000217
Rotational constants in MHz :    29.313618     8.185288     6.505219

                             ****ORCA TERMINATED NORMALLY****
TOTAL RUN TIME: 0 days 0 hours 13 minutes 52 seconds 57 msec
