                         Program Version 4.2.0 -  RELEASE  -
|  1> # ORCA input file
|  2> # SCF done       -162.115203849650          0.000704429868
|  3> ! CAM-B3LYP def2-SVP def2/J RIJCOSX Grid4 TightSCF
|  4> %maxcore 5000
|  5> %tddft
|  6>     Mode sTDDFT
|  7>     Ethresh 5.0
|  8>     maxcore 5000
|  9> end
| 10>
| 11> %pal
| 12>   nprocs 6
| 13>   end
| 14> * xyz 0 1
| 15>    C       -9.75893        -1.76489        -4.24638
| 16>    C      -10.38807        -2.87020        -3.72758
| 17>    C      -10.41861        -4.13008        -4.35617
| 18>    N      -10.47126        -5.17703        -4.82486
| 19>    C      -11.07550        -2.88016        -2.49834
| 20>    N      -11.64736        -2.92956        -1.50357
| 21>    C       -9.03039        -1.71271        -5.51013
| 22>    C       -8.50538        -0.40553        -5.68297
| 23>    C       -7.73780        -0.05108        -6.76560
| 24>    C       -7.50306        -1.02069        -7.74655
| 25>    C       -8.04953        -2.31523        -7.57775
| 26>    C       -8.80307        -2.68211        -6.46807
| 27>    S       -7.65428        -3.35402        -8.91243
| 28>    C       -6.77601        -2.05317        -9.67170
| 29>    C       -6.77351        -0.90006        -8.96030
| 30>   Br       -5.95132        -2.33087       -11.33435
| 31>    C       -8.92594         0.42511        -4.55072
| 32>    O       -8.69844         1.62545        -4.38842
| 33>    C       -9.68443        -0.44855        -3.65787
| 34>    C      -10.19195         0.00725        -2.46054
| 35>    N      -10.01113         1.28553        -2.11734
| 36>    C      -10.39670         1.92604        -0.98673
| 37>    S      -11.21411         1.11540         0.31101
| 38>    C      -11.25636         2.61508         1.18228
| 39>    N      -11.85267         2.61824         2.44853
| 40>    O      -11.87922         3.67276         3.05750
| 41>    O      -12.30133         1.55701         2.84738
| 42>    C      -10.68093         3.66290         0.51255
| 43>    C      -10.17473         3.29007        -0.74530
| 44>    C       -9.52416         4.14740        -1.70102
| 45>    C       -9.24029         5.45120        -1.54284
| 46>    C       -8.57748         6.24317        -2.55279
| 47>    C       -8.72682         6.14743        -3.88132
| 48>    C       -9.70618         5.25131        -4.57423
| 49>    C       -7.86770         6.97477        -4.80803
| 50>    N       -7.11870         6.12623        -5.71371
| 51>    C       -7.65206         5.73752        -6.90712
| 52>    C       -7.37510         4.59717        -7.54967
| 53>    N       -7.89211         4.37840        -8.83685
| 54>    C       -8.19624         3.00334        -9.18259
| 55>    C       -9.36997         2.48428        -8.36977
| 56>    S      -10.90405         2.96044        -9.24833
| 57>    C      -10.01941         3.70146       -10.65215
| 58>    C       -8.61803         3.08541       -10.65054
| 59>    N       -7.63375         3.91819       -11.29184
| 60>    S       -6.93380         5.02207       -10.16759
| 61>    C       -7.74224         4.29980       -12.61240
| 62>    C       -7.13764         5.39191       -13.18782
| 63>    C       -7.44503         5.38047       -14.58732
| 64>    C       -7.11188         6.23271       -15.60161
| 65>    C       -7.60027         5.93736       -16.89750
| 66>    C       -7.44873         6.58993       -18.10155
| 67>    C       -8.15910         5.86246       -19.12555
| 68>    C       -8.74095         4.76458       -18.53813
| 69>    C       -8.42101         4.76555       -17.13573
| 70>    C       -8.75328         3.91192       -16.12417
| 71>    C       -8.26958         4.21030       -14.82806
| 72>    C       -8.43736         3.55847       -13.62230
| 73>    C       -8.25172         6.21535       -20.52047
| 74>    C       -7.69506         7.28169       -21.08970
| 75>    H       -7.32808         0.94319        -6.85065
| 76>    H       -9.18536        -3.68512        -6.38047
| 77>    H       -6.27349        -0.00434        -9.28125
| 78>    H      -10.73329        -0.62847        -1.77289
| 79>    H       -9.48780         1.82738        -2.82852
| 80>    H      -10.63783         4.65178         0.92962
| 81>    H       -9.20819         3.67793        -2.61949
| 82>    H       -9.45287         5.95136        -0.60804
| 83>    H       -7.91053         7.00545        -2.16713
| 84>    H      -10.55344         5.03115        -3.92904
| 85>    H       -9.24320         4.30741        -4.86500
| 86>    H      -10.06944         5.72885        -5.48264
| 87>    H       -7.15872         7.57916        -4.23439
| 88>    H       -8.48640         7.64565        -5.41113
| 89>    H       -6.56918         5.41774        -5.24464
| 90>    H       -8.30164         6.46179        -7.37929
| 91>    H       -6.72165         3.83884        -7.12518
| 92>    H       -7.32020         2.34171        -9.05817
| 93>    H       -9.38743         2.91394        -7.36926
| 94>    H       -9.35244         1.39685        -8.30059
| 95>    H       -9.95625         4.77983       -10.49878
| 96>    H      -10.57492         3.49507       -11.56361
| 97>    H       -8.62535         2.09443       -11.11660
| 98>    H       -6.54470         6.12839       -12.67929
| 99>    H       -6.49827         7.10651       -15.43536
|100>    H       -6.89294         7.49570       -18.26161
|101>    H       -9.33979         4.02013       -19.03015
|102>    H       -9.36496         3.03586       -16.28954
|103>    H       -8.98767         2.64887       -13.46372
|104>    H       -8.83373         5.53013       -21.12476
|105>    H       -7.10877         7.99174       -20.53208
|106>    H       -7.80824         7.48184       -22.14105
|107> *
|108>
|109>                          ****END OF INPUT****

CARTESIAN COORDINATES (ANGSTROEM)
---------------------------------
  C     -9.758930   -1.764890   -4.246380
  C    -10.388070   -2.870200   -3.727580
  C    -10.418610   -4.130080   -4.356170
  N    -10.471260   -5.177030   -4.824860
  C    -11.075500   -2.880160   -2.498340
  N    -11.647360   -2.929560   -1.503570
  C     -9.030390   -1.712710   -5.510130
  C     -8.505380   -0.405530   -5.682970
  C     -7.737800   -0.051080   -6.765600
  C     -7.503060   -1.020690   -7.746550
  C     -8.049530   -2.315230   -7.577750
  C     -8.803070   -2.682110   -6.468070
  S     -7.654280   -3.354020   -8.912430
  C     -6.776010   -2.053170   -9.671700
  C     -6.773510   -0.900060   -8.960300
  Br    -5.951320   -2.330870  -11.334350
  C     -8.925940    0.425110   -4.550720
  O     -8.698440    1.625450   -4.388420
  C     -9.684430   -0.448550   -3.657870
  C    -10.191950    0.007250   -2.460540
  N    -10.011130    1.285530   -2.117340
  C    -10.396700    1.926040   -0.986730
  S    -11.214110    1.115400    0.311010
  C    -11.256360    2.615080    1.182280
  N    -11.852670    2.618240    2.448530
  O    -11.879220    3.672760    3.057500
  O    -12.301330    1.557010    2.847380
  C    -10.680930    3.662900    0.512550
  C    -10.174730    3.290070   -0.745300
  C     -9.524160    4.147400   -1.701020
  C     -9.240290    5.451200   -1.542840
  C     -8.577480    6.243170   -2.552790
  C     -8.726820    6.147430   -3.881320
  C     -9.706180    5.251310   -4.574230
  C     -7.867700    6.974770   -4.808030
  N     -7.118700    6.126230   -5.713710
  C     -7.652060    5.737520   -6.907120
  C     -7.375100    4.597170   -7.549670
  N     -7.892110    4.378400   -8.836850
  C     -8.196240    3.003340   -9.182590
  C     -9.369970    2.484280   -8.369770
  S    -10.904050    2.960440   -9.248330
  C    -10.019410    3.701460  -10.652150
  C     -8.618030    3.085410  -10.650540
  N     -7.633750    3.918190  -11.291840
  S     -6.933800    5.022070  -10.167590
  C     -7.742240    4.299800  -12.612400
  C     -7.137640    5.391910  -13.187820
  C     -7.445030    5.380470  -14.587320
  C     -7.111880    6.232710  -15.601610
  C     -7.600270    5.937360  -16.897500
  C     -7.448730    6.589930  -18.101550
  C     -8.159100    5.862460  -19.125550
  C     -8.740950    4.764580  -18.538130
  C     -8.421010    4.765550  -17.135730
  C     -8.753280    3.911920  -16.124170
  C     -8.269580    4.210300  -14.828060
  C     -8.437360    3.558470  -13.622300
  C     -8.251720    6.215350  -20.520470
  C     -7.695060    7.281690  -21.089700
  H     -7.328080    0.943190   -6.850650
  H     -9.185360   -3.685120   -6.380470
  H     -6.273490   -0.004340   -9.281250
  H    -10.733290   -0.628470   -1.772890
  H     -9.487800    1.827380   -2.828520
  H    -10.637830    4.651780    0.929620
  H     -9.208190    3.677930   -2.619490
  H     -9.452870    5.951360   -0.608040
  H     -7.910530    7.005450   -2.167130
  H    -10.553440    5.031150   -3.929040
  H     -9.243200    4.307410   -4.865000
  H    -10.069440    5.728850   -5.482640
  H     -7.158720    7.579160   -4.234390
  H     -8.486400    7.645650   -5.411130
  H     -6.569180    5.417740   -5.244640
  H     -8.301640    6.461790   -7.379290
  H     -6.721650    3.838840   -7.125180
  H     -7.320200    2.341710   -9.058170
  H     -9.387430    2.913940   -7.369260
  H     -9.352440    1.396850   -8.300590
  H     -9.956250    4.779830  -10.498780
  H    -10.574920    3.495070  -11.563610
  H     -8.625350    2.094430  -11.116600
  H     -6.544700    6.128390  -12.679290
  H     -6.498270    7.106510  -15.435360
  H     -6.892940    7.495700  -18.261610
  H     -9.339790    4.020130  -19.030150
  H     -9.364960    3.035860  -16.289540
  H     -8.987670    2.648870  -13.463720
  H     -8.833730    5.530130  -21.124760
  H     -7.108770    7.991740  -20.532080
  H     -7.808240    7.481840  -22.141050

 Total Charge           Charge          ....    0
 Multiplicity           Mult            ....    1
 Number of Electrons    NEL             ....  474
 Basis Dimension        Dim             .... 1034

ORBITAL ENERGIES
----------------

  NO   OCC          E(Eh)            E(eV)
   0   2.0000    -482.893677    -13140.2050
   1   2.0000     -88.996328     -2421.7132
   2   2.0000     -88.986425     -2421.4437
   3   2.0000     -88.963979     -2420.8330
   4   2.0000     -88.903118     -2419.1768
   5   2.0000     -62.571382     -1702.6539
   6   2.0000     -56.405362     -1534.8679
   7   2.0000     -56.402601     -1534.7928
   8   2.0000     -56.402572     -1534.7920
   9   2.0000     -19.245076      -523.6851
  10   2.0000     -19.244084      -523.6581
  11   2.0000     -19.243124      -523.6320
  12   2.0000     -14.655248      -398.7896
  13   2.0000     -14.504525      -394.6882
  14   2.0000     -14.438713      -392.8973
  15   2.0000     -14.430435      -392.6721
  16   2.0000     -14.430073      -392.6623
  17   2.0000     -14.426787      -392.5728
  18   2.0000     -14.422240      -392.4491
  19   2.0000     -10.390664      -282.7444
  20   2.0000     -10.379867      -282.4505
  21   2.0000     -10.377409      -282.3837
  22   2.0000     -10.369146      -282.1588
  23   2.0000     -10.354811      -281.7687
  24   2.0000     -10.353915      -281.7444
  25   2.0000     -10.350386      -281.6483
  26   2.0000     -10.337169      -281.2887
  27   2.0000     -10.328974      -281.0657
  28   2.0000     -10.325186      -280.9626
  29   2.0000     -10.321567      -280.8641
  30   2.0000     -10.320698      -280.8405
  31   2.0000     -10.320049      -280.8228
  32   2.0000     -10.319679      -280.8127
  33   2.0000     -10.317315      -280.7484
  34   2.0000     -10.317290      -280.7477
  35   2.0000     -10.316043      -280.7138
  36   2.0000     -10.313918      -280.6560
  37   2.0000     -10.312933      -280.6292
  38   2.0000     -10.309150      -280.5262
  39   2.0000     -10.308412      -280.5061
  40   2.0000     -10.307486      -280.4809
  41   2.0000     -10.307248      -280.4745
  42   2.0000     -10.300274      -280.2847
  43   2.0000     -10.295296      -280.1492
  44   2.0000     -10.292531      -280.0740
  45   2.0000     -10.292047      -280.0608
  46   2.0000     -10.289023      -279.9785
  47   2.0000     -10.286965      -279.9226
  48   2.0000     -10.285304      -279.8773
  49   2.0000     -10.283080      -279.8168
  50   2.0000     -10.278257      -279.6856
  51   2.0000     -10.278173      -279.6833
  52   2.0000     -10.277688      -279.6701
  53   2.0000     -10.272330      -279.5243
  54   2.0000     -10.269185      -279.4387
  55   2.0000     -10.262825      -279.2657
  56   2.0000     -10.262158      -279.2475
  57   2.0000     -10.260057      -279.1904
  58   2.0000     -10.259443      -279.1736
  59   2.0000     -10.257594      -279.1233
  60   2.0000     -10.256445      -279.0921
  61   2.0000     -10.255519      -279.0669
  62   2.0000     -10.251937      -278.9694
  63   2.0000     -10.242707      -278.7182
  64   2.0000      -8.800790      -239.4817
  65   2.0000      -8.091505      -220.1810
  66   2.0000      -8.082360      -219.9322
  67   2.0000      -8.055060      -219.1893
  68   2.0000      -7.999589      -217.6799
  69   2.0000      -6.637180      -180.6069
  70   2.0000      -6.622497      -180.2073
  71   2.0000      -6.622249      -180.2005
  72   2.0000      -6.061133      -164.9318
  73   2.0000      -6.056796      -164.8138
  74   2.0000      -6.052988      -164.7102
  75   2.0000      -6.052013      -164.6836
  76   2.0000      -6.047747      -164.5676
  77   2.0000      -6.043633      -164.4556
  78   2.0000      -6.027541      -164.0177
  79   2.0000      -6.022853      -163.8902
  80   2.0000      -6.011573      -163.5832
  81   2.0000      -5.970490      -162.4653
  82   2.0000      -5.966177      -162.3479
  83   2.0000      -5.958448      -162.1376
  84   2.0000      -2.753024       -74.9136
  85   2.0000      -2.748910       -74.8017
  86   2.0000      -2.748744       -74.7971
  87   2.0000      -2.737073       -74.4795
  88   2.0000      -2.737058       -74.4791
  89   2.0000      -1.324269       -36.0352
  90   2.0000      -1.157602       -31.4999
  91   2.0000      -1.143399       -31.1135
  92   2.0000      -1.112111       -30.2621
  93   2.0000      -1.080977       -29.4149
  94   2.0000      -1.035633       -28.1810
  95   2.0000      -1.034679       -28.1550
  96   2.0000      -1.023521       -27.8514
  97   2.0000      -1.016847       -27.6698
  98   2.0000      -1.008563       -27.4444
  99   2.0000      -1.003848       -27.3161
 100   2.0000      -1.000610       -27.2280
 101   2.0000      -0.973234       -26.4830
 102   2.0000      -0.953130       -25.9360
 103   2.0000      -0.946322       -25.7507
 104   2.0000      -0.936360       -25.4797
 105   2.0000      -0.928532       -25.2666
 106   2.0000      -0.919956       -25.0333
 107   2.0000      -0.917995       -24.9799
 108   2.0000      -0.900438       -24.5022
 109   2.0000      -0.897853       -24.4318
 110   2.0000      -0.886657       -24.1272
 111   2.0000      -0.881621       -23.9901
 112   2.0000      -0.860417       -23.4131
 113   2.0000      -0.857970       -23.3465
 114   2.0000      -0.851283       -23.1646
 115   2.0000      -0.843562       -22.9545
 116   2.0000      -0.841428       -22.8964
 117   2.0000      -0.834108       -22.6972
 118   2.0000      -0.821117       -22.3437
 119   2.0000      -0.812953       -22.1216
 120   2.0000      -0.807762       -21.9803
 121   2.0000      -0.793019       -21.5791
 122   2.0000      -0.787681       -21.4339
 123   2.0000      -0.784070       -21.3356
 124   2.0000      -0.774509       -21.0755
 125   2.0000      -0.761351       -20.7174
 126   2.0000      -0.753047       -20.4915
 127   2.0000      -0.741622       -20.1806
 128   2.0000      -0.737898       -20.0792
 129   2.0000      -0.725714       -19.7477
 130   2.0000      -0.720240       -19.5987
 131   2.0000      -0.702212       -19.1082
 132   2.0000      -0.697319       -18.9750
 133   2.0000      -0.694101       -18.8875
 134   2.0000      -0.681591       -18.5470
 135   2.0000      -0.675856       -18.3910
 136   2.0000      -0.669837       -18.2272
 137   2.0000      -0.668467       -18.1899
 138   2.0000      -0.660807       -17.9815
 139   2.0000      -0.658639       -17.9225
 140   2.0000      -0.657036       -17.8788
 141   2.0000      -0.642659       -17.4877
 142   2.0000      -0.639257       -17.3951
 143   2.0000      -0.636355       -17.3161
 144   2.0000      -0.630659       -17.1611
 145   2.0000      -0.630190       -17.1484
 146   2.0000      -0.625783       -17.0284
 147   2.0000      -0.616328       -16.7711
 148   2.0000      -0.613087       -16.6829
 149   2.0000      -0.611517       -16.6402
 150   2.0000      -0.607818       -16.5396
 151   2.0000      -0.603983       -16.4352
 152   2.0000      -0.590662       -16.0727
 153   2.0000      -0.588044       -16.0015
 154   2.0000      -0.584131       -15.8950
 155   2.0000      -0.578842       -15.7511
 156   2.0000      -0.574476       -15.6323
 157   2.0000      -0.570996       -15.5376
 158   2.0000      -0.568318       -15.4647
 159   2.0000      -0.567790       -15.4503
 160   2.0000      -0.565885       -15.3985
 161   2.0000      -0.558531       -15.1984
 162   2.0000      -0.550466       -14.9789
 163   2.0000      -0.549742       -14.9593
 164   2.0000      -0.544756       -14.8236
 165   2.0000      -0.541027       -14.7221
 166   2.0000      -0.539920       -14.6920
 167   2.0000      -0.534624       -14.5479
 168   2.0000      -0.532318       -14.4851
 169   2.0000      -0.530120       -14.4253
 170   2.0000      -0.527310       -14.3488
 171   2.0000      -0.522483       -14.2175
 172   2.0000      -0.519879       -14.1466
 173   2.0000      -0.514084       -13.9889
 174   2.0000      -0.510486       -13.8910
 175   2.0000      -0.508258       -13.8304
 176   2.0000      -0.508012       -13.8237
 177   2.0000      -0.504086       -13.7169
 178   2.0000      -0.499219       -13.5844
 179   2.0000      -0.495028       -13.4704
 180   2.0000      -0.492161       -13.3924
 181   2.0000      -0.487816       -13.2742
 182   2.0000      -0.485789       -13.2190
 183   2.0000      -0.481310       -13.0971
 184   2.0000      -0.479282       -13.0419
 185   2.0000      -0.477018       -12.9803
 186   2.0000      -0.475131       -12.9290
 187   2.0000      -0.473013       -12.8713
 188   2.0000      -0.469749       -12.7825
 189   2.0000      -0.467324       -12.7165
 190   2.0000      -0.464266       -12.6333
 191   2.0000      -0.460639       -12.5346
 192   2.0000      -0.460246       -12.5239
 193   2.0000      -0.458257       -12.4698
 194   2.0000      -0.457109       -12.4386
 195   2.0000      -0.452220       -12.3055
 196   2.0000      -0.451816       -12.2945
 197   2.0000      -0.450180       -12.2500
 198   2.0000      -0.449771       -12.2389
 199   2.0000      -0.447696       -12.1824
 200   2.0000      -0.441075       -12.0023
 201   2.0000      -0.439824       -11.9682
 202   2.0000      -0.437458       -11.9038
 203   2.0000      -0.436215       -11.8700
 204   2.0000      -0.435491       -11.8503
 205   2.0000      -0.431620       -11.7450
 206   2.0000      -0.422343       -11.4925
 207   2.0000      -0.420869       -11.4524
 208   2.0000      -0.418988       -11.4012
 209   2.0000      -0.415856       -11.3160
 210   2.0000      -0.411925       -11.2090
 211   2.0000      -0.411644       -11.2014
 212   2.0000      -0.402911       -10.9638
 213   2.0000      -0.398406       -10.8412
 214   2.0000      -0.393449       -10.7063
 215   2.0000      -0.390904       -10.6370
 216   2.0000      -0.383055       -10.4235
 217   2.0000      -0.382916       -10.4197
 218   2.0000      -0.381292       -10.3755
 219   2.0000      -0.380160       -10.3447
 220   2.0000      -0.372724       -10.1423
 221   2.0000      -0.367296        -9.9946
 222   2.0000      -0.366185        -9.9644
 223   2.0000      -0.358542        -9.7564
 224   2.0000      -0.355294        -9.6681
 225   2.0000      -0.348407        -9.4806
 226   2.0000      -0.348260        -9.4766
 227   2.0000      -0.329378        -8.9628
 228   2.0000      -0.313712        -8.5365
 229   2.0000      -0.303981        -8.2718
 230   2.0000      -0.298178        -8.1138
 231   2.0000      -0.282689        -7.6924
 232   2.0000      -0.278343        -7.5741
 233   2.0000      -0.269063        -7.3216
 234   2.0000      -0.261297        -7.1102
 235   2.0000      -0.247580        -6.7370
 236   2.0000      -0.216504        -5.8914
 237   0.0000      -0.096407        -2.6234
 238   0.0000      -0.081988        -2.2310
 239   0.0000      -0.079873        -2.1734
 240   0.0000      -0.049400        -1.3442
 241   0.0000      -0.025978        -0.7069

MULLIKEN ATOMIC CHARGES
-----------------------
   0 C :    0.329519
   1 C :   -0.340765
   2 C :   -0.182446
   3 N :    0.150310
   4 C :   -0.196482
   5 N :    0.148207
   6 C :    0.008380
   7 C :    0.001744
   8 C :   -0.080977
   9 C :    0.123669
  10 C :   -0.092560
  11 C :   -0.017234
  12 S :    0.197263
  13 C :   -0.127509
  14 C :    0.031137
  15 Br:    0.034103
  16 C :    0.172930
  17 O :   -0.235039
  18 C :   -0.135390
  19 C :    0.035065
  20 N :   -0.006585
  21 C :   -0.125052
  22 S :    0.185229
  23 C :    0.002439
  24 N :    0.273966
  25 O :   -0.246408
  26 O :   -0.255080
  27 C :    0.004666
  28 C :    0.139337
  29 C :   -0.049420
  30 C :    0.013259
  31 C :   -0.007717
  32 C :   -0.221267
  33 C :    0.102809
  34 C :    0.203275
  35 N :   -0.166545
  36 C :    0.099664
  37 C :   -0.006413
  38 N :   -0.416230
  39 C :    0.020155
  40 C :    0.035685
  41 S :   -0.118372
  42 C :    0.048746
  43 C :    0.072645
  44 N :   -0.378031
  45 S :    0.317938
  46 C :    0.204306
  47 C :   -0.116101
  48 C :    0.084724
  49 C :   -0.030429
  50 C :    0.058633
  51 C :   -0.033987
  52 C :    0.069642
  53 C :   -0.041258
  54 C :    0.065676
  55 C :   -0.020471
  56 C :    0.063440
  57 C :   -0.075783
  58 C :    0.009705
  59 C :   -0.028365
  60 H :   -0.019306
  61 H :   -0.004854
  62 H :    0.002436
  63 H :    0.046310
  64 H :    0.186200
  65 H :    0.013077
  66 H :   -0.012644
  67 H :   -0.006298
  68 H :   -0.013779
  69 H :    0.029108
  70 H :    0.052598
  71 H :    0.014205
  72 H :    0.004472
  73 H :    0.025222
  74 H :    0.112108
  75 H :    0.008451
  76 H :   -0.033167
  77 H :   -0.001876
  78 H :    0.057747
  79 H :    0.056974
  80 H :    0.057481
  81 H :    0.044879
  82 H :    0.024799
  83 H :   -0.039278
  84 H :   -0.035828
  85 H :   -0.029491
  86 H :   -0.034324
  87 H :   -0.033464
  88 H :   -0.032557
  89 H :   -0.021084
  90 H :    0.007285
  91 H :    0.018249
Sum of atomic charges:   -0.0000000

LOEWDIN ATOMIC CHARGES
----------------------
   0 C :    0.078862
   1 C :   -0.146621
   2 C :   -0.019636
   3 N :   -0.051402
   4 C :   -0.020768
   5 N :   -0.050944
   6 C :   -0.017215
   7 C :   -0.052067
   8 C :    0.020690
   9 C :   -0.035003
  10 C :   -0.142816
  11 C :   -0.005271
  12 S :    0.441807
  13 C :   -0.269208
  14 C :   -0.074400
  15 Br:    0.143830
  16 C :    0.099684
  17 O :   -0.186951
  18 C :   -0.148075
  19 C :    0.116179
  20 N :    0.082992
  21 C :   -0.118196
  22 S :    0.473238
  23 C :   -0.198100
  24 N :    0.273796
  25 O :   -0.212973
  26 O :   -0.222167
  27 C :    0.004075
  28 C :   -0.080271
  29 C :   -0.035355
  30 C :   -0.010910
  31 C :   -0.060301
  32 C :   -0.027785
  33 C :   -0.056392
  34 C :    0.044826
  35 N :   -0.023445
  36 C :    0.026983
  37 C :   -0.116461
  38 N :   -0.217139
  39 C :   -0.004268
  40 C :   -0.128419
  41 S :    0.201669
  42 C :   -0.134151
  43 C :    0.002624
  44 N :   -0.184836
  45 S :    0.395629
  46 C :   -0.015077
  47 C :   -0.100412
  48 C :   -0.035136
  49 C :    0.035698
  50 C :   -0.053324
  51 C :    0.032928
  52 C :   -0.053459
  53 C :   -0.004929
  54 C :   -0.046918
  55 C :    0.048296
  56 C :   -0.043002
  57 C :   -0.005060
  58 C :   -0.019738
  59 C :   -0.058511
  60 H :    0.037846
  61 H :    0.042688
  62 H :    0.037605
  63 H :    0.038062
  64 H :    0.083927
  65 H :    0.045986
  66 H :    0.029561
  67 H :    0.027887
  68 H :    0.027009
  69 H :    0.034243
  70 H :    0.037574
  71 H :    0.031917
  72 H :    0.024208
  73 H :    0.032016
  74 H :    0.074263
  75 H :    0.030228
  76 H :   -0.002348
  77 H :    0.002331
  78 H :    0.025265
  79 H :    0.019592
  80 H :    0.024828
  81 H :    0.022746
  82 H :    0.027026
  83 H :    0.013031
  84 H :    0.030589
  85 H :    0.022482
  86 H :    0.021017
  87 H :    0.031275
  88 H :    0.021307
  89 H :    0.028651
  90 H :    0.017295
  91 H :    0.023200

  Mayer bond orders larger than 0.100000
B(  0-C ,  1-C ) :   1.6270 B(  0-C ,  6-C ) :   1.0009 B(  0-C , 18-C ) :   1.0965
B(  1-C ,  2-C ) :   1.1437 B(  1-C ,  4-C ) :   1.1500 B(  2-C ,  3-N ) :   2.9659
B(  4-C ,  5-N ) :   2.9537 B(  6-C ,  7-C ) :   1.2761 B(  6-C , 11-C ) :   1.4235
B(  7-C ,  8-C ) :   1.4250 B(  7-C , 16-C ) :   0.9860 B(  8-C ,  9-C ) :   1.2327
B(  8-C , 60-H ) :   1.0135 B(  9-C , 10-C ) :   1.3141 B(  9-C , 14-C ) :   1.1616
B( 10-C , 11-C ) :   1.3174 B( 10-C , 12-S ) :   1.0920 B( 11-C , 61-H ) :   0.9788
B( 12-S , 13-C ) :   1.0912 B( 13-C , 14-C ) :   1.6138 B( 13-C , 15-Br) :   1.0269
B( 14-C , 62-H ) :   0.9983 B( 16-C , 17-O ) :   1.9874 B( 16-C , 18-C ) :   1.0189
B( 17-O , 64-H ) :   0.1397 B( 18-C , 19-C ) :   1.4371 B( 19-C , 20-N ) :   1.3524
B( 19-C , 63-H ) :   0.9325 B( 20-N , 21-C ) :   1.1889 B( 20-N , 64-H ) :   0.8234
B( 21-C , 22-S ) :   1.1326 B( 21-C , 28-C ) :   1.3791 B( 22-S , 23-C ) :   1.0876
B( 23-C , 24-N ) :   0.9645 B( 23-C , 27-C ) :   1.4976 B( 24-N , 25-O ) :   1.5351
B( 24-N , 26-O ) :   1.5154 B( 25-O , 26-O ) :   0.2637 B( 27-C , 28-C ) :   1.2220
B( 27-C , 65-H ) :   1.0018 B( 28-C , 29-C ) :   1.0716 B( 29-C , 30-C ) :   1.7839
B( 29-C , 66-H ) :   0.9608 B( 30-C , 31-C ) :   1.0628 B( 30-C , 67-H ) :   0.9591
B( 31-C , 32-C ) :   1.8378 B( 31-C , 68-H ) :   0.9474 B( 32-C , 33-C ) :   1.0782
B( 32-C , 34-C ) :   1.0451 B( 33-C , 69-H ) :   0.9402 B( 33-C , 70-H ) :   0.9284
B( 33-C , 71-H ) :   0.9330 B( 34-C , 35-N ) :   1.0144 B( 34-C , 72-H ) :   0.9442
B( 34-C , 73-H ) :   0.9297 B( 35-N , 36-C ) :   1.1895 B( 35-N , 74-H ) :   0.9415
B( 36-C , 37-C ) :   1.7513 B( 36-C , 75-H ) :   0.9476 B( 37-C , 38-N ) :   0.9918
B( 37-C , 76-H ) :   0.9574 B( 38-N , 39-C ) :   0.9195 B( 38-N , 45-S ) :   0.9128
B( 39-C , 40-C ) :   1.0566 B( 39-C , 43-C ) :   1.0398 B( 39-C , 77-H ) :   0.9070
B( 40-C , 41-S ) :   0.9728 B( 40-C , 78-H ) :   0.9283 B( 40-C , 79-H ) :   0.9358
B( 41-S , 42-C ) :   1.0030 B( 42-C , 43-C ) :   1.0076 B( 42-C , 80-H ) :   0.9323
B( 42-C , 81-H ) :   0.9432 B( 43-C , 44-N ) :   0.9737 B( 43-C , 82-H ) :   0.9218
B( 44-N , 45-S ) :   0.9195 B( 44-N , 46-C ) :   1.0423 B( 46-C , 47-C ) :   1.5443
B( 46-C , 57-C ) :   1.1356 B( 47-C , 48-C ) :   1.0591 B( 47-C , 83-H ) :   1.0113
B( 48-C , 49-C ) :   1.5222 B( 48-C , 56-C ) :   1.1309 B( 49-C , 50-C ) :   1.0839
B( 49-C , 84-H ) :   1.0039 B( 50-C , 51-C ) :   1.5124 B( 50-C , 54-C ) :   1.1224
B( 51-C , 52-C ) :   1.0881 B( 51-C , 85-H ) :   1.0073 B( 52-C , 53-C ) :   1.5663
B( 52-C , 58-C ) :   1.0908 B( 53-C , 54-C ) :   1.0461 B( 53-C , 86-H ) :   1.0174
B( 54-C , 55-C ) :   1.5144 B( 55-C , 56-C ) :   1.0984 B( 55-C , 87-H ) :   1.0034
B( 56-C , 57-C ) :   1.4595 B( 57-C , 88-H ) :   1.0137 B( 58-C , 59-C ) :   1.9261
B( 58-C , 89-H ) :   0.9662 B( 59-C , 90-H ) :   0.9521 B( 59-C , 91-H ) :   0.9496

-----------------------------------------------------------------------------
         ABSORPTION SPECTRUM VIA TRANSITION ELECTRIC DIPOLE MOMENTS
-----------------------------------------------------------------------------
State   Energy  Wavelength   fosc         T2         TX        TY        TZ
        (cm-1)    (nm)                  (au**2)     (au)      (au)      (au)
-----------------------------------------------------------------------------
   0    8451.8   1183.2   0.002382460   0.09280   0.07640   0.17312  -0.23874
   1   16410.0    609.4   0.001484691   0.02979   0.01369   0.16919  -0.03118
   2   18576.2    538.3   0.001635271   0.02898   0.00500   0.16456  -0.04329
   3   19182.2    521.3   0.106935301   1.83527   0.10355   0.47048  -1.26617
   4   21261.0    470.3   0.438556226   6.79073   0.31027  -2.06340  -1.56104
   5   22733.8    439.9   0.363892181   5.26959   0.36800  -1.49190  -1.70540
   6   23026.6    434.3   0.271559929   3.88250  -0.18305   0.49137  -1.89935
   7   23539.8    424.8   0.006507619   0.09101  -0.12951  -0.27165   0.02106
   8   24913.9    401.4   0.081645856   1.07887   0.44323  -0.21579  -0.91424
   9   26566.4    376.4   0.019708368   0.24423   0.05853  -0.33388  -0.35962
  10   27040.9    369.8   0.080518414   0.98028   0.36563  -0.35163  -0.85026
  11   27057.4    369.6   0.032765532   0.39866  -0.28749  -0.55430  -0.09366
  12   27537.8    363.1   0.007981470   0.09542   0.11388   0.09340  -0.27152
  13   27775.2    360.0   0.001874707   0.02222  -0.00110   0.01764   0.14801
  14   28380.1    352.4   0.007184144   0.08334  -0.02756   0.04138   0.28437
  15   28408.5    352.0   0.008690758   0.10071   0.06130   0.27870  -0.13885
  16   28800.7    347.2   0.004646471   0.05311   0.11075   0.07597  -0.18729
  17   29238.5    342.0   0.356423394   4.01316  -1.02726  -0.46396   1.65609
  18   29477.7    339.2   0.005682563   0.06346   0.00863  -0.01197   0.25149
  19   29860.8    334.9   0.118778351   1.30952   0.11509   0.12291   1.13189
  20   29883.2    334.6   0.059381205   0.65418   0.51195  -0.30402  -0.54741
  21   30160.9    331.6   0.029082255   0.31744  -0.22478  -0.29224   0.42604
  22   30530.6    327.5   0.123476478   1.33145   0.34394  -0.63316  -0.90126
  23   31203.5    320.5   0.017677483   0.18651  -0.16945  -0.02501   0.39644
  24   31421.4    318.3   0.444988791   4.66228   0.88922   0.35905  -1.93459
  25   33239.8    300.8   0.002107880   0.02088  -0.03806   0.00076   0.13938
  26   33291.6    300.4   0.018674930   0.18467  -0.18385  -0.25565   0.29243
  27   33388.0    299.5   0.115177705   1.13567  -0.29919   0.34434   0.96311
  28   33988.4    294.2   0.304494276   2.94934   0.92559   0.87773  -1.14987
  29   34141.7    292.9   0.370528354   3.57282  -0.57528  -0.74123   1.64087
  30   34159.2    292.7   0.157603626   1.51892   0.37139   0.41883  -1.09798
  31   34222.3    292.2   0.138103280   1.32853  -0.56175  -0.44105   0.90468
  32   35007.0    285.7   0.004523456   0.04254  -0.10603   0.01760   0.17604
  33   35169.6    284.3   0.539323682   5.04844   0.33221   0.90261  -2.03061
  34   35288.0    283.4   0.642227107   5.99153  -0.12020   1.09707  -2.18484
  35   36821.8    271.6   0.000330421   0.00295  -0.01255   0.03326   0.04111
  36   36916.7    270.9   0.006413409   0.05719  -0.16391  -0.13480   0.11025
  37   37106.1    269.5   0.221010733   1.96085   0.15506  -1.04591  -0.91808
  38   37260.0    268.4   0.077445574   0.68427  -0.30949  -0.69440   0.32604
  39   37612.9    265.9   0.031869337   0.27894  -0.23345  -0.32601   0.34374
  40   37686.8    265.3   0.004517906   0.03947   0.02186   0.05519  -0.18958
  41   38103.6    262.4   0.294674941   2.54597   0.62402   1.12064  -0.94907
  42   38443.3    260.1   0.000088038   0.00075  -0.00462   0.02181   0.01603
  43   38646.1    258.8   0.010759827   0.09166   0.18371   0.07460  -0.22879
  44   39362.5    254.0   0.013567537   0.11347   0.03842   0.28061   0.18236
  45   39501.3    253.2   0.019223212   0.16021  -0.12505  -0.37228  -0.07735
  46   39666.5    252.1   0.091697184   0.76104  -0.20731  -0.81586   0.22899
  47   39740.9    251.6   0.002374226   0.01967   0.00808  -0.01357  -0.13935
  48   40277.7    248.3   0.024521408   0.20043   0.10097   0.43579  -0.01777

FINAL SINGLE POINT ENERGY     -6505.985254540391

DIPOLE MOMENT
-------------
                                X             Y             Z
Electronic contribution:     22.62171    -105.23923       6.51452
Nuclear contribution   :    -20.62647     106.75364      -7.71060
                        -----------------------------------------
Total Dipole Moment    :      1.99524       1.51442      -1.19608
                        -----------------------------------------
Magnitude (a.u.)       :      2.77580
Magnitude (Debye)      :      7.05553

Rotational constants in cm-1:     0.001526     0.000472     0.000383
Rotational constants in MHz :    45.755655    14.164050    11.494834

                             ****ORCA TERMINATED NORMALLY****
TOTAL RUN TIME: 0 days 0 hours 10 minutes 40 seconds 965 msec
