                         Program Version 4.2.0 -  RELEASE  -
|  1> # ORCA input file
|  2> # SCF done       -139.979045564584          0.000712758595
|  3> ! CAM-B3LYP def2-SVP def2/J RIJCOSX Grid4 TightSCF
|  4> %maxcore 5000
|  5> %tddft
|  6>     Mode sTDDFT
|  7>     Ethresh 5.0
|  8>     maxcore 5000
|  9> end
| 10>
| 11> %pal
| 12>   nprocs 6
| 13>   end
| 14> * xyz 0 1
| 15>    C       13.31147        -6.58157         0.65215
| 16>    C       12.18592        -5.88949         0.43702
| 17>    C       12.06264        -4.52919        -0.00773
| 18>    C       10.79247        -4.08673        -0.10639
| 19>    C        9.80415        -5.04605         0.26445
| 20>    S       10.56918        -6.56848         0.68829
| 21>    C        8.45862        -4.83612         0.39316
| 22>    C        7.77454        -3.59174         0.29693
| 23>    C        6.49670        -3.63835         0.72919
| 24>    C        6.05669        -4.92969         1.17035
| 25>    S        7.34938        -6.09416         0.91883
| 26>    C        4.81273        -5.15795         1.65836
| 27>    C        4.14167        -6.36005         2.07805
| 28>    C        2.78802        -6.45372         1.85292
| 29>    S        2.11024        -7.95645         2.31266
| 30>    C        3.62970        -8.49649         2.85475
| 31>    C        4.62390        -7.56505         2.69743
| 32>    C        5.93418        -7.90680         3.25956
| 33>    O        6.27997        -9.03997         3.49714
| 34>    O        6.70272        -6.82953         3.55568
| 35>    C        7.94571        -7.08786         4.04485
| 36>    C        8.91730        -6.15754         4.08620
| 37>    C       10.28653        -6.39600         4.42859
| 38>    C       11.10512        -5.35448         4.16359
| 39>    C       10.44254        -4.21764         3.61992
| 40>    S        8.70916        -4.48566         3.57223
| 41>    C       11.01554        -3.09082         3.09362
| 42>    C       12.39483        -2.77082         2.99242
| 43>    C       12.64782        -1.62962         2.30965
| 44>    C       11.48962        -0.95768         1.81243
| 45>    S       10.05280        -1.84497         2.31899
| 46>    C       11.52220         0.16355         1.04489
| 47>    C       10.43400         0.87271         0.45132
| 48>    C        9.09667         0.58444         0.58061
| 49>    S        8.08837         1.65047        -0.30734
| 50>    C        9.44042         2.51632        -0.88319
| 51>    C       10.62399         2.01528        -0.41294
| 52>    C       11.91541         2.60391        -0.76774
| 53>    O       13.00586         2.27261        -0.36239
| 54>    O       11.74808         3.62172        -1.65212
| 55>    C       12.84737         4.30194        -2.07498
| 56>    C       12.73736         5.28498        -2.99003
| 57>    C       13.79641         6.08430        -3.52239
| 58>    C       13.39142         6.99120        -4.43885
| 59>    C       11.99130         6.97894        -4.70108
| 60>    S       11.20059         5.75665        -3.71449
| 61>    C       11.30149         7.76872        -5.58086
| 62>    C       11.83008         8.78427        -6.43194
| 63>    C       10.91055         9.40043        -7.20281
| 64>    C        9.56728         8.92221        -7.02545
| 65>    S        9.56589         7.63618        -5.80726
| 66>    C        8.46145         9.34289        -7.65183
| 67>    H       14.27370        -6.12896         0.48926
| 68>    H       13.29181        -7.60177         0.98870
| 69>    H       12.93694        -3.94196        -0.22660
| 70>    H       10.51835        -3.09650        -0.42448
| 71>    H        8.26886        -2.70200        -0.04860
| 72>    H        5.83580        -2.79054         0.77108
| 73>    H        4.15608        -4.29495         1.63602
| 74>    H        2.16117        -5.71072         1.40036
| 75>    H        3.74232        -9.46571         3.29899
| 76>    H        8.13409        -8.11572         4.33078
| 77>    H       10.60233        -7.35129         4.80638
| 78>    H       12.17059        -5.36677         4.30716
| 79>    H       13.15119        -3.40587         3.41755
| 80>    H       13.63041        -1.23521         2.11965
| 81>    H       12.50089         0.56986         0.83294
| 82>    H        8.63883        -0.18856         1.16251
| 83>    H        9.30361         3.35340        -1.53858
| 84>    H       13.79433         4.00799        -1.64072
| 85>    H       14.81144         5.94442        -3.19686
| 86>    H       14.05014         7.67478        -4.94386
| 87>    H       12.88018         9.01730        -6.43806
| 88>    H       11.12215        10.18755        -7.90480
| 89>    H        8.51155        10.12801        -8.38554
| 90>    H        7.49706         8.91637        -7.44578
| 91> *
| 92>
| 93>                          ****END OF INPUT****

CARTESIAN COORDINATES (ANGSTROEM)
---------------------------------
  C     13.311470   -6.581570    0.652150
  C     12.185920   -5.889490    0.437020
  C     12.062640   -4.529190   -0.007730
  C     10.792470   -4.086730   -0.106390
  C      9.804150   -5.046050    0.264450
  S     10.569180   -6.568480    0.688290
  C      8.458620   -4.836120    0.393160
  C      7.774540   -3.591740    0.296930
  C      6.496700   -3.638350    0.729190
  C      6.056690   -4.929690    1.170350
  S      7.349380   -6.094160    0.918830
  C      4.812730   -5.157950    1.658360
  C      4.141670   -6.360050    2.078050
  C      2.788020   -6.453720    1.852920
  S      2.110240   -7.956450    2.312660
  C      3.629700   -8.496490    2.854750
  C      4.623900   -7.565050    2.697430
  C      5.934180   -7.906800    3.259560
  O      6.279970   -9.039970    3.497140
  O      6.702720   -6.829530    3.555680
  C      7.945710   -7.087860    4.044850
  C      8.917300   -6.157540    4.086200
  C     10.286530   -6.396000    4.428590
  C     11.105120   -5.354480    4.163590
  C     10.442540   -4.217640    3.619920
  S      8.709160   -4.485660    3.572230
  C     11.015540   -3.090820    3.093620
  C     12.394830   -2.770820    2.992420
  C     12.647820   -1.629620    2.309650
  C     11.489620   -0.957680    1.812430
  S     10.052800   -1.844970    2.318990
  C     11.522200    0.163550    1.044890
  C     10.434000    0.872710    0.451320
  C      9.096670    0.584440    0.580610
  S      8.088370    1.650470   -0.307340
  C      9.440420    2.516320   -0.883190
  C     10.623990    2.015280   -0.412940
  C     11.915410    2.603910   -0.767740
  O     13.005860    2.272610   -0.362390
  O     11.748080    3.621720   -1.652120
  C     12.847370    4.301940   -2.074980
  C     12.737360    5.284980   -2.990030
  C     13.796410    6.084300   -3.522390
  C     13.391420    6.991200   -4.438850
  C     11.991300    6.978940   -4.701080
  S     11.200590    5.756650   -3.714490
  C     11.301490    7.768720   -5.580860
  C     11.830080    8.784270   -6.431940
  C     10.910550    9.400430   -7.202810
  C      9.567280    8.922210   -7.025450
  S      9.565890    7.636180   -5.807260
  C      8.461450    9.342890   -7.651830
  H     14.273700   -6.128960    0.489260
  H     13.291810   -7.601770    0.988700
  H     12.936940   -3.941960   -0.226600
  H     10.518350   -3.096500   -0.424480
  H      8.268860   -2.702000   -0.048600
  H      5.835800   -2.790540    0.771080
  H      4.156080   -4.294950    1.636020
  H      2.161170   -5.710720    1.400360
  H      3.742320   -9.465710    3.298990
  H      8.134090   -8.115720    4.330780
  H     10.602330   -7.351290    4.806380
  H     12.170590   -5.366770    4.307160
  H     13.151190   -3.405870    3.417550
  H     13.630410   -1.235210    2.119650
  H     12.500890    0.569860    0.832940
  H      8.638830   -0.188560    1.162510
  H      9.303610    3.353400   -1.538580
  H     13.794330    4.007990   -1.640720
  H     14.811440    5.944420   -3.196860
  H     14.050140    7.674780   -4.943860
  H     12.880180    9.017300   -6.438060
  H     11.122150   10.187550   -7.904800
  H      8.511550   10.128010   -8.385540
  H      7.497060    8.916370   -7.445780

 Total Charge           Charge          ....    0
 Multiplicity           Mult            ....    1
 Number of Electrons    NEL             ....  424
 Basis Dimension        Dim             ....  880

ORBITAL ENERGIES
----------------

  NO   OCC          E(Eh)            E(eV)
   0   2.0000     -88.964819     -2420.8558
   1   2.0000     -88.964614     -2420.8502
   2   2.0000     -88.939272     -2420.1606
   3   2.0000     -88.936913     -2420.0964
   4   2.0000     -88.934507     -2420.0310
   5   2.0000     -88.931252     -2419.9424
   6   2.0000     -88.930518     -2419.9224
   7   2.0000     -88.928443     -2419.8659
   8   2.0000     -19.282294      -524.6979
   9   2.0000     -19.279077      -524.6104
  10   2.0000     -19.214254      -522.8464
  11   2.0000     -19.204421      -522.5789
  12   2.0000     -10.413231      -283.3584
  13   2.0000     -10.406672      -283.1799
  14   2.0000     -10.332076      -281.1501
  15   2.0000     -10.328593      -281.0553
  16   2.0000     -10.306472      -280.4534
  17   2.0000     -10.303968      -280.3852
  18   2.0000     -10.303531      -280.3733
  19   2.0000     -10.302271      -280.3390
  20   2.0000     -10.301973      -280.3309
  21   2.0000     -10.301702      -280.3236
  22   2.0000     -10.300321      -280.2860
  23   2.0000     -10.299838      -280.2728
  24   2.0000     -10.298728      -280.2426
  25   2.0000     -10.298277      -280.2304
  26   2.0000     -10.298151      -280.2269
  27   2.0000     -10.297965      -280.2219
  28   2.0000     -10.297508      -280.2094
  29   2.0000     -10.296622      -280.1853
  30   2.0000     -10.292371      -280.0697
  31   2.0000     -10.291715      -280.0518
  32   2.0000     -10.290403      -280.0161
  33   2.0000     -10.288097      -279.9534
  34   2.0000     -10.287616      -279.9403
  35   2.0000     -10.287042      -279.9246
  36   2.0000     -10.284467      -279.8546
  37   2.0000     -10.284016      -279.8423
  38   2.0000     -10.283831      -279.8373
  39   2.0000     -10.281745      -279.7805
  40   2.0000     -10.279364      -279.7157
  41   2.0000     -10.278915      -279.7035
  42   2.0000     -10.278150      -279.6827
  43   2.0000     -10.276899      -279.6486
  44   2.0000     -10.275205      -279.6025
  45   2.0000     -10.274553      -279.5848
  46   2.0000     -10.272795      -279.5370
  47   2.0000     -10.272400      -279.5262
  48   2.0000     -10.271950      -279.5140
  49   2.0000     -10.263726      -279.2902
  50   2.0000     -10.262837      -279.2660
  51   2.0000     -10.260515      -279.2028
  52   2.0000      -8.061073      -219.3530
  53   2.0000      -8.060908      -219.3485
  54   2.0000      -8.034493      -218.6297
  55   2.0000      -8.033105      -218.5919
  56   2.0000      -8.029892      -218.5045
  57   2.0000      -8.027910      -218.4505
  58   2.0000      -8.026254      -218.4055
  59   2.0000      -8.024646      -218.3617
  60   2.0000      -6.030136      -164.0883
  61   2.0000      -6.029913      -164.0823
  62   2.0000      -6.025712      -163.9680
  63   2.0000      -6.025559      -163.9638
  64   2.0000      -6.023864      -163.9177
  65   2.0000      -6.023779      -163.9154
  66   2.0000      -6.004289      -163.3850
  67   2.0000      -6.003019      -163.3504
  68   2.0000      -6.000253      -163.2752
  69   2.0000      -5.999862      -163.2645
  70   2.0000      -5.999101      -163.2438
  71   2.0000      -5.997765      -163.2075
  72   2.0000      -5.996177      -163.1643
  73   2.0000      -5.995812      -163.1543
  74   2.0000      -5.995468      -163.1450
  75   2.0000      -5.994493      -163.1184
  76   2.0000      -5.993896      -163.1022
  77   2.0000      -5.993548      -163.0927
  78   2.0000      -5.992192      -163.0558
  79   2.0000      -5.990642      -163.0136
  80   2.0000      -5.990435      -163.0080
  81   2.0000      -5.988359      -162.9515
  82   2.0000      -5.986799      -162.9091
  83   2.0000      -5.985159      -162.8645
  84   2.0000      -1.210902       -32.9503
  85   2.0000      -1.207285       -32.8519
  86   2.0000      -1.112320       -30.2678
  87   2.0000      -1.105452       -30.0809
  88   2.0000      -0.991003       -26.9666
  89   2.0000      -0.989783       -26.9334
  90   2.0000      -0.985556       -26.8183
  91   2.0000      -0.984701       -26.7951
  92   2.0000      -0.978157       -26.6170
  93   2.0000      -0.962341       -26.1866
  94   2.0000      -0.961673       -26.1684
  95   2.0000      -0.956548       -26.0290
  96   2.0000      -0.889589       -24.2069
  97   2.0000      -0.887790       -24.1580
  98   2.0000      -0.884857       -24.0782
  99   2.0000      -0.871006       -23.7013
 100   2.0000      -0.863043       -23.4846
 101   2.0000      -0.856353       -23.3025
 102   2.0000      -0.848056       -23.0768
 103   2.0000      -0.839110       -22.8333
 104   2.0000      -0.837377       -22.7862
 105   2.0000      -0.835524       -22.7358
 106   2.0000      -0.832840       -22.6627
 107   2.0000      -0.819063       -22.2878
 108   2.0000      -0.817202       -22.2372
 109   2.0000      -0.812368       -22.1057
 110   2.0000      -0.810959       -22.0673
 111   2.0000      -0.805019       -21.9057
 112   2.0000      -0.782076       -21.2814
 113   2.0000      -0.777770       -21.1642
 114   2.0000      -0.763271       -20.7697
 115   2.0000      -0.742056       -20.1924
 116   2.0000      -0.735576       -20.0160
 117   2.0000      -0.707634       -19.2557
 118   2.0000      -0.696645       -18.9567
 119   2.0000      -0.691787       -18.8245
 120   2.0000      -0.679355       -18.4862
 121   2.0000      -0.673678       -18.3317
 122   2.0000      -0.670294       -18.2396
 123   2.0000      -0.663729       -18.0610
 124   2.0000      -0.657601       -17.8942
 125   2.0000      -0.646031       -17.5794
 126   2.0000      -0.644111       -17.5272
 127   2.0000      -0.639635       -17.4053
 128   2.0000      -0.632901       -17.2221
 129   2.0000      -0.629634       -17.1332
 130   2.0000      -0.616453       -16.7745
 131   2.0000      -0.612506       -16.6671
 132   2.0000      -0.611009       -16.6264
 133   2.0000      -0.608143       -16.5484
 134   2.0000      -0.605295       -16.4709
 135   2.0000      -0.599764       -16.3204
 136   2.0000      -0.596868       -16.2416
 137   2.0000      -0.591812       -16.1040
 138   2.0000      -0.588598       -16.0166
 139   2.0000      -0.581516       -15.8239
 140   2.0000      -0.571946       -15.5634
 141   2.0000      -0.563677       -15.3384
 142   2.0000      -0.560286       -15.2462
 143   2.0000      -0.558474       -15.1968
 144   2.0000      -0.553053       -15.0493
 145   2.0000      -0.545727       -14.8500
 146   2.0000      -0.535522       -14.5723
 147   2.0000      -0.533316       -14.5123
 148   2.0000      -0.526578       -14.3289
 149   2.0000      -0.518719       -14.1151
 150   2.0000      -0.512496       -13.9457
 151   2.0000      -0.510784       -13.8991
 152   2.0000      -0.507602       -13.8125
 153   2.0000      -0.504427       -13.7262
 154   2.0000      -0.503636       -13.7046
 155   2.0000      -0.496587       -13.5128
 156   2.0000      -0.493455       -13.4276
 157   2.0000      -0.491081       -13.3630
 158   2.0000      -0.487905       -13.2766
 159   2.0000      -0.486936       -13.2502
 160   2.0000      -0.485643       -13.2150
 161   2.0000      -0.482897       -13.1403
 162   2.0000      -0.480608       -13.0780
 163   2.0000      -0.479631       -13.0514
 164   2.0000      -0.479377       -13.0445
 165   2.0000      -0.477434       -12.9916
 166   2.0000      -0.472912       -12.8686
 167   2.0000      -0.467942       -12.7334
 168   2.0000      -0.466822       -12.7029
 169   2.0000      -0.465678       -12.6717
 170   2.0000      -0.461879       -12.5684
 171   2.0000      -0.459722       -12.5097
 172   2.0000      -0.457419       -12.4470
 173   2.0000      -0.453664       -12.3448
 174   2.0000      -0.452373       -12.3097
 175   2.0000      -0.448099       -12.1934
 176   2.0000      -0.442632       -12.0446
 177   2.0000      -0.439660       -11.9638
 178   2.0000      -0.433327       -11.7914
 179   2.0000      -0.430099       -11.7036
 180   2.0000      -0.429323       -11.6825
 181   2.0000      -0.423814       -11.5326
 182   2.0000      -0.423146       -11.5144
 183   2.0000      -0.421503       -11.4697
 184   2.0000      -0.415960       -11.3188
 185   2.0000      -0.414851       -11.2887
 186   2.0000      -0.410892       -11.1809
 187   2.0000      -0.408221       -11.1082
 188   2.0000      -0.392191       -10.6721
 189   2.0000      -0.389835       -10.6079
 190   2.0000      -0.388199       -10.5634
 191   2.0000      -0.383916       -10.4469
 192   2.0000      -0.381202       -10.3730
 193   2.0000      -0.373806       -10.1718
 194   2.0000      -0.361310        -9.8317
 195   2.0000      -0.360855        -9.8194
 196   2.0000      -0.342500        -9.3199
 197   2.0000      -0.341432        -9.2908
 198   2.0000      -0.332838        -9.0570
 199   2.0000      -0.330009        -8.9800
 200   2.0000      -0.326440        -8.8829
 201   2.0000      -0.325500        -8.8573
 202   2.0000      -0.322554        -8.7771
 203   2.0000      -0.318882        -8.6772
 204   2.0000      -0.315786        -8.5930
 205   2.0000      -0.306994        -8.3537
 206   2.0000      -0.301505        -8.2044
 207   2.0000      -0.287620        -7.8266
 208   2.0000      -0.283853        -7.7240
 209   2.0000      -0.220056        -5.9880
 210   2.0000      -0.215080        -5.8526
 211   2.0000      -0.213586        -5.8120
 212   0.0000      -0.056635        -1.5411
 213   0.0000      -0.048986        -1.3330
 214   0.0000      -0.047145        -1.2829
 215   0.0000      -0.009875        -0.2687
 216   0.0000      -0.006902        -0.1878

MULLIKEN ATOMIC CHARGES
-----------------------
   0 C :   -0.039114
   1 C :   -0.070684
   2 C :    0.056832
   3 C :    0.055015
   4 C :   -0.080074
   5 S :    0.075295
   6 C :   -0.052137
   7 C :    0.055491
   8 C :    0.022045
   9 C :    0.002699
  10 S :    0.070879
  11 C :   -0.079640
  12 C :    0.138415
  13 C :   -0.143070
  14 S :    0.149595
  15 C :   -0.092064
  16 C :    0.001621
  17 C :    0.182364
  18 O :   -0.202724
  19 O :   -0.237823
  20 C :    0.098001
  21 C :   -0.023189
  22 C :    0.060210
  23 C :    0.036164
  24 C :   -0.055403
  25 S :    0.102713
  26 C :   -0.050627
  27 C :    0.062779
  28 C :    0.014473
  29 C :   -0.003118
  30 S :    0.023093
  31 C :   -0.059654
  32 C :    0.120655
  33 C :   -0.190335
  34 S :    0.143133
  35 C :   -0.083694
  36 C :   -0.035919
  37 C :    0.236997
  38 O :   -0.199991
  39 O :   -0.250792
  40 C :    0.092511
  41 C :   -0.030243
  42 C :    0.049391
  43 C :    0.023925
  44 C :   -0.057913
  45 S :    0.086696
  46 C :   -0.069533
  47 C :    0.031899
  48 C :    0.047724
  49 C :   -0.059418
  50 S :    0.070477
  51 C :   -0.036280
  52 H :    0.014462
  53 H :    0.015458
  54 H :   -0.015962
  55 H :   -0.003822
  56 H :   -0.022693
  57 H :   -0.019369
  58 H :   -0.014553
  59 H :    0.023031
  60 H :    0.041603
  61 H :    0.029650
  62 H :   -0.012039
  63 H :   -0.014750
  64 H :   -0.016978
  65 H :   -0.012420
  66 H :    0.002787
  67 H :    0.045188
  68 H :    0.042497
  69 H :    0.026051
  70 H :   -0.011443
  71 H :   -0.013982
  72 H :   -0.013952
  73 H :   -0.013479
  74 H :    0.017887
  75 H :    0.019178
Sum of atomic charges:   -0.0000000

LOEWDIN ATOMIC CHARGES
----------------------
   0 C :   -0.090670
   1 C :   -0.136967
   2 C :   -0.034280
   3 C :   -0.021500
   4 C :   -0.177119
   5 S :    0.351186
   6 C :   -0.183055
   7 C :   -0.033118
   8 C :   -0.037838
   9 C :   -0.139750
  10 S :    0.370973
  11 C :   -0.070203
  12 C :   -0.047215
  13 C :   -0.189912
  14 S :    0.474328
  15 C :   -0.142804
  16 C :   -0.112569
  17 C :    0.096835
  18 O :   -0.170210
  19 O :   -0.041090
  20 C :    0.029191
  21 C :   -0.177647
  22 C :   -0.017451
  23 C :   -0.034952
  24 C :   -0.165263
  25 S :    0.387564
  26 C :   -0.188071
  27 C :   -0.028617
  28 C :   -0.036418
  29 C :   -0.137483
  30 S :    0.376293
  31 C :   -0.071290
  32 C :   -0.045057
  33 C :   -0.210296
  34 S :    0.472501
  35 C :   -0.146545
  36 C :   -0.112574
  37 C :    0.113772
  38 O :   -0.166008
  39 O :   -0.044761
  40 C :    0.024736
  41 C :   -0.176383
  42 C :   -0.028830
  43 C :   -0.032646
  44 C :   -0.178368
  45 S :    0.352766
  46 C :   -0.183010
  47 C :   -0.026304
  48 C :   -0.034732
  49 C :   -0.138238
  50 S :    0.342697
  51 C :   -0.083388
  52 H :    0.026160
  53 H :    0.023579
  54 H :    0.031453
  55 H :    0.031464
  56 H :    0.024927
  57 H :    0.029566
  58 H :    0.035403
  59 H :    0.022659
  60 H :    0.032829
  61 H :    0.027987
  62 H :    0.033652
  63 H :    0.031584
  64 H :    0.031336
  65 H :    0.033512
  66 H :    0.035883
  67 H :    0.008303
  68 H :    0.030731
  69 H :    0.027397
  70 H :    0.033581
  71 H :    0.031422
  72 H :    0.031213
  73 H :    0.032476
  74 H :    0.027512
  75 H :    0.025165

  Mayer bond orders larger than 0.100000
B(  0-C ,  1-C ) :   1.8693 B(  0-C , 52-H ) :   0.9506 B(  0-C , 53-H ) :   0.9397
B(  1-C ,  2-C ) :   1.0698 B(  1-C ,  5-S ) :   1.0080 B(  2-C ,  3-C ) :   1.6676
B(  2-C , 54-H ) :   0.9923 B(  3-C ,  4-C ) :   1.1370 B(  3-C , 55-H ) :   0.9917
B(  4-C ,  5-S ) :   1.0415 B(  4-C ,  6-C ) :   1.5899 B(  6-C ,  7-C ) :   1.1440
B(  6-C , 10-S ) :   1.0395 B(  7-C ,  8-C ) :   1.6411 B(  7-C , 56-H ) :   0.9853
B(  8-C ,  9-C ) :   1.0953 B(  8-C , 57-H ) :   0.9977 B(  9-C , 10-S ) :   1.0226
B(  9-C , 11-C ) :   1.6987 B( 11-C , 12-C ) :   1.0646 B( 11-C , 58-H ) :   0.9552
B( 12-C , 13-C ) :   1.5191 B( 12-C , 16-C ) :   1.1928 B( 13-C , 14-S ) :   1.1656
B( 13-C , 59-H ) :   0.9695 B( 14-S , 15-C ) :   1.2195 B( 15-C , 16-C ) :   1.5440
B( 15-C , 60-H ) :   0.9632 B( 16-C , 17-C ) :   0.9603 B( 17-C , 18-O ) :   2.1178
B( 17-C , 19-O ) :   1.1205 B( 19-O , 20-C ) :   1.0359 B( 20-C , 21-C ) :   1.6641
B( 20-C , 61-H ) :   0.9680 B( 21-C , 22-C ) :   1.1030 B( 21-C , 25-S ) :   1.0059
B( 22-C , 23-C ) :   1.6593 B( 22-C , 62-H ) :   0.9923 B( 23-C , 24-C ) :   1.1487
B( 23-C , 63-H ) :   0.9905 B( 24-C , 25-S ) :   1.0448 B( 24-C , 26-C ) :   1.5696
B( 26-C , 27-C ) :   1.1553 B( 26-C , 30-S ) :   1.0169 B( 27-C , 28-C ) :   1.6136
B( 27-C , 64-H ) :   0.9923 B( 28-C , 29-C ) :   1.1120 B( 28-C , 65-H ) :   1.0026
B( 29-C , 30-S ) :   1.0184 B( 29-C , 31-C ) :   1.6189 B( 31-C , 32-C ) :   1.1236
B( 31-C , 66-H ) :   0.9526 B( 32-C , 33-C ) :   1.5122 B( 32-C , 36-C ) :   1.2188
B( 33-C , 34-S ) :   1.1517 B( 33-C , 67-H ) :   0.9425 B( 34-S , 35-C ) :   1.2187
B( 35-C , 36-C ) :   1.5225 B( 35-C , 68-H ) :   0.9608 B( 36-C , 37-C ) :   0.9700
B( 37-C , 38-O ) :   2.0558 B( 37-C , 39-O ) :   1.1357 B( 39-O , 40-C ) :   1.0364
B( 40-C , 41-C ) :   1.6511 B( 40-C , 69-H ) :   0.9769 B( 41-C , 42-C ) :   1.1099
B( 41-C , 45-S ) :   1.0053 B( 42-C , 43-C ) :   1.6633 B( 42-C , 70-H ) :   0.9934
B( 43-C , 44-C ) :   1.1499 B( 43-C , 71-H ) :   0.9916 B( 44-C , 45-S ) :   1.0267
B( 44-C , 46-C ) :   1.5920 B( 46-C , 47-C ) :   1.1432 B( 46-C , 50-S ) :   1.0337
B( 47-C , 48-C ) :   1.6718 B( 47-C , 72-H ) :   0.9908 B( 48-C , 49-C ) :   1.0766
B( 48-C , 73-H ) :   0.9930 B( 49-C , 50-S ) :   1.0077 B( 49-C , 51-C ) :   1.8686
B( 51-C , 74-H ) :   0.9510 B( 51-C , 75-H ) :   0.9418

-----------------------------------------------------------------------------
         ABSORPTION SPECTRUM VIA TRANSITION ELECTRIC DIPOLE MOMENTS
-----------------------------------------------------------------------------
State   Energy  Wavelength   fosc         T2         TX        TY        TZ
        (cm-1)    (nm)                  (au**2)     (au)      (au)      (au)
-----------------------------------------------------------------------------
   0   17082.0    585.4   0.003319107   0.06397  -0.20398  -0.11907   0.09045
   1   17610.6    567.8   0.128212269   2.39679  -0.33375  -1.45209   0.42051
   2   20416.7    489.8   1.394217919  22.48124   0.34811   4.16996  -2.22969
   3   22619.4    442.1   1.061525884  15.44986   3.23678   1.15821  -1.90570
   4   23465.4    426.2   0.905070148  12.69785   2.92573  -1.21079   1.63461
   5   25139.0    397.8   0.037212429   0.48732   0.03760   0.59425  -0.36438
   6   26231.7    381.2   0.056003421   0.70285  -0.27395   0.58751  -0.53164
   7   27415.4    364.8   0.007644873   0.09180   0.18590  -0.17943   0.15826
   8   28002.5    357.1   0.025314139   0.29761   0.49048  -0.19638   0.13591
   9   29240.6    342.0   0.001916085   0.02157   0.04689  -0.09540   0.10135
  10   29351.2    340.7   0.084148919   0.94384   0.87716  -0.04695   0.41499
  11   29682.4    336.9   0.007275762   0.08070   0.27678  -0.06132  -0.01818
  12   30329.2    329.7   0.064976085   0.70529   0.52792  -0.39380   0.52107
  13   31688.4    315.6   0.045065846   0.46819   0.59615  -0.05720   0.33095
  14   32194.2    310.6   0.048643692   0.49742  -0.57399   0.27794  -0.30116
  15   32413.5    308.5   0.078829561   0.80064  -0.68162   0.35226  -0.46039
  16   32808.8    304.8   0.038779108   0.38912  -0.53544   0.19817  -0.25131
  17   33095.0    302.2   0.002257774   0.02246   0.08265  -0.11234   0.05485
  18   33712.0    296.6   0.011364589   0.11098  -0.30740   0.11380  -0.05946
  19   33817.8    295.7   0.017104491   0.16651   0.39974   0.08063   0.01474
  20   34238.3    292.1   0.075030674   0.72144   0.16099  -0.75855   0.34660
  21   34920.0    286.4   0.044921817   0.42350   0.63372   0.11735   0.09016
  22   35308.4    283.2   0.000311398   0.00290   0.01541  -0.04663   0.02217
  23   35640.3    280.6   0.026138536   0.24144   0.37304  -0.21044   0.24084
  24   35918.8    278.4   0.046697743   0.42801   0.60984   0.21697  -0.09499
  25   36641.1    272.9   0.009504335   0.08539  -0.28533  -0.06191   0.01217
  26   37459.6    267.0   0.040379161   0.35487   0.54241  -0.11743   0.21650
  27   37609.3    265.9   0.107719816   0.94292   0.61704   0.62226  -0.41830
  28   37761.4    264.8   0.202403897   1.76460  -1.27431   0.18846  -0.32438
  29   38433.3    260.2   0.142856766   1.22368  -0.42670  -0.81377   0.61594
  30   39122.5    255.6   0.003913158   0.03293   0.08321   0.12518  -0.10166
  31   39650.2    252.2   0.121927616   1.01235   0.95546   0.23797   0.20694
  32   40079.1    249.5   0.009272152   0.07616  -0.23828  -0.13872   0.01186
  33   40306.0    248.1   0.029244312   0.23886   0.31174  -0.37362   0.04570

FINAL SINGLE POINT ENERGY     -5021.708562056083

DIPOLE MOMENT
-------------
                                X             Y             Z
Electronic contribution:    -20.57107     -16.29548      12.33060
Nuclear contribution   :     21.06359      17.34024     -12.67969
                        -----------------------------------------
Total Dipole Moment    :      0.49252       1.04477      -0.34909
                        -----------------------------------------
Magnitude (a.u.)       :      1.20664
Magnitude (Debye)      :      3.06703

Rotational constants in cm-1:     0.002707     0.000461     0.000416
Rotational constants in MHz :    81.159678    13.829590    12.477316

                             ****ORCA TERMINATED NORMALLY****
TOTAL RUN TIME: 0 days 0 hours 5 minutes 32 seconds 81 msec
