                         Program Version 4.2.0 -  RELEASE  -
|  1> # ORCA input file
|  2> # SCF done       -203.107569871842          0.000546169685
|  3> ! CAM-B3LYP def2-SVP def2/J RIJCOSX Grid4 TightSCF
|  4> %maxcore 5000
|  5> %tddft
|  6>     Mode sTDDFT
|  7>     Ethresh 5.0
|  8>     maxcore 5000
|  9> end
| 10>
| 11> %pal
| 12>   nprocs 6
| 13>   end
| 14> * xyz 0 1
| 15>    C       -8.67106       -12.42006        -3.48208
| 16>    C       -9.76253       -13.26828        -3.52950
| 17>    C       -9.80646       -14.34772        -2.64179
| 18>    C      -10.91317       -15.23047        -2.67503
| 19>    N      -11.80985       -15.94211        -2.70642
| 20>    C       -8.77240       -14.57393        -1.71533
| 21>    C       -8.84334       -15.66958        -0.82358
| 22>    N       -8.87536       -16.54822        -0.08912
| 23>    C       -7.67121       -13.71504        -1.67301
| 24>    C       -7.63989       -12.65857        -2.55498
| 25>    C       -6.59972       -11.61502        -2.70735
| 26>    O       -5.57326       -11.54313        -2.04766
| 27>    C       -7.04765       -10.75501        -3.79112
| 28>    C       -8.33071       -11.21839        -4.25101
| 29>    C       -9.14804       -10.64103        -5.19597
| 30>    C      -10.39151       -11.16949        -5.59585
| 31>    N      -11.40751       -11.55300        -5.96941
| 32>    C       -8.88252        -9.43901        -5.87818
| 33>    N       -8.74416        -8.45805        -6.46267
| 34>    C       -6.32004        -9.72713        -4.38307
| 35>    C       -5.14211        -9.12114        -3.98081
| 36>    S       -4.46394        -9.36602        -2.38683
| 37>    C       -3.34728        -8.08487        -2.56991
| 38>    C       -3.39094        -7.53109        -3.86665
| 39>    C       -4.39900        -8.12268        -4.68634
| 40>    C       -4.50423        -7.72559        -6.03837
| 41>    C       -5.44253        -8.34249        -7.02738
| 42>    C       -3.64830        -6.73773        -6.48822
| 43>    C       -2.66283        -6.16328        -5.68420
| 44>    C       -2.50992        -6.56906        -4.38539
| 45>    C       -2.51344        -7.73385        -1.45215
| 46>    C       -2.12156        -8.72726        -0.57913
| 47>    C       -1.33547        -8.42618         0.54742
| 48>    C       -0.82387        -9.22001         1.56660
| 49>    C       -0.93862       -10.68507         1.81108
| 50>    C       -2.17893       -10.98520         2.68820
| 51>    N       -1.89804       -10.68006         4.08227
| 52>    C       -0.98309       -11.55130         0.54372
| 53>    N       -0.66389       -12.92471         0.90293
| 54>    C       -0.18379        -8.32158         2.50064
| 55>    C        0.35854        -8.55907         3.70767
| 56>    C        0.88592        -7.44759         4.55352
| 57>    C        0.85352        -6.10157         3.90460
| 58>    C        0.29169        -5.88335         2.70231
| 59>    C       -0.27063        -6.95793         1.96972
| 60>    C       -0.97458        -7.02992         0.78683
| 61>    C       -1.40636        -6.03009        -0.11617
| 62>    C       -2.14711        -6.36955        -1.19993
| 63>    C        2.23844        -7.85190         5.07854
| 64>    C        3.38883        -7.27456         4.73850
| 65>    C        4.66537        -7.64599         5.30821
| 66>    S        5.60243        -6.37816         5.98515
| 67>    C        6.82789        -7.46297         6.57114
| 68>    C        6.46250        -8.79477         6.28882
| 69>    C        5.26318        -8.89743         5.51168
| 70>    C        4.88736       -10.16454         4.98706
| 71>    C        3.78908       -10.33970         3.98629
| 72>    C        5.60553       -11.26396         5.39169
| 73>    C        6.66464       -11.17508         6.30526
| 74>    C        7.10760        -9.95633         6.74289
| 75>    C        7.94677        -6.91531         7.20747
| 76>    C        9.20229        -7.43584         7.41541
| 77>    C       10.05106        -6.83772         8.47054
| 78>    O        9.83558        -5.82903         9.10298
| 79>    C       11.19769        -7.76748         8.62169
| 80>    C       12.22454        -7.72693         9.53883
| 81>    C       13.17945        -8.74608         9.50374
| 82>    C       13.07805        -9.77650         8.55047
| 83>    C       12.03928        -9.79979         7.61639
| 84>    C       11.09742        -8.78720         7.65503
| 85>    C        9.92595        -8.52313         6.81447
| 86>    C        9.70889        -9.07617         5.57399
| 87>    C        8.76015        -8.58694         4.65708
| 88>    N        8.03894        -8.19074         3.85607
| 89>    C       10.46727       -10.13459         5.03776
| 90>    N       11.03359       -11.01754         4.57112
| 91>    C       14.04419       -10.81259         8.54036
| 92>    N       14.81771       -11.65655         8.52662
| 93>    C       14.24661        -8.74583        10.43331
| 94>    N       15.10056        -8.72935        11.19624
| 95>    H      -10.57499       -13.12931        -4.22446
| 96>    H       -6.86908       -13.87421        -0.96844
| 97>    H       -6.75296        -9.32688        -5.28424
| 98>    H       -5.41472        -9.42948        -6.96768
| 99>    H       -5.15697        -8.05041        -8.03540
|100>    H       -6.46935        -8.00817        -6.87156
|101>    H       -3.72352        -6.41886        -7.51751
|102>    H       -2.00303        -5.41940        -6.10391
|103>    H       -1.70836        -6.18560        -3.77569
|104>    H       -2.41951        -9.74353        -0.77975
|105>    H       -0.06019       -11.00203         2.38501
|106>    H       -2.44550       -12.03859         2.52710
|107>    H       -3.00939       -10.35885         2.35492
|108>    H       -1.35463       -11.43179         4.49483
|109>    H       -2.75887       -10.59783         4.61006
|110>    H       -0.30084       -11.12601        -0.21055
|111>    H       -1.99424       -11.55785         0.13254
|112>    H        0.31651       -13.00853         1.15162
|113>    H       -0.83820       -13.54676         0.12203
|114>    H        0.39308        -9.55230         4.12795
|115>    H        0.22074        -7.40114         5.43429
|116>    H        1.26364        -5.28889         4.48505
|117>    H        0.25431        -4.88766         2.28492
|118>    H       -1.16200        -4.99688         0.08196
|119>    H       -2.53172        -5.60560        -1.85700
|120>    H        2.23634        -8.68368         5.76964
|121>    H        3.39147        -6.40252         4.09773
|122>    H        2.83765       -10.53220         4.48038
|123>    H        4.01156       -11.19579         3.35309
|124>    H        3.67747        -9.45816         3.36187
|125>    H        5.34112       -12.23561         5.00152
|126>    H        7.15111       -12.07924         6.63841
|127>    H        7.92209        -9.88315         7.44493
|128>    H        7.80699        -5.92747         7.63888
|129>    H       12.28816        -6.93138        10.26556
|130>    H       11.99135       -10.60537         6.90074
|131> *
|132>
|133>                          ****END OF INPUT****

CARTESIAN COORDINATES (ANGSTROEM)
---------------------------------
  C     -8.671060  -12.420060   -3.482080
  C     -9.762530  -13.268280   -3.529500
  C     -9.806460  -14.347720   -2.641790
  C    -10.913170  -15.230470   -2.675030
  N    -11.809850  -15.942110   -2.706420
  C     -8.772400  -14.573930   -1.715330
  C     -8.843340  -15.669580   -0.823580
  N     -8.875360  -16.548220   -0.089120
  C     -7.671210  -13.715040   -1.673010
  C     -7.639890  -12.658570   -2.554980
  C     -6.599720  -11.615020   -2.707350
  O     -5.573260  -11.543130   -2.047660
  C     -7.047650  -10.755010   -3.791120
  C     -8.330710  -11.218390   -4.251010
  C     -9.148040  -10.641030   -5.195970
  C    -10.391510  -11.169490   -5.595850
  N    -11.407510  -11.553000   -5.969410
  C     -8.882520   -9.439010   -5.878180
  N     -8.744160   -8.458050   -6.462670
  C     -6.320040   -9.727130   -4.383070
  C     -5.142110   -9.121140   -3.980810
  S     -4.463940   -9.366020   -2.386830
  C     -3.347280   -8.084870   -2.569910
  C     -3.390940   -7.531090   -3.866650
  C     -4.399000   -8.122680   -4.686340
  C     -4.504230   -7.725590   -6.038370
  C     -5.442530   -8.342490   -7.027380
  C     -3.648300   -6.737730   -6.488220
  C     -2.662830   -6.163280   -5.684200
  C     -2.509920   -6.569060   -4.385390
  C     -2.513440   -7.733850   -1.452150
  C     -2.121560   -8.727260   -0.579130
  C     -1.335470   -8.426180    0.547420
  C     -0.823870   -9.220010    1.566600
  C     -0.938620  -10.685070    1.811080
  C     -2.178930  -10.985200    2.688200
  N     -1.898040  -10.680060    4.082270
  C     -0.983090  -11.551300    0.543720
  N     -0.663890  -12.924710    0.902930
  C     -0.183790   -8.321580    2.500640
  C      0.358540   -8.559070    3.707670
  C      0.885920   -7.447590    4.553520
  C      0.853520   -6.101570    3.904600
  C      0.291690   -5.883350    2.702310
  C     -0.270630   -6.957930    1.969720
  C     -0.974580   -7.029920    0.786830
  C     -1.406360   -6.030090   -0.116170
  C     -2.147110   -6.369550   -1.199930
  C      2.238440   -7.851900    5.078540
  C      3.388830   -7.274560    4.738500
  C      4.665370   -7.645990    5.308210
  S      5.602430   -6.378160    5.985150
  C      6.827890   -7.462970    6.571140
  C      6.462500   -8.794770    6.288820
  C      5.263180   -8.897430    5.511680
  C      4.887360  -10.164540    4.987060
  C      3.789080  -10.339700    3.986290
  C      5.605530  -11.263960    5.391690
  C      6.664640  -11.175080    6.305260
  C      7.107600   -9.956330    6.742890
  C      7.946770   -6.915310    7.207470
  C      9.202290   -7.435840    7.415410
  C     10.051060   -6.837720    8.470540
  O      9.835580   -5.829030    9.102980
  C     11.197690   -7.767480    8.621690
  C     12.224540   -7.726930    9.538830
  C     13.179450   -8.746080    9.503740
  C     13.078050   -9.776500    8.550470
  C     12.039280   -9.799790    7.616390
  C     11.097420   -8.787200    7.655030
  C      9.925950   -8.523130    6.814470
  C      9.708890   -9.076170    5.573990
  C      8.760150   -8.586940    4.657080
  N      8.038940   -8.190740    3.856070
  C     10.467270  -10.134590    5.037760
  N     11.033590  -11.017540    4.571120
  C     14.044190  -10.812590    8.540360
  N     14.817710  -11.656550    8.526620
  C     14.246610   -8.745830   10.433310
  N     15.100560   -8.729350   11.196240
  H    -10.574990  -13.129310   -4.224460
  H     -6.869080  -13.874210   -0.968440
  H     -6.752960   -9.326880   -5.284240
  H     -5.414720   -9.429480   -6.967680
  H     -5.156970   -8.050410   -8.035400
  H     -6.469350   -8.008170   -6.871560
  H     -3.723520   -6.418860   -7.517510
  H     -2.003030   -5.419400   -6.103910
  H     -1.708360   -6.185600   -3.775690
  H     -2.419510   -9.743530   -0.779750
  H     -0.060190  -11.002030    2.385010
  H     -2.445500  -12.038590    2.527100
  H     -3.009390  -10.358850    2.354920
  H     -1.354630  -11.431790    4.494830
  H     -2.758870  -10.597830    4.610060
  H     -0.300840  -11.126010   -0.210550
  H     -1.994240  -11.557850    0.132540
  H      0.316510  -13.008530    1.151620
  H     -0.838200  -13.546760    0.122030
  H      0.393080   -9.552300    4.127950
  H      0.220740   -7.401140    5.434290
  H      1.263640   -5.288890    4.485050
  H      0.254310   -4.887660    2.284920
  H     -1.162000   -4.996880    0.081960
  H     -2.531720   -5.605600   -1.857000
  H      2.236340   -8.683680    5.769640
  H      3.391470   -6.402520    4.097730
  H      2.837650  -10.532200    4.480380
  H      4.011560  -11.195790    3.353090
  H      3.677470   -9.458160    3.361870
  H      5.341120  -12.235610    5.001520
  H      7.151110  -12.079240    6.638410
  H      7.922090   -9.883150    7.444930
  H      7.806990   -5.927470    7.638880
  H     12.288160   -6.931380   10.265560
  H     11.991350  -10.605370    6.900740

 Total Charge           Charge          ....    0
 Multiplicity           Mult            ....    1
 Number of Electrons    NEL             ....  550
 Basis Dimension        Dim             .... 1308

ORBITAL ENERGIES
----------------

  NO   OCC          E(Eh)            E(eV)
   0   2.0000     -88.995551     -2421.6921
   1   2.0000     -88.983712     -2421.3699
   2   2.0000     -19.231058      -523.3037
   3   2.0000     -19.226273      -523.1735
   4   2.0000     -14.426470      -392.5642
   5   2.0000     -14.425322      -392.5330
   6   2.0000     -14.425226      -392.5303
   7   2.0000     -14.424750      -392.5174
   8   2.0000     -14.422463      -392.4552
   9   2.0000     -14.422107      -392.4455
  10   2.0000     -14.419387      -392.3715
  11   2.0000     -14.415749      -392.2725
  12   2.0000     -14.401612      -391.8878
  13   2.0000     -14.397942      -391.7879
  14   2.0000     -10.381733      -282.5013
  15   2.0000     -10.376043      -282.3465
  16   2.0000     -10.356446      -281.8132
  17   2.0000     -10.355426      -281.7855
  18   2.0000     -10.354926      -281.7718
  19   2.0000     -10.352295      -281.7003
  20   2.0000     -10.350203      -281.6433
  21   2.0000     -10.349784      -281.6319
  22   2.0000     -10.349370      -281.6207
  23   2.0000     -10.346106      -281.5319
  24   2.0000     -10.343938      -281.4729
  25   2.0000     -10.338997      -281.3384
  26   2.0000     -10.335710      -281.2490
  27   2.0000     -10.333943      -281.2009
  28   2.0000     -10.330227      -281.0998
  29   2.0000     -10.329461      -281.0789
  30   2.0000     -10.329212      -281.0721
  31   2.0000     -10.329101      -281.0691
  32   2.0000     -10.327562      -281.0273
  33   2.0000     -10.326930      -281.0100
  34   2.0000     -10.326164      -280.9892
  35   2.0000     -10.324004      -280.9304
  36   2.0000     -10.323569      -280.9186
  37   2.0000     -10.322607      -280.8924
  38   2.0000     -10.322238      -280.8824
  39   2.0000     -10.321806      -280.8706
  40   2.0000     -10.321515      -280.8627
  41   2.0000     -10.321132      -280.8523
  42   2.0000     -10.320138      -280.8252
  43   2.0000     -10.319269      -280.8016
  44   2.0000     -10.319221      -280.8003
  45   2.0000     -10.318263      -280.7742
  46   2.0000     -10.317927      -280.7651
  47   2.0000     -10.316171      -280.7173
  48   2.0000     -10.314955      -280.6842
  49   2.0000     -10.313495      -280.6445
  50   2.0000     -10.313489      -280.6443
  51   2.0000     -10.312035      -280.6047
  52   2.0000     -10.311285      -280.5843
  53   2.0000     -10.309035      -280.5231
  54   2.0000     -10.306925      -280.4657
  55   2.0000     -10.305844      -280.4363
  56   2.0000     -10.302922      -280.3568
  57   2.0000     -10.302000      -280.3317
  58   2.0000     -10.300740      -280.2974
  59   2.0000     -10.298810      -280.2449
  60   2.0000     -10.297049      -280.1969
  61   2.0000     -10.296173      -280.1731
  62   2.0000     -10.295610      -280.1578
  63   2.0000     -10.294114      -280.1171
  64   2.0000     -10.293170      -280.0914
  65   2.0000     -10.291546      -280.0472
  66   2.0000     -10.291167      -280.0369
  67   2.0000     -10.289500      -279.9915
  68   2.0000     -10.289209      -279.9836
  69   2.0000     -10.288192      -279.9559
  70   2.0000     -10.287883      -279.9475
  71   2.0000     -10.287658      -279.9414
  72   2.0000     -10.287627      -279.9406
  73   2.0000     -10.287591      -279.9396
  74   2.0000     -10.284216      -279.8478
  75   2.0000     -10.283974      -279.8412
  76   2.0000     -10.283778      -279.8358
  77   2.0000     -10.280461      -279.7456
  78   2.0000     -10.278044      -279.6798
  79   2.0000     -10.270330      -279.4699
  80   2.0000      -8.091333      -220.1764
  81   2.0000      -8.077272      -219.7937
  82   2.0000      -6.060206      -164.9066
  83   2.0000      -6.056060      -164.7938
  84   2.0000      -6.054196      -164.7431
  85   2.0000      -6.046345      -164.5294
  86   2.0000      -6.041830      -164.4065
  87   2.0000      -6.040139      -164.3605
  88   2.0000      -1.145973       -31.1835
  89   2.0000      -1.140985       -31.0478
  90   2.0000      -1.039150       -28.2767
  91   2.0000      -1.031870       -28.0786
  92   2.0000      -1.029841       -28.0234
  93   2.0000      -1.021745       -27.8031
  94   2.0000      -1.019824       -27.7508
  95   2.0000      -1.017455       -27.6863
  96   2.0000      -1.007157       -27.4061
  97   2.0000      -1.004760       -27.3409
  98   2.0000      -1.003761       -27.3137
  99   2.0000      -1.002758       -27.2864
 100   2.0000      -1.002089       -27.2682
 101   2.0000      -0.999806       -27.2061
 102   2.0000      -0.997005       -27.1299
 103   2.0000      -0.985005       -26.8033
 104   2.0000      -0.975163       -26.5355
 105   2.0000      -0.970879       -26.4189
 106   2.0000      -0.969323       -26.3766
 107   2.0000      -0.967546       -26.3283
 108   2.0000      -0.961130       -26.1537
 109   2.0000      -0.952136       -25.9089
 110   2.0000      -0.940177       -25.5835
 111   2.0000      -0.927100       -25.2277
 112   2.0000      -0.920913       -25.0593
 113   2.0000      -0.913874       -24.8678
 114   2.0000      -0.910053       -24.7638
 115   2.0000      -0.900945       -24.5160
 116   2.0000      -0.897567       -24.4240
 117   2.0000      -0.894235       -24.3334
 118   2.0000      -0.891562       -24.2606
 119   2.0000      -0.881753       -23.9937
 120   2.0000      -0.879484       -23.9320
 121   2.0000      -0.861910       -23.4538
 122   2.0000      -0.858395       -23.3581
 123   2.0000      -0.853873       -23.2351
 124   2.0000      -0.852300       -23.1923
 125   2.0000      -0.846242       -23.0274
 126   2.0000      -0.841430       -22.8965
 127   2.0000      -0.828487       -22.5443
 128   2.0000      -0.808419       -21.9982
 129   2.0000      -0.803368       -21.8608
 130   2.0000      -0.800240       -21.7756
 131   2.0000      -0.798547       -21.7296
 132   2.0000      -0.783454       -21.3189
 133   2.0000      -0.777393       -21.1539
 134   2.0000      -0.773408       -21.0455
 135   2.0000      -0.757776       -20.6201
 136   2.0000      -0.750002       -20.4086
 137   2.0000      -0.740846       -20.1594
 138   2.0000      -0.737989       -20.0817
 139   2.0000      -0.733198       -19.9513
 140   2.0000      -0.726326       -19.7643
 141   2.0000      -0.721283       -19.6271
 142   2.0000      -0.717788       -19.5320
 143   2.0000      -0.710579       -19.3358
 144   2.0000      -0.707919       -19.2635
 145   2.0000      -0.707184       -19.2435
 146   2.0000      -0.700906       -19.0726
 147   2.0000      -0.692151       -18.8344
 148   2.0000      -0.687082       -18.6965
 149   2.0000      -0.680516       -18.5178
 150   2.0000      -0.677246       -18.4288
 151   2.0000      -0.673111       -18.3163
 152   2.0000      -0.662447       -18.0261
 153   2.0000      -0.659575       -17.9479
 154   2.0000      -0.654963       -17.8225
 155   2.0000      -0.650317       -17.6960
 156   2.0000      -0.646922       -17.6036
 157   2.0000      -0.637456       -17.3461
 158   2.0000      -0.625182       -17.0121
 159   2.0000      -0.618064       -16.8184
 160   2.0000      -0.617525       -16.8037
 161   2.0000      -0.614732       -16.7277
 162   2.0000      -0.611264       -16.6333
 163   2.0000      -0.606345       -16.4995
 164   2.0000      -0.598565       -16.2878
 165   2.0000      -0.594020       -16.1641
 166   2.0000      -0.592267       -16.1164
 167   2.0000      -0.590049       -16.0561
 168   2.0000      -0.585914       -15.9435
 169   2.0000      -0.581380       -15.8201
 170   2.0000      -0.580466       -15.7953
 171   2.0000      -0.573379       -15.6024
 172   2.0000      -0.571617       -15.5545
 173   2.0000      -0.568424       -15.4676
 174   2.0000      -0.564699       -15.3662
 175   2.0000      -0.564086       -15.3496
 176   2.0000      -0.558716       -15.2034
 177   2.0000      -0.557443       -15.1688
 178   2.0000      -0.556350       -15.1390
 179   2.0000      -0.554133       -15.0787
 180   2.0000      -0.552994       -15.0477
 181   2.0000      -0.548863       -14.9353
 182   2.0000      -0.545418       -14.8416
 183   2.0000      -0.544780       -14.8242
 184   2.0000      -0.542074       -14.7506
 185   2.0000      -0.539580       -14.6827
 186   2.0000      -0.538337       -14.6489
 187   2.0000      -0.534757       -14.5515
 188   2.0000      -0.533193       -14.5089
 189   2.0000      -0.530326       -14.4309
 190   2.0000      -0.529078       -14.3969
 191   2.0000      -0.527729       -14.3602
 192   2.0000      -0.523685       -14.2502
 193   2.0000      -0.521233       -14.1835
 194   2.0000      -0.520266       -14.1572
 195   2.0000      -0.516547       -14.0560
 196   2.0000      -0.515088       -14.0163
 197   2.0000      -0.513959       -13.9855
 198   2.0000      -0.513355       -13.9691
 199   2.0000      -0.510895       -13.9021
 200   2.0000      -0.509200       -13.8560
 201   2.0000      -0.506147       -13.7730
 202   2.0000      -0.505222       -13.7478
 203   2.0000      -0.503740       -13.7075
 204   2.0000      -0.499809       -13.6005
 205   2.0000      -0.495290       -13.4775
 206   2.0000      -0.490816       -13.3558
 207   2.0000      -0.488235       -13.2855
 208   2.0000      -0.486987       -13.2516
 209   2.0000      -0.485080       -13.1997
 210   2.0000      -0.484610       -13.1869
 211   2.0000      -0.481663       -13.1067
 212   2.0000      -0.478610       -13.0236
 213   2.0000      -0.473259       -12.8780
 214   2.0000      -0.464854       -12.6493
 215   2.0000      -0.463219       -12.6048
 216   2.0000      -0.460326       -12.5261
 217   2.0000      -0.460133       -12.5209
 218   2.0000      -0.457866       -12.4592
 219   2.0000      -0.457483       -12.4487
 220   2.0000      -0.455618       -12.3980
 221   2.0000      -0.455016       -12.3816
 222   2.0000      -0.453723       -12.3464
 223   2.0000      -0.453540       -12.3415
 224   2.0000      -0.451542       -12.2871
 225   2.0000      -0.450227       -12.2513
 226   2.0000      -0.449672       -12.2362
 227   2.0000      -0.448943       -12.2164
 228   2.0000      -0.448236       -12.1971
 229   2.0000      -0.446470       -12.1491
 230   2.0000      -0.444663       -12.0999
 231   2.0000      -0.444190       -12.0870
 232   2.0000      -0.443788       -12.0761
 233   2.0000      -0.441908       -12.0249
 234   2.0000      -0.440917       -11.9980
 235   2.0000      -0.438633       -11.9358
 236   2.0000      -0.438263       -11.9257
 237   2.0000      -0.435795       -11.8586
 238   2.0000      -0.433878       -11.8064
 239   2.0000      -0.431712       -11.7475
 240   2.0000      -0.430976       -11.7275
 241   2.0000      -0.430133       -11.7045
 242   2.0000      -0.429150       -11.6778
 243   2.0000      -0.426751       -11.6125
 244   2.0000      -0.425719       -11.5844
 245   2.0000      -0.425142       -11.5687
 246   2.0000      -0.423930       -11.5357
 247   2.0000      -0.420624       -11.4458
 248   2.0000      -0.419142       -11.4054
 249   2.0000      -0.416549       -11.3349
 250   2.0000      -0.412292       -11.2190
 251   2.0000      -0.410401       -11.1676
 252   2.0000      -0.408237       -11.1087
 253   2.0000      -0.405189       -11.0258
 254   2.0000      -0.395037       -10.7495
 255   2.0000      -0.384247       -10.4559
 256   2.0000      -0.383686       -10.4406
 257   2.0000      -0.366288        -9.9672
 258   2.0000      -0.363058        -9.8793
 259   2.0000      -0.360782        -9.8174
 260   2.0000      -0.354662        -9.6509
 261   2.0000      -0.350849        -9.5471
 262   2.0000      -0.350262        -9.5311
 263   2.0000      -0.347723        -9.4620
 264   2.0000      -0.343975        -9.3600
 265   2.0000      -0.340571        -9.2674
 266   2.0000      -0.334586        -9.1046
 267   2.0000      -0.330370        -8.9898
 268   2.0000      -0.323178        -8.7941
 269   2.0000      -0.321542        -8.7496
 270   2.0000      -0.320371        -8.7177
 271   2.0000      -0.311651        -8.4804
 272   2.0000      -0.276931        -7.5357
 273   2.0000      -0.267028        -7.2662
 274   2.0000      -0.239337        -6.5127
 275   0.0000      -0.112649        -3.0653
 276   0.0000      -0.107841        -2.9345
 277   0.0000      -0.092452        -2.5158
 278   0.0000      -0.089692        -2.4406
 279   0.0000      -0.076008        -2.0683

MULLIKEN ATOMIC CHARGES
-----------------------
   0 C :    0.044905
   1 C :   -0.044538
   2 C :   -0.062276
   3 C :   -0.177883
   4 N :    0.196780
   5 C :   -0.068573
   6 C :   -0.178263
   7 N :    0.189536
   8 C :   -0.045244
   9 C :    0.005568
  10 C :    0.150697
  11 O :   -0.189777
  12 C :   -0.131489
  13 C :    0.315924
  14 C :   -0.363187
  15 C :   -0.188271
  16 N :    0.157847
  17 C :   -0.168609
  18 N :    0.138107
  19 C :    0.000303
  20 C :   -0.131252
  21 S :    0.221837
  22 C :   -0.097527
  23 C :    0.117824
  24 C :    0.135677
  25 C :   -0.117506
  26 C :    0.106446
  27 C :   -0.019230
  28 C :    0.033386
  29 C :   -0.038217
  30 C :    0.090899
  31 C :   -0.095973
  32 C :    0.034851
  33 C :    0.015908
  34 C :   -0.065039
  35 C :    0.145597
  36 N :   -0.225259
  37 C :    0.099149
  38 N :   -0.214191
  39 C :    0.068837
  40 C :   -0.075711
  41 C :    0.174031
  42 C :   -0.067896
  43 C :    0.021323
  44 C :    0.017650
  45 C :    0.032588
  46 C :   -0.009002
  47 C :   -0.012948
  48 C :   -0.069174
  49 C :    0.000723
  50 C :   -0.129450
  51 S :    0.206909
  52 C :   -0.159691
  53 C :    0.088955
  54 C :    0.135791
  55 C :   -0.108279
  56 C :    0.108465
  57 C :   -0.030474
  58 C :    0.043072
  59 C :   -0.007779
  60 C :    0.078691
  61 C :   -0.162076
  62 C :    0.139731
  63 O :   -0.134418
  64 C :    0.014598
  65 C :   -0.039288
  66 C :   -0.069718
  67 C :   -0.060544
  68 C :   -0.048060
  69 C :    0.040526
  70 C :    0.251376
  71 C :   -0.336450
  72 C :   -0.186137
  73 N :    0.166103
  74 C :   -0.187405
  75 N :    0.163684
  76 C :   -0.178551
  77 N :    0.200112
  78 C :   -0.177424
  79 N :    0.194270
  80 H :    0.018969
  81 H :    0.007065
  82 H :   -0.038062
  83 H :    0.025500
  84 H :    0.006531
  85 H :    0.067396
  86 H :   -0.015746
  87 H :   -0.009232
  88 H :   -0.013598
  89 H :   -0.019638
  90 H :   -0.032615
  91 H :    0.010107
  92 H :   -0.000266
  93 H :    0.095720
  94 H :    0.099357
  95 H :    0.002133
  96 H :    0.022158
  97 H :    0.090554
  98 H :    0.098056
  99 H :   -0.025422
 100 H :    0.059087
 101 H :   -0.004827
 102 H :   -0.033137
 103 H :   -0.030559
 104 H :   -0.014064
 105 H :    0.016677
 106 H :    0.030652
 107 H :    0.020024
 108 H :    0.022125
 109 H :    0.041508
 110 H :   -0.020750
 111 H :    0.000649
 112 H :   -0.011766
 113 H :    0.023822
 114 H :    0.015851
 115 H :    0.019841
Sum of atomic charges:    0.0000000

LOEWDIN ATOMIC CHARGES
----------------------
   0 C :    0.005406
   1 C :    0.030726
   2 C :   -0.028802
   3 C :   -0.031064
   4 N :   -0.018216
   5 C :   -0.033747
   6 C :   -0.031014
   7 N :   -0.023270
   8 C :    0.039795
   9 C :   -0.025063
  10 C :    0.074211
  11 O :   -0.183567
  12 C :   -0.141885
  13 C :    0.071019
  14 C :   -0.151200
  15 C :   -0.023581
  16 N :   -0.053010
  17 C :   -0.013085
  18 N :   -0.057019
  19 C :    0.046997
  20 C :   -0.197155
  21 S :    0.567174
  22 C :   -0.108145
  23 C :   -0.055711
  24 C :   -0.010047
  25 C :   -0.012059
  26 C :   -0.051377
  27 C :   -0.003679
  28 C :   -0.023580
  29 C :   -0.008453
  30 C :   -0.058199
  31 C :    0.005449
  32 C :   -0.031471
  33 C :   -0.008220
  34 C :   -0.041493
  35 C :    0.031777
  36 N :   -0.109847
  37 C :    0.023747
  38 N :   -0.114602
  39 C :   -0.019478
  40 C :    0.091816
  41 C :   -0.029969
  42 C :   -0.040495
  43 C :   -0.009802
  44 C :   -0.040095
  45 C :   -0.028748
  46 C :   -0.003160
  47 C :   -0.031511
  48 C :    0.022272
  49 C :   -0.059995
  50 C :   -0.123344
  51 S :    0.519409
  52 C :   -0.196850
  53 C :   -0.015674
  54 C :   -0.049024
  55 C :    0.008380
  56 C :   -0.044769
  57 C :   -0.033607
  58 C :    0.011046
  59 C :   -0.027843
  60 C :    0.046142
  61 C :   -0.117818
  62 C :    0.081279
  63 O :   -0.136692
  64 C :   -0.031681
  65 C :    0.046700
  66 C :   -0.033351
  67 C :   -0.025147
  68 C :    0.026077
  69 C :    0.006370
  70 C :    0.047639
  71 C :   -0.133036
  72 C :   -0.011878
  73 N :   -0.049907
  74 C :   -0.023496
  75 N :   -0.047889
  76 C :   -0.031235
  77 N :   -0.014966
  78 C :   -0.032194
  79 N :   -0.018177
  80 H :    0.051621
  81 H :    0.049915
  82 H :    0.046691
  83 H :    0.034096
  84 H :    0.034162
  85 H :    0.041182
  86 H :    0.031868
  87 H :    0.032677
  88 H :    0.032699
  89 H :    0.021155
  90 H :    0.019997
  91 H :    0.007554
  92 H :    0.019928
  93 H :    0.052853
  94 H :    0.058950
  95 H :    0.004665
  96 H :    0.020673
  97 H :    0.052162
  98 H :    0.058672
  99 H :    0.023453
 100 H :    0.071787
 101 H :    0.025486
 102 H :    0.031360
 103 H :    0.030144
 104 H :    0.029644
 105 H :    0.029711
 106 H :    0.038478
 107 H :    0.031537
 108 H :    0.036683
 109 H :    0.037533
 110 H :    0.030124
 111 H :    0.037040
 112 H :    0.031963
 113 H :    0.045870
 114 H :    0.053511
 115 H :    0.051119

  Mayer bond orders larger than 0.100000
B(  0-C ,  1-C ) :   1.3738 B(  0-C ,  9-C ) :   1.3347 B(  0-C , 13-C ) :   0.9448
B(  1-C ,  2-C ) :   1.3752 B(  1-C , 80-H ) :   0.9853 B(  2-C ,  3-C ) :   1.0876
B(  2-C ,  5-C ) :   1.4154 B(  3-C ,  4-N ) :   3.0439 B(  5-C ,  6-C ) :   1.0857
B(  5-C ,  8-C ) :   1.3492 B(  6-C ,  7-N ) :   3.0460 B(  8-C ,  9-C ) :   1.3752
B(  8-C , 81-H ) :   1.0153 B(  9-C , 10-C ) :   0.9346 B( 10-C , 11-O ) :   2.1269
B( 10-C , 12-C ) :   1.0134 B( 12-C , 13-C ) :   1.1435 B( 12-C , 19-C ) :   1.3658
B( 13-C , 14-C ) :   1.5901 B( 14-C , 15-C ) :   1.1518 B( 14-C , 17-C ) :   1.1680
B( 15-C , 16-N ) :   2.9560 B( 17-C , 18-N ) :   2.9230 B( 19-C , 20-C ) :   1.4135
B( 19-C , 82-H ) :   0.9200 B( 20-C , 21-S ) :   1.0611 B( 20-C , 24-C ) :   1.1847
B( 21-S , 22-C ) :   1.2711 B( 22-C , 23-C ) :   1.2408 B( 22-C , 30-C ) :   1.0660
B( 23-C , 24-C ) :   1.2450 B( 23-C , 29-C ) :   1.2416 B( 24-C , 25-C ) :   1.2762
B( 25-C , 26-C ) :   1.0920 B( 25-C , 27-C ) :   1.4916 B( 26-C , 83-H ) :   0.9384
B( 26-C , 84-H ) :   0.9375 B( 26-C , 85-H ) :   0.9103 B( 27-C , 28-C ) :   1.2646
B( 27-C , 86-H ) :   0.9868 B( 28-C , 29-C ) :   1.4770 B( 28-C , 87-H ) :   0.9883
B( 29-C , 88-H ) :   0.9928 B( 30-C , 31-C ) :   1.4806 B( 30-C , 47-C ) :   1.1288
B( 31-C , 32-C ) :   1.1502 B( 31-C , 89-H ) :   0.9875 B( 32-C , 33-C ) :   1.4632
B( 32-C , 45-C ) :   1.1159 B( 33-C , 34-C ) :   1.0093 B( 33-C , 39-C ) :   1.1241
B( 34-C , 35-C ) :   1.0100 B( 34-C , 37-C ) :   1.0342 B( 34-C , 90-H ) :   0.8989
B( 35-C , 36-N ) :   1.1071 B( 35-C , 91-H ) :   0.9419 B( 35-C , 92-H ) :   0.9351
B( 36-N , 93-H ) :   0.9673 B( 36-N , 94-H ) :   0.9682 B( 37-C , 38-N ) :   1.0740
B( 37-C , 95-H ) :   0.9555 B( 37-C , 96-H ) :   0.9237 B( 38-N , 97-H ) :   0.9707
B( 38-N , 98-H ) :   0.9669 B( 39-C , 40-C ) :   1.6857 B( 39-C , 44-C ) :   1.0555
B( 40-C , 41-C ) :   0.9587 B( 40-C , 99-H ) :   0.9396 B( 41-C , 42-C ) :   1.0040
B( 41-C , 48-C ) :   0.9673 B( 41-C ,100-H ) :   0.8411 B( 42-C , 43-C ) :   1.7196
B( 42-C ,101-H ) :   0.9680 B( 43-C , 44-C ) :   1.1202 B( 43-C ,102-H ) :   0.9922
B( 44-C , 45-C ) :   1.4407 B( 45-C , 46-C ) :   1.1424 B( 46-C , 47-C ) :   1.6090
B( 46-C ,103-H ) :   0.9930 B( 47-C ,104-H ) :   0.9830 B( 48-C , 49-C ) :   1.9010
B( 48-C ,105-H ) :   0.9679 B( 49-C , 50-C ) :   1.0076 B( 49-C ,106-H ) :   0.9303
B( 50-C , 51-S ) :   1.2445 B( 50-C , 54-C ) :   1.3582 B( 51-S , 52-C ) :   1.1099
B( 52-C , 53-C ) :   1.2764 B( 52-C , 60-C ) :   1.2369 B( 53-C , 54-C ) :   1.2186
B( 53-C , 59-C ) :   1.2661 B( 54-C , 55-C ) :   1.2117 B( 55-C , 56-C ) :   1.0913
B( 55-C , 57-C ) :   1.5346 B( 56-C ,107-H ) :   0.9381 B( 56-C ,108-H ) :   0.9442
B( 56-C ,109-H ) :   0.9443 B( 57-C , 58-C ) :   1.2331 B( 57-C ,110-H ) :   0.9904
B( 58-C , 59-C ) :   1.4845 B( 58-C ,111-H ) :   0.9878 B( 59-C ,112-H ) :   0.9813
B( 60-C , 61-C ) :   1.5416 B( 60-C ,113-H ) :   0.9274 B( 61-C , 62-C ) :   0.9653
B( 61-C , 70-C ) :   1.0975 B( 62-C , 63-O ) :   2.2721 B( 62-C , 64-C ) :   0.8954
B( 64-C , 65-C ) :   1.3754 B( 64-C , 69-C ) :   1.3354 B( 65-C , 66-C ) :   1.3569
B( 65-C ,114-H ) :   1.0149 B( 66-C , 67-C ) :   1.4094 B( 66-C , 78-C ) :   1.0878
B( 67-C , 68-C ) :   1.3791 B( 67-C , 76-C ) :   1.0872 B( 68-C , 69-C ) :   1.3697
B( 68-C ,115-H ) :   0.9894 B( 69-C , 70-C ) :   0.9712 B( 70-C , 71-C ) :   1.6189
B( 71-C , 72-C ) :   1.1703 B( 71-C , 74-C ) :   1.1446 B( 72-C , 73-N ) :   2.9999
B( 74-C , 75-N ) :   2.9744 B( 76-C , 77-N ) :   3.0465 B( 78-C , 79-N ) :   3.0454

-----------------------------------------------------------------------------
         ABSORPTION SPECTRUM VIA TRANSITION ELECTRIC DIPOLE MOMENTS
-----------------------------------------------------------------------------
State   Energy  Wavelength   fosc         T2         TX        TY        TZ
        (cm-1)    (nm)                  (au**2)     (au)      (au)      (au)
-----------------------------------------------------------------------------
   0   12704.9    787.1   0.162535427   4.21166   1.68909   0.03509   1.16507
   1   16022.8    624.1   0.356133255   7.31726   2.13481   1.13985   1.20855
   2   17433.6    573.6   0.904054567  17.07194  -3.50393  -1.65209  -1.43703
   3   18321.3    545.8   0.319322870   5.73785   2.32569  -0.43288   0.37634
   4   19222.2    520.2   0.066274072   1.13505  -0.24261  -1.01477  -0.21550
   5   19324.6    517.5   0.079111298   1.34773  -1.02789  -0.53949   0.01132
   6   22839.4    437.8   0.200436881   2.88914  -1.33256  -0.23443  -1.02882
   7   23838.9    419.5   0.006947922   0.09595   0.17543  -0.24656   0.06620
   8   23879.5    418.8   0.000961226   0.01325   0.06393   0.06886  -0.06650
   9   25489.0    392.3   0.145039335   1.87331   0.12050   0.72124  -1.15698
  10   26482.2    377.6   0.084754307   1.05362  -0.13816   0.41262  -0.92967
  11   26975.6    370.7   0.085441641   1.04273  -0.02100  -0.40598   0.93674
  12   27327.5    365.9   0.003656587   0.04405   0.17516   0.07257  -0.09002
  13   27732.2    360.6   0.053508078   0.63520  -0.08386  -0.49145  -0.62181
  14   28277.6    353.6   0.141884635   1.65184  -0.61090  -0.96870   0.58333
  15   28780.0    347.5   0.026157201   0.29921  -0.01651   0.05115  -0.54435
  16   29337.6    340.9   0.095158348   1.06782  -0.34578  -0.35506  -0.90675
  17   29469.7    339.3   0.014121997   0.15776  -0.16299  -0.35968  -0.04272
  18   30133.8    331.9   0.194023948   2.11971   0.32188  -0.52496   1.31929
  19   30237.8    330.7   0.026491204   0.28842  -0.38597   0.06836  -0.36712
  20   30312.0    329.9   0.043770272   0.47538   0.09110   0.08426   0.67822
  21   30561.9    327.2   0.067047549   0.72224  -0.39562  -0.66410  -0.35311
  22   31530.6    317.2   0.057195432   0.59718   0.35427   0.16476   0.66673
  23   31722.5    315.2   0.077731359   0.80669  -0.40777  -0.04548  -0.79896
  24   31772.9    314.7   0.011479499   0.11894   0.01081  -0.15263   0.30908
  25   32043.9    312.1   0.000696570   0.00716  -0.06937   0.03727  -0.03092
  26   32278.9    309.8   0.063842914   0.65113   0.01738  -0.77455  -0.22562
  27   32512.9    307.6   0.010571127   0.10704   0.25476  -0.06440   0.19490
  28   32662.9    306.2   0.029340641   0.29573   0.51416  -0.08407   0.15587
  29   32845.9    304.5   0.030371159   0.30441   0.20457  -0.28988   0.42253
  30   32957.5    303.4   0.089413232   0.89315  -0.02746  -0.65519   0.68053
  31   33462.3    298.8   0.090937649   0.89467   0.21181  -0.24856   0.88771
  32   33986.9    294.2   0.206041997   1.99581   0.97985   0.73604   0.70282
  33   34289.7    291.6   0.514456393   4.93925  -1.32907   0.67745  -1.64739
  34   34688.3    288.3   0.127087365   1.20613  -0.55566  -0.93893   0.12563
  35   35054.1    285.3   0.035913957   0.33729   0.14662  -0.26807   0.49389
  36   35135.0    284.6   0.128815837   1.20699  -0.33848   0.57710  -0.87142
  37   35575.8    281.1   0.080221263   0.74235   0.39659  -0.04784   0.76340
  38   35830.9    279.1   0.046534453   0.42756   0.32057  -0.32994   0.46469
  39   36081.1    277.2   0.084998692   0.77555   0.30462   0.15076   0.81242
  40   36619.4    273.1   0.071719970   0.64477   0.75320   0.27822  -0.00677
  41   36686.1    272.6   0.100616515   0.90291  -0.66077   0.11915  -0.67238
  42   36901.2    271.0   0.024896183   0.22211  -0.28197  -0.36961   0.07741
  43   37188.6    268.9   0.099317821   0.87921  -0.24991   0.54861  -0.71818
  44   37289.9    268.2   0.015894012   0.14032   0.16572  -0.27699   0.19008
  45   37394.3    267.4   0.007615896   0.06705  -0.02918  -0.21564   0.14035
  46   37519.5    266.5   0.048684198   0.42718   0.45164   0.47243  -0.00160
  47   37828.7    264.3   0.126193258   1.09822  -0.15052   0.58684  -0.85509
  48   38062.2    262.7   0.199637295   1.72673   0.71569  -0.21443   1.08098
  49   38228.4    261.6   0.000845557   0.00728   0.06520  -0.05504   0.00098
  50   38359.0    260.7   0.253435236   2.17508   0.02677   0.97667  -1.10475
  51   38625.6    258.9   0.021886063   0.18654   0.18699   0.38657  -0.04624
  52   38788.1    257.8   0.058418708   0.49583   0.30746  -0.63316   0.02024
  53   38970.3    256.6   0.032393773   0.27365  -0.33214  -0.01853  -0.40373
  54   39202.1    255.1   0.069241937   0.58148   0.24289  -0.32119   0.64755
  55   39423.0    253.7   0.171750381   1.43425   0.87945   0.11104   0.80529
  56   39500.0    253.2   0.074403699   0.62012  -0.74002   0.24044  -0.12115
  57   39616.4    252.4   0.043191212   0.35892  -0.04359   0.17193   0.57224
  58   39747.7    251.6   0.008092164   0.06702  -0.10151  -0.15595  -0.17999
  59   39964.4    250.2   0.000697623   0.00575   0.04192   0.02725  -0.05698
  60   40322.3    248.0   0.026245079   0.21428   0.40490  -0.18389   0.12850

FINAL SINGLE POINT ENERGY     -4026.442252160837

DIPOLE MOMENT
-------------
                                X             Y             Z
Electronic contribution:     20.82739      -2.94464      13.60103
Nuclear contribution   :    -20.33701       5.95599     -12.88545
                        -----------------------------------------
Total Dipole Moment    :      0.49038       3.01135       0.71557
                        -----------------------------------------
Magnitude (a.u.)       :      3.13380
Magnitude (Debye)      :      7.96550

Rotational constants in cm-1:     0.001872     0.000190     0.000181
Rotational constants in MHz :    56.107664     5.704940     5.438444

                             ****ORCA TERMINATED NORMALLY****
TOTAL RUN TIME: 0 days 0 hours 13 minutes 15 seconds 75 msec
