                         Program Version 4.2.0 -  RELEASE  -
|  1> # ORCA input file
|  2> # SCF done       -210.926667985455          0.000946577820
|  3> ! CAM-B3LYP def2-SVP def2/J RIJCOSX Grid4 TightSCF
|  4> %maxcore 5000
|  5> %tddft
|  6>     Mode sTDDFT
|  7>     Ethresh 5.0
|  8>     maxcore 5000
|  9> end
| 10>
| 11> %pal
| 12>   nprocs 6
| 13>   end
| 14> * xyz 0 1
| 15>    C       -1.04695        -0.12968        -2.25081
| 16>    C       -0.57763         1.16788        -2.37700
| 17>    C       -0.65008         1.78171        -3.62842
| 18>    C       -0.17969         3.11007        -3.77920
| 19>    N        0.20017         4.18394        -3.89224
| 20>    C       -1.18483         1.10766        -4.74362
| 21>    C       -1.24258         1.75650        -6.00050
| 22>    N       -1.29754         2.26401        -7.02535
| 23>    C       -1.66164        -0.19696        -4.60992
| 24>    C       -1.58495        -0.79256        -3.36882
| 25>    C       -2.03104        -2.15395        -2.98459
| 26>    O       -2.55299        -2.95652        -3.72347
| 27>    C       -1.77275        -2.25146        -1.52608
| 28>    C       -1.10764        -1.02946        -1.10149
| 29>    C       -0.54762        -0.79011         0.12401
| 30>    C        0.12253         0.40434         0.46790
| 31>    N        0.67158         1.35487         0.80118
| 32>    C       -0.52525        -1.70614         1.19929
| 33>    N       -0.44806        -2.40067         2.10989
| 34>    C       -2.25809        -3.19947        -0.67505
| 35>    C       -2.82262        -4.48365        -0.96535
| 36>    C       -3.73011        -5.02311        -0.03073
| 37>    C       -4.27713        -6.26107        -0.24848
| 38>    C       -3.93700        -6.98671        -1.40808
| 39>    C       -3.00974        -6.48617        -2.31233
| 40>    C       -2.45465        -5.24503        -2.08565
| 41>    C       -4.70350        -8.21154        -1.42640
| 42>    C       -5.52232        -8.24269        -0.28475
| 43>    C       -5.26305        -7.03777         0.59383
| 44>    C       -4.61160        -7.56488         1.89601
| 45>    C       -4.08034        -6.50490         2.85146
| 46>    C       -6.54232        -6.23851         0.88140
| 47>    C       -7.26674        -5.82361        -0.39426
| 48>    C       -6.37286        -9.29850        -0.06117
| 49>    C       -6.41566       -10.34991        -0.98668
| 50>    C       -5.58934       -10.31039        -2.11558
| 51>    C       -4.73707        -9.25070        -2.34583
| 52>    C       -7.29351       -11.47919        -0.77094
| 53>    S       -7.07316       -12.95870        -1.67347
| 54>    C       -8.37966       -13.74661        -0.86454
| 55>    C       -8.94899       -12.88415         0.05507
| 56>    C       -8.33604       -11.60990         0.09951
| 57>    N       -9.97703       -13.21836         0.97976
| 58>    O      -10.24755       -14.39042         1.15160
| 59>    O      -10.50692       -12.29599         1.56831
| 60>    C       -8.71621       -15.10456        -1.24851
| 61>    C       -7.67067       -16.00559        -1.48332
| 62>    C       -7.96204       -17.29040        -1.87329
| 63>    C       -9.30067       -17.69843        -2.01119
| 64>    C      -10.33918       -16.80142        -1.80482
| 65>    C      -10.04181       -15.50548        -1.43373
| 66>    C       -9.32004       -19.10524        -2.34936
| 67>    C       -7.99123       -19.56336        -2.41077
| 68>    C       -7.01840       -18.43058        -2.17222
| 69>    C       -6.25055       -18.21426        -3.49978
| 70>    C       -5.40572       -16.95031        -3.58134
| 71>    C       -6.06355       -18.71414        -1.00310
| 72>    C       -6.80691       -19.02879         0.29022
| 73>    C       -7.71851       -20.86906        -2.72444
| 74>    C       -8.77979       -21.75262        -2.98449
| 75>    C      -10.10043       -21.29603        -2.86620
| 76>    C      -10.37716       -19.97824        -2.56764
| 77>    C       -8.53706       -23.12129        -3.34551
| 78>    C       -7.46512       -23.64097        -3.99595
| 79>    C       -7.19995       -25.10316        -3.93370
| 80>    O       -7.95261       -25.96841        -3.55773
| 81>    C       -5.79258       -25.25754        -4.37615
| 82>    C       -5.01353       -26.39520        -4.38277
| 83>    C       -3.69058       -26.28505        -4.81438
| 84>    C       -3.18085       -25.03777        -5.22441
| 85>    C       -3.98104       -23.89406        -5.22436
| 86>    C       -5.29423       -24.00971        -4.80090
| 87>    C       -6.36930       -23.02076        -4.71791
| 88>    C       -6.40884       -21.84269        -5.41191
| 89>    C       -7.56409       -21.04083        -5.54302
| 90>    N       -8.47380       -20.37267        -5.74710
| 91>    C       -5.31829       -21.31759        -6.13649
| 92>    N       -4.44522       -20.83475        -6.70332
| 93>    C       -1.82945       -24.93959        -5.63990
| 94>    N       -0.73816       -24.84691        -5.97251
| 95>    C       -2.85464       -27.42770        -4.83243
| 96>    N       -2.19253       -28.36180        -4.84104
| 97>    H       -0.16718         1.71743        -1.54495
| 98>    H       -2.07904        -0.72665        -5.45284
| 99>    H       -2.25348        -2.94932         0.38035
|100>    H       -4.00859        -4.43127         0.82824
|101>    H       -2.72707        -7.05766        -3.18286
|102>    H       -1.71155        -4.86508        -2.76570
|103>    H       -3.78787        -8.22645         1.61470
|104>    H       -5.35756        -8.17071         2.41487
|105>    H       -3.25468        -5.95618         2.40703
|106>    H       -3.71253        -6.98976         3.75290
|107>    H       -4.85847        -5.80446         3.14223
|108>    H       -6.28496        -5.34528         1.45152
|109>    H       -7.20772        -6.84792         1.49597
|110>    H       -6.62452        -5.20600        -1.01863
|111>    H       -8.15883        -5.25261        -0.14843
|112>    H       -7.56580        -6.69655        -0.97029
|113>    H       -6.99486        -9.32927         0.81924
|114>    H       -5.62991       -11.12804        -2.82102
|115>    H       -4.11002        -9.23368        -3.22376
|116>    H       -8.68386       -10.84434         0.76815
|117>    H       -6.65315       -15.68369        -1.32072
|118>    H      -11.36598       -17.10774        -1.92925
|119>    H      -10.84116       -14.79613        -1.28931
|120>    H       -6.98130       -18.20083        -4.31282
|121>    H       -5.60418       -19.08209        -3.65396
|122>    H       -6.03060       -16.06196        -3.55142
|123>    H       -4.86099       -16.94839        -4.52267
|124>    H       -4.68053       -16.90291        -2.77316
|125>    H       -5.42467       -17.84453        -0.84543
|126>    H       -5.42081       -19.55642        -1.26887
|127>    H       -7.44022       -18.19444         0.58299
|128>    H       -6.09791       -19.22017         1.09218
|129>    H       -7.43577       -19.90847         0.17048
|130>    H       -6.70135       -21.23380        -2.73736
|131>    H      -10.90779       -21.98764        -3.05519
|132>    H      -11.39789       -19.63430        -2.50571
|133>    H       -9.27262       -23.84888        -3.01635
|134>    H       -5.41560       -27.34389        -4.06113
|135>    H       -3.55830       -22.95331        -5.54063
|136> *
|137>
|138>                          ****END OF INPUT****

CARTESIAN COORDINATES (ANGSTROEM)
---------------------------------
  C     -1.046950   -0.129680   -2.250810
  C     -0.577630    1.167880   -2.377000
  C     -0.650080    1.781710   -3.628420
  C     -0.179690    3.110070   -3.779200
  N      0.200170    4.183940   -3.892240
  C     -1.184830    1.107660   -4.743620
  C     -1.242580    1.756500   -6.000500
  N     -1.297540    2.264010   -7.025350
  C     -1.661640   -0.196960   -4.609920
  C     -1.584950   -0.792560   -3.368820
  C     -2.031040   -2.153950   -2.984590
  O     -2.552990   -2.956520   -3.723470
  C     -1.772750   -2.251460   -1.526080
  C     -1.107640   -1.029460   -1.101490
  C     -0.547620   -0.790110    0.124010
  C      0.122530    0.404340    0.467900
  N      0.671580    1.354870    0.801180
  C     -0.525250   -1.706140    1.199290
  N     -0.448060   -2.400670    2.109890
  C     -2.258090   -3.199470   -0.675050
  C     -2.822620   -4.483650   -0.965350
  C     -3.730110   -5.023110   -0.030730
  C     -4.277130   -6.261070   -0.248480
  C     -3.937000   -6.986710   -1.408080
  C     -3.009740   -6.486170   -2.312330
  C     -2.454650   -5.245030   -2.085650
  C     -4.703500   -8.211540   -1.426400
  C     -5.522320   -8.242690   -0.284750
  C     -5.263050   -7.037770    0.593830
  C     -4.611600   -7.564880    1.896010
  C     -4.080340   -6.504900    2.851460
  C     -6.542320   -6.238510    0.881400
  C     -7.266740   -5.823610   -0.394260
  C     -6.372860   -9.298500   -0.061170
  C     -6.415660  -10.349910   -0.986680
  C     -5.589340  -10.310390   -2.115580
  C     -4.737070   -9.250700   -2.345830
  C     -7.293510  -11.479190   -0.770940
  S     -7.073160  -12.958700   -1.673470
  C     -8.379660  -13.746610   -0.864540
  C     -8.948990  -12.884150    0.055070
  C     -8.336040  -11.609900    0.099510
  N     -9.977030  -13.218360    0.979760
  O    -10.247550  -14.390420    1.151600
  O    -10.506920  -12.295990    1.568310
  C     -8.716210  -15.104560   -1.248510
  C     -7.670670  -16.005590   -1.483320
  C     -7.962040  -17.290400   -1.873290
  C     -9.300670  -17.698430   -2.011190
  C    -10.339180  -16.801420   -1.804820
  C    -10.041810  -15.505480   -1.433730
  C     -9.320040  -19.105240   -2.349360
  C     -7.991230  -19.563360   -2.410770
  C     -7.018400  -18.430580   -2.172220
  C     -6.250550  -18.214260   -3.499780
  C     -5.405720  -16.950310   -3.581340
  C     -6.063550  -18.714140   -1.003100
  C     -6.806910  -19.028790    0.290220
  C     -7.718510  -20.869060   -2.724440
  C     -8.779790  -21.752620   -2.984490
  C    -10.100430  -21.296030   -2.866200
  C    -10.377160  -19.978240   -2.567640
  C     -8.537060  -23.121290   -3.345510
  C     -7.465120  -23.640970   -3.995950
  C     -7.199950  -25.103160   -3.933700
  O     -7.952610  -25.968410   -3.557730
  C     -5.792580  -25.257540   -4.376150
  C     -5.013530  -26.395200   -4.382770
  C     -3.690580  -26.285050   -4.814380
  C     -3.180850  -25.037770   -5.224410
  C     -3.981040  -23.894060   -5.224360
  C     -5.294230  -24.009710   -4.800900
  C     -6.369300  -23.020760   -4.717910
  C     -6.408840  -21.842690   -5.411910
  C     -7.564090  -21.040830   -5.543020
  N     -8.473800  -20.372670   -5.747100
  C     -5.318290  -21.317590   -6.136490
  N     -4.445220  -20.834750   -6.703320
  C     -1.829450  -24.939590   -5.639900
  N     -0.738160  -24.846910   -5.972510
  C     -2.854640  -27.427700   -4.832430
  N     -2.192530  -28.361800   -4.841040
  H     -0.167180    1.717430   -1.544950
  H     -2.079040   -0.726650   -5.452840
  H     -2.253480   -2.949320    0.380350
  H     -4.008590   -4.431270    0.828240
  H     -2.727070   -7.057660   -3.182860
  H     -1.711550   -4.865080   -2.765700
  H     -3.787870   -8.226450    1.614700
  H     -5.357560   -8.170710    2.414870
  H     -3.254680   -5.956180    2.407030
  H     -3.712530   -6.989760    3.752900
  H     -4.858470   -5.804460    3.142230
  H     -6.284960   -5.345280    1.451520
  H     -7.207720   -6.847920    1.495970
  H     -6.624520   -5.206000   -1.018630
  H     -8.158830   -5.252610   -0.148430
  H     -7.565800   -6.696550   -0.970290
  H     -6.994860   -9.329270    0.819240
  H     -5.629910  -11.128040   -2.821020
  H     -4.110020   -9.233680   -3.223760
  H     -8.683860  -10.844340    0.768150
  H     -6.653150  -15.683690   -1.320720
  H    -11.365980  -17.107740   -1.929250
  H    -10.841160  -14.796130   -1.289310
  H     -6.981300  -18.200830   -4.312820
  H     -5.604180  -19.082090   -3.653960
  H     -6.030600  -16.061960   -3.551420
  H     -4.860990  -16.948390   -4.522670
  H     -4.680530  -16.902910   -2.773160
  H     -5.424670  -17.844530   -0.845430
  H     -5.420810  -19.556420   -1.268870
  H     -7.440220  -18.194440    0.582990
  H     -6.097910  -19.220170    1.092180
  H     -7.435770  -19.908470    0.170480
  H     -6.701350  -21.233800   -2.737360
  H    -10.907790  -21.987640   -3.055190
  H    -11.397890  -19.634300   -2.505710
  H     -9.272620  -23.848880   -3.016350
  H     -5.415600  -27.343890   -4.061130
  H     -3.558300  -22.953310   -5.540630

 Total Charge           Charge          ....    0
 Multiplicity           Mult            ....    1
 Number of Electrons    NEL             ....  558
 Basis Dimension        Dim             .... 1347

ORBITAL ENERGIES
----------------

  NO   OCC          E(Eh)            E(eV)
   0   2.0000     -88.987028     -2421.4601
   1   2.0000     -19.246652      -523.7280
   2   2.0000     -19.245742      -523.7033
   3   2.0000     -19.241102      -523.5770
   4   2.0000     -19.240960      -523.5731
   5   2.0000     -14.655152      -398.7870
   6   2.0000     -14.439380      -392.9155
   7   2.0000     -14.435599      -392.8126
   8   2.0000     -14.434752      -392.7896
   9   2.0000     -14.434263      -392.7763
  10   2.0000     -14.432971      -392.7411
  11   2.0000     -14.432838      -392.7375
  12   2.0000     -14.431474      -392.7004
  13   2.0000     -14.430060      -392.6619
  14   2.0000     -10.393693      -282.8268
  15   2.0000     -10.392287      -282.7885
  16   2.0000     -10.370237      -282.1885
  17   2.0000     -10.367580      -282.1162
  18   2.0000     -10.366952      -282.0991
  19   2.0000     -10.365890      -282.0702
  20   2.0000     -10.364767      -282.0397
  21   2.0000     -10.363530      -282.0060
  22   2.0000     -10.363201      -281.9970
  23   2.0000     -10.362719      -281.9839
  24   2.0000     -10.346231      -281.5353
  25   2.0000     -10.342848      -281.4432
  26   2.0000     -10.342104      -281.4229
  27   2.0000     -10.340568      -281.3812
  28   2.0000     -10.340065      -281.3675
  29   2.0000     -10.339624      -281.3555
  30   2.0000     -10.337351      -281.2936
  31   2.0000     -10.337336      -281.2932
  32   2.0000     -10.337299      -281.2922
  33   2.0000     -10.337221      -281.2901
  34   2.0000     -10.337082      -281.2863
  35   2.0000     -10.336203      -281.2624
  36   2.0000     -10.336098      -281.2595
  37   2.0000     -10.335104      -281.2325
  38   2.0000     -10.330886      -281.1177
  39   2.0000     -10.329412      -281.0776
  40   2.0000     -10.329069      -281.0682
  41   2.0000     -10.328068      -281.0410
  42   2.0000     -10.327922      -281.0370
  43   2.0000     -10.327289      -281.0198
  44   2.0000     -10.326292      -280.9927
  45   2.0000     -10.318211      -280.7728
  46   2.0000     -10.317471      -280.7527
  47   2.0000     -10.310200      -280.5548
  48   2.0000     -10.306661      -280.4585
  49   2.0000     -10.306434      -280.4523
  50   2.0000     -10.305862      -280.4368
  51   2.0000     -10.301983      -280.3312
  52   2.0000     -10.301774      -280.3255
  53   2.0000     -10.300479      -280.2903
  54   2.0000     -10.298821      -280.2452
  55   2.0000     -10.298803      -280.2447
  56   2.0000     -10.298016      -280.2233
  57   2.0000     -10.297952      -280.2215
  58   2.0000     -10.297662      -280.2136
  59   2.0000     -10.296704      -280.1876
  60   2.0000     -10.295841      -280.1641
  61   2.0000     -10.293971      -280.1132
  62   2.0000     -10.293638      -280.1041
  63   2.0000     -10.293168      -280.0913
  64   2.0000     -10.292758      -280.0802
  65   2.0000     -10.292517      -280.0736
  66   2.0000     -10.292252      -280.0664
  67   2.0000     -10.292146      -280.0635
  68   2.0000     -10.291470      -280.0451
  69   2.0000     -10.291302      -280.0406
  70   2.0000     -10.290629      -280.0222
  71   2.0000     -10.290087      -280.0075
  72   2.0000     -10.289079      -279.9801
  73   2.0000     -10.288522      -279.9649
  74   2.0000     -10.279980      -279.7325
  75   2.0000     -10.279799      -279.7276
  76   2.0000     -10.278878      -279.7025
  77   2.0000     -10.278146      -279.6826
  78   2.0000     -10.264741      -279.3178
  79   2.0000     -10.264158      -279.3019
  80   2.0000     -10.262091      -279.2457
  81   2.0000     -10.260347      -279.1982
  82   2.0000      -8.082421      -219.9339
  83   2.0000      -6.051594      -164.6722
  84   2.0000      -6.047419      -164.5586
  85   2.0000      -6.044744      -164.4858
  86   2.0000      -1.327441       -36.1215
  87   2.0000      -1.157254       -31.4905
  88   2.0000      -1.156750       -31.4768
  89   2.0000      -1.145194       -31.1623
  90   2.0000      -1.048791       -28.5391
  91   2.0000      -1.046276       -28.4706
  92   2.0000      -1.033717       -28.1289
  93   2.0000      -1.031794       -28.0765
  94   2.0000      -1.024415       -27.8758
  95   2.0000      -1.017163       -27.6784
  96   2.0000      -1.014658       -27.6102
  97   2.0000      -1.014563       -27.6077
  98   2.0000      -1.013308       -27.5735
  99   2.0000      -1.012211       -27.5437
 100   2.0000      -1.010763       -27.5043
 101   2.0000      -1.009981       -27.4830
 102   2.0000      -1.007476       -27.4148
 103   2.0000      -0.985528       -26.8176
 104   2.0000      -0.983826       -26.7713
 105   2.0000      -0.971877       -26.4461
 106   2.0000      -0.966807       -26.3082
 107   2.0000      -0.945933       -25.7402
 108   2.0000      -0.938264       -25.5314
 109   2.0000      -0.932030       -25.3618
 110   2.0000      -0.929823       -25.3018
 111   2.0000      -0.916448       -24.9378
 112   2.0000      -0.915862       -24.9219
 113   2.0000      -0.911992       -24.8166
 114   2.0000      -0.909526       -24.7495
 115   2.0000      -0.907132       -24.6843
 116   2.0000      -0.898256       -24.4428
 117   2.0000      -0.886754       -24.1298
 118   2.0000      -0.869702       -23.6658
 119   2.0000      -0.858470       -23.3602
 120   2.0000      -0.857020       -23.3207
 121   2.0000      -0.855948       -23.2915
 122   2.0000      -0.851189       -23.1620
 123   2.0000      -0.850819       -23.1520
 124   2.0000      -0.850023       -23.1303
 125   2.0000      -0.848789       -23.0967
 126   2.0000      -0.832880       -22.6638
 127   2.0000      -0.816102       -22.2073
 128   2.0000      -0.814055       -22.1516
 129   2.0000      -0.810476       -22.0542
 130   2.0000      -0.806758       -21.9530
 131   2.0000      -0.784957       -21.3598
 132   2.0000      -0.783198       -21.3119
 133   2.0000      -0.776924       -21.1412
 134   2.0000      -0.763595       -20.7785
 135   2.0000      -0.758944       -20.6519
 136   2.0000      -0.752977       -20.4896
 137   2.0000      -0.740387       -20.1470
 138   2.0000      -0.736139       -20.0314
 139   2.0000      -0.728646       -19.8275
 140   2.0000      -0.721096       -19.6220
 141   2.0000      -0.716955       -19.5093
 142   2.0000      -0.715248       -19.4629
 143   2.0000      -0.707661       -19.2564
 144   2.0000      -0.706170       -19.2159
 145   2.0000      -0.702584       -19.1183
 146   2.0000      -0.699058       -19.0223
 147   2.0000      -0.695869       -18.9356
 148   2.0000      -0.689564       -18.7640
 149   2.0000      -0.687347       -18.7037
 150   2.0000      -0.684325       -18.6214
 151   2.0000      -0.677413       -18.4333
 152   2.0000      -0.665490       -18.1089
 153   2.0000      -0.664218       -18.0743
 154   2.0000      -0.662455       -18.0263
 155   2.0000      -0.660954       -17.9855
 156   2.0000      -0.651767       -17.7355
 157   2.0000      -0.643267       -17.5042
 158   2.0000      -0.637347       -17.3431
 159   2.0000      -0.636088       -17.3088
 160   2.0000      -0.625725       -17.0268
 161   2.0000      -0.622534       -16.9400
 162   2.0000      -0.616890       -16.7864
 163   2.0000      -0.613415       -16.6919
 164   2.0000      -0.610968       -16.6253
 165   2.0000      -0.608637       -16.5619
 166   2.0000      -0.604626       -16.4527
 167   2.0000      -0.601008       -16.3543
 168   2.0000      -0.591662       -16.1000
 169   2.0000      -0.589546       -16.0424
 170   2.0000      -0.585859       -15.9420
 171   2.0000      -0.581749       -15.8302
 172   2.0000      -0.574469       -15.6321
 173   2.0000      -0.571824       -15.5601
 174   2.0000      -0.567759       -15.4495
 175   2.0000      -0.566593       -15.4178
 176   2.0000      -0.564989       -15.3741
 177   2.0000      -0.561597       -15.2818
 178   2.0000      -0.560928       -15.2636
 179   2.0000      -0.559796       -15.2328
 180   2.0000      -0.555410       -15.1135
 181   2.0000      -0.552887       -15.0448
 182   2.0000      -0.549967       -14.9654
 183   2.0000      -0.547458       -14.8971
 184   2.0000      -0.544565       -14.8184
 185   2.0000      -0.542108       -14.7515
 186   2.0000      -0.541067       -14.7232
 187   2.0000      -0.539309       -14.6753
 188   2.0000      -0.538653       -14.6575
 189   2.0000      -0.537015       -14.6129
 190   2.0000      -0.536665       -14.6034
 191   2.0000      -0.534482       -14.5440
 192   2.0000      -0.532131       -14.4800
 193   2.0000      -0.528196       -14.3729
 194   2.0000      -0.527677       -14.3588
 195   2.0000      -0.524677       -14.2772
 196   2.0000      -0.522978       -14.2310
 197   2.0000      -0.521049       -14.1785
 198   2.0000      -0.519401       -14.1336
 199   2.0000      -0.515332       -14.0229
 200   2.0000      -0.513162       -13.9638
 201   2.0000      -0.511396       -13.9158
 202   2.0000      -0.510097       -13.8804
 203   2.0000      -0.506470       -13.7818
 204   2.0000      -0.499534       -13.5930
 205   2.0000      -0.496460       -13.5094
 206   2.0000      -0.496098       -13.4995
 207   2.0000      -0.493698       -13.4342
 208   2.0000      -0.490962       -13.3598
 209   2.0000      -0.486416       -13.2360
 210   2.0000      -0.485952       -13.2234
 211   2.0000      -0.480508       -13.0753
 212   2.0000      -0.473961       -12.8971
 213   2.0000      -0.472329       -12.8527
 214   2.0000      -0.469828       -12.7847
 215   2.0000      -0.469070       -12.7640
 216   2.0000      -0.467460       -12.7202
 217   2.0000      -0.466551       -12.6955
 218   2.0000      -0.465471       -12.6661
 219   2.0000      -0.463954       -12.6248
 220   2.0000      -0.462418       -12.5830
 221   2.0000      -0.462094       -12.5742
 222   2.0000      -0.461707       -12.5637
 223   2.0000      -0.461271       -12.5518
 224   2.0000      -0.458407       -12.4739
 225   2.0000      -0.457954       -12.4616
 226   2.0000      -0.456983       -12.4351
 227   2.0000      -0.456767       -12.4293
 228   2.0000      -0.456653       -12.4262
 229   2.0000      -0.456244       -12.4150
 230   2.0000      -0.454254       -12.3609
 231   2.0000      -0.452253       -12.3064
 232   2.0000      -0.450779       -12.2663
 233   2.0000      -0.449612       -12.2346
 234   2.0000      -0.447835       -12.1862
 235   2.0000      -0.446856       -12.1596
 236   2.0000      -0.446024       -12.1369
 237   2.0000      -0.445596       -12.1253
 238   2.0000      -0.444486       -12.0951
 239   2.0000      -0.443502       -12.0683
 240   2.0000      -0.442329       -12.0364
 241   2.0000      -0.438780       -11.9398
 242   2.0000      -0.438545       -11.9334
 243   2.0000      -0.437146       -11.8954
 244   2.0000      -0.432986       -11.7822
 245   2.0000      -0.432125       -11.7587
 246   2.0000      -0.430584       -11.7168
 247   2.0000      -0.430150       -11.7050
 248   2.0000      -0.428670       -11.6647
 249   2.0000      -0.427576       -11.6349
 250   2.0000      -0.425251       -11.5717
 251   2.0000      -0.422934       -11.5086
 252   2.0000      -0.412211       -11.2168
 253   2.0000      -0.409187       -11.1345
 254   2.0000      -0.405822       -11.0430
 255   2.0000      -0.404435       -11.0052
 256   2.0000      -0.401685       -10.9304
 257   2.0000      -0.398393       -10.8408
 258   2.0000      -0.397511       -10.8168
 259   2.0000      -0.393358       -10.7038
 260   2.0000      -0.388238       -10.5645
 261   2.0000      -0.385786       -10.4978
 262   2.0000      -0.377368       -10.2687
 263   2.0000      -0.374288       -10.1849
 264   2.0000      -0.373949       -10.1757
 265   2.0000      -0.368812       -10.0359
 266   2.0000      -0.364868        -9.9286
 267   2.0000      -0.362692        -9.8693
 268   2.0000      -0.355523        -9.6743
 269   2.0000      -0.351947        -9.5770
 270   2.0000      -0.344892        -9.3850
 271   2.0000      -0.341907        -9.3038
 272   2.0000      -0.340312        -9.2604
 273   2.0000      -0.336549        -9.1580
 274   2.0000      -0.334613        -9.1053
 275   2.0000      -0.330827        -9.0023
 276   2.0000      -0.319834        -8.7031
 277   2.0000      -0.292798        -7.9674
 278   2.0000      -0.274563        -7.4712
 279   0.0000      -0.114343        -3.1114
 280   0.0000      -0.112705        -3.0669
 281   0.0000      -0.097156        -2.6438
 282   0.0000      -0.095731        -2.6050
 283   0.0000      -0.065066        -1.7705

MULLIKEN ATOMIC CHARGES
-----------------------
   0 C :    0.050184
   1 C :   -0.039940
   2 C :   -0.063878
   3 C :   -0.172528
   4 N :    0.204928
   5 C :   -0.066768
   6 C :   -0.172854
   7 N :    0.198986
   8 C :   -0.032296
   9 C :   -0.010342
  10 C :    0.149037
  11 O :   -0.127438
  12 C :   -0.076576
  13 C :    0.295040
  14 C :   -0.331971
  15 C :   -0.186646
  16 N :    0.170503
  17 C :   -0.201589
  18 N :    0.174161
  19 C :   -0.032370
  20 C :    0.081664
  21 C :   -0.093974
  22 C :    0.023521
  23 C :    0.119165
  24 C :   -0.063661
  25 C :    0.065996
  26 C :    0.096790
  27 C :    0.023343
  28 C :   -0.134336
  29 C :    0.075231
  30 C :    0.028451
  31 C :    0.050024
  32 C :    0.022991
  33 C :   -0.104528
  34 C :    0.171188
  35 C :   -0.049010
  36 C :   -0.038800
  37 C :   -0.064290
  38 S :    0.156323
  39 C :   -0.163548
  40 C :    0.190413
  41 C :   -0.045148
  42 N :    0.251841
  43 O :   -0.235099
  44 O :   -0.242280
  45 C :    0.080099
  46 C :   -0.104954
  47 C :    0.025019
  48 C :    0.107857
  49 C :   -0.063477
  50 C :    0.053358
  51 C :    0.127087
  52 C :    0.014878
  53 C :   -0.131870
  54 C :    0.060276
  55 C :    0.029629
  56 C :    0.054196
  57 C :    0.022109
  58 C :   -0.078663
  59 C :    0.056181
  60 C :    0.024763
  61 C :   -0.042155
  62 C :    0.044895
  63 C :   -0.125386
  64 C :    0.143299
  65 O :   -0.123496
  66 C :    0.008576
  67 C :   -0.034886
  68 C :   -0.066457
  69 C :   -0.062319
  70 C :   -0.040613
  71 C :    0.034456
  72 C :    0.263315
  73 C :   -0.337497
  74 C :   -0.177303
  75 N :    0.187245
  76 C :   -0.182257
  77 N :    0.173914
  78 C :   -0.174093
  79 N :    0.203633
  80 C :   -0.173834
  81 N :    0.199975
  82 H :    0.021613
  83 H :    0.016555
  84 H :    0.032172
  85 H :   -0.023317
  86 H :   -0.024801
  87 H :   -0.010262
  88 H :    0.007556
  89 H :    0.001135
  90 H :    0.023937
  91 H :    0.019914
  92 H :    0.006415
  93 H :    0.009405
  94 H :    0.002944
  95 H :    0.020557
  96 H :    0.016324
  97 H :    0.021221
  98 H :   -0.033164
  99 H :   -0.010288
 100 H :   -0.025608
 101 H :    0.002322
 102 H :   -0.024505
 103 H :   -0.024991
 104 H :   -0.019889
 105 H :    0.023841
 106 H :   -0.003042
 107 H :    0.016914
 108 H :    0.023609
 109 H :    0.004724
 110 H :    0.009633
 111 H :   -0.002328
 112 H :    0.027808
 113 H :    0.014773
 114 H :    0.018361
 115 H :   -0.020314
 116 H :   -0.013100
 117 H :   -0.023124
 118 H :    0.030106
 119 H :    0.019420
 120 H :    0.022064
Sum of atomic charges:   -0.0000000

LOEWDIN ATOMIC CHARGES
----------------------
   0 C :    0.001175
   1 C :    0.034741
   2 C :   -0.023686
   3 C :   -0.031780
   4 N :   -0.009960
   5 C :   -0.028118
   6 C :   -0.032147
   7 N :   -0.012755
   8 C :    0.048660
   9 C :   -0.029140
  10 C :    0.081736
  11 O :   -0.122196
  12 C :   -0.104202
  13 C :    0.069356
  14 C :   -0.123454
  15 C :   -0.021945
  16 N :   -0.034183
  17 C :   -0.024908
  18 N :   -0.035994
  19 C :    0.094322
  20 C :   -0.047634
  21 C :    0.005467
  22 C :   -0.001989
  23 C :    0.014368
  24 C :   -0.020621
  25 C :    0.030831
  26 C :   -0.022981
  27 C :    0.016856
  28 C :   -0.034991
  29 C :   -0.008762
  30 C :   -0.057775
  31 C :   -0.014925
  32 C :   -0.056420
  33 C :   -0.014105
  34 C :   -0.029023
  35 C :   -0.028090
  36 C :   -0.004769
  37 C :   -0.157296
  38 S :    0.481358
  39 C :   -0.131355
  40 C :   -0.076447
  41 C :   -0.042323
  42 N :    0.284774
  43 O :   -0.200060
  44 O :   -0.208201
  45 C :   -0.044403
  46 C :   -0.021405
  47 C :    0.007978
  48 C :   -0.011828
  49 C :   -0.008634
  50 C :    0.007278
  51 C :    0.011198
  52 C :    0.010989
  53 C :   -0.034474
  54 C :   -0.010892
  55 C :   -0.057495
  56 C :   -0.014891
  57 C :   -0.056394
  58 C :   -0.002538
  59 C :   -0.047016
  60 C :    0.011605
  61 C :   -0.008914
  62 C :    0.097177
  63 C :   -0.100986
  64 C :    0.083881
  65 O :   -0.125004
  66 C :   -0.030849
  67 C :    0.050152
  68 C :   -0.028515
  69 C :   -0.022891
  70 C :    0.031275
  71 C :    0.003592
  72 C :    0.060725
  73 C :   -0.120937
  74 C :   -0.016799
  75 N :   -0.027220
  76 C :   -0.023470
  77 N :   -0.036121
  78 C :   -0.031730
  79 N :   -0.009862
  80 C :   -0.032493
  81 N :   -0.011924
  82 H :    0.052572
  83 H :    0.053982
  84 H :    0.046964
  85 H :    0.029852
  86 H :    0.031763
  87 H :    0.032515
  88 H :    0.027297
  89 H :    0.021711
  90 H :    0.025198
  91 H :    0.031531
  92 H :    0.021149
  93 H :    0.021216
  94 H :    0.022248
  95 H :    0.025155
  96 H :    0.027033
  97 H :    0.025153
  98 H :    0.027407
  99 H :    0.021480
 100 H :    0.031489
 101 H :    0.038592
 102 H :    0.022211
 103 H :    0.031619
 104 H :    0.029219
 105 H :    0.030654
 106 H :    0.018378
 107 H :    0.022120
 108 H :    0.032625
 109 H :    0.019931
 110 H :    0.021636
 111 H :    0.020044
 112 H :    0.027878
 113 H :    0.026437
 114 H :    0.024032
 115 H :    0.026070
 116 H :    0.033574
 117 H :    0.032565
 118 H :    0.049854
 119 H :    0.055207
 120 H :    0.052066

  Mayer bond orders larger than 0.100000
B(  0-C ,  1-C ) :   1.3547 B(  0-C ,  9-C ) :   1.3324 B(  0-C , 13-C ) :   0.9615
B(  1-C ,  2-C ) :   1.3957 B(  1-C , 82-H ) :   0.9862 B(  2-C ,  3-C ) :   1.0858
B(  2-C ,  5-C ) :   1.4021 B(  3-C ,  4-N ) :   3.0441 B(  5-C ,  6-C ) :   1.0854
B(  5-C ,  8-C ) :   1.3641 B(  6-C ,  7-N ) :   3.0446 B(  8-C ,  9-C ) :   1.3672
B(  8-C , 83-H ) :   1.0141 B(  9-C , 10-C ) :   0.9216 B( 10-C , 11-O ) :   2.2426
B( 10-C , 12-C ) :   0.9433 B( 12-C , 13-C ) :   1.0643 B( 12-C , 19-C ) :   1.5720
B( 13-C , 14-C ) :   1.6665 B( 14-C , 15-C ) :   1.1445 B( 14-C , 17-C ) :   1.1369
B( 15-C , 16-N ) :   2.9665 B( 17-C , 18-N ) :   2.9949 B( 19-C , 20-C ) :   1.1189
B( 19-C , 84-H ) :   0.9547 B( 20-C , 21-C ) :   1.2367 B( 20-C , 25-C ) :   1.3342
B( 21-C , 22-C ) :   1.4083 B( 21-C , 85-H ) :   1.0072 B( 22-C , 23-C ) :   1.3618
B( 22-C , 28-C ) :   0.9162 B( 23-C , 24-C ) :   1.3254 B( 23-C , 26-C ) :   1.0052
B( 24-C , 25-C ) :   1.4072 B( 24-C , 86-H ) :   0.9943 B( 25-C , 87-H ) :   0.9781
B( 26-C , 27-C ) :   1.3667 B( 26-C , 36-C ) :   1.3352 B( 27-C , 28-C ) :   0.9256
B( 27-C , 33-C ) :   1.3953 B( 28-C , 29-C ) :   1.0118 B( 28-C , 31-C ) :   1.0314
B( 29-C , 30-C ) :   1.1161 B( 29-C , 88-H ) :   0.9392 B( 29-C , 89-H ) :   0.9367
B( 30-C , 90-H ) :   0.9605 B( 30-C , 91-H ) :   0.9589 B( 30-C , 92-H ) :   0.9633
B( 31-C , 32-C ) :   1.1031 B( 31-C , 93-H ) :   0.9388 B( 31-C , 94-H ) :   0.9394
B( 32-C , 95-H ) :   0.9652 B( 32-C , 96-H ) :   0.9645 B( 32-C , 97-H ) :   0.9631
B( 33-C , 34-C ) :   1.3237 B( 33-C , 98-H ) :   1.0021 B( 34-C , 35-C ) :   1.3364
B( 34-C , 37-C ) :   1.0404 B( 35-C , 36-C ) :   1.4018 B( 35-C , 99-H ) :   0.9814
B( 36-C ,100-H ) :   0.9913 B( 37-C , 38-S ) :   1.0998 B( 37-C , 41-C ) :   1.5278
B( 38-S , 39-C ) :   1.1868 B( 39-C , 40-C ) :   1.5181 B( 39-C , 45-C ) :   0.9936
B( 40-C , 41-C ) :   1.2159 B( 40-C , 42-N ) :   0.9197 B( 41-C ,101-H ) :   0.9979
B( 42-N , 43-O ) :   1.5320 B( 42-N , 44-O ) :   1.5371 B( 43-O , 44-O ) :   0.2650
B( 45-C , 46-C ) :   1.3058 B( 45-C , 50-C ) :   1.3742 B( 46-C , 47-C ) :   1.3899
B( 46-C ,102-H ) :   0.9948 B( 47-C , 48-C ) :   1.3906 B( 47-C , 53-C ) :   0.9181
B( 48-C , 49-C ) :   1.3272 B( 48-C , 51-C ) :   0.9948 B( 49-C , 50-C ) :   1.4008
B( 49-C ,103-H ) :   0.9936 B( 50-C ,104-H ) :   0.9826 B( 51-C , 52-C ) :   1.3703
B( 51-C , 61-C ) :   1.3356 B( 52-C , 53-C ) :   0.9234 B( 52-C , 58-C ) :   1.4275
B( 53-C , 54-C ) :   1.0139 B( 53-C , 56-C ) :   1.0318 B( 54-C , 55-C ) :   1.1179
B( 54-C ,105-H ) :   0.9367 B( 54-C ,106-H ) :   0.9352 B( 55-C ,107-H ) :   0.9596
B( 55-C ,108-H ) :   0.9587 B( 55-C ,109-H ) :   0.9623 B( 56-C , 57-C ) :   1.1027
B( 56-C ,110-H ) :   0.9383 B( 56-C ,111-H ) :   0.9391 B( 57-C ,112-H ) :   0.9649
B( 57-C ,113-H ) :   0.9646 B( 57-C ,114-H ) :   0.9637 B( 58-C , 59-C ) :   1.2709
B( 58-C ,115-H ) :   0.9972 B( 59-C , 60-C ) :   1.3310 B( 59-C , 62-C ) :   1.0548
B( 60-C , 61-C ) :   1.3800 B( 60-C ,116-H ) :   0.9939 B( 61-C ,117-H ) :   0.9916
B( 62-C , 63-C ) :   1.6740 B( 62-C ,118-H ) :   0.9485 B( 63-C , 64-C ) :   0.9441
B( 63-C , 72-C ) :   1.0233 B( 64-C , 65-O ) :   2.2859 B( 64-C , 66-C ) :   0.8959
B( 66-C , 67-C ) :   1.3673 B( 66-C , 71-C ) :   1.3342 B( 67-C , 68-C ) :   1.3679
B( 67-C ,119-H ) :   1.0144 B( 68-C , 69-C ) :   1.4009 B( 68-C , 80-C ) :   1.0880
B( 69-C , 70-C ) :   1.3904 B( 69-C , 78-C ) :   1.0856 B( 70-C , 71-C ) :   1.3608
B( 70-C ,120-H ) :   0.9902 B( 71-C , 72-C ) :   0.9816 B( 72-C , 73-C ) :   1.6833
B( 73-C , 74-C ) :   1.1628 B( 73-C , 76-C ) :   1.1344 B( 74-C , 75-N ) :   2.9716
B( 76-C , 77-N ) :   2.9778 B( 78-C , 79-N ) :   3.0450 B( 80-C , 81-N ) :   3.0451

-----------------------------------------------------------------------------
         ABSORPTION SPECTRUM VIA TRANSITION ELECTRIC DIPOLE MOMENTS
-----------------------------------------------------------------------------
State   Energy  Wavelength   fosc         T2         TX        TY        TZ
        (cm-1)    (nm)                  (au**2)     (au)      (au)      (au)
-----------------------------------------------------------------------------
   0   20312.5    492.3   0.585403668   9.48783  -0.51562   2.72863   1.33286
   1   21763.4    459.5   1.123349379  16.99275  -2.15867  -3.51129   0.06107
   2   24769.1    403.7   0.271738567   3.61174   0.44485   1.73221  -0.64289
   3   25829.4    387.2   0.427162842   5.44446   0.49555  -2.14940  -0.76089
   4   27879.9    358.7   0.076544263   0.90385  -0.72253  -0.50109   0.36153
   5   28597.5    349.7   0.069301644   0.79780   0.41230   0.77547  -0.16262
   6   29133.9    343.2   0.083533749   0.94393  -0.03500   0.49419   0.83575
   7   29373.6    340.4   0.020037356   0.22457  -0.46362   0.08758  -0.04425
   8   30333.7    329.7   0.089178284   0.96785   0.66158   0.72783  -0.02101
   9   30820.2    324.5   0.013354141   0.14264   0.28041   0.25276  -0.01130
  10   30874.9    323.9   0.014153996   0.15092   0.25376   0.28155  -0.08518
  11   31088.4    321.7   0.131889120   1.39665   0.21484  -1.10480   0.36044
  12   32125.5    311.3   0.024467967   0.25074  -0.09002  -0.45697   0.18390
  13   32485.4    307.8   0.031793012   0.32220   0.16639   0.52766   0.12682
  14   32841.7    304.5   0.032856007   0.32936   0.25959   0.20868  -0.46735
  15   33072.5    302.4   0.036358994   0.36193  -0.08422   0.46537  -0.37183
  16   33517.1    298.4   0.233340326   2.29192  -0.54056   0.20456  -1.39924
  17   33712.7    296.6   0.224704659   2.19429  -0.82869   1.20820   0.21862
  18   34437.4    290.4   0.069021497   0.65983   0.09112   0.63657  -0.49629
  19   34653.6    288.6   0.070214443   0.66704   0.13398   0.43754  -0.67650
  20   35125.9    284.7   0.301696924   2.82761  -0.83177  -1.46132  -0.01797
  21   35257.4    283.6   0.030537924   0.28514   0.50328  -0.09490   0.15114
  22   35759.9    279.6   0.765730742   7.04946  -0.77493  -2.29160   1.09432
  23   36024.7    277.6   0.023813934   0.21762   0.15774   0.42415  -0.11333
  24   36184.1    276.4   0.715630813   6.51098  -1.47394   1.40105  -1.54128
  25   36248.9    275.9   0.304777675   2.76799   0.26609  -1.00407  -1.29963
  26   36723.6    272.3   0.015617174   0.14000   0.29061   0.03503  -0.23307
  27   37472.5    266.9   0.005662909   0.04975  -0.11547   0.12807   0.14148
  28   37768.3    264.8   0.006769485   0.05901  -0.01386   0.19616   0.14260
  29   38364.5    260.7   0.092919720   0.79736  -0.63867   0.53346   0.32384
  30   38680.8    258.5   0.213400666   1.81625   0.19551  -1.30883  -0.25496
  31   39083.5    255.9   0.095716947   0.80625   0.46518   0.68566   0.34602
  32   39325.0    254.3   0.028828327   0.24134  -0.30374  -0.36268  -0.13246
  33   39888.3    250.7   0.160471499   1.32443  -0.97055  -0.56022   0.26193
  34   40136.7    249.1   0.082109194   0.67348   0.74741   0.22252  -0.25562

FINAL SINGLE POINT ENERGY     -3801.921911441473

DIPOLE MOMENT
-------------
                                X             Y             Z
Electronic contribution:     25.92553       1.53960     -37.73409
Nuclear contribution   :    -28.66488      -3.23190      39.05085
                        -----------------------------------------
Total Dipole Moment    :     -2.73935      -1.69231       1.31676
                        -----------------------------------------
Magnitude (a.u.)       :      3.47876
Magnitude (Debye)      :      8.84231

Rotational constants in cm-1:     0.001399     0.000170     0.000159
Rotational constants in MHz :    41.946020     5.089267     4.774671

                             ****ORCA TERMINATED NORMALLY****
TOTAL RUN TIME: 0 days 0 hours 13 minutes 37 seconds 810 msec
