                         Program Version 4.2.0 -  RELEASE  -
|  1> # ORCA input file
|  2> # SCF done       -199.255914701828          0.000789029427
|  3> ! CAM-B3LYP def2-SVP def2/J RIJCOSX Grid4 TightSCF
|  4> %maxcore 5000
|  5> %tddft
|  6>     Mode sTDDFT
|  7>     Ethresh 5.0
|  8>     maxcore 5000
|  9> end
| 10>
| 11> %pal
| 12>   nprocs 6
| 13>   end
| 14> * xyz 0 1
| 15>    C        5.54374       -11.71264        10.39506
| 16>    C        6.64806       -12.37577         9.88906
| 17>    C        7.02722       -11.82613         8.62119
| 18>    N        8.07868       -12.31571         7.92040
| 19>    C        8.78238       -13.31135         8.40918
| 20>    C        8.48180       -13.89090         9.65034
| 21>    C        7.41623       -13.44555        10.39245
| 22>    C        6.22195       -10.76734         8.21215
| 23>    S        5.00254       -10.45305         9.38229
| 24>    C        6.55369       -10.02651         7.03288
| 25>    C        6.08662        -8.77559         6.64447
| 26>    C        5.01297        -7.95321         7.21006
| 27>    O        4.30297        -8.18490         8.16301
| 28>    N        4.94705        -6.80386         6.42140
| 29>    C        5.91851        -6.80719         5.40692
| 30>    O        6.09579        -5.93497         4.60019
| 31>    C        6.65221        -8.08830         5.56216
| 32>    C        7.74007        -8.57429         4.86706
| 33>    C        8.20932        -9.83832         5.24512
| 34>    C        7.58539       -10.56126         6.24233
| 35>    C        7.99917       -11.99914         6.35930
| 36>    O        7.34438       -12.88495         5.81400
| 37>    S        9.87349       -11.85610         5.71622
| 38>    C        9.46141       -10.45350         4.72941
| 39>    O       10.14497       -10.02397         3.84292
| 40>    C        3.97637        -5.83478         6.66710
| 41>    C        3.77771        -4.73393         5.93510
| 42>    C        2.73531        -3.75691         6.17400
| 43>    C        2.00594        -3.69670         7.34083
| 44>    C        0.97706        -2.74632         7.47764
| 45>    C        0.09474        -2.50542         8.52789
| 46>    C        0.08566        -3.18446         9.85282
| 47>    C        0.25520        -2.16946        11.00351
| 48>    N        0.86629        -2.83039        12.14182
| 49>    C       -1.17564        -4.04969        10.02661
| 50>    N       -1.12602        -5.14873         9.08058
| 51>    C       -0.79347        -1.45229         8.09221
| 52>    C       -1.86477        -0.88001         8.67564
| 53>    C       -2.62831         0.21215         8.00938
| 54>    C       -2.11112         0.61516         6.66696
| 55>    C       -1.05966         0.00892         6.08131
| 56>    C       -0.38053        -1.03892         6.74333
| 57>    C        0.69248        -1.83747         6.38008
| 58>    C        1.47683        -1.89689         5.20895
| 59>    C        2.46681        -2.82487         5.12123
| 60>    C       -2.62164         1.37475         8.96836
| 61>    C       -3.71534         1.93386         9.47121
| 62>    C       -3.67017         2.98949        10.47380
| 63>    C       -2.89527         2.87665        11.62951
| 64>    C       -2.09189         1.74636        12.12814
| 65>    O       -1.90003         0.64959        11.65624
| 66>    N       -1.56879         2.16099        13.36056
| 67>    C       -1.98452         3.44958        13.70963
| 68>    O       -1.68351         4.04425        14.71398
| 69>    C       -2.85720         3.89066        12.60088
| 70>    C       -3.58135         5.05994        12.47335
| 71>    C       -4.37264         5.17546        11.33519
| 72>    C       -4.42376         4.16886        10.36272
| 73>    C       -5.30532         4.46519         9.22903
| 74>    O       -5.52061         3.79252         8.26059
| 75>    S       -6.07060         6.07201         9.49237
| 76>    C       -5.21906         6.34330        11.05586
| 77>    O       -5.35825         7.32863        11.71803
| 78>    C       -0.75231         1.30998        14.09398
| 79>    C       -0.22995         1.57295        15.30050
| 80>    C        0.60051         0.66395        16.01432
| 81>    C        1.16207         0.84582        17.27547
| 82>    C        1.94833        -0.28454        17.70098
| 83>    N        2.58612        -0.33534        18.89263
| 84>    C        2.46565         0.69753        19.66870
| 85>    C        1.71953         1.86140        19.35356
| 86>    C        1.06523         1.94282        18.15847
| 87>    C        1.96887        -1.29207        16.76123
| 88>    S        1.05244        -0.88939        15.38266
| 89>    H        5.04126       -11.91357        11.32023
| 90>    H        9.59533       -13.66601         7.79260
| 91>    H        9.09862       -14.70171        10.00200
| 92>    H        7.16032       -13.89767        11.33817
| 93>    H        8.21974        -8.01658         4.07864
| 94>    H        3.36781        -6.09599         7.52241
| 95>    H        4.40343        -4.55345         5.07373
| 96>    H        2.20811        -4.37350         8.15542
| 97>    H        0.94243        -3.86138         9.90295
| 98>    H       -0.70979        -1.69445        11.23327
| 99>    H        0.94242        -1.38417        10.67594
|100>    H        0.23010        -3.50486        12.55186
|101>    H        1.11611        -2.16009        12.85933
|102>    H       -2.07257        -3.41729         9.91886
|103>    H       -1.18297        -4.48372        11.03010
|104>    H       -1.12207        -4.79414         8.12969
|105>    H       -1.92763        -5.75887         9.19015
|106>    H       -2.19880        -1.14246         9.66778
|107>    H       -3.67310        -0.11250         7.89316
|108>    H       -2.63863         1.42327         6.18420
|109>    H       -0.72276         0.31510         5.10161
|110>    H        1.28276        -1.21169         4.39715
|111>    H        3.07295        -2.88539         4.22921
|112>    H       -1.63872         1.72597         9.24787
|113>    H       -4.70007         1.63934         9.13451
|114>    H       -3.55133         5.83985        13.21727
|115>    H       -0.57288         0.37326        13.58143
|116>    H       -0.43309         2.51653        15.78340
|117>    H        2.98369         0.63516        20.61723
|118>    H        1.67917         2.67001        20.06636
|119>    H        0.48827         2.81477        17.88740
|120>    H        2.47436        -2.23384        16.82126
|121> *
|122>
|123>                          ****END OF INPUT****

CARTESIAN COORDINATES (ANGSTROEM)
---------------------------------
  C      5.543740  -11.712640   10.395060
  C      6.648060  -12.375770    9.889060
  C      7.027220  -11.826130    8.621190
  N      8.078680  -12.315710    7.920400
  C      8.782380  -13.311350    8.409180
  C      8.481800  -13.890900    9.650340
  C      7.416230  -13.445550   10.392450
  C      6.221950  -10.767340    8.212150
  S      5.002540  -10.453050    9.382290
  C      6.553690  -10.026510    7.032880
  C      6.086620   -8.775590    6.644470
  C      5.012970   -7.953210    7.210060
  O      4.302970   -8.184900    8.163010
  N      4.947050   -6.803860    6.421400
  C      5.918510   -6.807190    5.406920
  O      6.095790   -5.934970    4.600190
  C      6.652210   -8.088300    5.562160
  C      7.740070   -8.574290    4.867060
  C      8.209320   -9.838320    5.245120
  C      7.585390  -10.561260    6.242330
  C      7.999170  -11.999140    6.359300
  O      7.344380  -12.884950    5.814000
  S      9.873490  -11.856100    5.716220
  C      9.461410  -10.453500    4.729410
  O     10.144970  -10.023970    3.842920
  C      3.976370   -5.834780    6.667100
  C      3.777710   -4.733930    5.935100
  C      2.735310   -3.756910    6.174000
  C      2.005940   -3.696700    7.340830
  C      0.977060   -2.746320    7.477640
  C      0.094740   -2.505420    8.527890
  C      0.085660   -3.184460    9.852820
  C      0.255200   -2.169460   11.003510
  N      0.866290   -2.830390   12.141820
  C     -1.175640   -4.049690   10.026610
  N     -1.126020   -5.148730    9.080580
  C     -0.793470   -1.452290    8.092210
  C     -1.864770   -0.880010    8.675640
  C     -2.628310    0.212150    8.009380
  C     -2.111120    0.615160    6.666960
  C     -1.059660    0.008920    6.081310
  C     -0.380530   -1.038920    6.743330
  C      0.692480   -1.837470    6.380080
  C      1.476830   -1.896890    5.208950
  C      2.466810   -2.824870    5.121230
  C     -2.621640    1.374750    8.968360
  C     -3.715340    1.933860    9.471210
  C     -3.670170    2.989490   10.473800
  C     -2.895270    2.876650   11.629510
  C     -2.091890    1.746360   12.128140
  O     -1.900030    0.649590   11.656240
  N     -1.568790    2.160990   13.360560
  C     -1.984520    3.449580   13.709630
  O     -1.683510    4.044250   14.713980
  C     -2.857200    3.890660   12.600880
  C     -3.581350    5.059940   12.473350
  C     -4.372640    5.175460   11.335190
  C     -4.423760    4.168860   10.362720
  C     -5.305320    4.465190    9.229030
  O     -5.520610    3.792520    8.260590
  S     -6.070600    6.072010    9.492370
  C     -5.219060    6.343300   11.055860
  O     -5.358250    7.328630   11.718030
  C     -0.752310    1.309980   14.093980
  C     -0.229950    1.572950   15.300500
  C      0.600510    0.663950   16.014320
  C      1.162070    0.845820   17.275470
  C      1.948330   -0.284540   17.700980
  N      2.586120   -0.335340   18.892630
  C      2.465650    0.697530   19.668700
  C      1.719530    1.861400   19.353560
  C      1.065230    1.942820   18.158470
  C      1.968870   -1.292070   16.761230
  S      1.052440   -0.889390   15.382660
  H      5.041260  -11.913570   11.320230
  H      9.595330  -13.666010    7.792600
  H      9.098620  -14.701710   10.002000
  H      7.160320  -13.897670   11.338170
  H      8.219740   -8.016580    4.078640
  H      3.367810   -6.095990    7.522410
  H      4.403430   -4.553450    5.073730
  H      2.208110   -4.373500    8.155420
  H      0.942430   -3.861380    9.902950
  H     -0.709790   -1.694450   11.233270
  H      0.942420   -1.384170   10.675940
  H      0.230100   -3.504860   12.551860
  H      1.116110   -2.160090   12.859330
  H     -2.072570   -3.417290    9.918860
  H     -1.182970   -4.483720   11.030100
  H     -1.122070   -4.794140    8.129690
  H     -1.927630   -5.758870    9.190150
  H     -2.198800   -1.142460    9.667780
  H     -3.673100   -0.112500    7.893160
  H     -2.638630    1.423270    6.184200
  H     -0.722760    0.315100    5.101610
  H      1.282760   -1.211690    4.397150
  H      3.072950   -2.885390    4.229210
  H     -1.638720    1.725970    9.247870
  H     -4.700070    1.639340    9.134510
  H     -3.551330    5.839850   13.217270
  H     -0.572880    0.373260   13.581430
  H     -0.433090    2.516530   15.783400
  H      2.983690    0.635160   20.617230
  H      1.679170    2.670010   20.066360
  H      0.488270    2.814770   17.887400
  H      2.474360   -2.233840   16.821260

 Total Charge           Charge          ....    0
 Multiplicity           Mult            ....    1
 Number of Electrons    NEL             ....  538
 Basis Dimension        Dim             .... 1212

ORBITAL ENERGIES
----------------

  NO   OCC          E(Eh)            E(eV)
   0   2.0000     -89.003338     -2421.9040
   1   2.0000     -88.974139     -2421.1094
   2   2.0000     -88.958596     -2420.6865
   3   2.0000     -88.889335     -2418.8018
   4   2.0000     -19.252637      -523.8909
   5   2.0000     -19.251703      -523.8655
   6   2.0000     -19.245423      -523.6946
   7   2.0000     -19.245233      -523.6894
   8   2.0000     -19.229870      -523.2714
   9   2.0000     -19.221298      -523.0381
  10   2.0000     -19.196326      -522.3586
  11   2.0000     -19.141696      -520.8720
  12   2.0000     -14.506934      -394.7537
  13   2.0000     -14.495826      -394.4515
  14   2.0000     -14.473078      -393.8325
  15   2.0000     -14.400847      -391.8670
  16   2.0000     -14.368917      -390.9981
  17   2.0000     -14.366747      -390.9391
  18   2.0000     -10.425725      -283.6984
  19   2.0000     -10.424483      -283.6646
  20   2.0000     -10.413826      -283.3746
  21   2.0000     -10.413710      -283.3715
  22   2.0000     -10.406309      -283.1701
  23   2.0000     -10.400816      -283.0206
  24   2.0000     -10.383012      -282.5361
  25   2.0000     -10.368367      -282.1376
  26   2.0000     -10.362926      -281.9896
  27   2.0000     -10.348830      -281.6060
  28   2.0000     -10.342881      -281.4441
  29   2.0000     -10.339628      -281.3556
  30   2.0000     -10.337084      -281.2864
  31   2.0000     -10.334990      -281.2294
  32   2.0000     -10.333756      -281.1958
  33   2.0000     -10.333064      -281.1770
  34   2.0000     -10.332803      -281.1699
  35   2.0000     -10.331683      -281.1394
  36   2.0000     -10.328741      -281.0593
  37   2.0000     -10.326696      -281.0037
  38   2.0000     -10.322931      -280.9012
  39   2.0000     -10.322600      -280.8922
  40   2.0000     -10.320059      -280.8231
  41   2.0000     -10.309869      -280.5458
  42   2.0000     -10.307202      -280.4732
  43   2.0000     -10.305724      -280.4330
  44   2.0000     -10.304261      -280.3932
  45   2.0000     -10.303337      -280.3681
  46   2.0000     -10.302343      -280.3410
  47   2.0000     -10.301090      -280.3069
  48   2.0000     -10.299397      -280.2608
  49   2.0000     -10.297474      -280.2085
  50   2.0000     -10.297054      -280.1971
  51   2.0000     -10.295661      -280.1592
  52   2.0000     -10.293676      -280.1052
  53   2.0000     -10.293155      -280.0910
  54   2.0000     -10.292402      -280.0705
  55   2.0000     -10.292355      -280.0692
  56   2.0000     -10.288190      -279.9559
  57   2.0000     -10.286156      -279.9005
  58   2.0000     -10.279775      -279.7269
  59   2.0000     -10.274584      -279.5856
  60   2.0000     -10.270062      -279.4626
  61   2.0000     -10.268090      -279.4089
  62   2.0000     -10.267221      -279.3853
  63   2.0000     -10.266453      -279.3644
  64   2.0000     -10.264569      -279.3131
  65   2.0000     -10.260152      -279.1929
  66   2.0000     -10.258991      -279.1613
  67   2.0000     -10.256628      -279.0970
  68   2.0000     -10.254898      -279.0500
  69   2.0000     -10.254390      -279.0361
  70   2.0000     -10.253746      -279.0186
  71   2.0000     -10.253657      -279.0162
  72   2.0000     -10.249440      -278.9014
  73   2.0000     -10.248704      -278.8814
  74   2.0000      -8.096594      -220.3195
  75   2.0000      -8.068983      -219.5682
  76   2.0000      -8.057649      -219.2598
  77   2.0000      -7.988049      -217.3659
  78   2.0000      -6.065516      -165.0511
  79   2.0000      -6.060781      -164.9222
  80   2.0000      -6.060165      -164.9055
  81   2.0000      -6.037814      -164.2973
  82   2.0000      -6.033769      -164.1872
  83   2.0000      -6.032183      -164.1440
  84   2.0000      -6.026544      -163.9906
  85   2.0000      -6.023246      -163.9009
  86   2.0000      -6.018710      -163.7774
  87   2.0000      -5.956597      -162.0873
  88   2.0000      -5.954133      -162.0202
  89   2.0000      -5.949242      -161.8871
  90   2.0000      -1.190846       -32.4046
  91   2.0000      -1.175019       -31.9739
  92   2.0000      -1.171179       -31.8694
  93   2.0000      -1.170810       -31.8594
  94   2.0000      -1.166172       -31.7332
  95   2.0000      -1.147307       -31.2198
  96   2.0000      -1.134936       -30.8832
  97   2.0000      -1.118743       -30.4426
  98   2.0000      -1.083870       -29.4936
  99   2.0000      -1.069276       -29.0965
 100   2.0000      -1.062840       -28.9213
 101   2.0000      -1.040030       -28.3007
 102   2.0000      -1.022451       -27.8223
 103   2.0000      -1.017124       -27.6774
 104   2.0000      -0.988638       -26.9022
 105   2.0000      -0.979966       -26.6662
 106   2.0000      -0.975641       -26.5485
 107   2.0000      -0.963677       -26.2230
 108   2.0000      -0.956213       -26.0199
 109   2.0000      -0.948447       -25.8085
 110   2.0000      -0.943488       -25.6736
 111   2.0000      -0.941266       -25.6131
 112   2.0000      -0.927669       -25.2432
 113   2.0000      -0.920425       -25.0460
 114   2.0000      -0.909900       -24.7596
 115   2.0000      -0.901749       -24.5378
 116   2.0000      -0.898366       -24.4458
 117   2.0000      -0.898066       -24.4376
 118   2.0000      -0.885665       -24.1002
 119   2.0000      -0.871621       -23.7180
 120   2.0000      -0.867663       -23.6103
 121   2.0000      -0.866553       -23.5801
 122   2.0000      -0.847982       -23.0748
 123   2.0000      -0.836747       -22.7690
 124   2.0000      -0.833465       -22.6797
 125   2.0000      -0.827566       -22.5192
 126   2.0000      -0.821383       -22.3510
 127   2.0000      -0.818733       -22.2788
 128   2.0000      -0.812652       -22.1134
 129   2.0000      -0.806551       -21.9474
 130   2.0000      -0.792821       -21.5738
 131   2.0000      -0.787966       -21.4416
 132   2.0000      -0.775827       -21.1113
 133   2.0000      -0.772545       -21.0220
 134   2.0000      -0.764296       -20.7976
 135   2.0000      -0.755422       -20.5561
 136   2.0000      -0.747921       -20.3520
 137   2.0000      -0.746212       -20.3055
 138   2.0000      -0.738788       -20.1034
 139   2.0000      -0.726057       -19.7570
 140   2.0000      -0.723212       -19.6796
 141   2.0000      -0.717526       -19.5249
 142   2.0000      -0.714176       -19.4337
 143   2.0000      -0.712999       -19.4017
 144   2.0000      -0.704133       -19.1604
 145   2.0000      -0.693620       -18.8744
 146   2.0000      -0.685610       -18.6564
 147   2.0000      -0.685092       -18.6423
 148   2.0000      -0.674334       -18.3496
 149   2.0000      -0.670769       -18.2525
 150   2.0000      -0.660640       -17.9769
 151   2.0000      -0.658065       -17.9068
 152   2.0000      -0.655523       -17.8377
 153   2.0000      -0.649004       -17.6603
 154   2.0000      -0.639317       -17.3967
 155   2.0000      -0.638194       -17.3661
 156   2.0000      -0.628659       -17.1067
 157   2.0000      -0.626278       -17.0419
 158   2.0000      -0.622246       -16.9322
 159   2.0000      -0.618147       -16.8206
 160   2.0000      -0.615831       -16.7576
 161   2.0000      -0.602318       -16.3899
 162   2.0000      -0.600921       -16.3519
 163   2.0000      -0.600248       -16.3336
 164   2.0000      -0.599125       -16.3030
 165   2.0000      -0.594588       -16.1796
 166   2.0000      -0.589098       -16.0302
 167   2.0000      -0.587004       -15.9732
 168   2.0000      -0.581331       -15.8188
 169   2.0000      -0.579439       -15.7673
 170   2.0000      -0.578581       -15.7440
 171   2.0000      -0.576511       -15.6877
 172   2.0000      -0.575042       -15.6477
 173   2.0000      -0.570709       -15.5298
 174   2.0000      -0.568579       -15.4718
 175   2.0000      -0.564980       -15.3739
 176   2.0000      -0.560144       -15.2423
 177   2.0000      -0.559579       -15.2269
 178   2.0000      -0.556811       -15.1516
 179   2.0000      -0.556334       -15.1386
 180   2.0000      -0.553021       -15.0485
 181   2.0000      -0.552189       -15.0258
 182   2.0000      -0.547414       -14.8959
 183   2.0000      -0.546340       -14.8667
 184   2.0000      -0.545515       -14.8442
 185   2.0000      -0.543159       -14.7801
 186   2.0000      -0.540896       -14.7185
 187   2.0000      -0.537760       -14.6332
 188   2.0000      -0.534214       -14.5367
 189   2.0000      -0.531965       -14.4755
 190   2.0000      -0.525919       -14.3110
 191   2.0000      -0.523178       -14.2364
 192   2.0000      -0.517123       -14.0716
 193   2.0000      -0.515518       -14.0280
 194   2.0000      -0.514051       -13.9881
 195   2.0000      -0.513207       -13.9651
 196   2.0000      -0.511905       -13.9296
 197   2.0000      -0.510473       -13.8907
 198   2.0000      -0.508875       -13.8472
 199   2.0000      -0.507204       -13.8017
 200   2.0000      -0.506667       -13.7871
 201   2.0000      -0.504299       -13.7227
 202   2.0000      -0.501176       -13.6377
 203   2.0000      -0.498988       -13.5782
 204   2.0000      -0.496441       -13.5089
 205   2.0000      -0.494015       -13.4428
 206   2.0000      -0.490596       -13.3498
 207   2.0000      -0.488814       -13.3013
 208   2.0000      -0.487206       -13.2575
 209   2.0000      -0.486121       -13.2280
 210   2.0000      -0.484761       -13.1910
 211   2.0000      -0.482443       -13.1279
 212   2.0000      -0.481625       -13.1057
 213   2.0000      -0.479990       -13.0612
 214   2.0000      -0.477940       -13.0054
 215   2.0000      -0.476235       -12.9590
 216   2.0000      -0.470395       -12.8001
 217   2.0000      -0.467305       -12.7160
 218   2.0000      -0.462740       -12.5918
 219   2.0000      -0.460701       -12.5363
 220   2.0000      -0.459736       -12.5101
 221   2.0000      -0.456195       -12.4137
 222   2.0000      -0.455107       -12.3841
 223   2.0000      -0.454321       -12.3627
 224   2.0000      -0.450483       -12.2583
 225   2.0000      -0.447501       -12.1771
 226   2.0000      -0.438332       -11.9276
 227   2.0000      -0.434440       -11.8217
 228   2.0000      -0.431599       -11.7444
 229   2.0000      -0.427960       -11.6454
 230   2.0000      -0.427191       -11.6245
 231   2.0000      -0.423114       -11.5135
 232   2.0000      -0.420584       -11.4447
 233   2.0000      -0.418775       -11.3954
 234   2.0000      -0.407169       -11.0796
 235   2.0000      -0.401462       -10.9243
 236   2.0000      -0.400249       -10.8913
 237   2.0000      -0.396183       -10.7807
 238   2.0000      -0.391020       -10.6402
 239   2.0000      -0.389652       -10.6030
 240   2.0000      -0.382421       -10.4062
 241   2.0000      -0.382026       -10.3955
 242   2.0000      -0.379709       -10.3324
 243   2.0000      -0.375931       -10.2296
 244   2.0000      -0.374952       -10.2030
 245   2.0000      -0.371249       -10.1022
 246   2.0000      -0.370103       -10.0710
 247   2.0000      -0.360280        -9.8037
 248   2.0000      -0.357349        -9.7240
 249   2.0000      -0.356576        -9.7029
 250   2.0000      -0.355164        -9.6645
 251   2.0000      -0.353941        -9.6312
 252   2.0000      -0.350150        -9.5281
 253   2.0000      -0.343269        -9.3408
 254   2.0000      -0.335190        -9.1210
 255   2.0000      -0.330268        -8.9871
 256   2.0000      -0.327753        -8.9186
 257   2.0000      -0.321334        -8.7439
 258   2.0000      -0.319333        -8.6895
 259   2.0000      -0.313962        -8.5434
 260   2.0000      -0.309234        -8.4147
 261   2.0000      -0.301679        -8.2091
 262   2.0000      -0.294936        -8.0256
 263   2.0000      -0.288792        -7.8584
 264   2.0000      -0.287757        -7.8303
 265   2.0000      -0.273791        -7.4502
 266   2.0000      -0.268565        -7.3080
 267   2.0000      -0.256995        -6.9932
 268   2.0000      -0.211521        -5.7558
 269   0.0000      -0.106126        -2.8878
 270   0.0000      -0.092048        -2.5048
 271   0.0000      -0.070840        -1.9276
 272   0.0000      -0.064190        -1.7467
 273   0.0000      -0.059588        -1.6215

MULLIKEN ATOMIC CHARGES
-----------------------
   0 C :   -0.112629
   1 C :    0.066223
   2 C :    0.121863
   3 N :   -0.079237
   4 C :    0.146423
   5 C :   -0.015865
   6 C :    0.090188
   7 C :   -0.182561
   8 S :    0.291196
   9 C :    0.145013
  10 C :   -0.092519
  11 C :    0.195013
  12 O :   -0.180048
  13 N :   -0.226124
  14 C :    0.205240
  15 O :   -0.137228
  16 C :    0.030646
  17 C :   -0.095483
  18 C :    0.078243
  19 C :   -0.027976
  20 C :   -0.040247
  21 O :   -0.247343
  22 S :   -0.112709
  23 C :    0.067272
  24 O :   -0.156157
  25 C :    0.087092
  26 C :   -0.027126
  27 C :    0.106431
  28 C :   -0.077348
  29 C :    0.053033
  30 C :   -0.082993
  31 C :   -0.015354
  32 C :    0.118823
  33 N :   -0.215990
  34 C :    0.156019
  35 N :   -0.226499
  36 C :    0.115199
  37 C :   -0.146254
  38 C :    0.122960
  39 C :   -0.052190
  40 C :    0.026920
  41 C :   -0.002319
  42 C :    0.038387
  43 C :   -0.006448
  44 C :   -0.013776
  45 C :    0.011335
  46 C :   -0.029945
  47 C :    0.025901
  48 C :   -0.032894
  49 C :    0.189860
  50 O :   -0.141493
  51 N :   -0.225562
  52 C :    0.213750
  53 O :   -0.140806
  54 C :    0.018750
  55 C :   -0.077942
  56 C :    0.061846
  57 C :    0.052432
  58 C :    0.032784
  59 O :   -0.126425
  60 S :    0.013517
  61 C :    0.043259
  62 O :   -0.116184
  63 C :    0.054282
  64 C :    0.011142
  65 C :   -0.120139
  66 C :    0.082812
  67 C :    0.034071
  68 N :   -0.038392
  69 C :    0.015981
  70 C :   -0.004492
  71 C :    0.028390
  72 C :   -0.104836
  73 S :    0.125165
  74 H :    0.032599
  75 H :    0.060232
  76 H :    0.023890
  77 H :    0.009598
  78 H :    0.014163
  79 H :    0.032438
  80 H :    0.013583
  81 H :   -0.038152
  82 H :   -0.016877
  83 H :   -0.009683
  84 H :   -0.001600
  85 H :    0.081540
  86 H :    0.083316
  87 H :   -0.032433
  88 H :   -0.024383
  89 H :    0.098912
  90 H :    0.086687
  91 H :    0.007026
  92 H :    0.030937
  93 H :   -0.008920
  94 H :   -0.035527
  95 H :   -0.040167
  96 H :   -0.026164
  97 H :    0.013703
  98 H :    0.022501
  99 H :    0.021166
 100 H :    0.027423
 101 H :    0.020267
 102 H :    0.003080
 103 H :   -0.003623
 104 H :   -0.007763
 105 H :    0.016299
Sum of atomic charges:   -0.0000000

LOEWDIN ATOMIC CHARGES
----------------------
   0 C :   -0.181370
   1 C :   -0.068111
   2 C :    0.007931
   3 N :    0.084148
   4 C :    0.114161
   5 C :   -0.048399
   6 C :    0.063916
   7 C :   -0.194533
   8 S :    0.602908
   9 C :   -0.009733
  10 C :   -0.050807
  11 C :    0.097724
  12 O :   -0.168372
  13 N :   -0.012437
  14 C :    0.104777
  15 O :   -0.128117
  16 C :   -0.045506
  17 C :    0.042253
  18 C :   -0.046717
  19 C :   -0.017140
  20 C :   -0.032278
  21 O :   -0.298666
  22 S :    0.134435
  23 C :   -0.064116
  24 O :   -0.149536
  25 C :    0.027144
  26 C :   -0.037836
  27 C :   -0.025415
  28 C :   -0.013145
  29 C :   -0.016358
  30 C :   -0.045424
  31 C :   -0.038571
  32 C :    0.024075
  33 N :   -0.119489
  34 C :    0.025577
  35 N :   -0.119169
  36 C :   -0.016725
  37 C :    0.061475
  38 C :   -0.027182
  39 C :   -0.043287
  40 C :   -0.012161
  41 C :   -0.039859
  42 C :   -0.029248
  43 C :   -0.014062
  44 C :   -0.023220
  45 C :    0.044233
  46 C :   -0.052165
  47 C :    0.039948
  48 C :   -0.038811
  49 C :    0.106390
  50 O :   -0.135370
  51 N :   -0.008112
  52 C :    0.101203
  53 O :   -0.131324
  54 C :   -0.025321
  55 C :    0.037597
  56 C :   -0.048946
  57 C :   -0.058029
  58 C :   -0.042442
  59 O :   -0.110746
  60 S :    0.300062
  61 C :   -0.043965
  62 O :   -0.108468
  63 C :    0.007666
  64 C :   -0.049095
  65 C :   -0.184646
  66 C :   -0.063136
  67 C :   -0.040939
  68 N :   -0.067861
  69 C :    0.022839
  70 C :   -0.052382
  71 C :    0.015384
  72 C :   -0.188091
  73 S :    0.490382
  74 H :    0.031205
  75 H :    0.044821
  76 H :    0.045149
  77 H :    0.044546
  78 H :    0.049131
  79 H :    0.032052
  80 H :    0.031918
  81 H :    0.025651
  82 H :    0.029791
  83 H :   -0.003050
  84 H :    0.020454
  85 H :    0.046378
  86 H :    0.034644
  87 H :   -0.006295
  88 H :    0.009191
  89 H :    0.053001
  90 H :    0.051835
  91 H :    0.027565
  92 H :    0.056986
  93 H :    0.025231
  94 H :    0.030008
  95 H :    0.025668
  96 H :    0.026587
  97 H :    0.028843
  98 H :    0.036023
  99 H :    0.052473
 100 H :    0.025674
 101 H :    0.037809
 102 H :    0.021261
 103 H :    0.032591
 104 H :    0.033725
 105 H :    0.029747

  Mayer bond orders larger than 0.100000
B(  0-C ,  1-C ) :   1.3617 B(  0-C ,  7-C ) :   0.1113 B(  0-C ,  8-S ) :   1.2425
B(  0-C , 74-H ) :   0.9700 B(  1-C ,  2-C ) :   1.2009 B(  1-C ,  6-C ) :   1.2108
B(  2-C ,  3-N ) :   1.1847 B(  2-C ,  7-C ) :   1.4115 B(  3-N ,  4-C ) :   1.4596
B(  3-N , 20-C ) :   0.5492 B(  4-C ,  5-C ) :   1.2686 B(  4-C , 75-H ) :   0.9631
B(  5-C ,  6-C ) :   1.5277 B(  5-C , 76-H ) :   0.9740 B(  6-C , 77-H ) :   0.9862
B(  7-C ,  8-S ) :   1.2007 B(  7-C ,  9-C ) :   1.1113 B(  9-C , 10-C ) :   1.3610
B(  9-C , 19-C ) :   1.3734 B( 10-C , 11-C ) :   0.9049 B( 10-C , 16-C ) :   1.3714
B( 11-C , 12-O ) :   2.1181 B( 11-C , 13-N ) :   1.0690 B( 13-N , 14-C ) :   1.0135
B( 13-N , 25-C ) :   1.0041 B( 14-C , 15-O ) :   2.2060 B( 14-C , 16-C ) :   0.8825
B( 16-C , 17-C ) :   1.3589 B( 17-C , 18-C ) :   1.2969 B( 17-C , 78-H ) :   1.0251
B( 18-C , 19-C ) :   1.4523 B( 18-C , 23-C ) :   0.8345 B( 19-C , 20-C ) :   0.7515
B( 20-C , 21-O ) :   2.0711 B( 20-C , 22-S ) :   0.8473 B( 21-O , 22-S ) :   0.1143
B( 22-S , 23-C ) :   1.1163 B( 22-S , 24-O ) :   0.1327 B( 23-C , 24-O ) :   2.1821
B( 25-C , 26-C ) :   1.7386 B( 25-C , 79-H ) :   0.9641 B( 26-C , 27-C ) :   1.0390
B( 26-C , 80-H ) :   0.9704 B( 27-C , 28-C ) :   1.5354 B( 27-C , 44-C ) :   1.1299
B( 28-C , 29-C ) :   1.1591 B( 28-C , 81-H ) :   0.9875 B( 29-C , 30-C ) :   1.4767
B( 29-C , 42-C ) :   1.1186 B( 30-C , 31-C ) :   1.0419 B( 30-C , 36-C ) :   1.0855
B( 31-C , 32-C ) :   1.0320 B( 31-C , 34-C ) :   1.0349 B( 31-C , 82-H ) :   0.8720
B( 32-C , 33-N ) :   1.1019 B( 32-C , 83-H ) :   0.9274 B( 32-C , 84-H ) :   0.9438
B( 33-N , 85-H ) :   0.9712 B( 33-N , 86-H ) :   0.9689 B( 34-C , 35-N ) :   1.0889
B( 34-C , 87-H ) :   0.9320 B( 34-C , 88-H ) :   0.9320 B( 35-N , 89-H ) :   0.9700
B( 35-N , 90-H ) :   0.9676 B( 36-C , 37-C ) :   1.6332 B( 36-C , 41-C ) :   1.0449
B( 37-C , 38-C ) :   0.9721 B( 37-C , 91-H ) :   0.9671 B( 38-C , 39-C ) :   0.9867
B( 38-C , 45-C ) :   0.9790 B( 38-C , 92-H ) :   0.8684 B( 39-C , 40-C ) :   1.6979
B( 39-C , 93-H ) :   0.9777 B( 40-C , 41-C ) :   1.1406 B( 40-C , 94-H ) :   0.9895
B( 41-C , 42-C ) :   1.4255 B( 42-C , 43-C ) :   1.1472 B( 43-C , 44-C ) :   1.5950
B( 43-C , 95-H ) :   0.9912 B( 44-C , 96-H ) :   0.9898 B( 45-C , 46-C ) :   1.8342
B( 45-C , 97-H ) :   0.9682 B( 46-C , 47-C ) :   1.0450 B( 46-C , 98-H ) :   0.9421
B( 47-C , 48-C ) :   1.3948 B( 47-C , 57-C ) :   1.3675 B( 48-C , 49-C ) :   0.8958
B( 48-C , 54-C ) :   1.3690 B( 49-C , 50-O ) :   2.1393 B( 49-C , 51-N ) :   1.0461
B( 51-N , 52-C ) :   1.0304 B( 51-N , 63-C ) :   1.0126 B( 52-C , 53-O ) :   2.1974
B( 52-C , 54-C ) :   0.8808 B( 54-C , 55-C ) :   1.3473 B( 55-C , 56-C ) :   1.3260
B( 55-C , 99-H ) :   1.0288 B( 56-C , 57-C ) :   1.3374 B( 56-C , 61-C ) :   0.8402
B( 57-C , 58-C ) :   0.8581 B( 58-C , 59-O ) :   2.1734 B( 58-C , 60-S ) :   1.0293
B( 59-O , 60-S ) :   0.1068 B( 60-S , 61-C ) :   1.0248 B( 60-S , 62-O ) :   0.1086
B( 61-C , 62-O ) :   2.2261 B( 63-C , 64-C ) :   1.7091 B( 63-C ,100-H ) :   0.9760
B( 64-C , 65-C ) :   1.1423 B( 64-C ,101-H ) :   0.9535 B( 65-C , 66-C ) :   1.3636
B( 65-C , 72-C ) :   0.1127 B( 65-C , 73-S ) :   1.1564 B( 66-C , 67-C ) :   1.1793
B( 66-C , 71-C ) :   1.2243 B( 67-C , 68-N ) :   1.3342 B( 67-C , 72-C ) :   1.4369
B( 68-N , 69-C ) :   1.7438 B( 69-C , 70-C ) :   1.1791 B( 69-C ,102-H ) :   0.9761
B( 70-C , 71-C ) :   1.6056 B( 70-C ,103-H ) :   0.9694 B( 71-C ,104-H ) :   0.9809
B( 72-C , 73-S ) :   1.1927 B( 72-C ,105-H ) :   0.9709

-----------------------------------------------------------------------------
         ABSORPTION SPECTRUM VIA TRANSITION ELECTRIC DIPOLE MOMENTS
-----------------------------------------------------------------------------
State   Energy  Wavelength   fosc         T2         TX        TY        TZ
        (cm-1)    (nm)                  (au**2)     (au)      (au)      (au)
-----------------------------------------------------------------------------
   0   10208.5    979.6   0.000712288   0.02297  -0.00472  -0.01408  -0.15083
   1   13614.7    734.5   0.035975104   0.86990  -0.14314  -0.16647   0.90647
   2   16134.7    619.8   0.024184469   0.49346  -0.36809   0.58179  -0.13960
   3   17184.9    581.9   0.003493861   0.06693   0.00955   0.19387   0.17104
   4   17674.6    565.8   0.004812125   0.08963   0.11151  -0.10605  -0.25681
   5   18296.2    546.6   0.039291876   0.70700  -0.37318   0.75310   0.02403
   6   19336.8    517.1   0.002797420   0.04763  -0.06509   0.19053  -0.08418
   7   22702.7    440.5   0.079365279   1.15088   0.12967   0.49555  -0.94260
   8   23682.2    422.3   0.029520202   0.41037   0.25913   0.34651  -0.47239
   9   24022.4    416.3   0.003765844   0.05161   0.11717   0.15177  -0.12184
  10   24426.6    409.4   0.007722091   0.10408  -0.12240   0.29848   0.00205
  11   24531.5    407.6   0.002109216   0.02831  -0.02354   0.03043  -0.16379
  12   25344.0    394.6   0.064776289   0.84143  -0.41161   0.81614   0.07694
  13   25418.3    393.4   0.043363945   0.56164  -0.16391   0.73056  -0.03237
  14   25862.1    386.7   0.666886353   8.48915  -1.39329   1.19655  -2.26190
  15   26462.0    377.9   0.063869521   0.79460   0.73165  -0.24245  -0.44778
  16   26525.7    377.0   0.009383364   0.11646   0.10745   0.04759  -0.32039
  17   26747.0    373.9   0.002015404   0.02481   0.11696  -0.10206   0.02663
  18   27155.8    368.2   0.006568553   0.07963   0.05356  -0.12010   0.24967
  19   27708.5    360.9   0.540610403   6.42313   1.86878  -1.54334  -0.74088
  20   28320.2    353.1   0.084619127   0.98367   0.57084  -0.79457   0.16268
  21   28668.5    348.8   0.065053123   0.74703  -0.50549   0.69569  -0.08676
  22   28918.5    345.8   0.081968881   0.93315   0.59075  -0.61425   0.45481
  23   28990.0    344.9   0.022642299   0.25713   0.30931  -0.34117   0.21226
  24   29084.0    343.8   0.012505490   0.14155   0.09246  -0.31566  -0.18265
  25   29375.2    340.4   0.069179577   0.77530   0.44480  -0.74968   0.12425
  26   29561.4    338.3   0.018389938   0.20480   0.23434  -0.38123   0.06746
  27   29889.4    334.6   0.003552193   0.03912   0.16417  -0.09717   0.05227
  28   30674.5    326.0   0.088746466   0.95246  -0.30760   0.84535  -0.37845
  29   31100.3    321.5   0.014597654   0.15452  -0.22996   0.08156  -0.30821
  30   31152.6    321.0   0.008122704   0.08584  -0.16663   0.03160  -0.23890
  31   31241.6    320.1   0.000009145   0.00010  -0.00538   0.00691  -0.00444
  32   31436.8    318.1   0.062870229   0.65839   0.27816  -0.70584   0.28777
  33   32256.6    310.0   0.009174808   0.09364  -0.01873   0.22413   0.20750
  34   32331.5    309.3   0.071542554   0.72847  -0.51703   0.66923   0.11522
  35   32412.0    308.5   0.008807138   0.08946  -0.07891   0.25091  -0.14239
  36   32599.4    306.8   0.007588078   0.07663   0.06946  -0.19690  -0.18175
  37   32851.5    304.4   0.000233019   0.00234   0.02773  -0.01735  -0.03557
  38   32937.2    303.6   0.089413263   0.89370   0.62681  -0.69703  -0.12235
  39   33027.8    302.8   0.013776539   0.13732   0.12170  -0.08549   0.33941
  40   33239.4    300.8   0.015753203   0.15602   0.10511  -0.33305  -0.18453
  41   33507.5    298.4   0.076995510   0.75648  -0.56441   0.55276   0.36383
  42   33798.4    295.9   0.892829882   8.69658   1.99860  -2.14281  -0.33250
  43   33997.1    294.1   0.013764893   0.13329  -0.26097   0.25316  -0.03316
  44   34106.5    293.2   0.195798622   1.88994   0.99366  -0.73573  -0.60108
  45   34261.1    291.9   0.098353045   0.94507  -0.63906   0.65124  -0.33550
  46   34338.9    291.2   0.002979045   0.02856  -0.11372   0.08259  -0.09385
  47   34511.1    289.8   0.000206888   0.00197   0.01935   0.03944   0.00659
  48   34776.5    287.6   0.000044443   0.00042  -0.01324   0.01378   0.00746
  49   35108.2    284.8   0.027416928   0.25709   0.23925   0.34423  -0.28523
  50   35256.3    283.6   0.199700879   1.86474   0.71988  -0.96454  -0.64513
  51   35804.9    279.3   0.016550896   0.15218   0.29151  -0.25057   0.06646
  52   36051.5    277.4   0.020260956   0.18502  -0.20518   0.34914   0.14498
  53   36739.8    272.2   0.002826675   0.02533  -0.09244   0.07770   0.10366
  54   36970.8    270.5   0.002797817   0.02491   0.09962  -0.12195   0.01087
  55   36985.2    270.4   0.009705641   0.08639   0.07617  -0.25943  -0.11527
  56   37035.2    270.0   0.013193620   0.11728   0.13312  -0.26429   0.17237
  57   37170.3    269.0   0.007292472   0.06459  -0.17703   0.14191   0.11450
  58   37289.9    268.2   0.045792238   0.40427   0.22185  -0.36119   0.47392
  59   37407.2    267.3   0.001492279   0.01313   0.02004   0.08693  -0.07194
  60   37594.8    266.0   0.071000951   0.62174   0.10134  -0.45508   0.63590
  61   37808.1    264.5   0.025254765   0.21990  -0.27548  -0.37879   0.02301
  62   38190.1    261.8   0.004134565   0.03564  -0.11567   0.11101  -0.09969
  63   38440.7    260.1   0.100732396   0.86269  -0.58782   0.70339  -0.14969
  64   38500.4    259.7   0.004899084   0.04189   0.07985  -0.15995  -0.09966
  65   38669.6    258.6   0.037333906   0.31784   0.27947  -0.48576   0.06141
  66   38831.9    257.5   0.001347438   0.01142  -0.02534   0.09436  -0.04333
  67   39080.7    255.9   0.054903444   0.46250  -0.28108   0.12288   0.60696
  68   39138.1    255.5   0.002898462   0.02438  -0.10661  -0.04187   0.10612
  69   39191.9    255.2   0.031151153   0.26167   0.37213  -0.14621  -0.31909
  70   39335.4    254.2   0.069254000   0.57961  -0.56209   0.50635   0.08530
  71   39394.7    253.8   0.025259069   0.21108   0.31872  -0.32260  -0.07369
  72   39530.5    253.0   0.000908602   0.00757   0.08125   0.03098   0.00229
  73   39639.6    252.3   0.002694275   0.02238   0.05248  -0.12903   0.05453
  74   39775.8    251.4   0.054897877   0.45437   0.48934  -0.29905  -0.35424
  75   39946.1    250.3   0.019958626   0.16449  -0.16287   0.10907   0.35505
  76   40011.6    249.9   0.007162010   0.05893  -0.19532   0.14250  -0.02170
  77   40192.9    248.8   0.012424969   0.10177   0.21529  -0.13515  -0.19276

FINAL SINGLE POINT ENERGY     -4671.975012550116

DIPOLE MOMENT
-------------
                                X             Y             Z
Electronic contribution:     18.59628      -7.94338     -15.43247
Nuclear contribution   :    -20.57594       7.77576      19.82170
                        -----------------------------------------
Total Dipole Moment    :     -1.97966      -0.16763       4.38923
                        -----------------------------------------
Magnitude (a.u.)       :      4.81794
Magnitude (Debye)      :     12.24623

Rotational constants in cm-1:     0.001257     0.000264     0.000228
Rotational constants in MHz :    37.671054     7.922861     6.837601

                             ****ORCA TERMINATED NORMALLY****
TOTAL RUN TIME: 0 days 0 hours 10 minutes 41 seconds 382 msec
