                         Program Version 4.2.0 -  RELEASE  -
|  1> # ORCA input file
|  2> # SCF done       -194.504712576451          0.000501416900
|  3> ! CAM-B3LYP def2-SVP def2/J RIJCOSX Grid4 TightSCF
|  4> %maxcore 5000
|  5> %tddft
|  6>     Mode sTDDFT
|  7>     Ethresh 5.0
|  8>     maxcore 5000
|  9> end
| 10>
| 11> %pal
| 12>   nprocs 6
| 13>   end
| 14> * xyz 0 1
| 15>    C       -3.01212        -3.15690        -5.91323
| 16>    C       -1.67886        -2.89954        -5.63524
| 17>    C       -1.21452        -2.85252        -4.32808
| 18>    C       -2.06660        -3.08901        -3.26151
| 19>    C       -3.40401        -3.33385        -3.52541
| 20>    C       -3.88702        -3.34741        -4.85364
| 21>    C       -5.32149        -3.58762        -4.83442
| 22>    C       -6.13248        -3.77220        -5.91966
| 23>    C       -5.69994        -3.66727        -7.25939
| 24>    N       -5.41756        -3.55905        -8.36625
| 25>    C       -7.50205        -4.10334        -5.84214
| 26>    N       -8.61253        -4.39462        -5.83001
| 27>    C       -5.73029        -3.56415        -3.42832
| 28>    C       -4.50621        -3.63656        -2.63060
| 29>    C       -4.40221        -4.11275        -1.35510
| 30>    C       -5.48902        -4.66011        -0.64263
| 31>    N       -6.33074        -5.17487        -0.05683
| 32>    C       -3.18711        -4.18942        -0.64232
| 33>    N       -2.22929        -4.26339        -0.01515
| 34>    C       -6.98893        -3.30486        -2.99534
| 35>    C       -7.38197        -2.87329        -1.67817
| 36>    C       -8.54259        -3.27279        -1.03356
| 37>    C       -9.56757        -4.27252        -1.36046
| 38>    O      -10.61473        -4.26840        -0.75171
| 39>    C       -9.24688        -5.28291        -2.42694
| 40>    S       -8.73496        -2.49546         0.49544
| 41>    C       -7.28330        -1.62274         0.26996
| 42>    C       -6.66063        -1.89952        -0.91274
| 43>    C       -5.43699        -1.23246        -1.37014
| 44>    C       -5.37617        -0.67226        -2.61449
| 45>    C       -4.15850        -0.13112        -3.09583
| 46>    C       -3.80502         0.44192        -4.30244
| 47>    C       -4.60810         0.84309        -5.49789
| 48>    C       -4.55362        -0.24181        -6.59177
| 49>    N       -4.73850         0.36170        -7.89517
| 50>    C       -6.05728         1.23475        -5.17956
| 51>    N       -6.62562         1.97947        -6.29367
| 52>    C       -2.37195         0.64601        -4.25452
| 53>    C       -1.51309         1.04350        -5.20774
| 54>    C       -0.04637         1.14970        -4.94644
| 55>    C        0.36248         0.76090        -3.56188
| 56>    C       -0.50992         0.33679        -2.62884
| 57>    C       -1.88887         0.24384        -2.92968
| 58>    C       -2.98139        -0.22536        -2.23178
| 59>    C       -3.10328        -0.74158        -0.92033
| 60>    C       -4.30177        -1.21696        -0.49831
| 61>    C        0.35548         2.57337        -5.26181
| 62>    C        0.74886         2.96943        -6.46684
| 63>    C        1.07321         4.35154        -6.80862
| 64>    C        0.49157         5.05407        -7.84268
| 65>    C       -0.53410         4.73412        -8.83914
| 66>    O       -0.82162         5.56382        -9.67457
| 67>    C       -1.20962         3.39108        -8.76749
| 68>    S        1.06056         6.69590        -7.92181
| 69>    C        2.01873         6.45968        -6.54766
| 70>    C        1.97921         5.16967        -6.06058
| 71>    C        2.76249         4.79080        -4.91490
| 72>    C        3.37386         3.60947        -4.65405
| 73>    C        3.86360         3.20680        -3.33273
| 74>    C        4.18947         4.02478        -2.28926
| 75>    C        4.15775         5.43663        -2.32510
| 76>    N        4.16399         6.58365        -2.28947
| 77>    C        4.65417         3.56291        -1.03758
| 78>    N        5.03292         3.25057        -0.00089
| 79>    C        3.95115         1.75397        -3.34980
| 80>    C        3.71157         1.29376        -4.66624
| 81>    C        3.71895        -0.06294        -4.95042
| 82>    C        3.95910        -0.95551        -3.91701
| 83>    C        4.19855        -0.50542        -2.62556
| 84>    C        4.20071         0.84910        -2.32861
| 85>    C        3.51075         2.44640        -5.52744
| 86>    C        3.64296         2.47057        -6.88721
| 87>    C        3.75964         3.65657        -7.64302
| 88>    N        3.93164         4.58546        -8.29367
| 89>    C        3.74405         1.31088        -7.68339
| 90>    N        3.77375         0.39449        -8.37349
| 91>    H       -3.35145        -3.20403        -6.93489
| 92>    H       -0.99315        -2.73538        -6.45263
| 93>    H       -0.17438        -2.63713        -4.13630
| 94>    H       -1.69419        -3.06552        -2.25089
| 95>    H       -7.78737        -3.32229        -3.72419
| 96>    H       -8.21143        -5.60590        -2.35675
| 97>    H       -9.41987        -4.85387        -3.41358
| 98>    H       -9.91187        -6.13520        -2.31180
| 99>    H       -6.96058        -0.91730         1.01081
|100>    H       -6.25445        -0.66890        -3.24105
|101>    H       -4.12625         1.72786        -5.93131
|102>    H       -5.29917        -1.01912        -6.34954
|103>    H       -3.56622        -0.71696        -6.57770
|104>    H       -5.60639         0.89292        -7.88716
|105>    H       -4.81519        -0.35892        -8.60580
|106>    H       -6.07442         1.79447        -4.22895
|107>    H       -6.67065         0.33808        -5.05621
|108>    H       -6.14565         2.86683        -6.40593
|109>    H       -7.60577         2.17746        -6.12445
|110>    H       -1.84552         1.30115        -6.20395
|111>    H        0.46711         0.49400        -5.66679
|112>    H        1.41599         0.83160        -3.34134
|113>    H       -0.16535         0.05314        -1.64500
|114>    H       -2.24043        -0.75987        -0.27165
|115>    H       -4.41759        -1.62470         0.49530
|116>    H        0.24043         3.28088        -4.45254
|117>    H        0.82320         2.24866        -7.27287
|118>    H       -0.52305         2.61967        -9.11157
|119>    H       -2.07853         3.39482        -9.42050
|120>    H       -1.51255         3.16642        -7.74838
|121>    H        2.63476         7.25318        -6.17086
|122>    H        2.83379         5.56549        -4.16233
|123>    H        3.53221        -0.42471        -5.94858
|124>    H        3.95968        -2.01514        -4.12152
|125>    H        4.38416        -1.21873        -1.83754
|126>    H        4.38417         1.18091        -1.32002
|127> *
|128>
|129>                          ****END OF INPUT****

CARTESIAN COORDINATES (ANGSTROEM)
---------------------------------
  C     -3.012120   -3.156900   -5.913230
  C     -1.678860   -2.899540   -5.635240
  C     -1.214520   -2.852520   -4.328080
  C     -2.066600   -3.089010   -3.261510
  C     -3.404010   -3.333850   -3.525410
  C     -3.887020   -3.347410   -4.853640
  C     -5.321490   -3.587620   -4.834420
  C     -6.132480   -3.772200   -5.919660
  C     -5.699940   -3.667270   -7.259390
  N     -5.417560   -3.559050   -8.366250
  C     -7.502050   -4.103340   -5.842140
  N     -8.612530   -4.394620   -5.830010
  C     -5.730290   -3.564150   -3.428320
  C     -4.506210   -3.636560   -2.630600
  C     -4.402210   -4.112750   -1.355100
  C     -5.489020   -4.660110   -0.642630
  N     -6.330740   -5.174870   -0.056830
  C     -3.187110   -4.189420   -0.642320
  N     -2.229290   -4.263390   -0.015150
  C     -6.988930   -3.304860   -2.995340
  C     -7.381970   -2.873290   -1.678170
  C     -8.542590   -3.272790   -1.033560
  C     -9.567570   -4.272520   -1.360460
  O    -10.614730   -4.268400   -0.751710
  C     -9.246880   -5.282910   -2.426940
  S     -8.734960   -2.495460    0.495440
  C     -7.283300   -1.622740    0.269960
  C     -6.660630   -1.899520   -0.912740
  C     -5.436990   -1.232460   -1.370140
  C     -5.376170   -0.672260   -2.614490
  C     -4.158500   -0.131120   -3.095830
  C     -3.805020    0.441920   -4.302440
  C     -4.608100    0.843090   -5.497890
  C     -4.553620   -0.241810   -6.591770
  N     -4.738500    0.361700   -7.895170
  C     -6.057280    1.234750   -5.179560
  N     -6.625620    1.979470   -6.293670
  C     -2.371950    0.646010   -4.254520
  C     -1.513090    1.043500   -5.207740
  C     -0.046370    1.149700   -4.946440
  C      0.362480    0.760900   -3.561880
  C     -0.509920    0.336790   -2.628840
  C     -1.888870    0.243840   -2.929680
  C     -2.981390   -0.225360   -2.231780
  C     -3.103280   -0.741580   -0.920330
  C     -4.301770   -1.216960   -0.498310
  C      0.355480    2.573370   -5.261810
  C      0.748860    2.969430   -6.466840
  C      1.073210    4.351540   -6.808620
  C      0.491570    5.054070   -7.842680
  C     -0.534100    4.734120   -8.839140
  O     -0.821620    5.563820   -9.674570
  C     -1.209620    3.391080   -8.767490
  S      1.060560    6.695900   -7.921810
  C      2.018730    6.459680   -6.547660
  C      1.979210    5.169670   -6.060580
  C      2.762490    4.790800   -4.914900
  C      3.373860    3.609470   -4.654050
  C      3.863600    3.206800   -3.332730
  C      4.189470    4.024780   -2.289260
  C      4.157750    5.436630   -2.325100
  N      4.163990    6.583650   -2.289470
  C      4.654170    3.562910   -1.037580
  N      5.032920    3.250570   -0.000890
  C      3.951150    1.753970   -3.349800
  C      3.711570    1.293760   -4.666240
  C      3.718950   -0.062940   -4.950420
  C      3.959100   -0.955510   -3.917010
  C      4.198550   -0.505420   -2.625560
  C      4.200710    0.849100   -2.328610
  C      3.510750    2.446400   -5.527440
  C      3.642960    2.470570   -6.887210
  C      3.759640    3.656570   -7.643020
  N      3.931640    4.585460   -8.293670
  C      3.744050    1.310880   -7.683390
  N      3.773750    0.394490   -8.373490
  H     -3.351450   -3.204030   -6.934890
  H     -0.993150   -2.735380   -6.452630
  H     -0.174380   -2.637130   -4.136300
  H     -1.694190   -3.065520   -2.250890
  H     -7.787370   -3.322290   -3.724190
  H     -8.211430   -5.605900   -2.356750
  H     -9.419870   -4.853870   -3.413580
  H     -9.911870   -6.135200   -2.311800
  H     -6.960580   -0.917300    1.010810
  H     -6.254450   -0.668900   -3.241050
  H     -4.126250    1.727860   -5.931310
  H     -5.299170   -1.019120   -6.349540
  H     -3.566220   -0.716960   -6.577700
  H     -5.606390    0.892920   -7.887160
  H     -4.815190   -0.358920   -8.605800
  H     -6.074420    1.794470   -4.228950
  H     -6.670650    0.338080   -5.056210
  H     -6.145650    2.866830   -6.405930
  H     -7.605770    2.177460   -6.124450
  H     -1.845520    1.301150   -6.203950
  H      0.467110    0.494000   -5.666790
  H      1.415990    0.831600   -3.341340
  H     -0.165350    0.053140   -1.645000
  H     -2.240430   -0.759870   -0.271650
  H     -4.417590   -1.624700    0.495300
  H      0.240430    3.280880   -4.452540
  H      0.823200    2.248660   -7.272870
  H     -0.523050    2.619670   -9.111570
  H     -2.078530    3.394820   -9.420500
  H     -1.512550    3.166420   -7.748380
  H      2.634760    7.253180   -6.170860
  H      2.833790    5.565490   -4.162330
  H      3.532210   -0.424710   -5.948580
  H      3.959680   -2.015140   -4.121520
  H      4.384160   -1.218730   -1.837540
  H      4.384170    1.180910   -1.320020

 Total Charge           Charge          ....    0
 Multiplicity           Mult            ....    1
 Number of Electrons    NEL             ....  526
 Basis Dimension        Dim             .... 1252

ORBITAL ENERGIES
----------------

  NO   OCC          E(Eh)            E(eV)
   0   2.0000     -88.982561     -2421.3386
   1   2.0000     -88.974982     -2421.1324
   2   2.0000     -19.214702      -522.8586
   3   2.0000     -19.207148      -522.6531
   4   2.0000     -14.439322      -392.9139
   5   2.0000     -14.437626      -392.8678
   6   2.0000     -14.436922      -392.8486
   7   2.0000     -14.435242      -392.8029
   8   2.0000     -14.434337      -392.7783
   9   2.0000     -14.431803      -392.7093
  10   2.0000     -14.431019      -392.6880
  11   2.0000     -14.427877      -392.6025
  12   2.0000     -14.400947      -391.8697
  13   2.0000     -14.367214      -390.9518
  14   2.0000     -10.374624      -282.3079
  15   2.0000     -10.367996      -282.1275
  16   2.0000     -10.367389      -282.1110
  17   2.0000     -10.366296      -282.0813
  18   2.0000     -10.364789      -282.0403
  19   2.0000     -10.363882      -282.0156
  20   2.0000     -10.363478      -282.0046
  21   2.0000     -10.361870      -281.9608
  22   2.0000     -10.361046      -281.9384
  23   2.0000     -10.356105      -281.8039
  24   2.0000     -10.341836      -281.4157
  25   2.0000     -10.340886      -281.3898
  26   2.0000     -10.339187      -281.3436
  27   2.0000     -10.339156      -281.3427
  28   2.0000     -10.337106      -281.2870
  29   2.0000     -10.336716      -281.2763
  30   2.0000     -10.336066      -281.2587
  31   2.0000     -10.334259      -281.2095
  32   2.0000     -10.333357      -281.1849
  33   2.0000     -10.333261      -281.1823
  34   2.0000     -10.332550      -281.1630
  35   2.0000     -10.332225      -281.1541
  36   2.0000     -10.332200      -281.1535
  37   2.0000     -10.329831      -281.0890
  38   2.0000     -10.328463      -281.0518
  39   2.0000     -10.323140      -280.9069
  40   2.0000     -10.322644      -280.8934
  41   2.0000     -10.321751      -280.8691
  42   2.0000     -10.320667      -280.8396
  43   2.0000     -10.319871      -280.8180
  44   2.0000     -10.319340      -280.8035
  45   2.0000     -10.318382      -280.7775
  46   2.0000     -10.318231      -280.7733
  47   2.0000     -10.317322      -280.7486
  48   2.0000     -10.316913      -280.7375
  49   2.0000     -10.315195      -280.6907
  50   2.0000     -10.314944      -280.6839
  51   2.0000     -10.313255      -280.6379
  52   2.0000     -10.312993      -280.6308
  53   2.0000     -10.311340      -280.5858
  54   2.0000     -10.310732      -280.5693
  55   2.0000     -10.310568      -280.5648
  56   2.0000     -10.309957      -280.5482
  57   2.0000     -10.309829      -280.5447
  58   2.0000     -10.308509      -280.5088
  59   2.0000     -10.302687      -280.3504
  60   2.0000     -10.300082      -280.2795
  61   2.0000     -10.299187      -280.2551
  62   2.0000     -10.293747      -280.1071
  63   2.0000     -10.290811      -280.0272
  64   2.0000     -10.289898      -280.0024
  65   2.0000     -10.288566      -279.9661
  66   2.0000     -10.287007      -279.9237
  67   2.0000     -10.286920      -279.9213
  68   2.0000     -10.286531      -279.9107
  69   2.0000     -10.284909      -279.8666
  70   2.0000     -10.281965      -279.7865
  71   2.0000     -10.280874      -279.7568
  72   2.0000     -10.280607      -279.7495
  73   2.0000     -10.279332      -279.7148
  74   2.0000     -10.278942      -279.7042
  75   2.0000     -10.266739      -279.3722
  76   2.0000      -8.078016      -219.8140
  77   2.0000      -8.070486      -219.6091
  78   2.0000      -6.047057      -164.5488
  79   2.0000      -6.042563      -164.4265
  80   2.0000      -6.040850      -164.3799
  81   2.0000      -6.039540      -164.3442
  82   2.0000      -6.035141      -164.2245
  83   2.0000      -6.033227      -164.1724
  84   2.0000      -1.135767       -30.9058
  85   2.0000      -1.127516       -30.6813
  86   2.0000      -1.053771       -28.6746
  87   2.0000      -1.048650       -28.5352
  88   2.0000      -1.033862       -28.1328
  89   2.0000      -1.030576       -28.0434
  90   2.0000      -1.023800       -27.8590
  91   2.0000      -1.018554       -27.7163
  92   2.0000      -1.018395       -27.7119
  93   2.0000      -1.014464       -27.6050
  94   2.0000      -1.014064       -27.5941
  95   2.0000      -1.011449       -27.5229
  96   2.0000      -1.009676       -27.4747
  97   2.0000      -1.005050       -27.3488
  98   2.0000      -1.000669       -27.2296
  99   2.0000      -0.984783       -26.7973
 100   2.0000      -0.976826       -26.5808
 101   2.0000      -0.969708       -26.3871
 102   2.0000      -0.965203       -26.2645
 103   2.0000      -0.957159       -26.0456
 104   2.0000      -0.952519       -25.9194
 105   2.0000      -0.949508       -25.8374
 106   2.0000      -0.934685       -25.4341
 107   2.0000      -0.919743       -25.0275
 108   2.0000      -0.915781       -24.9197
 109   2.0000      -0.912189       -24.8219
 110   2.0000      -0.907352       -24.6903
 111   2.0000      -0.903686       -24.5906
 112   2.0000      -0.890406       -24.2292
 113   2.0000      -0.885059       -24.0837
 114   2.0000      -0.876709       -23.8565
 115   2.0000      -0.872195       -23.7336
 116   2.0000      -0.862526       -23.4705
 117   2.0000      -0.857315       -23.3287
 118   2.0000      -0.853483       -23.2245
 119   2.0000      -0.848416       -23.0866
 120   2.0000      -0.841961       -22.9109
 121   2.0000      -0.831664       -22.6307
 122   2.0000      -0.820783       -22.3346
 123   2.0000      -0.808258       -21.9938
 124   2.0000      -0.803163       -21.8552
 125   2.0000      -0.801843       -21.8193
 126   2.0000      -0.796081       -21.6625
 127   2.0000      -0.790340       -21.5062
 128   2.0000      -0.774213       -21.0674
 129   2.0000      -0.751782       -20.4570
 130   2.0000      -0.736248       -20.0343
 131   2.0000      -0.735767       -20.0212
 132   2.0000      -0.732491       -19.9321
 133   2.0000      -0.728555       -19.8250
 134   2.0000      -0.727179       -19.7875
 135   2.0000      -0.726553       -19.7705
 136   2.0000      -0.715751       -19.4766
 137   2.0000      -0.704974       -19.1833
 138   2.0000      -0.702500       -19.1160
 139   2.0000      -0.699684       -19.0394
 140   2.0000      -0.694871       -18.9084
 141   2.0000      -0.687386       -18.7047
 142   2.0000      -0.684509       -18.6264
 143   2.0000      -0.682677       -18.5766
 144   2.0000      -0.680363       -18.5136
 145   2.0000      -0.678082       -18.4515
 146   2.0000      -0.673840       -18.3361
 147   2.0000      -0.664813       -18.0905
 148   2.0000      -0.661033       -17.9876
 149   2.0000      -0.653272       -17.7764
 150   2.0000      -0.638392       -17.3715
 151   2.0000      -0.637533       -17.3481
 152   2.0000      -0.625282       -17.0148
 153   2.0000      -0.621415       -16.9096
 154   2.0000      -0.613256       -16.6876
 155   2.0000      -0.606818       -16.5124
 156   2.0000      -0.604623       -16.4526
 157   2.0000      -0.599697       -16.3186
 158   2.0000      -0.598131       -16.2760
 159   2.0000      -0.595950       -16.2166
 160   2.0000      -0.588974       -16.0268
 161   2.0000      -0.582685       -15.8557
 162   2.0000      -0.578626       -15.7452
 163   2.0000      -0.576906       -15.6984
 164   2.0000      -0.572413       -15.5761
 165   2.0000      -0.568790       -15.4776
 166   2.0000      -0.566874       -15.4254
 167   2.0000      -0.561903       -15.2902
 168   2.0000      -0.560110       -15.2414
 169   2.0000      -0.559500       -15.2248
 170   2.0000      -0.555767       -15.1232
 171   2.0000      -0.555521       -15.1165
 172   2.0000      -0.551319       -15.0022
 173   2.0000      -0.550733       -14.9862
 174   2.0000      -0.544950       -14.8288
 175   2.0000      -0.541795       -14.7430
 176   2.0000      -0.541301       -14.7296
 177   2.0000      -0.537005       -14.6126
 178   2.0000      -0.535753       -14.5786
 179   2.0000      -0.534162       -14.5353
 180   2.0000      -0.531861       -14.4727
 181   2.0000      -0.527933       -14.3658
 182   2.0000      -0.527437       -14.3523
 183   2.0000      -0.525765       -14.3068
 184   2.0000      -0.523883       -14.2556
 185   2.0000      -0.523353       -14.2411
 186   2.0000      -0.519279       -14.1303
 187   2.0000      -0.517164       -14.0728
 188   2.0000      -0.515833       -14.0365
 189   2.0000      -0.514560       -14.0019
 190   2.0000      -0.509883       -13.8746
 191   2.0000      -0.507216       -13.8021
 192   2.0000      -0.504847       -13.7376
 193   2.0000      -0.501879       -13.6568
 194   2.0000      -0.496495       -13.5103
 195   2.0000      -0.493438       -13.4271
 196   2.0000      -0.491443       -13.3729
 197   2.0000      -0.490114       -13.3367
 198   2.0000      -0.485898       -13.2219
 199   2.0000      -0.481841       -13.1116
 200   2.0000      -0.480220       -13.0675
 201   2.0000      -0.479137       -13.0380
 202   2.0000      -0.476963       -12.9788
 203   2.0000      -0.474937       -12.9237
 204   2.0000      -0.474199       -12.9036
 205   2.0000      -0.471141       -12.8204
 206   2.0000      -0.469873       -12.7859
 207   2.0000      -0.469252       -12.7690
 208   2.0000      -0.468078       -12.7371
 209   2.0000      -0.467533       -12.7222
 210   2.0000      -0.466027       -12.6812
 211   2.0000      -0.464233       -12.6324
 212   2.0000      -0.462919       -12.5967
 213   2.0000      -0.462606       -12.5881
 214   2.0000      -0.461918       -12.5694
 215   2.0000      -0.460480       -12.5303
 216   2.0000      -0.458575       -12.4785
 217   2.0000      -0.456434       -12.4202
 218   2.0000      -0.456187       -12.4135
 219   2.0000      -0.454083       -12.3562
 220   2.0000      -0.451674       -12.2907
 221   2.0000      -0.450509       -12.2590
 222   2.0000      -0.447597       -12.1797
 223   2.0000      -0.446618       -12.1531
 224   2.0000      -0.445588       -12.1251
 225   2.0000      -0.444070       -12.0838
 226   2.0000      -0.443600       -12.0710
 227   2.0000      -0.440750       -11.9934
 228   2.0000      -0.440074       -11.9750
 229   2.0000      -0.437652       -11.9091
 230   2.0000      -0.435082       -11.8392
 231   2.0000      -0.433492       -11.7959
 232   2.0000      -0.431183       -11.7331
 233   2.0000      -0.428656       -11.6643
 234   2.0000      -0.428074       -11.6485
 235   2.0000      -0.427899       -11.6437
 236   2.0000      -0.427220       -11.6253
 237   2.0000      -0.425227       -11.5710
 238   2.0000      -0.423882       -11.5344
 239   2.0000      -0.416400       -11.3308
 240   2.0000      -0.412970       -11.2375
 241   2.0000      -0.408070       -11.1041
 242   2.0000      -0.403338       -10.9754
 243   2.0000      -0.393518       -10.7082
 244   2.0000      -0.388208       -10.5637
 245   2.0000      -0.382939       -10.4203
 246   2.0000      -0.376780       -10.2527
 247   2.0000      -0.373463       -10.1624
 248   2.0000      -0.358353        -9.7513
 249   2.0000      -0.351677        -9.5696
 250   2.0000      -0.348599        -9.4859
 251   2.0000      -0.342555        -9.3214
 252   2.0000      -0.340992        -9.2789
 253   2.0000      -0.334708        -9.1079
 254   2.0000      -0.333804        -9.0833
 255   2.0000      -0.324408        -8.8276
 256   2.0000      -0.323832        -8.8119
 257   2.0000      -0.321407        -8.7459
 258   2.0000      -0.308344        -8.3905
 259   2.0000      -0.308176        -8.3859
 260   2.0000      -0.303645        -8.2626
 261   2.0000      -0.296113        -8.0576
 262   2.0000      -0.242742        -6.6053
 263   0.0000      -0.104603        -2.8464
 264   0.0000      -0.103884        -2.8268
 265   0.0000      -0.103795        -2.8244
 266   0.0000      -0.099982        -2.7207
 267   0.0000      -0.083838        -2.2813

MULLIKEN ATOMIC CHARGES
-----------------------
   0 C :   -0.052738
   1 C :    0.048745
   2 C :    0.053055
   3 C :    0.004172
   4 C :    0.012463
   5 C :    0.032651
   6 C :    0.292571
   7 C :   -0.347424
   8 C :   -0.187503
   9 N :    0.163846
  10 C :   -0.183471
  11 N :    0.165743
  12 C :   -0.050728
  13 C :    0.265482
  14 C :   -0.336689
  15 C :   -0.181445
  16 N :    0.188781
  17 C :   -0.204197
  18 N :    0.175192
  19 C :   -0.052500
  20 C :    0.078283
  21 C :   -0.186534
  22 C :    0.025556
  23 O :   -0.180193
  24 C :    0.032747
  25 S :    0.219383
  26 C :   -0.112988
  27 C :    0.072683
  28 C :    0.016212
  29 C :   -0.052007
  30 C :    0.027701
  31 C :   -0.023337
  32 C :   -0.064316
  33 C :    0.146835
  34 N :   -0.230302
  35 C :    0.130087
  36 N :   -0.212742
  37 C :    0.083385
  38 C :   -0.130314
  39 C :    0.158539
  40 C :   -0.055836
  41 C :    0.013181
  42 C :    0.017429
  43 C :    0.036975
  44 C :   -0.028366
  45 C :    0.028470
  46 C :   -0.038048
  47 C :   -0.027059
  48 C :    0.119776
  49 C :   -0.222390
  50 C :    0.023692
  51 O :   -0.182402
  52 C :    0.040622
  53 S :    0.236570
  54 C :   -0.059425
  55 C :    0.002213
  56 C :    0.001670
  57 C :   -0.061395
  58 C :    0.290836
  59 C :   -0.337807
  60 C :   -0.190239
  61 N :    0.168229
  62 C :   -0.192806
  63 N :    0.174560
  64 C :    0.009834
  65 C :   -0.007996
  66 C :   -0.035945
  67 C :    0.046316
  68 C :    0.047659
  69 C :   -0.029886
  70 C :    0.264782
  71 C :   -0.342480
  72 C :   -0.185776
  73 N :    0.195276
  74 C :   -0.203914
  75 N :    0.172861
  76 H :    0.007863
  77 H :    0.000534
  78 H :   -0.004115
  79 H :   -0.000671
  80 H :    0.031470
  81 H :    0.044002
  82 H :    0.053919
  83 H :    0.037509
  84 H :    0.028509
  85 H :   -0.044841
  86 H :   -0.021212
  87 H :   -0.028074
  88 H :   -0.006104
  89 H :    0.086027
  90 H :    0.089743
  91 H :    0.003461
  92 H :    0.003428
  93 H :    0.102079
  94 H :    0.100616
  95 H :    0.007348
  96 H :    0.026014
  97 H :   -0.020175
  98 H :   -0.035141
  99 H :   -0.023923
 100 H :   -0.014059
 101 H :    0.018891
 102 H :    0.016862
 103 H :    0.045858
 104 H :    0.042459
 105 H :    0.048075
 106 H :    0.044369
 107 H :    0.029485
 108 H :    0.004298
 109 H :    0.009315
 110 H :    0.012040
 111 H :    0.010278
Sum of atomic charges:   -0.0000000

LOEWDIN ATOMIC CHARGES
----------------------
   0 C :    0.008157
   1 C :   -0.000358
   2 C :    0.008905
   3 C :    0.013312
   4 C :   -0.001445
   5 C :   -0.012391
   6 C :    0.083487
   7 C :   -0.133789
   8 C :   -0.016975
   9 N :   -0.045191
  10 C :   -0.016109
  11 N :   -0.041832
  12 C :   -0.038413
  13 C :    0.076235
  14 C :   -0.117025
  15 C :   -0.018111
  16 N :   -0.039508
  17 C :   -0.015674
  18 N :   -0.046329
  19 C :    0.063621
  20 C :   -0.063358
  21 C :   -0.189288
  22 C :    0.062214
  23 O :   -0.148235
  24 C :   -0.076812
  25 S :    0.530281
  26 C :   -0.163086
  27 C :   -0.053756
  28 C :   -0.029607
  29 C :   -0.019177
  30 C :   -0.025113
  31 C :   -0.031281
  32 C :   -0.040278
  33 C :    0.027490
  34 N :   -0.131480
  35 C :    0.024849
  36 N :   -0.097316
  37 C :   -0.015588
  38 C :    0.062791
  39 C :   -0.029066
  40 C :   -0.040479
  41 C :   -0.014988
  42 C :   -0.035754
  43 C :   -0.030876
  44 C :   -0.006828
  45 C :   -0.027030
  46 C :    0.004474
  47 C :   -0.032736
  48 C :   -0.031863
  49 C :   -0.209816
  50 C :    0.058696
  51 O :   -0.152626
  52 C :   -0.072227
  53 S :    0.543656
  54 C :   -0.131000
  55 C :   -0.088718
  56 C :    0.072161
  57 C :   -0.052693
  58 C :    0.078132
  59 C :   -0.125026
  60 C :   -0.022323
  61 N :   -0.036683
  62 C :   -0.019949
  63 N :   -0.037543
  64 C :   -0.014751
  65 C :   -0.013308
  66 C :   -0.001090
  67 C :    0.005002
  68 C :    0.005153
  69 C :    0.005984
  70 C :    0.074709
  71 C :   -0.123616
  72 C :   -0.022760
  73 N :   -0.031540
  74 C :   -0.021448
  75 N :   -0.042349
  76 H :    0.040031
  77 H :    0.036037
  78 H :    0.034489
  79 H :    0.039084
  80 H :    0.046698
  81 H :    0.037225
  82 H :    0.048311
  83 H :    0.047460
  84 H :    0.029178
  85 H :    0.023401
  86 H :    0.024092
  87 H :   -0.004688
  88 H :    0.009882
  89 H :    0.037036
  90 H :    0.053633
  91 H :    0.005283
  92 H :    0.014418
  93 H :    0.057270
  94 H :    0.059827
  95 H :    0.033367
  96 H :    0.053386
  97 H :    0.024137
  98 H :    0.031109
  99 H :    0.031640
 100 H :    0.030098
 101 H :    0.031761
 102 H :    0.031877
 103 H :    0.046896
 104 H :    0.047660
 105 H :    0.036965
 106 H :    0.035405
 107 H :    0.050830
 108 H :    0.039971
 109 H :    0.039423
 110 H :    0.040866
 111 H :    0.043245

  Mayer bond orders larger than 0.100000
B(  0-C ,  1-C ) :   1.3620 B(  0-C ,  5-C ) :   1.3704 B(  0-C , 76-H ) :   0.9795
B(  1-C ,  2-C ) :   1.3649 B(  1-C , 77-H ) :   0.9886 B(  2-C ,  3-C ) :   1.3641
B(  2-C , 78-H ) :   0.9859 B(  3-C ,  4-C ) :   1.3933 B(  3-C , 79-H ) :   0.9792
B(  4-C ,  5-C ) :   1.3131 B(  4-C , 13-C ) :   1.0258 B(  5-C ,  6-C ) :   1.0108
B(  6-C ,  7-C ) :   1.6505 B(  6-C , 12-C ) :   1.0255 B(  7-C ,  8-C ) :   1.1428
B(  7-C , 10-C ) :   1.1521 B(  8-C ,  9-N ) :   2.9570 B( 10-C , 11-N ) :   2.9569
B( 12-C , 13-C ) :   0.9897 B( 12-C , 19-C ) :   1.7162 B( 13-C , 14-C ) :   1.6690
B( 14-C , 15-C ) :   1.1691 B( 14-C , 17-C ) :   1.1418 B( 15-C , 16-N ) :   2.9775
B( 17-C , 18-N ) :   2.9853 B( 19-C , 20-C ) :   1.0423 B( 19-C , 80-H ) :   0.9274
B( 20-C , 21-C ) :   1.4461 B( 20-C , 27-C ) :   1.2767 B( 21-C , 22-C ) :   0.9417
B( 21-C , 25-S ) :   1.1952 B( 22-C , 23-O ) :   2.1967 B( 22-C , 24-C ) :   1.0767
B( 24-C , 81-H ) :   0.9423 B( 24-C , 82-H ) :   0.9273 B( 24-C , 83-H ) :   0.9310
B( 25-S , 26-C ) :   1.1879 B( 26-C , 27-C ) :   1.5543 B( 26-C , 84-H ) :   0.9689
B( 27-C , 28-C ) :   0.9632 B( 28-C , 29-C ) :   1.5773 B( 28-C , 45-C ) :   1.1324
B( 29-C , 30-C ) :   1.1117 B( 29-C , 85-H ) :   0.9904 B( 30-C , 31-C ) :   1.4933
B( 30-C , 43-C ) :   1.1255 B( 31-C , 32-C ) :   1.0235 B( 31-C , 37-C ) :   1.1018
B( 32-C , 33-C ) :   1.0330 B( 32-C , 35-C ) :   1.0449 B( 32-C , 86-H ) :   0.8817
B( 33-C , 34-N ) :   1.0942 B( 33-C , 87-H ) :   0.9182 B( 33-C , 88-H ) :   0.9382
B( 34-N , 89-H ) :   0.9394 B( 34-N , 90-H ) :   0.9625 B( 35-C , 36-N ) :   1.0794
B( 35-C , 91-H ) :   0.9550 B( 35-C , 92-H ) :   0.9201 B( 36-N , 89-H ) :   0.1021
B( 36-N , 93-H ) :   0.9639 B( 36-N , 94-H ) :   0.9652 B( 37-C , 38-C ) :   1.6815
B( 37-C , 42-C ) :   1.0490 B( 38-C , 39-C ) :   0.9677 B( 38-C , 95-H ) :   0.9589
B( 39-C , 40-C ) :   0.9662 B( 39-C , 46-C ) :   0.9612 B( 39-C , 96-H ) :   0.8643
B( 40-C , 41-C ) :   1.7188 B( 40-C , 97-H ) :   0.9811 B( 41-C , 42-C ) :   1.1236
B( 41-C , 98-H ) :   0.9929 B( 42-C , 43-C ) :   1.4255 B( 43-C , 44-C ) :   1.1308
B( 44-C , 45-C ) :   1.5921 B( 44-C , 99-H ) :   1.0000 B( 45-C ,100-H ) :   0.9827
B( 46-C , 47-C ) :   1.8678 B( 46-C ,101-H ) :   0.9722 B( 47-C , 48-C ) :   1.0354
B( 47-C ,102-H ) :   0.9202 B( 48-C , 49-C ) :   1.5100 B( 48-C , 55-C ) :   1.2511
B( 49-C , 50-C ) :   0.9477 B( 49-C , 53-S ) :   1.1498 B( 50-C , 51-O ) :   2.1916
B( 50-C , 52-C ) :   1.0784 B( 52-C ,103-H ) :   0.9415 B( 52-C ,104-H ) :   0.9322
B( 52-C ,105-H ) :   0.9407 B( 53-S , 54-C ) :   1.2492 B( 54-C , 55-C ) :   1.4574
B( 54-C ,106-H ) :   0.9709 B( 55-C , 56-C ) :   1.0686 B( 56-C , 57-C ) :   1.6910
B( 56-C ,107-H ) :   0.9319 B( 57-C , 58-C ) :   1.0272 B( 57-C , 70-C ) :   0.9984
B( 58-C , 59-C ) :   1.6677 B( 58-C , 64-C ) :   1.0023 B( 59-C , 60-C ) :   1.1336
B( 59-C , 62-C ) :   1.1448 B( 60-C , 61-N ) :   2.9873 B( 62-C , 63-N ) :   2.9832
B( 64-C , 65-C ) :   1.3070 B( 64-C , 69-C ) :   1.3727 B( 65-C , 66-C ) :   1.3784
B( 65-C , 70-C ) :   1.0186 B( 66-C , 67-C ) :   1.3621 B( 66-C ,108-H ) :   0.9873
B( 67-C , 68-C ) :   1.3702 B( 67-C ,109-H ) :   0.9874 B( 68-C , 69-C ) :   1.3710
B( 68-C ,110-H ) :   0.9866 B( 69-C ,111-H ) :   0.9851 B( 70-C , 71-C ) :   1.6545
B( 71-C , 72-C ) :   1.1597 B( 71-C , 74-C ) :   1.1462 B( 72-C , 73-N ) :   3.0137
B( 74-C , 75-N ) :   2.9893

-----------------------------------------------------------------------------
         ABSORPTION SPECTRUM VIA TRANSITION ELECTRIC DIPOLE MOMENTS
-----------------------------------------------------------------------------
State   Energy  Wavelength   fosc         T2         TX        TY        TZ
        (cm-1)    (nm)                  (au**2)     (au)      (au)      (au)
-----------------------------------------------------------------------------
   0   11947.9    837.0   0.017902666   0.49329  -0.54271  -0.44328  -0.04750
   1   12463.3    802.4   0.004930076   0.13023  -0.03884  -0.22633  -0.27838
   2   15393.3    649.6   0.029330656   0.62729   0.64329  -0.22760   0.40207
   3   16316.0    612.9   0.006713120   0.13545  -0.35694  -0.02747  -0.08539
   4   16659.9    600.2   0.004478182   0.08849   0.29233   0.00542   0.05485
   5   23628.7    423.2   0.000936592   0.01305   0.04370   0.09079   0.05381
   6   24460.1    408.8   0.002661450   0.03582   0.17071  -0.01116   0.08096
   7   24561.3    407.1   0.143165875   1.91895  -0.87993   1.06959  -0.02550
   8   25165.7    397.4   0.031998876   0.41860   0.32582  -0.33975  -0.44386
   9   25728.3    388.7   0.003879056   0.04964   0.18593   0.07303   0.09864
  10   26260.6    380.8   0.111034809   1.39197   1.04569  -0.37265  -0.39954
  11   26719.6    374.3   0.229314460   2.82538   0.95826  -0.03684   1.38049
  12   27036.3    369.9   0.213517765   2.59994  -0.57349  -0.40675  -1.45107
  13   27372.9    365.3   0.033803816   0.40656   0.07617   0.22409   0.59206
  14   27899.5    358.4   0.046903042   0.55345   0.73385   0.12128  -0.01443
  15   28249.6    354.0   0.013493386   0.15725  -0.13164   0.17087   0.33275
  16   28412.9    352.0   0.003248877   0.03764   0.05264  -0.02697  -0.18478
  17   28668.1    348.8   0.006165905   0.07081   0.09321  -0.08696   0.23357
  18   28758.8    347.7   0.013609105   0.15579  -0.29604   0.21691   0.14525
  19   29092.2    343.7   0.080961263   0.91617  -0.70601   0.62095  -0.17927
  20   29567.7    338.2   0.221420223   2.46534  -0.98218  -0.94228   0.78278
  21   30072.0    332.5   0.001152610   0.01262   0.06668  -0.05260   0.07352
  22   30277.6    330.3   0.200623230   2.18140   0.42166   0.17786  -1.40427
  23   30519.6    327.7   0.222786890   2.40318  -0.01009  -0.56377   1.44403
  24   31337.6    319.1   0.001977553   0.02077   0.07109   0.09536   0.08141
  25   31338.4    319.1   0.003034731   0.03188   0.09785   0.14352   0.04132
  26   31432.5    318.1   0.003019150   0.03162  -0.01296  -0.00876   0.17714
  27   31566.0    316.8   0.075354229   0.78589   0.24685  -0.29042   0.80038
  28   31838.4    314.1   0.027097417   0.28019  -0.11077  -0.11507  -0.50466
  29   32159.1    311.0   0.003730341   0.03819  -0.12117   0.02498  -0.15127
  30   32280.4    309.8   0.301726164   3.07715  -0.43343  -0.64171  -1.57401
  31   32462.5    308.0   0.021391365   0.21694  -0.05172  -0.38309   0.25982
  32   33232.7    300.9   0.000698533   0.00692   0.07148  -0.02331   0.03559
  33   33398.8    299.4   0.120282614   1.18563  -0.04645   0.36629  -1.02435
  34   33706.5    296.7   0.004657945   0.04549   0.12050   0.15500   0.08335
  35   33767.9    296.1   0.202924187   1.97836  -1.31602  -0.38688  -0.31108
  36   34144.6    292.9   0.010486087   0.10110  -0.03111  -0.29836  -0.10544
  37   34645.3    288.6   0.005941953   0.05646  -0.17421  -0.01756   0.16064
  38   34725.5    288.0   0.206391133   1.95667  -0.13148  -0.24784   1.37039
  39   34754.1    287.7   0.053093825   0.50294   0.09774   0.06313   0.69957
  40   34947.4    286.1   0.007032936   0.06625   0.07789  -0.06974   0.23520
  41   35165.1    284.4   0.094577909   0.88543   0.65476  -0.20952   0.64251
  42   35203.1    284.1   0.059293117   0.55450  -0.54659  -0.50370   0.04495
  43   35280.9    283.4   0.023468844   0.21899   0.42261   0.00103   0.20098
  44   35343.5    282.9   0.005357834   0.04991  -0.20768   0.07305   0.03792
  45   35350.9    282.9   0.044249333   0.41208   0.53212   0.09678   0.34578
  46   35456.4    282.0   0.002767777   0.02570  -0.08584  -0.04187   0.12875
  47   35485.7    281.8   0.246364181   2.28560   1.19773   0.72643  -0.56862
  48   35727.9    279.9   0.244814563   2.25582  -0.77339  -1.27666   0.16680
  49   35820.2    279.2   0.120934486   1.11147   0.68497   0.70081  -0.38878
  50   36082.8    277.1   0.145875443   1.33094   0.51268  -1.03340  -0.01343
  51   36847.1    271.4   0.007410966   0.06621   0.05561  -0.21667   0.12718
  52   37121.5    269.4   0.222366882   1.97206  -1.03849  -0.50583   0.79859
  53   37191.3    268.9   0.106193494   0.94001   0.31953  -0.80386  -0.43786
  54   37439.0    267.1   0.012164059   0.10696   0.08226   0.31422  -0.03825
  55   37729.2    265.0   0.000780389   0.00681  -0.00029   0.02904  -0.07724
  56   37813.6    264.5   0.359853761   3.13295  -0.61929  -1.43134   0.83707
  57   37948.6    263.5   0.241986791   2.09929  -0.63876   0.37226   1.24607
  58   38216.4    261.7   0.009035260   0.07783   0.07616   0.19939   0.17965
  59   38314.0    261.0   0.033807547   0.29049   0.12316  -0.15878   0.50011
  60   38393.6    260.5   0.006715069   0.05758  -0.09843   0.09474  -0.19727
  61   38409.1    260.4   0.045260425   0.38794   0.06860   0.27937  -0.55244
  62   38702.0    258.4   0.021065525   0.17919  -0.23753   0.07519   0.34222
  63   38763.1    258.0   0.010620619   0.09020  -0.10224   0.22132  -0.17539
  64   38822.3    257.6   0.032842590   0.27850  -0.16281   0.23445  -0.44388
  65   38944.8    256.8   0.001412381   0.01194  -0.02807  -0.09730  -0.04103
  66   39044.8    256.1   0.054244754   0.45737  -0.34920  -0.41880   0.40005
  67   39602.3    252.5   0.004579832   0.03807   0.05418   0.12883  -0.13616
  68   39732.7    251.7   0.017939513   0.14864  -0.00744  -0.37822   0.07438
  69   39813.2    251.2   0.017991441   0.14877  -0.03624   0.22500  -0.31118
  70   40164.8    249.0   0.009692515   0.07945  -0.08001  -0.26790   0.03567

FINAL SINGLE POINT ENERGY     -3874.145192597877

DIPOLE MOMENT
-------------
                                X             Y             Z
Electronic contribution:     21.72753       4.56304      18.08589
Nuclear contribution   :    -20.69532      -4.17846     -17.63700
                        -----------------------------------------
Total Dipole Moment    :      1.03220       0.38458       0.44890
                        -----------------------------------------
Magnitude (a.u.)       :      1.18947
Magnitude (Debye)      :      3.02341

Rotational constants in cm-1:     0.001654     0.000514     0.000465
Rotational constants in MHz :    49.585684    15.418884    13.946794

                             ****ORCA TERMINATED NORMALLY****
TOTAL RUN TIME: 0 days 0 hours 18 minutes 37 seconds 2 msec
