                         Program Version 4.2.0 -  RELEASE  -
|  1> # ORCA input file
|  2> # SCF done       -163.613697087096          0.000558631133
|  3> ! CAM-B3LYP def2-SVP def2/J RIJCOSX Grid4 TightSCF
|  4> %maxcore 5000
|  5> %tddft
|  6>     Mode sTDDFT
|  7>     Ethresh 5.0
|  8>     maxcore 5000
|  9> end
| 10>
| 11> %pal
| 12>   nprocs 6
| 13>   end
| 14> * xyz 0 1
| 15>    C        3.82222        -1.09397         3.64447
| 16>    C        4.05557        -2.45540         3.82831
| 17>    C        3.46674        -3.41227         3.02323
| 18>    C        2.61399        -2.96444         2.02416
| 19>    C        2.39337        -1.58323         1.84540
| 20>    C        2.98908        -0.62750         2.64083
| 21>    O        1.49333        -1.43884         0.82843
| 22>    C        1.18723        -2.71404         0.48731
| 23>    N        1.82463        -3.64314         1.12385
| 24>    N        0.25725        -2.96025        -0.47359
| 25>    C       -0.70311        -2.10618        -0.96356
| 26>    S       -1.19344        -2.32740        -2.61554
| 27>    C       -2.22619        -0.93880        -2.48975
| 28>    N       -2.99050        -0.57902        -3.60562
| 29>    O       -3.70207         0.40389        -3.51019
| 30>    O       -2.88407        -1.28020        -4.59729
| 31>    C       -2.18027        -0.34896        -1.25608
| 32>    C       -1.33659        -1.02293        -0.34970
| 33>    C       -1.17474        -0.61171         1.02431
| 34>    C       -0.91184        -1.47793         2.02478
| 35>    C       -0.40374        -1.13641         3.31278
| 36>    C        0.17171        -2.15996         4.09702
| 37>    C        1.00117        -1.88578         5.24549
| 38>    N        1.61447        -2.88240         5.86642
| 39>    C        1.45669        -4.12933         5.44764
| 40>    C        0.58750        -4.40163         4.35334
| 41>    N       -0.02226        -3.43539         3.71236
| 42>    C        0.37361        -5.74041         3.93723
| 43>    N        0.22017        -6.83320         3.63063
| 44>    C        2.15934        -5.17205         6.08453
| 45>    N        2.71993        -6.05175         6.56396
| 46>    C        1.21733        -0.55581         5.71486
| 47>    C        0.54004         0.46153         4.97517
| 48>    C       -0.23144         0.18369         3.79096
| 49>    N       -0.71308         1.29862         3.24533
| 50>    S       -0.25470         2.56541         4.13409
| 51>    N        0.58921         1.75860         5.24830
| 52>    C        2.03681        -0.16772         6.76970
| 53>    C        2.87789        -0.87725         7.61865
| 54>    C        3.63884        -0.23661         8.61814
| 55>    C        4.43760        -1.07360         9.35219
| 56>    C        4.33213        -2.40983         8.94905
| 57>    S        3.19381        -2.58980         7.63042
| 58>    C        4.99129        -3.52324         9.47618
| 59>    C        5.90066        -3.56197        10.54892
| 60>    C        6.36094        -4.81697        10.84006
| 61>    C        5.83922        -5.82623        10.00661
| 62>    S        4.74274        -5.11105         8.82744
| 63>    C        6.04990        -7.19015         9.96019
| 64>    C        6.80349        -8.01622        10.80651
| 65>    C        7.48507        -7.74563        12.00883
| 66>    C        8.07327        -8.93521        12.47353
| 67>    C        8.83478        -9.20363        13.60003
| 68>    C        9.28190       -10.51243        13.78512
| 69>    C       10.05132       -11.09403        14.79185
| 70>    C       10.22649       -12.47619        14.50189
| 71>    C        9.56435       -12.75570        13.31275
| 72>    C        8.95956       -11.56107        12.82829
| 73>    C        8.20417       -11.30554        11.71357
| 74>    C        7.74745        -9.98504        11.52091
| 75>    C        6.97599        -9.41755        10.52768
| 76>    C       10.95768       -13.44376        15.28450
| 77>    C       11.59278       -13.19331        16.42635
| 78>    H        4.29804        -0.38445         4.30413
| 79>    H        4.70583        -2.77094         4.63049
| 80>    H        3.64140        -4.46655         3.16733
| 81>    H        2.80181         0.42367         2.49247
| 82>    H        0.29210        -3.89967        -0.84513
| 83>    H       -2.76473         0.51698        -1.00203
| 84>    H       -1.23078         0.44751         1.22665
| 85>    H       -0.95424        -2.54364         1.84050
| 86>    H        2.02757         0.90262         6.94611
| 87>    H        3.57865         0.82682         8.77115
| 88>    H        5.07984        -0.74669        10.15067
| 89>    H        6.19423        -2.67481        11.08091
| 90>    H        7.07322        -5.01795        11.61740
| 91>    H        5.55241        -7.70203         9.14477
| 92>    H        7.53617        -6.80577        12.52261
| 93>    H        9.07698        -8.42803        14.31283
| 94>    H       10.44772       -10.58029        15.64806
| 95>    H        9.51244       -13.71483        12.83057
| 96>    H        7.95894       -12.07967        11.00041
| 97>    H        6.56552        -9.91973         9.67043
| 98>    H       10.96704       -14.44655        14.87577
| 99>    H       11.61124       -12.21327        16.87141
|100>    H       12.11957       -13.96645        16.95803
|101> *
|102>
|103>                          ****END OF INPUT****

CARTESIAN COORDINATES (ANGSTROEM)
---------------------------------
  C      3.822220   -1.093970    3.644470
  C      4.055570   -2.455400    3.828310
  C      3.466740   -3.412270    3.023230
  C      2.613990   -2.964440    2.024160
  C      2.393370   -1.583230    1.845400
  C      2.989080   -0.627500    2.640830
  O      1.493330   -1.438840    0.828430
  C      1.187230   -2.714040    0.487310
  N      1.824630   -3.643140    1.123850
  N      0.257250   -2.960250   -0.473590
  C     -0.703110   -2.106180   -0.963560
  S     -1.193440   -2.327400   -2.615540
  C     -2.226190   -0.938800   -2.489750
  N     -2.990500   -0.579020   -3.605620
  O     -3.702070    0.403890   -3.510190
  O     -2.884070   -1.280200   -4.597290
  C     -2.180270   -0.348960   -1.256080
  C     -1.336590   -1.022930   -0.349700
  C     -1.174740   -0.611710    1.024310
  C     -0.911840   -1.477930    2.024780
  C     -0.403740   -1.136410    3.312780
  C      0.171710   -2.159960    4.097020
  C      1.001170   -1.885780    5.245490
  N      1.614470   -2.882400    5.866420
  C      1.456690   -4.129330    5.447640
  C      0.587500   -4.401630    4.353340
  N     -0.022260   -3.435390    3.712360
  C      0.373610   -5.740410    3.937230
  N      0.220170   -6.833200    3.630630
  C      2.159340   -5.172050    6.084530
  N      2.719930   -6.051750    6.563960
  C      1.217330   -0.555810    5.714860
  C      0.540040    0.461530    4.975170
  C     -0.231440    0.183690    3.790960
  N     -0.713080    1.298620    3.245330
  S     -0.254700    2.565410    4.134090
  N      0.589210    1.758600    5.248300
  C      2.036810   -0.167720    6.769700
  C      2.877890   -0.877250    7.618650
  C      3.638840   -0.236610    8.618140
  C      4.437600   -1.073600    9.352190
  C      4.332130   -2.409830    8.949050
  S      3.193810   -2.589800    7.630420
  C      4.991290   -3.523240    9.476180
  C      5.900660   -3.561970   10.548920
  C      6.360940   -4.816970   10.840060
  C      5.839220   -5.826230   10.006610
  S      4.742740   -5.111050    8.827440
  C      6.049900   -7.190150    9.960190
  C      6.803490   -8.016220   10.806510
  C      7.485070   -7.745630   12.008830
  C      8.073270   -8.935210   12.473530
  C      8.834780   -9.203630   13.600030
  C      9.281900  -10.512430   13.785120
  C     10.051320  -11.094030   14.791850
  C     10.226490  -12.476190   14.501890
  C      9.564350  -12.755700   13.312750
  C      8.959560  -11.561070   12.828290
  C      8.204170  -11.305540   11.713570
  C      7.747450   -9.985040   11.520910
  C      6.975990   -9.417550   10.527680
  C     10.957680  -13.443760   15.284500
  C     11.592780  -13.193310   16.426350
  H      4.298040   -0.384450    4.304130
  H      4.705830   -2.770940    4.630490
  H      3.641400   -4.466550    3.167330
  H      2.801810    0.423670    2.492470
  H      0.292100   -3.899670   -0.845130
  H     -2.764730    0.516980   -1.002030
  H     -1.230780    0.447510    1.226650
  H     -0.954240   -2.543640    1.840500
  H      2.027570    0.902620    6.946110
  H      3.578650    0.826820    8.771150
  H      5.079840   -0.746690   10.150670
  H      6.194230   -2.674810   11.080910
  H      7.073220   -5.017950   11.617400
  H      5.552410   -7.702030    9.144770
  H      7.536170   -6.805770   12.522610
  H      9.076980   -8.428030   14.312830
  H     10.447720  -10.580290   15.648060
  H      9.512440  -13.714830   12.830570
  H      7.958940  -12.079670   11.000410
  H      6.565520   -9.919730    9.670430
  H     10.967040  -14.446550   14.875770
  H     11.611240  -12.213270   16.871410
  H     12.119570  -13.966450   16.958030

 Total Charge           Charge          ....    0
 Multiplicity           Mult            ....    1
 Number of Electrons    NEL             ....  456
 Basis Dimension        Dim             .... 1013

ORBITAL ENERGIES
----------------

  NO   OCC          E(Eh)            E(eV)
   0   2.0000     -89.012955     -2422.1656
   1   2.0000     -88.965976     -2420.8873
   2   2.0000     -88.958640     -2420.6877
   3   2.0000     -88.958353     -2420.6799
   4   2.0000     -19.290767      -524.9285
   5   2.0000     -19.221807      -523.0520
   6   2.0000     -19.221092      -523.0325
   7   2.0000     -14.633273      -398.1916
   8   2.0000     -14.469423      -393.7330
   9   2.0000     -14.442236      -392.9932
  10   2.0000     -14.433559      -392.7571
  11   2.0000     -14.425944      -392.5499
  12   2.0000     -14.424425      -392.5086
  13   2.0000     -14.408997      -392.0887
  14   2.0000     -14.407725      -392.0541
  15   2.0000     -14.391584      -391.6149
  16   2.0000     -10.400627      -283.0155
  17   2.0000     -10.355439      -281.7858
  18   2.0000     -10.350366      -281.6478
  19   2.0000     -10.344500      -281.4882
  20   2.0000     -10.331568      -281.1363
  21   2.0000     -10.326115      -280.9879
  22   2.0000     -10.325802      -280.9794
  23   2.0000     -10.325224      -280.9636
  24   2.0000     -10.322428      -280.8876
  25   2.0000     -10.321065      -280.8505
  26   2.0000     -10.320080      -280.8237
  27   2.0000     -10.318326      -280.7759
  28   2.0000     -10.318135      -280.7707
  29   2.0000     -10.317626      -280.7569
  30   2.0000     -10.315410      -280.6966
  31   2.0000     -10.310959      -280.5755
  32   2.0000     -10.308503      -280.5086
  33   2.0000     -10.306170      -280.4451
  34   2.0000     -10.305203      -280.4188
  35   2.0000     -10.303501      -280.3725
  36   2.0000     -10.301813      -280.3266
  37   2.0000     -10.300657      -280.2951
  38   2.0000     -10.300516      -280.2913
  39   2.0000     -10.300384      -280.2877
  40   2.0000     -10.299676      -280.2684
  41   2.0000     -10.297729      -280.2155
  42   2.0000     -10.292356      -280.0692
  43   2.0000     -10.292307      -280.0679
  44   2.0000     -10.292217      -280.0655
  45   2.0000     -10.289614      -279.9946
  46   2.0000     -10.288309      -279.9591
  47   2.0000     -10.287063      -279.9252
  48   2.0000     -10.286340      -279.9055
  49   2.0000     -10.285202      -279.8746
  50   2.0000     -10.283929      -279.8399
  51   2.0000     -10.283657      -279.8325
  52   2.0000     -10.283240      -279.8212
  53   2.0000     -10.282361      -279.7973
  54   2.0000     -10.280561      -279.7483
  55   2.0000     -10.273151      -279.5467
  56   2.0000     -10.273020      -279.5431
  57   2.0000     -10.270370      -279.4710
  58   2.0000     -10.265091      -279.3273
  59   2.0000     -10.264478      -279.3106
  60   2.0000     -10.262587      -279.2592
  61   2.0000     -10.255058      -279.0543
  62   2.0000     -10.252728      -278.9909
  63   2.0000      -8.104853      -220.5443
  64   2.0000      -8.061927      -219.3762
  65   2.0000      -8.054691      -219.1793
  66   2.0000      -8.050540      -219.0663
  67   2.0000      -6.076208      -165.3420
  68   2.0000      -6.068497      -165.1322
  69   2.0000      -6.066912      -165.0891
  70   2.0000      -6.031560      -164.1271
  71   2.0000      -6.027186      -164.0081
  72   2.0000      -6.024224      -163.9275
  73   2.0000      -6.023366      -163.9041
  74   2.0000      -6.020408      -163.8236
  75   2.0000      -6.019987      -163.8122
  76   2.0000      -6.016050      -163.7050
  77   2.0000      -6.015684      -163.6951
  78   2.0000      -6.012328      -163.6038
  79   2.0000      -1.302658       -35.4471
  80   2.0000      -1.225439       -33.3459
  81   2.0000      -1.121436       -30.5158
  82   2.0000      -1.114196       -30.3188
  83   2.0000      -1.094201       -29.7747
  84   2.0000      -1.071459       -29.1559
  85   2.0000      -1.021789       -27.8043
  86   2.0000      -1.010837       -27.5063
  87   2.0000      -1.008958       -27.4551
  88   2.0000      -1.005051       -27.3488
  89   2.0000      -0.993404       -27.0319
  90   2.0000      -0.984695       -26.7949
  91   2.0000      -0.984209       -26.7817
  92   2.0000      -0.982756       -26.7421
  93   2.0000      -0.978711       -26.6321
  94   2.0000      -0.970862       -26.4185
  95   2.0000      -0.951781       -25.8993
  96   2.0000      -0.935864       -25.4662
  97   2.0000      -0.920917       -25.0594
  98   2.0000      -0.900191       -24.4954
  99   2.0000      -0.893296       -24.3078
 100   2.0000      -0.885501       -24.0957
 101   2.0000      -0.884681       -24.0734
 102   2.0000      -0.879925       -23.9440
 103   2.0000      -0.868743       -23.6397
 104   2.0000      -0.861637       -23.4463
 105   2.0000      -0.857932       -23.3455
 106   2.0000      -0.846705       -23.0400
 107   2.0000      -0.835056       -22.7230
 108   2.0000      -0.830752       -22.6059
 109   2.0000      -0.824586       -22.4381
 110   2.0000      -0.820250       -22.3201
 111   2.0000      -0.818195       -22.2642
 112   2.0000      -0.805659       -21.9231
 113   2.0000      -0.802904       -21.8481
 114   2.0000      -0.781484       -21.2652
 115   2.0000      -0.773549       -21.0493
 116   2.0000      -0.767780       -20.8923
 117   2.0000      -0.758965       -20.6525
 118   2.0000      -0.743684       -20.2367
 119   2.0000      -0.733433       -19.9577
 120   2.0000      -0.723778       -19.6950
 121   2.0000      -0.713271       -19.4091
 122   2.0000      -0.707826       -19.2609
 123   2.0000      -0.697826       -18.9888
 124   2.0000      -0.688486       -18.7347
 125   2.0000      -0.687011       -18.6945
 126   2.0000      -0.679871       -18.5002
 127   2.0000      -0.674330       -18.3495
 128   2.0000      -0.671447       -18.2710
 129   2.0000      -0.665425       -18.1071
 130   2.0000      -0.657668       -17.8961
 131   2.0000      -0.649258       -17.6672
 132   2.0000      -0.646394       -17.5893
 133   2.0000      -0.645434       -17.5632
 134   2.0000      -0.639953       -17.4140
 135   2.0000      -0.635015       -17.2796
 136   2.0000      -0.627046       -17.0628
 137   2.0000      -0.620816       -16.8933
 138   2.0000      -0.614563       -16.7231
 139   2.0000      -0.613013       -16.6809
 140   2.0000      -0.612310       -16.6618
 141   2.0000      -0.607947       -16.5431
 142   2.0000      -0.600799       -16.3486
 143   2.0000      -0.598872       -16.2961
 144   2.0000      -0.592477       -16.1221
 145   2.0000      -0.587106       -15.9760
 146   2.0000      -0.585551       -15.9337
 147   2.0000      -0.580257       -15.7896
 148   2.0000      -0.577145       -15.7049
 149   2.0000      -0.573778       -15.6133
 150   2.0000      -0.569630       -15.5004
 151   2.0000      -0.568520       -15.4702
 152   2.0000      -0.560568       -15.2538
 153   2.0000      -0.556536       -15.1441
 154   2.0000      -0.552120       -15.0239
 155   2.0000      -0.545739       -14.8503
 156   2.0000      -0.536136       -14.5890
 157   2.0000      -0.533468       -14.5164
 158   2.0000      -0.531106       -14.4521
 159   2.0000      -0.527671       -14.3587
 160   2.0000      -0.522339       -14.2136
 161   2.0000      -0.518739       -14.1156
 162   2.0000      -0.516004       -14.0412
 163   2.0000      -0.514116       -13.9898
 164   2.0000      -0.512936       -13.9577
 165   2.0000      -0.508275       -13.8309
 166   2.0000      -0.506394       -13.7797
 167   2.0000      -0.504180       -13.7194
 168   2.0000      -0.495058       -13.4712
 169   2.0000      -0.494321       -13.4512
 170   2.0000      -0.493681       -13.4338
 171   2.0000      -0.492443       -13.4001
 172   2.0000      -0.486313       -13.2332
 173   2.0000      -0.484594       -13.1865
 174   2.0000      -0.482098       -13.1186
 175   2.0000      -0.478651       -13.0248
 176   2.0000      -0.477097       -12.9825
 177   2.0000      -0.472157       -12.8480
 178   2.0000      -0.469966       -12.7884
 179   2.0000      -0.465972       -12.6797
 180   2.0000      -0.461107       -12.5474
 181   2.0000      -0.458597       -12.4791
 182   2.0000      -0.458045       -12.4640
 183   2.0000      -0.453645       -12.3443
 184   2.0000      -0.451897       -12.2968
 185   2.0000      -0.449108       -12.2209
 186   2.0000      -0.448293       -12.1987
 187   2.0000      -0.442620       -12.0443
 188   2.0000      -0.440405       -11.9840
 189   2.0000      -0.438320       -11.9273
 190   2.0000      -0.437117       -11.8946
 191   2.0000      -0.435353       -11.8466
 192   2.0000      -0.434423       -11.8213
 193   2.0000      -0.428770       -11.6674
 194   2.0000      -0.426040       -11.5931
 195   2.0000      -0.425133       -11.5685
 196   2.0000      -0.423959       -11.5365
 197   2.0000      -0.420673       -11.4471
 198   2.0000      -0.413689       -11.2570
 199   2.0000      -0.412913       -11.2359
 200   2.0000      -0.403322       -10.9749
 201   2.0000      -0.402324       -10.9478
 202   2.0000      -0.395479       -10.7615
 203   2.0000      -0.389880       -10.6092
 204   2.0000      -0.387668       -10.5490
 205   2.0000      -0.386470       -10.5164
 206   2.0000      -0.379839       -10.3360
 207   2.0000      -0.369863       -10.0645
 208   2.0000      -0.364594        -9.9211
 209   2.0000      -0.362785        -9.8719
 210   2.0000      -0.359466        -9.7816
 211   2.0000      -0.356763        -9.7080
 212   2.0000      -0.356521        -9.7014
 213   2.0000      -0.353164        -9.6101
 214   2.0000      -0.349610        -9.5134
 215   2.0000      -0.344591        -9.3768
 216   2.0000      -0.330365        -8.9897
 217   2.0000      -0.327957        -8.9242
 218   2.0000      -0.326252        -8.8778
 219   2.0000      -0.322096        -8.7647
 220   2.0000      -0.318202        -8.6587
 221   2.0000      -0.306495        -8.3402
 222   2.0000      -0.300136        -8.1671
 223   2.0000      -0.289464        -7.8767
 224   2.0000      -0.278472        -7.5776
 225   2.0000      -0.261966        -7.1285
 226   2.0000      -0.250152        -6.8070
 227   2.0000      -0.202841        -5.5196
 228   0.0000      -0.124852        -3.3974
 229   0.0000      -0.108058        -2.9404
 230   0.0000      -0.063821        -1.7367
 231   0.0000      -0.040889        -1.1126
 232   0.0000      -0.028717        -0.7814

MULLIKEN ATOMIC CHARGES
-----------------------
   0 C :    0.036374
   1 C :    0.011133
   2 C :   -0.063951
   3 C :    0.026095
   4 C :    0.236576
   5 C :   -0.109689
   6 O :   -0.201534
   7 C :    0.078166
   8 N :   -0.066544
   9 N :   -0.005913
  10 C :   -0.118001
  11 S :    0.165479
  12 C :   -0.006150
  13 N :    0.277131
  14 O :   -0.254412
  15 O :   -0.269217
  16 C :   -0.000088
  17 C :    0.129939
  18 C :   -0.013788
  19 C :   -0.060751
  20 C :    0.036320
  21 C :   -0.043552
  22 C :   -0.007520
  23 N :   -0.022661
  24 C :   -0.091940
  25 C :   -0.128829
  26 N :    0.035229
  27 C :   -0.228632
  28 N :    0.231121
  29 C :   -0.251344
  30 N :    0.200592
  31 C :    0.129004
  32 C :    0.003028
  33 C :   -0.011298
  34 N :   -0.291728
  35 S :    0.491796
  36 N :   -0.278687
  37 C :   -0.155055
  38 C :    0.038333
  39 C :    0.006349
  40 C :    0.037251
  41 C :   -0.035021
  42 S :    0.132345
  43 C :   -0.030947
  44 C :    0.005722
  45 C :    0.044120
  46 C :   -0.086025
  47 S :    0.161847
  48 C :    0.070046
  49 C :    0.054362
  50 C :   -0.024235
  51 C :    0.042258
  52 C :    0.015096
  53 C :    0.043333
  54 C :   -0.005371
  55 C :    0.059462
  56 C :   -0.014386
  57 C :    0.054714
  58 C :    0.012296
  59 C :    0.054847
  60 C :   -0.023738
  61 C :    0.010504
  62 C :   -0.020287
  63 H :   -0.011295
  64 H :   -0.013303
  65 H :   -0.017872
  66 H :   -0.015216
  67 H :    0.161393
  68 H :    0.008326
  69 H :    0.005276
  70 H :    0.010597
  71 H :   -0.003328
  72 H :   -0.009688
  73 H :   -0.018257
  74 H :   -0.010955
  75 H :   -0.016883
  76 H :    0.007163
  77 H :   -0.030865
  78 H :   -0.018152
  79 H :   -0.015720
  80 H :   -0.017237
  81 H :   -0.016256
  82 H :   -0.009628
  83 H :   -0.014710
  84 H :    0.010305
  85 H :    0.026727
Sum of atomic charges:   -0.0000000

LOEWDIN ATOMIC CHARGES
----------------------
   0 C :   -0.032527
   1 C :   -0.030977
   2 C :   -0.037831
   3 C :   -0.030319
   4 C :    0.027115
   5 C :   -0.044911
   6 O :   -0.001241
   7 C :    0.083169
   8 N :   -0.142883
   9 N :    0.018561
  10 C :   -0.112834
  11 S :    0.446997
  12 C :   -0.210975
  13 N :    0.274077
  14 O :   -0.220003
  15 O :   -0.234112
  16 C :    0.004320
  17 C :   -0.083916
  18 C :   -0.036312
  19 C :   -0.019028
  20 C :   -0.075539
  21 C :    0.002634
  22 C :   -0.005090
  23 N :   -0.024256
  24 C :   -0.070200
  25 C :   -0.017245
  26 N :   -0.019994
  27 C :   -0.028386
  28 N :   -0.021367
  29 C :   -0.046574
  30 N :   -0.054362
  31 C :   -0.022444
  32 C :   -0.047404
  33 C :   -0.035380
  34 N :   -0.291841
  35 S :    0.619802
  36 N :   -0.280297
  37 C :   -0.044019
  38 C :   -0.127096
  39 C :   -0.047926
  40 C :   -0.023846
  41 C :   -0.219650
  42 S :    0.483533
  43 C :   -0.145422
  44 C :   -0.038482
  45 C :   -0.015943
  46 C :   -0.168746
  47 S :    0.451682
  48 C :    0.004540
  49 C :   -0.072604
  50 C :    0.025929
  51 C :   -0.061545
  52 C :    0.087018
  53 C :   -0.065034
  54 C :    0.063048
  55 C :   -0.058010
  56 C :    0.034779
  57 C :   -0.061753
  58 C :    0.083539
  59 C :   -0.069121
  60 C :    0.051650
  61 C :   -0.023234
  62 C :   -0.045480
  63 H :    0.028796
  64 H :    0.025857
  65 H :    0.034194
  66 H :    0.034012
  67 H :    0.107132
  68 H :    0.045954
  69 H :    0.025688
  70 H :    0.028609
  71 H :    0.041166
  72 H :    0.033259
  73 H :    0.028878
  74 H :    0.033253
  75 H :    0.031520
  76 H :    0.041225
  77 H :    0.022368
  78 H :    0.037662
  79 H :    0.028640
  80 H :    0.028616
  81 H :    0.038938
  82 H :    0.030842
  83 H :    0.031039
  84 H :    0.018790
  85 H :    0.027332

  Mayer bond orders larger than 0.100000
B(  0-C ,  1-C ) :   1.3673 B(  0-C ,  5-C ) :   1.3581 B(  0-C , 63-H ) :   0.9876
B(  1-C ,  2-C ) :   1.3629 B(  1-C , 64-H ) :   0.9919 B(  2-C ,  3-C ) :   1.3370
B(  2-C ,  5-C ) :   0.1025 B(  2-C , 65-H ) :   1.0196 B(  3-C ,  4-C ) :   1.2874
B(  3-C ,  8-N ) :   1.2697 B(  4-C ,  5-C ) :   1.3589 B(  4-C ,  6-O ) :   1.0592
B(  5-C , 66-H ) :   1.0190 B(  6-O ,  7-C ) :   1.1442 B(  7-C ,  8-N ) :   1.7177
B(  7-C ,  9-N ) :   1.1570 B(  9-N , 10-C ) :   1.1125 B(  9-N , 67-H ) :   0.8923
B( 10-C , 11-S ) :   1.1344 B( 10-C , 17-C ) :   1.4205 B( 11-S , 12-C ) :   1.0885
B( 12-C , 13-N ) :   0.9687 B( 12-C , 16-C ) :   1.4751 B( 13-N , 14-O ) :   1.5374
B( 13-N , 15-O ) :   1.5109 B( 14-O , 15-O ) :   0.2568 B( 16-C , 17-C ) :   1.2190
B( 16-C , 68-H ) :   1.0114 B( 17-C , 18-C ) :   1.0500 B( 18-C , 19-C ) :   1.6739
B( 18-C , 69-H ) :   0.9492 B( 19-C , 20-C ) :   1.2416 B( 19-C , 70-H ) :   0.9197
B( 20-C , 21-C ) :   1.2774 B( 20-C , 33-C ) :   1.1539 B( 21-C , 22-C ) :   1.1103
B( 21-C , 26-N ) :   1.4093 B( 22-C , 23-N ) :   1.4855 B( 22-C , 31-C ) :   1.1219
B( 23-N , 24-C ) :   1.5339 B( 23-N , 42-S ) :   0.1107 B( 24-C , 25-C ) :   1.2550
B( 24-C , 29-C ) :   1.1781 B( 25-C , 26-N ) :   1.7175 B( 25-C , 27-C ) :   1.1727
B( 27-C , 28-N ) :   3.0542 B( 29-C , 30-N ) :   2.9691 B( 31-C , 32-C ) :   1.1141
B( 31-C , 37-C ) :   1.3968 B( 32-C , 33-C ) :   1.1285 B( 32-C , 36-N ) :   1.5883
B( 33-C , 34-N ) :   1.5398 B( 34-N , 35-S ) :   1.2226 B( 34-N , 36-N ) :   0.1350
B( 35-S , 36-N ) :   1.2451 B( 37-C , 38-C ) :   1.3231 B( 37-C , 71-H ) :   0.9541
B( 38-C , 39-C ) :   1.2383 B( 38-C , 42-S ) :   1.1063 B( 39-C , 40-C ) :   1.4730
B( 39-C , 72-H ) :   1.0036 B( 40-C , 41-C ) :   1.2751 B( 40-C , 73-H ) :   0.9936
B( 41-C , 42-S ) :   1.0144 B( 41-C , 43-C ) :   1.3553 B( 43-C , 44-C ) :   1.2377
B( 43-C , 47-S ) :   1.1293 B( 44-C , 45-C ) :   1.5439 B( 44-C , 74-H ) :   0.9952
B( 45-C , 46-C ) :   1.1888 B( 45-C , 75-H ) :   0.9962 B( 46-C , 47-S ) :   1.0387
B( 46-C , 48-C ) :   1.4969 B( 48-C , 49-C ) :   1.2125 B( 48-C , 76-H ) :   0.9506
B( 49-C , 50-C ) :   1.3568 B( 49-C , 60-C ) :   1.1457 B( 50-C , 51-C ) :   1.1993
B( 50-C , 77-H ) :   1.0101 B( 51-C , 52-C ) :   1.3478 B( 51-C , 59-C ) :   1.1338
B( 52-C , 53-C ) :   1.2009 B( 52-C , 78-H ) :   1.0029 B( 53-C , 54-C ) :   1.3582
B( 53-C , 57-C ) :   1.1230 B( 54-C , 55-C ) :   1.1992 B( 54-C , 79-H ) :   1.0087
B( 55-C , 56-C ) :   1.4508 B( 55-C , 61-C ) :   1.0800 B( 56-C , 57-C ) :   1.1130
B( 56-C , 80-H ) :   1.0175 B( 57-C , 58-C ) :   1.4406 B( 58-C , 59-C ) :   1.1362
B( 58-C , 81-H ) :   1.0053 B( 59-C , 60-C ) :   1.4117 B( 60-C , 82-H ) :   1.0176
B( 61-C , 62-C ) :   1.9377 B( 61-C , 83-H ) :   0.9673 B( 62-C , 84-H ) :   0.9533
B( 62-C , 85-H ) :   0.9498

-----------------------------------------------------------------------------
         ABSORPTION SPECTRUM VIA TRANSITION ELECTRIC DIPOLE MOMENTS
-----------------------------------------------------------------------------
State   Energy  Wavelength   fosc         T2         TX        TY        TZ
        (cm-1)    (nm)                  (au**2)     (au)      (au)      (au)
-----------------------------------------------------------------------------
   0    4613.0   2167.8   0.267797728  19.11181  -2.45432   2.25317  -2.83044
   1    6787.5   1473.3   0.320606423  15.55023   2.29511  -1.57018   2.79594
   2   11706.6    854.2   0.008229843   0.23144   0.04305   0.40313   0.25898
   3   15530.5    643.9   0.592145550  12.55216   1.66882  -2.82249   1.34193
   4   16303.0    613.4   0.142219286   2.87188  -0.89608   1.36141  -0.46419
   5   17452.8    573.0   0.139495717   2.63130  -0.59817   1.33962  -0.69204
   6   20575.3    486.0   0.008205160   0.13129   0.22204   0.06663   0.27847
   7   21681.1    461.2   0.041994041   0.63765  -0.02989   0.44654  -0.66133
   8   21782.8    459.1   0.282347535   4.26723   0.95412  -1.69852   0.68697
   9   21960.9    455.4   0.190435257   2.85478  -0.78246   1.25061  -0.82371
  10   22286.2    448.7   0.077566841   1.14582   0.37036  -0.60078   0.80481
  11   23184.5    431.3   0.235082961   3.33810  -0.49721   1.55235  -0.82528
  12   24130.1    414.4   0.001679041   0.02291  -0.01579   0.12137   0.08904
  13   24688.8    405.0   0.004091886   0.05456   0.18065   0.04627  -0.14068
  14   24879.0    401.9   0.025675779   0.33975  -0.28889   0.42868  -0.26932
  15   25239.5    396.2   0.044227968   0.57689  -0.34877   0.38958  -0.55089
  16   26488.7    377.5   0.286725295   3.56353  -0.01668  -1.75836  -0.68660
  17   26803.5    373.1   0.013957099   0.17143   0.03895   0.40931   0.04877
  18   27302.5    366.3   0.023276121   0.28066   0.42328  -0.23255   0.21775
  19   28609.6    349.5   0.008313136   0.09566   0.05715   0.03023   0.30246
  20   28717.0    348.2   0.027068505   0.31031   0.14642  -0.38039   0.37971
  21   29073.4    344.0   0.005056179   0.05725   0.03108  -0.22376  -0.07888
  22   29901.9    334.4   0.829395309   9.13142  -1.70351   0.87170  -2.33872
  23   30165.1    331.5   0.101968603   1.11285   0.34550   0.95711  -0.27826
  24   30896.2    323.7   0.133319128   1.42057   0.39599  -1.11347  -0.15477
  25   31092.0    321.6   0.186820728   1.97812   0.73720  -1.07314   0.53201
  26   31400.1    318.5   0.115180709   1.20760  -0.72659   0.34161  -0.75032
  27   31591.2    316.5   0.022668331   0.23623  -0.17269   0.43492   0.13133
  28   31966.4    312.8   0.101352523   1.04380   0.17168  -0.39411   0.92682
  29   32240.8    310.2   0.007301227   0.07455  -0.17646  -0.20454  -0.03972
  30   32930.0    303.7   0.008543945   0.08542  -0.15450  -0.21716  -0.11995
  31   33067.3    302.4   0.036171812   0.36012   0.09163   0.25834   0.53384
  32   33187.9    301.3   0.006876761   0.06822   0.06785   0.07290   0.24145
  33   33423.3    299.2   0.119637913   1.17841   0.60699  -0.54681   0.71482
  34   33471.2    298.8   0.145554378   1.43163  -0.52714   0.55653  -0.91871
  35   33662.6    297.1   0.033955955   0.33208   0.35176  -0.21237   0.40404
  36   34173.7    292.6   0.220360751   2.12284   0.47454   0.77852   1.13647
  37   34540.3    289.5   0.086953639   0.82878   0.38766   0.12246   0.81456
  38   34644.6    288.6   0.017924332   0.17033  -0.12368   0.34391   0.19172
  39   34977.5    285.9   0.038063376   0.35826   0.35600  -0.47699   0.06326
  40   35040.6    285.4   0.058608866   0.55064   0.17202  -0.72031   0.04701
  41   35210.5    284.0   0.019293437   0.18039  -0.17054  -0.02799  -0.38797
  42   35716.1    280.0   0.001368428   0.01261   0.03946   0.10020  -0.03190
  43   35762.6    279.6   0.008145570   0.07498  -0.11706   0.24181  -0.05301
  44   35855.5    278.9   0.030612200   0.28107   0.34459   0.20860   0.34469
  45   36411.8    274.6   0.082120488   0.74248   0.39591  -0.36544   0.67245
  46   36599.7    273.2   0.003240072   0.02914  -0.04651   0.11632   0.11598
  47   37070.3    269.8   0.010378597   0.09217   0.16401   0.12623   0.22212
  48   37162.3    269.1   0.072971171   0.64643   0.53974  -0.12220   0.58325
  49   37210.6    268.7   0.106583608   0.94297   0.10731  -0.96503  -0.01304
  50   37510.5    266.6   0.018590651   0.16316  -0.17935   0.30857  -0.18916
  51   37576.6    266.1   0.023167689   0.20297  -0.15667   0.36033  -0.22044
  52   37839.2    264.3   0.323957974   2.81853   0.89017  -0.86042   1.13394
  53   38172.9    262.0   0.057791155   0.49840  -0.16433   0.64200  -0.24338
  54   38848.5    257.4   0.016257761   0.13777  -0.29861  -0.20011   0.09252
  55   38983.4    256.5   0.052008978   0.43921   0.33899   0.01124   0.56936
  56   39060.0    256.0   0.042871899   0.36134  -0.25350   0.10149  -0.53552
  57   39372.6    254.0   0.034382534   0.28749   0.25587   0.38358   0.27365
  58   39498.8    253.2   0.140090097   1.16761   0.63793  -0.81812   0.30222
  59   39869.3    250.8   0.013552622   0.11191   0.02808  -0.30765   0.12835
  60   40156.4    249.0   0.002768085   0.02269   0.09531  -0.10483   0.05118

FINAL SINGLE POINT ENERGY     -4112.107518824812

DIPOLE MOMENT
-------------
                                X             Y             Z
Electronic contribution:    -50.07881      36.55210     -55.87355
Nuclear contribution   :     55.42144     -37.91875      62.53214
                        -----------------------------------------
Total Dipole Moment    :      5.34263      -1.36665       6.65859
                        -----------------------------------------
Magnitude (a.u.)       :      8.64571
Magnitude (Debye)      :     21.97564

Rotational constants in cm-1:     0.002995     0.000355     0.000327
Rotational constants in MHz :    89.773684    10.644122     9.795288

                             ****ORCA TERMINATED NORMALLY****
TOTAL RUN TIME: 0 days 0 hours 12 minutes 44 seconds 15 msec
