                         Program Version 4.2.0 -  RELEASE  -
|  1> # ORCA input file
|  2> # SCF done       -210.362720517131          0.000892887203
|  3> ! CAM-B3LYP def2-SVP def2/J RIJCOSX Grid4 TightSCF
|  4> %maxcore 5000
|  5> %tddft
|  6>     Mode sTDDFT
|  7>     Ethresh 5.0
|  8>     maxcore 5000
|  9> end
| 10>
| 11> %pal
| 12>   nprocs 6
| 13>   end
| 14> * xyz 0 1
| 15>    C        3.34135        -1.07459         4.54230
| 16>    C        4.66158        -1.36785         4.74102
| 17>    F        5.57379        -0.38377         4.76624
| 18>    C        5.08066        -2.69958         4.92141
| 19>    F        6.38316        -2.95917         5.11527
| 20>    C        4.17315        -3.72178         4.90022
| 21>    C        2.80640        -3.45195         4.69807
| 22>    C        2.38113        -2.10504         4.51634
| 23>    C        1.01196        -1.80922         4.31565
| 24>    C        0.09897        -2.82856         4.29850
| 25>    C        0.53333        -4.17104         4.47805
| 26>    C        1.84506        -4.48846         4.67298
| 27>    C       -0.63922        -5.07137         4.42222
| 28>    O       -0.61916        -6.28270         4.53485
| 29>    C       -1.80417        -4.19362         4.21224
| 30>    C       -1.35488        -2.83218         4.12527
| 31>    C       -2.12442        -1.70760         3.91762
| 32>    C       -3.52099        -1.68434         3.74080
| 33>    N       -4.65471        -1.56872         3.58672
| 34>    C       -1.60691        -0.39987         3.85223
| 35>    N       -1.25470         0.69215         3.78790
| 36>    C       -3.11705        -4.63442         4.14789
| 37>    C       -3.52019        -5.95545         4.25279
| 38>    C       -4.85465        -6.33977         4.24789
| 39>    C       -5.35884        -7.64425         4.39263
| 40>    C       -6.72854        -7.71453         4.40764
| 41>    C       -7.35480        -6.46723         4.26819
| 42>    S       -6.17096        -5.19773         4.10093
| 43>    C       -8.72272        -6.18357         4.29589
| 44>    C       -9.78414        -7.06755         4.53022
| 45>    C      -11.01234        -6.45204         4.56796
| 46>    C      -10.96348        -5.06966         4.34940
| 47>    S       -9.31294        -4.55815         4.08735
| 48>    C      -12.03622        -4.17750         4.36601
| 49>    C      -11.93763        -2.83746         4.08075
| 50>    C      -12.98752        -1.92434         4.17144
| 51>    C      -12.94909        -0.56656         3.82426
| 52>    C      -14.12455         0.10395         4.05046
| 53>    C      -15.13257        -0.70083         4.60330
| 54>    S      -14.56342        -2.34180         4.79790
| 55>    C      -16.40650        -0.31495         5.00635
| 56>    C      -16.99655         0.95923         4.89859
| 57>    C      -18.24905         1.04278         5.43327
| 58>    C      -18.71175        -0.16909         5.99805
| 59>    S      -17.49592        -1.42787         5.79561
| 60>    C      -19.90210        -0.37729         6.63567
| 61>    N      -20.25856        -1.57356         7.16436
| 62>    C      -21.42030        -1.85544         7.79180
| 63>    S      -22.63594        -0.63831         8.05528
| 64>    C      -23.67609        -1.85244         8.74187
| 65>    N      -24.97508        -1.48466         9.06392
| 66>    O      -25.73421        -2.35548         9.46622
| 67>    O      -25.28306        -0.31495         8.87360
| 68>    C      -23.10851        -3.10317         8.76850
| 69>    C      -21.82108        -3.13081         8.21978
| 70>    C      -21.02592        -4.32788         8.02648
| 71>    C      -21.51045        -5.52022         7.62881
| 72>    C      -22.85085        -5.83779         7.23166
| 73>    C      -23.80209        -5.08605         6.62343
| 74>    C      -25.23200        -5.52022         6.74816
| 75>    O      -25.62466        -6.63511         6.98690
| 76>    C      -26.01096        -4.27699         6.60205
| 77>    C      -27.32297        -4.04418         6.89868
| 78>    C      -27.82893        -2.72993         6.78687
| 79>    C      -26.97043        -1.68060         6.34585
| 80>    C      -27.46914        -0.36507         6.27461
| 81>    C      -28.76442        -0.10359         6.62212
| 82>    C      -29.61630        -1.14255         7.04962
| 83>    C      -29.16065        -2.42879         7.12959
| 84>    F      -30.88293        -0.85694         7.37627
| 85>    F      -29.24208         1.14414         6.55260
| 86>    C      -25.62359        -1.95554         6.02103
| 87>    C      -25.14710        -3.23194         6.16536
| 88>    C      -23.79716        -3.76414         6.03282
| 89>    C      -22.75884        -3.15677         5.37852
| 90>    C      -21.47930        -3.71886         5.21772
| 91>    N      -20.39991        -4.08810         5.08382
| 92>    C      -22.82374        -1.87423         4.79480
| 93>    N      -22.77827        -0.82050         4.34167
| 94>    H        3.03747        -0.04848         4.40561
| 95>    H        4.50988        -4.73710         5.03998
| 96>    H        0.72453        -0.77895         4.18314
| 97>    H        2.14680        -5.51601         4.80838
| 98>    H       -3.89729        -3.89368         4.02222
| 99>    H       -2.77338        -6.72817         4.36562
|100>    H       -4.70531        -8.49251         4.49113
|101>    H       -7.28413        -8.62857         4.51604
|102>    H       -9.63343        -8.12114         4.67988
|103>    H      -11.94037        -6.96550         4.74755
|104>    H      -13.00509        -4.58520         4.62730
|105>    H      -10.98041        -2.44278         3.76396
|106>    H      -12.06286        -0.11333         3.41708
|107>    H      -14.27144         1.14833         3.84380
|108>    H      -16.48629         1.78128         4.43090
|109>    H      -18.85224         1.93208         5.44329
|110>    H      -20.61192         0.42961         6.73993
|111>    H      -19.62024        -2.34940         7.01028
|112>    H      -23.61762        -3.95515         9.18098
|113>    H      -19.96861        -4.24683         8.24383
|114>    H      -20.83524        -6.36604         7.64165
|115>    H      -23.17882        -6.84183         7.48938
|116>    H      -27.95965        -4.84474         7.24205
|117>    H      -26.82535         0.44204         5.96290
|118>    H      -29.82255        -3.20997         7.46871
|119>    H      -24.98867        -1.13901         5.71302
|120> *
|121>
|122>                          ****END OF INPUT****

CARTESIAN COORDINATES (ANGSTROEM)
---------------------------------
  C      3.341350   -1.074590    4.542300
  C      4.661580   -1.367850    4.741020
  F      5.573790   -0.383770    4.766240
  C      5.080660   -2.699580    4.921410
  F      6.383160   -2.959170    5.115270
  C      4.173150   -3.721780    4.900220
  C      2.806400   -3.451950    4.698070
  C      2.381130   -2.105040    4.516340
  C      1.011960   -1.809220    4.315650
  C      0.098970   -2.828560    4.298500
  C      0.533330   -4.171040    4.478050
  C      1.845060   -4.488460    4.672980
  C     -0.639220   -5.071370    4.422220
  O     -0.619160   -6.282700    4.534850
  C     -1.804170   -4.193620    4.212240
  C     -1.354880   -2.832180    4.125270
  C     -2.124420   -1.707600    3.917620
  C     -3.520990   -1.684340    3.740800
  N     -4.654710   -1.568720    3.586720
  C     -1.606910   -0.399870    3.852230
  N     -1.254700    0.692150    3.787900
  C     -3.117050   -4.634420    4.147890
  C     -3.520190   -5.955450    4.252790
  C     -4.854650   -6.339770    4.247890
  C     -5.358840   -7.644250    4.392630
  C     -6.728540   -7.714530    4.407640
  C     -7.354800   -6.467230    4.268190
  S     -6.170960   -5.197730    4.100930
  C     -8.722720   -6.183570    4.295890
  C     -9.784140   -7.067550    4.530220
  C    -11.012340   -6.452040    4.567960
  C    -10.963480   -5.069660    4.349400
  S     -9.312940   -4.558150    4.087350
  C    -12.036220   -4.177500    4.366010
  C    -11.937630   -2.837460    4.080750
  C    -12.987520   -1.924340    4.171440
  C    -12.949090   -0.566560    3.824260
  C    -14.124550    0.103950    4.050460
  C    -15.132570   -0.700830    4.603300
  S    -14.563420   -2.341800    4.797900
  C    -16.406500   -0.314950    5.006350
  C    -16.996550    0.959230    4.898590
  C    -18.249050    1.042780    5.433270
  C    -18.711750   -0.169090    5.998050
  S    -17.495920   -1.427870    5.795610
  C    -19.902100   -0.377290    6.635670
  N    -20.258560   -1.573560    7.164360
  C    -21.420300   -1.855440    7.791800
  S    -22.635940   -0.638310    8.055280
  C    -23.676090   -1.852440    8.741870
  N    -24.975080   -1.484660    9.063920
  O    -25.734210   -2.355480    9.466220
  O    -25.283060   -0.314950    8.873600
  C    -23.108510   -3.103170    8.768500
  C    -21.821080   -3.130810    8.219780
  C    -21.025920   -4.327880    8.026480
  C    -21.510450   -5.520220    7.628810
  C    -22.850850   -5.837790    7.231660
  C    -23.802090   -5.086050    6.623430
  C    -25.232000   -5.520220    6.748160
  O    -25.624660   -6.635110    6.986900
  C    -26.010960   -4.276990    6.602050
  C    -27.322970   -4.044180    6.898680
  C    -27.828930   -2.729930    6.786870
  C    -26.970430   -1.680600    6.345850
  C    -27.469140   -0.365070    6.274610
  C    -28.764420   -0.103590    6.622120
  C    -29.616300   -1.142550    7.049620
  C    -29.160650   -2.428790    7.129590
  F    -30.882930   -0.856940    7.376270
  F    -29.242080    1.144140    6.552600
  C    -25.623590   -1.955540    6.021030
  C    -25.147100   -3.231940    6.165360
  C    -23.797160   -3.764140    6.032820
  C    -22.758840   -3.156770    5.378520
  C    -21.479300   -3.718860    5.217720
  N    -20.399910   -4.088100    5.083820
  C    -22.823740   -1.874230    4.794800
  N    -22.778270   -0.820500    4.341670
  H      3.037470   -0.048480    4.405610
  H      4.509880   -4.737100    5.039980
  H      0.724530   -0.778950    4.183140
  H      2.146800   -5.516010    4.808380
  H     -3.897290   -3.893680    4.022220
  H     -2.773380   -6.728170    4.365620
  H     -4.705310   -8.492510    4.491130
  H     -7.284130   -8.628570    4.516040
  H     -9.633430   -8.121140    4.679880
  H    -11.940370   -6.965500    4.747550
  H    -13.005090   -4.585200    4.627300
  H    -10.980410   -2.442780    3.763960
  H    -12.062860   -0.113330    3.417080
  H    -14.271440    1.148330    3.843800
  H    -16.486290    1.781280    4.430900
  H    -18.852240    1.932080    5.443290
  H    -20.611920    0.429610    6.739930
  H    -19.620240   -2.349400    7.010280
  H    -23.617620   -3.955150    9.180980
  H    -19.968610   -4.246830    8.243830
  H    -20.835240   -6.366040    7.641650
  H    -23.178820   -6.841830    7.489380
  H    -27.959650   -4.844740    7.242050
  H    -26.825350    0.442040    5.962900
  H    -29.822550   -3.209970    7.468710
  H    -24.988670   -1.139010    5.713020

 Total Charge           Charge          ....    0
 Multiplicity           Mult            ....    1
 Number of Electrons    NEL             ....  576
 Basis Dimension        Dim             .... 1256

ORBITAL ENERGIES
----------------

  NO   OCC          E(Eh)            E(eV)
   0   2.0000     -89.008165     -2422.0353
   1   2.0000     -88.977862     -2421.2107
   2   2.0000     -88.968582     -2420.9582
   3   2.0000     -88.960830     -2420.7473
   4   2.0000     -88.950908     -2420.4772
   5   2.0000     -24.801174      -674.8743
   6   2.0000     -24.800791      -674.8638
   7   2.0000     -24.779563      -674.2862
   8   2.0000     -24.778350      -674.2532
   9   2.0000     -19.256941      -524.0080
  10   2.0000     -19.255893      -523.9795
  11   2.0000     -19.230664      -523.2930
  12   2.0000     -19.186252      -522.0845
  13   2.0000     -14.666536      -399.0967
  14   2.0000     -14.516912      -395.0253
  15   2.0000     -14.440245      -392.9390
  16   2.0000     -14.437527      -392.8651
  17   2.0000     -14.388322      -391.5261
  18   2.0000     -14.385585      -391.4517
  19   2.0000     -10.396189      -282.8947
  20   2.0000     -10.384937      -282.5885
  21   2.0000     -10.384354      -282.5726
  22   2.0000     -10.381960      -282.5075
  23   2.0000     -10.364843      -282.0417
  24   2.0000     -10.363883      -282.0156
  25   2.0000     -10.362777      -281.9855
  26   2.0000     -10.360393      -281.9206
  27   2.0000     -10.359649      -281.9004
  28   2.0000     -10.359546      -281.8976
  29   2.0000     -10.344243      -281.4812
  30   2.0000     -10.342402      -281.4311
  31   2.0000     -10.340442      -281.3777
  32   2.0000     -10.336987      -281.2837
  33   2.0000     -10.336305      -281.2652
  34   2.0000     -10.333564      -281.1906
  35   2.0000     -10.331729      -281.1406
  36   2.0000     -10.331106      -281.1237
  37   2.0000     -10.329906      -281.0910
  38   2.0000     -10.329397      -281.0772
  39   2.0000     -10.327850      -281.0351
  40   2.0000     -10.322260      -280.8830
  41   2.0000     -10.318664      -280.7851
  42   2.0000     -10.318567      -280.7825
  43   2.0000     -10.316598      -280.7289
  44   2.0000     -10.316271      -280.7200
  45   2.0000     -10.316152      -280.7168
  46   2.0000     -10.315486      -280.6986
  47   2.0000     -10.314603      -280.6746
  48   2.0000     -10.314345      -280.6676
  49   2.0000     -10.311610      -280.5932
  50   2.0000     -10.311285      -280.5843
  51   2.0000     -10.311199      -280.5820
  52   2.0000     -10.310385      -280.5598
  53   2.0000     -10.309908      -280.5469
  54   2.0000     -10.308575      -280.5106
  55   2.0000     -10.306619      -280.4574
  56   2.0000     -10.305471      -280.4261
  57   2.0000     -10.304296      -280.3941
  58   2.0000     -10.303482      -280.3720
  59   2.0000     -10.303037      -280.3599
  60   2.0000     -10.299743      -280.2703
  61   2.0000     -10.299131      -280.2536
  62   2.0000     -10.294111      -280.1170
  63   2.0000     -10.294044      -280.1152
  64   2.0000     -10.293684      -280.1054
  65   2.0000     -10.293166      -280.0913
  66   2.0000     -10.290966      -280.0314
  67   2.0000     -10.287046      -279.9248
  68   2.0000     -10.286603      -279.9127
  69   2.0000     -10.282734      -279.8074
  70   2.0000     -10.280683      -279.7516
  71   2.0000     -10.280570      -279.7485
  72   2.0000     -10.279684      -279.7244
  73   2.0000     -10.279594      -279.7220
  74   2.0000     -10.276637      -279.6415
  75   2.0000     -10.275729      -279.6168
  76   2.0000     -10.266623      -279.3690
  77   2.0000     -10.261444      -279.2281
  78   2.0000     -10.260603      -279.2052
  79   2.0000      -8.102951      -220.4925
  80   2.0000      -8.074165      -219.7092
  81   2.0000      -8.064916      -219.4575
  82   2.0000      -8.057082      -219.2444
  83   2.0000      -8.046738      -218.9629
  84   2.0000      -6.072710      -165.2468
  85   2.0000      -6.068361      -165.1285
  86   2.0000      -6.064235      -165.0162
  87   2.0000      -6.043919      -164.4634
  88   2.0000      -6.039926      -164.3547
  89   2.0000      -6.035019      -164.2212
  90   2.0000      -6.034469      -164.2063
  91   2.0000      -6.030527      -164.0990
  92   2.0000      -6.026589      -163.9918
  93   2.0000      -6.026117      -163.9790
  94   2.0000      -6.022545      -163.8818
  95   2.0000      -6.018437      -163.7700
  96   2.0000      -6.016230      -163.7099
  97   2.0000      -6.012211      -163.6006
  98   2.0000      -6.008181      -163.4909
  99   2.0000      -1.333351       -36.2823
 100   2.0000      -1.324341       -36.0371
 101   2.0000      -1.309396       -35.6305
 102   2.0000      -1.301110       -35.4050
 103   2.0000      -1.286366       -35.0038
 104   2.0000      -1.152112       -31.3506
 105   2.0000      -1.147062       -31.2131
 106   2.0000      -1.123428       -30.5700
 107   2.0000      -1.099829       -29.9279
 108   2.0000      -1.041786       -28.3484
 109   2.0000      -1.029554       -28.0156
 110   2.0000      -1.019715       -27.7479
 111   2.0000      -1.018125       -27.7046
 112   2.0000      -1.016256       -27.6537
 113   2.0000      -1.006110       -27.3776
 114   2.0000      -0.997074       -27.1318
 115   2.0000      -0.992053       -26.9951
 116   2.0000      -0.991227       -26.9727
 117   2.0000      -0.981166       -26.6989
 118   2.0000      -0.979133       -26.6436
 119   2.0000      -0.966428       -26.2978
 120   2.0000      -0.955444       -25.9989
 121   2.0000      -0.954783       -25.9810
 122   2.0000      -0.939175       -25.5563
 123   2.0000      -0.929656       -25.2972
 124   2.0000      -0.921391       -25.0723
 125   2.0000      -0.909845       -24.7581
 126   2.0000      -0.907343       -24.6901
 127   2.0000      -0.900157       -24.4945
 128   2.0000      -0.896361       -24.3912
 129   2.0000      -0.888569       -24.1792
 130   2.0000      -0.885524       -24.0963
 131   2.0000      -0.873400       -23.7664
 132   2.0000      -0.871616       -23.7179
 133   2.0000      -0.866860       -23.5885
 134   2.0000      -0.860000       -23.4018
 135   2.0000      -0.856031       -23.2938
 136   2.0000      -0.853976       -23.2379
 137   2.0000      -0.848626       -23.0923
 138   2.0000      -0.846476       -23.0338
 139   2.0000      -0.835855       -22.7448
 140   2.0000      -0.829339       -22.5675
 141   2.0000      -0.819365       -22.2961
 142   2.0000      -0.816375       -22.2147
 143   2.0000      -0.811183       -22.0734
 144   2.0000      -0.798970       -21.7411
 145   2.0000      -0.784367       -21.3437
 146   2.0000      -0.778894       -21.1948
 147   2.0000      -0.767266       -20.8784
 148   2.0000      -0.754558       -20.5326
 149   2.0000      -0.745990       -20.2994
 150   2.0000      -0.739816       -20.1314
 151   2.0000      -0.738913       -20.1068
 152   2.0000      -0.728359       -19.8197
 153   2.0000      -0.726890       -19.7797
 154   2.0000      -0.718826       -19.5603
 155   2.0000      -0.711775       -19.3684
 156   2.0000      -0.699994       -19.0478
 157   2.0000      -0.699754       -19.0413
 158   2.0000      -0.692446       -18.8424
 159   2.0000      -0.689601       -18.7650
 160   2.0000      -0.687614       -18.7109
 161   2.0000      -0.678642       -18.4668
 162   2.0000      -0.669373       -18.2146
 163   2.0000      -0.664407       -18.0794
 164   2.0000      -0.660470       -17.9723
 165   2.0000      -0.655331       -17.8325
 166   2.0000      -0.653546       -17.7839
 167   2.0000      -0.651176       -17.7194
 168   2.0000      -0.649018       -17.6607
 169   2.0000      -0.647232       -17.6121
 170   2.0000      -0.644039       -17.5252
 171   2.0000      -0.640380       -17.4256
 172   2.0000      -0.635960       -17.3053
 173   2.0000      -0.634083       -17.2543
 174   2.0000      -0.631842       -17.1933
 175   2.0000      -0.625606       -17.0236
 176   2.0000      -0.624191       -16.9851
 177   2.0000      -0.618768       -16.8375
 178   2.0000      -0.615043       -16.7362
 179   2.0000      -0.611290       -16.6340
 180   2.0000      -0.609398       -16.5826
 181   2.0000      -0.608475       -16.5575
 182   2.0000      -0.606350       -16.4996
 183   2.0000      -0.604823       -16.4581
 184   2.0000      -0.597677       -16.2636
 185   2.0000      -0.589857       -16.0508
 186   2.0000      -0.588847       -16.0233
 187   2.0000      -0.588301       -16.0085
 188   2.0000      -0.583424       -15.8758
 189   2.0000      -0.576160       -15.6781
 190   2.0000      -0.571191       -15.5429
 191   2.0000      -0.565927       -15.3997
 192   2.0000      -0.564806       -15.3691
 193   2.0000      -0.563353       -15.3296
 194   2.0000      -0.559960       -15.2373
 195   2.0000      -0.557407       -15.1678
 196   2.0000      -0.551198       -14.9989
 197   2.0000      -0.550053       -14.9677
 198   2.0000      -0.549760       -14.9597
 199   2.0000      -0.546531       -14.8719
 200   2.0000      -0.543685       -14.7944
 201   2.0000      -0.541002       -14.7214
 202   2.0000      -0.538993       -14.6668
 203   2.0000      -0.534633       -14.5481
 204   2.0000      -0.532010       -14.4767
 205   2.0000      -0.529133       -14.3984
 206   2.0000      -0.528117       -14.3708
 207   2.0000      -0.524602       -14.2751
 208   2.0000      -0.524000       -14.2588
 209   2.0000      -0.522284       -14.2121
 210   2.0000      -0.520954       -14.1759
 211   2.0000      -0.515622       -14.0308
 212   2.0000      -0.512816       -13.9544
 213   2.0000      -0.510812       -13.8999
 214   2.0000      -0.510177       -13.8826
 215   2.0000      -0.509125       -13.8540
 216   2.0000      -0.508363       -13.8332
 217   2.0000      -0.505440       -13.7537
 218   2.0000      -0.502470       -13.6729
 219   2.0000      -0.499961       -13.6046
 220   2.0000      -0.496760       -13.5175
 221   2.0000      -0.493431       -13.4269
 222   2.0000      -0.493149       -13.4193
 223   2.0000      -0.491552       -13.3758
 224   2.0000      -0.490687       -13.3523
 225   2.0000      -0.487297       -13.2600
 226   2.0000      -0.486278       -13.2323
 227   2.0000      -0.482903       -13.1405
 228   2.0000      -0.478637       -13.0244
 229   2.0000      -0.477616       -12.9966
 230   2.0000      -0.475339       -12.9346
 231   2.0000      -0.473486       -12.8842
 232   2.0000      -0.473142       -12.8748
 233   2.0000      -0.470604       -12.8058
 234   2.0000      -0.470036       -12.7903
 235   2.0000      -0.469503       -12.7758
 236   2.0000      -0.466587       -12.6965
 237   2.0000      -0.464622       -12.6430
 238   2.0000      -0.461706       -12.5637
 239   2.0000      -0.460952       -12.5432
 240   2.0000      -0.460090       -12.5197
 241   2.0000      -0.459575       -12.5057
 242   2.0000      -0.455895       -12.4055
 243   2.0000      -0.452917       -12.3245
 244   2.0000      -0.447536       -12.1781
 245   2.0000      -0.444932       -12.1072
 246   2.0000      -0.442253       -12.0343
 247   2.0000      -0.441835       -12.0229
 248   2.0000      -0.441428       -12.0119
 249   2.0000      -0.434104       -11.8126
 250   2.0000      -0.433374       -11.7927
 251   2.0000      -0.425696       -11.5838
 252   2.0000      -0.423856       -11.5337
 253   2.0000      -0.422540       -11.4979
 254   2.0000      -0.421988       -11.4829
 255   2.0000      -0.417763       -11.3679
 256   2.0000      -0.417569       -11.3626
 257   2.0000      -0.404520       -11.0076
 258   2.0000      -0.404408       -11.0045
 259   2.0000      -0.403921       -10.9912
 260   2.0000      -0.402442       -10.9510
 261   2.0000      -0.401491       -10.9251
 262   2.0000      -0.398802       -10.8520
 263   2.0000      -0.398358       -10.8399
 264   2.0000      -0.396541       -10.7904
 265   2.0000      -0.385147       -10.4804
 266   2.0000      -0.383988       -10.4489
 267   2.0000      -0.381534       -10.3821
 268   2.0000      -0.380579       -10.3561
 269   2.0000      -0.366579        -9.9751
 270   2.0000      -0.362807        -9.8725
 271   2.0000      -0.362152        -9.8547
 272   2.0000      -0.357702        -9.7336
 273   2.0000      -0.348979        -9.4962
 274   2.0000      -0.346235        -9.4215
 275   2.0000      -0.343758        -9.3541
 276   2.0000      -0.341535        -9.2936
 277   2.0000      -0.330442        -8.9918
 278   2.0000      -0.327213        -8.9039
 279   2.0000      -0.324664        -8.8346
 280   2.0000      -0.313785        -8.5385
 281   2.0000      -0.307340        -8.3631
 282   2.0000      -0.305040        -8.3005
 283   2.0000      -0.294622        -8.0171
 284   2.0000      -0.287844        -7.8326
 285   2.0000      -0.275913        -7.5080
 286   2.0000      -0.249127        -6.7791
 287   2.0000      -0.202425        -5.5083
 288   0.0000      -0.124384        -3.3847
 289   0.0000      -0.110411        -3.0044
 290   0.0000      -0.081679        -2.2226
 291   0.0000      -0.069130        -1.8811
 292   0.0000      -0.061718        -1.6794

MULLIKEN ATOMIC CHARGES
-----------------------
   0 C :   -0.110740
   1 C :    0.237548
   2 F :   -0.179388
   3 C :    0.234445
   4 F :   -0.179833
   5 C :   -0.108521
   6 C :    0.116370
   7 C :    0.112962
   8 C :   -0.093219
   9 C :    0.048746
  10 C :    0.002864
  11 C :   -0.092244
  12 C :    0.137037
  13 O :   -0.172420
  14 C :   -0.099120
  15 C :    0.332616
  16 C :   -0.373925
  17 C :   -0.191453
  18 N :    0.121082
  19 C :   -0.188564
  20 N :    0.123248
  21 C :   -0.039629
  22 C :   -0.021805
  23 C :    0.001904
  24 C :    0.016804
  25 C :    0.039922
  26 C :   -0.054730
  27 S :    0.111129
  28 C :   -0.025403
  29 C :    0.006701
  30 C :    0.041827
  31 C :   -0.045940
  32 S :    0.119457
  33 C :    0.016739
  34 C :   -0.018717
  35 C :   -0.017863
  36 C :    0.026757
  37 C :    0.028295
  38 C :   -0.053914
  39 S :    0.094593
  40 C :   -0.030955
  41 C :    0.023236
  42 C :    0.051844
  43 C :   -0.048182
  44 S :    0.078745
  45 C :    0.044528
  46 N :   -0.018470
  47 C :   -0.108155
  48 S :    0.166394
  49 C :   -0.035014
  50 N :    0.277759
  51 O :   -0.249607
  52 O :   -0.266341
  53 C :    0.066152
  54 C :    0.054674
  55 C :   -0.019753
  56 C :    0.010212
  57 C :    0.024121
  58 C :   -0.161361
  59 C :    0.146011
  60 O :   -0.130001
  61 C :    0.020510
  62 C :   -0.072096
  63 C :    0.128461
  64 C :    0.108953
  65 C :   -0.087404
  66 C :    0.242782
  67 C :    0.240080
  68 C :   -0.098345
  69 F :   -0.169548
  70 F :   -0.169033
  71 C :   -0.103242
  72 C :    0.045823
  73 C :    0.293742
  74 C :   -0.312992
  75 C :   -0.209066
  76 N :    0.164826
  77 C :   -0.206194
  78 N :    0.164762
  79 H :    0.001744
  80 H :   -0.006813
  81 H :   -0.011376
  82 H :   -0.019552
  83 H :    0.008508
  84 H :    0.013054
  85 H :   -0.004939
  86 H :   -0.011936
  87 H :   -0.009761
  88 H :   -0.008609
  89 H :    0.000134
  90 H :    0.008479
  91 H :    0.000436
  92 H :   -0.004289
  93 H :   -0.002857
  94 H :    0.002783
  95 H :    0.038022
  96 H :    0.158687
  97 H :    0.016739
  98 H :    0.019906
  99 H :    0.024477
 100 H :    0.038963
 101 H :   -0.007567
 102 H :    0.002983
 103 H :   -0.000645
 104 H :   -0.008041
Sum of atomic charges:   -0.0000000

LOEWDIN ATOMIC CHARGES
----------------------
   0 C :   -0.031720
   1 C :    0.061021
   2 F :   -0.056296
   3 C :    0.061858
   4 F :   -0.056630
   5 C :   -0.036682
   6 C :   -0.011583
   7 C :   -0.009290
   8 C :    0.008152
   9 C :   -0.017304
  10 C :   -0.046441
  11 C :    0.018367
  12 C :    0.078311
  13 O :   -0.166004
  14 C :   -0.116248
  15 C :    0.070048
  16 C :   -0.167226
  17 C :   -0.020613
  18 N :   -0.079149
  19 C :   -0.018781
  20 N :   -0.080788
  21 C :    0.041090
  22 C :   -0.075152
  23 C :   -0.107291
  24 C :   -0.052088
  25 C :   -0.013753
  26 C :   -0.202206
  27 S :    0.419798
  28 C :   -0.146013
  29 C :   -0.050467
  30 C :   -0.017920
  31 C :   -0.167624
  32 S :    0.415052
  33 C :   -0.023598
  34 C :   -0.073726
  35 C :   -0.125019
  36 C :   -0.040062
  37 C :   -0.017432
  38 C :   -0.191660
  39 S :    0.392176
  40 C :   -0.151655
  41 C :   -0.039427
  42 C :   -0.011196
  43 C :   -0.182749
  44 S :    0.374981
  45 C :    0.011080
  46 N :    0.065873
  47 C :   -0.094030
  48 S :    0.464401
  49 C :   -0.213695
  50 N :    0.278665
  51 O :   -0.218802
  52 O :   -0.233685
  53 C :    0.013325
  54 C :   -0.116798
  55 C :    0.005941
  56 C :   -0.027466
  57 C :    0.054574
  58 C :   -0.077673
  59 C :    0.086176
  60 O :   -0.130866
  61 C :   -0.058080
  62 C :    0.043248
  63 C :   -0.003490
  64 C :   -0.003564
  65 C :   -0.023571
  66 C :    0.071569
  67 C :    0.070906
  68 C :   -0.029209
  69 F :   -0.047292
  70 F :   -0.046211
  71 C :    0.006247
  72 C :   -0.027832
  73 C :    0.069047
  74 C :   -0.139001
  75 C :   -0.010500
  76 N :   -0.057844
  77 C :   -0.024065
  78 N :   -0.054076
  79 H :    0.045496
  80 H :    0.042008
  81 H :    0.038018
  82 H :    0.036198
  83 H :    0.029528
  84 H :    0.037307
  85 H :    0.036496
  86 H :    0.032695
  87 H :    0.032918
  88 H :    0.035491
  89 H :    0.031378
  90 H :    0.033596
  91 H :    0.039166
  92 H :    0.035499
  93 H :    0.036909
  94 H :    0.039849
  95 H :    0.035930
  96 H :    0.091010
  97 H :    0.048727
  98 H :    0.036279
  99 H :    0.044719
 100 H :    0.050252
 101 H :    0.042118
 102 H :    0.046963
 103 H :    0.045346
 104 H :    0.035742

  Mayer bond orders larger than 0.100000
B(  0-C ,  1-C ) :   1.4351 B(  0-C ,  5-C ) :   0.1093 B(  0-C ,  7-C ) :   1.1921
B(  0-C , 79-H ) :   1.0076 B(  1-C ,  2-F ) :   1.1258 B(  1-C ,  3-C ) :   1.1991
B(  3-C ,  4-F ) :   1.1250 B(  3-C ,  5-C ) :   1.4366 B(  5-C ,  6-C ) :   1.1969
B(  5-C , 80-H ) :   1.0075 B(  6-C ,  7-C ) :   1.2648 B(  6-C , 11-C ) :   1.1748
B(  7-C ,  8-C ) :   1.2023 B(  8-C ,  9-C ) :   1.4667 B(  8-C , 81-H ) :   0.9889
B(  9-C , 10-C ) :   1.2233 B(  9-C , 15-C ) :   0.9682 B( 10-C , 11-C ) :   1.4858
B( 10-C , 12-C ) :   0.9300 B( 11-C , 82-H ) :   1.0158 B( 12-C , 13-O ) :   2.1799
B( 12-C , 14-C ) :   0.9780 B( 14-C , 15-C ) :   1.1471 B( 14-C , 21-C ) :   1.4119
B( 15-C , 16-C ) :   1.5510 B( 16-C , 17-C ) :   1.1594 B( 16-C , 19-C ) :   1.1578
B( 17-C , 18-N ) :   2.9521 B( 19-C , 20-N ) :   2.9493 B( 21-C , 22-C ) :   1.3310
B( 21-C , 83-H ) :   0.9424 B( 22-C , 23-C ) :   1.3440 B( 22-C , 84-H ) :   0.9777
B( 23-C , 24-C ) :   1.2342 B( 23-C , 27-S ) :   1.0980 B( 24-C , 25-C ) :   1.4725
B( 24-C , 85-H ) :   1.0022 B( 25-C , 26-C ) :   1.2801 B( 25-C , 86-H ) :   0.9956
B( 26-C , 27-S ) :   1.0603 B( 26-C , 28-C ) :   1.3625 B( 28-C , 29-C ) :   1.2740
B( 28-C , 32-S ) :   1.1024 B( 29-C , 30-C ) :   1.4811 B( 29-C , 87-H ) :   0.9959
B( 30-C , 31-C ) :   1.2381 B( 30-C , 88-H ) :   1.0009 B( 31-C , 32-S ) :   1.0512
B( 31-C , 33-C ) :   1.4326 B( 33-C , 34-C ) :   1.2997 B( 33-C , 89-H ) :   0.9725
B( 34-C , 35-C ) :   1.4305 B( 34-C , 90-H ) :   0.9725 B( 35-C , 36-C ) :   1.2236
B( 35-C , 39-S ) :   1.0761 B( 36-C , 37-C ) :   1.5088 B( 36-C , 91-H ) :   1.0012
B( 37-C , 38-C ) :   1.2465 B( 37-C , 92-H ) :   0.9948 B( 38-C , 39-S ) :   1.0490
B( 38-C , 40-C ) :   1.4390 B( 40-C , 41-C ) :   1.2166 B( 40-C , 44-S ) :   1.0764
B( 41-C , 42-C ) :   1.5802 B( 41-C , 93-H ) :   0.9936 B( 42-C , 43-C ) :   1.1680
B( 42-C , 94-H ) :   0.9964 B( 43-C , 44-S ) :   1.0193 B( 43-C , 45-C ) :   1.5873
B( 45-C , 46-N ) :   1.1515 B( 45-C , 95-H ) :   0.9564 B( 46-N , 47-C ) :   1.2634
B( 46-N , 96-H ) :   0.8897 B( 47-C , 48-S ) :   1.1396 B( 47-C , 54-C ) :   1.3254
B( 48-S , 49-C ) :   1.0661 B( 49-C , 50-N ) :   0.9900 B( 49-C , 53-C ) :   1.4557
B( 50-N , 51-O ) :   1.5224 B( 50-N , 52-O ) :   1.4872 B( 51-O , 52-O ) :   0.2474
B( 53-C , 54-C ) :   1.2664 B( 53-C , 97-H ) :   1.0045 B( 54-C , 55-C ) :   1.0446
B( 55-C , 56-C ) :   1.7752 B( 55-C , 98-H ) :   0.9629 B( 56-C , 57-C ) :   1.1115
B( 56-C , 99-H ) :   0.9470 B( 57-C , 58-C ) :   1.7281 B( 57-C ,100-H ) :   0.9251
B( 58-C , 59-C ) :   0.9193 B( 58-C , 73-C ) :   1.0294 B( 59-C , 60-O ) :   2.2818
B( 59-C , 61-C ) :   0.9153 B( 61-C , 62-C ) :   1.4664 B( 61-C , 72-C ) :   1.2183
B( 62-C , 63-C ) :   1.1989 B( 62-C ,101-H ) :   1.0122 B( 63-C , 64-C ) :   1.2541
B( 63-C , 68-C ) :   1.1955 B( 64-C , 65-C ) :   1.1921 B( 64-C , 71-C ) :   1.2184
B( 65-C , 66-C ) :   1.4420 B( 65-C , 68-C ) :   0.1078 B( 65-C ,102-H ) :   1.0050
B( 66-C , 67-C ) :   1.1903 B( 66-C , 70-F ) :   1.1366 B( 67-C , 68-C ) :   1.4444
B( 67-C , 69-F ) :   1.1356 B( 68-C ,103-H ) :   1.0046 B( 71-C , 72-C ) :   1.4397
B( 71-C ,104-H ) :   1.0011 B( 72-C , 73-C ) :   1.0080 B( 73-C , 74-C ) :   1.6466
B( 74-C , 75-C ) :   1.1757 B( 74-C , 77-C ) :   1.1350 B( 75-C , 76-N ) :   2.9532
B( 77-C , 78-N ) :   2.9679

-----------------------------------------------------------------------------
         ABSORPTION SPECTRUM VIA TRANSITION ELECTRIC DIPOLE MOMENTS
-----------------------------------------------------------------------------
State   Energy  Wavelength   fosc         T2         TX        TY        TZ
        (cm-1)    (nm)                  (au**2)     (au)      (au)      (au)
-----------------------------------------------------------------------------
   0    5956.0   1679.0   1.287503803  71.16531  -8.26213   1.40568   0.96261
   1   10186.6    981.7   0.005138267   0.16606   0.05488   0.27172   0.29869
   2   13778.7    725.8   0.014728732   0.35191   0.58811  -0.07714  -0.00933
   3   16070.0    622.3   0.253705911   5.19745   1.07378  -1.59354  -1.22682
   4   18590.9    537.9   0.038520312   0.68213  -0.47053  -0.38814  -0.55684
   5   19273.8    518.8   0.195599692   3.34100   0.61862   1.71972  -0.02930
   6   20354.0    491.3   0.008909360   0.14410  -0.30157  -0.01128   0.23029
   7   21861.2    457.4   0.085213701   1.28325   0.74531   0.81851  -0.24042
   8   22666.6    441.2   0.272688135   3.96056  -0.15972  -1.87623   0.64406
   9   23367.4    427.9   0.037262195   0.52497   0.69072  -0.13087   0.17534
  10   24179.5    413.6   0.172004733   2.34191   1.29340   0.81654  -0.04773
  11   24892.0    401.7   0.408104391   5.39743  -1.46417  -1.76789   0.35805
  12   25562.9    391.2   0.061279655   0.78919  -0.84453  -0.13929   0.23781
  13   25653.5    389.8   0.005821121   0.07470  -0.03264   0.18300  -0.20037
  14   25688.8    389.3   0.095429141   1.22296  -0.27805  -0.77874   0.73431
  15   26558.9    376.5   0.020794695   0.25776  -0.39048   0.31482  -0.07857
  16   27251.1    367.0   0.011870666   0.14341  -0.30699  -0.17345  -0.13812
  17   27752.4    360.3   0.081238880   0.96369  -0.66244  -0.47954   0.54305
  18   27982.1    357.4   0.006261064   0.07366  -0.08094   0.13515   0.22101
  19   28294.3    353.4   0.021657272   0.25199   0.05584  -0.38414   0.31829
  20   28538.4    350.4   0.036163107   0.41717  -0.17360  -0.60394   0.14927
  21   28733.4    348.0   0.011188582   0.12819   0.13114  -0.03494  -0.33132
  22   29021.3    344.6   0.019238587   0.21824  -0.17874   0.32478  -0.28427
  23   29219.8    342.2   0.100318013   1.13026  -0.96232   0.21280   0.39864
  24   29485.3    339.2   0.238757406   2.66580  -1.60022  -0.28268   0.15873
  25   29760.5    336.0   0.056273590   0.62250  -0.21525   0.75905   0.00248
  26   30067.8    332.6   0.018588946   0.20353   0.22298   0.38909  -0.04920
  27   30642.1    326.3   0.006206900   0.06669   0.06078  -0.14865  -0.20222
  28   31251.2    320.0   0.017099035   0.18013  -0.23856  -0.34564  -0.06123
  29   31606.9    316.4   0.078577549   0.81845  -0.81212  -0.25667   0.30501
  30   31882.1    313.7   0.075661399   0.78127  -0.87341  -0.13054   0.03719
  31   32046.6    312.0   0.077521217   0.79637   0.71347   0.51075  -0.16267
  32   32211.5    310.4   0.059393367   0.60702   0.74736   0.19057   0.11025
  33   32567.8    307.1   0.171314825   1.73174   1.31454  -0.00750  -0.06044
  34   32592.6    306.8   0.102278448   1.03310  -1.01035   0.01066   0.11036
  35   32789.5    305.0   0.062473132   0.62724  -0.68691  -0.14192  -0.36777
  36   32997.4    303.1   0.006723943   0.06708  -0.12909  -0.03786   0.22133
  37   33204.3    301.2   0.000467821   0.00464  -0.00655   0.02163   0.06425
  38   33443.7    299.0   0.046391130   0.45666  -0.60531   0.29633  -0.04959
  39   33585.5    297.7   0.000583276   0.00572  -0.00860   0.07287   0.01827
  40   33659.0    297.1   0.018986688   0.18571   0.28239  -0.26616  -0.18740
  41   33742.5    296.4   0.047520990   0.46364   0.62505  -0.18174  -0.19981
  42   33917.9    294.8   0.054089694   0.52500  -0.53772   0.24213   0.42099
  43   34172.6    292.6   0.118524345   1.14184   0.93169   0.04869  -0.52099
  44   34634.6    288.7   0.163021970   1.54957  -0.77566   0.95371   0.19585
  45   34878.1    286.7   0.100685992   0.95037  -0.95793  -0.01502   0.18032
  46   35166.5    284.4   0.004744935   0.04442  -0.12645  -0.10029  -0.13554
  47   35488.9    281.8   0.017432822   0.16172  -0.01091  -0.25186   0.31331
  48   35693.5    280.2   0.058103760   0.53591   0.56845  -0.41257   0.20629
  49   35830.2    279.1   0.228260893   2.09729   1.09898  -0.92492   0.18449
  50   35991.6    277.8   0.000200904   0.00184  -0.03298   0.01275   0.02423
  51   36374.3    274.9   0.150566378   1.36273   1.06071  -0.41647   0.25334
  52   36643.8    272.9   0.006452335   0.05797  -0.07439   0.21974  -0.06441
  53   36662.4    272.8   0.040820355   0.36655  -0.54198  -0.11568   0.24377
  54   36921.1    270.8   0.516174044   4.60254   2.03156  -0.58297   0.36803
  55   37319.2    268.0   0.011520358   0.10163   0.26049  -0.16855   0.07322
  56   37650.2    265.6   0.099297379   0.86825   0.78986  -0.49383   0.02247
  57   37961.7    263.4   0.007295089   0.06326  -0.22572   0.10306   0.04114
  58   38022.7    263.0   0.007502168   0.06496   0.22059  -0.10136   0.07760
  59   38194.0    261.8   0.001553986   0.01339  -0.09601   0.05949  -0.02523
  60   38238.5    261.5   0.102774318   0.88483   0.81522  -0.46895   0.01820
  61   38352.8    260.7   0.072085432   0.61876   0.69399  -0.35238  -0.11390
  62   38603.7    259.0   0.028113759   0.23975  -0.03386  -0.11951   0.47363
  63   38681.7    258.5   0.015391582   0.13099  -0.06093   0.02194   0.35609
  64   38809.5    257.7   0.097252249   0.82497  -0.07203  -0.87579   0.22972
  65   38956.0    256.7   0.018709302   0.15811  -0.39195   0.06694  -0.00092
  66   39478.7    253.3   0.032131128   0.26794  -0.35973  -0.36917   0.04741
  67   39683.1    252.0   0.060558798   0.50240   0.00763  -0.70794   0.03405
  68   40102.0    249.4   0.022437939   0.18420   0.12990  -0.24683   0.32620
  69   40253.0    248.4   0.025052083   0.20489  -0.29478   0.33346  -0.08247

FINAL SINGLE POINT ENERGY     -5316.787066441420

DIPOLE MOMENT
-------------
                                X             Y             Z
Electronic contribution:     -5.59773      19.64586       3.63971
Nuclear contribution   :     -1.00037     -21.15118      -2.32464
                        -----------------------------------------
Total Dipole Moment    :     -6.59810      -1.50532       1.31507
                        -----------------------------------------
Magnitude (a.u.)       :      6.89422
Magnitude (Debye)      :     17.52372

Rotational constants in cm-1:     0.002571     0.000122     0.000118
Rotational constants in MHz :    77.077451     3.650775     3.547310

                             ****ORCA TERMINATED NORMALLY****
TOTAL RUN TIME: 0 days 0 hours 14 minutes 11 seconds 118 msec
