                         Program Version 4.2.0 -  RELEASE  -
|  1> # ORCA input file
|  2> # SCF done       -153.637672480992          0.001020017131
|  3> ! CAM-B3LYP def2-SVP def2/J RIJCOSX Grid4 TightSCF
|  4> %maxcore 5000
|  5> %tddft
|  6>     Mode sTDDFT
|  7>     Ethresh 5.0
|  8>     maxcore 5000
|  9> end
| 10>
| 11> %pal
| 12>   nprocs 6
| 13>   end
| 14> * xyz 0 1
| 15>    C        6.03059       -14.12809        -9.84906
| 16>    C        6.65468       -14.09322        -8.66546
| 17>    C        7.46818       -15.11719        -8.06927
| 18>    C        7.97434       -14.79594        -6.86088
| 19>    C        7.61063       -13.49549        -6.39858
| 20>    S        6.58298       -12.69949        -7.57353
| 21>    C        7.98535       -12.89281        -5.22645
| 22>    C        8.81270       -13.41076        -4.19455
| 23>    C        9.01486       -12.55376        -3.16615
| 24>    C        8.36831       -11.28680        -3.30647
| 25>    S        7.46581       -11.26394        -4.81452
| 26>    C        8.47187       -10.25767        -2.42227
| 27>    C        7.88856        -8.95929        -2.52626
| 28>    C        7.00691        -8.49393        -3.48172
| 29>    O        6.70455        -7.21897        -3.28698
| 30>    C        7.38813        -6.79213        -2.19987
| 31>    N        7.12424        -5.45636        -1.85527
| 32>    O        7.75071        -4.94909        -0.93495
| 33>    O        6.27469        -4.87723        -2.50278
| 34>    C        8.14975        -7.83256        -1.65795
| 35>    C        8.99657        -7.90157        -0.51043
| 36>    C        9.51057        -6.86708         0.18651
| 37>    N       10.29826        -7.04158         1.28276
| 38>    C       10.90668        -6.04570         1.97758
| 39>    S       10.80561        -4.40403         1.43737
| 40>    C       11.79835        -3.92280         2.77759
| 41>    N       12.20195        -2.59425         2.86212
| 42>    O       12.92654        -2.27586         3.79272
| 43>    O       11.82633        -1.83714         1.97889
| 44>    C       12.16071        -4.96615         3.58875
| 45>    C       11.66454        -6.20511         3.14657
| 46>    C       11.96007        -7.47800         3.76426
| 47>    C       12.66725        -7.60179         4.89582
| 48>    C       13.08773        -8.83797         5.51394
| 49>    C       12.40504       -10.01828         5.65415
| 50>    O       13.07640       -10.89597         6.40116
| 51>    C       14.23417       -10.29657         6.76960
| 52>    N       15.13120       -11.02271         7.55711
| 53>    O       16.15768       -10.45203         7.90272
| 54>    O       14.83938       -12.16982         7.84857
| 55>    C       14.32249        -9.01078         6.23961
| 56>    C       15.37820        -8.06421         6.35435
| 57>    C       15.54974        -7.08539         5.42252
| 58>    C       16.39844        -5.97016         5.50865
| 59>    C       16.37328        -4.98055         4.55649
| 60>    C       16.98152        -3.69933         4.60859
| 61>    C       16.63807        -2.87225         3.58588
| 62>    C       15.76547        -3.45949         2.63750
| 63>    S       15.41838        -5.11810         3.08701
| 64>    C       15.18551        -2.88922         1.53166
| 65>    C       15.22286        -1.52214         1.13302
| 66>    C       14.44911        -1.23555         0.06465
| 67>    C       13.74680        -2.36084        -0.48388
| 68>    S       14.17659        -3.81232         0.43786
| 69>    C       12.88547        -2.37819        -1.50712
| 70>    H        6.10291       -14.99396       -10.48344
| 71>    H        5.44255       -13.30095       -10.20281
| 72>    H        7.63573       -16.04910        -8.58014
| 73>    H        8.60393       -15.44153        -6.27437
| 74>    H        9.23373       -14.39853        -4.25125
| 75>    H        9.61645       -12.77356        -2.30153
| 76>    H        9.09414       -10.44289        -1.55849
| 77>    H        6.53903        -8.97996        -4.31403
| 78>    H        9.25567        -8.90521        -0.19839
| 79>    H        9.31103        -5.84176        -0.08327
| 80>    H       10.45474        -7.98837         1.60864
| 81>    H       12.77592        -4.81541         4.45547
| 82>    H       11.63961        -8.37243         3.24646
| 83>    H       12.99879        -6.71636         5.41835
| 84>    H       11.43545       -10.31645         5.30478
| 85>    H       16.04656        -8.16104         7.19692
| 86>    H       14.95359        -7.13826         4.51884
| 87>    H       17.01654        -5.83254         6.38419
| 88>    H       17.62530        -3.42258         5.42480
| 89>    H       16.98010        -1.85796         3.48599
| 90>    H       15.79571        -0.79820         1.68396
| 91>    H       14.32137        -0.25559        -0.35834
| 92>    H       12.64410        -1.47237        -2.03374
| 93>    H       12.39895        -3.28258        -1.82429
| 94> *
| 95>
| 96>                          ****END OF INPUT****

CARTESIAN COORDINATES (ANGSTROEM)
---------------------------------
  C      6.030590  -14.128090   -9.849060
  C      6.654680  -14.093220   -8.665460
  C      7.468180  -15.117190   -8.069270
  C      7.974340  -14.795940   -6.860880
  C      7.610630  -13.495490   -6.398580
  S      6.582980  -12.699490   -7.573530
  C      7.985350  -12.892810   -5.226450
  C      8.812700  -13.410760   -4.194550
  C      9.014860  -12.553760   -3.166150
  C      8.368310  -11.286800   -3.306470
  S      7.465810  -11.263940   -4.814520
  C      8.471870  -10.257670   -2.422270
  C      7.888560   -8.959290   -2.526260
  C      7.006910   -8.493930   -3.481720
  O      6.704550   -7.218970   -3.286980
  C      7.388130   -6.792130   -2.199870
  N      7.124240   -5.456360   -1.855270
  O      7.750710   -4.949090   -0.934950
  O      6.274690   -4.877230   -2.502780
  C      8.149750   -7.832560   -1.657950
  C      8.996570   -7.901570   -0.510430
  C      9.510570   -6.867080    0.186510
  N     10.298260   -7.041580    1.282760
  C     10.906680   -6.045700    1.977580
  S     10.805610   -4.404030    1.437370
  C     11.798350   -3.922800    2.777590
  N     12.201950   -2.594250    2.862120
  O     12.926540   -2.275860    3.792720
  O     11.826330   -1.837140    1.978890
  C     12.160710   -4.966150    3.588750
  C     11.664540   -6.205110    3.146570
  C     11.960070   -7.478000    3.764260
  C     12.667250   -7.601790    4.895820
  C     13.087730   -8.837970    5.513940
  C     12.405040  -10.018280    5.654150
  O     13.076400  -10.895970    6.401160
  C     14.234170  -10.296570    6.769600
  N     15.131200  -11.022710    7.557110
  O     16.157680  -10.452030    7.902720
  O     14.839380  -12.169820    7.848570
  C     14.322490   -9.010780    6.239610
  C     15.378200   -8.064210    6.354350
  C     15.549740   -7.085390    5.422520
  C     16.398440   -5.970160    5.508650
  C     16.373280   -4.980550    4.556490
  C     16.981520   -3.699330    4.608590
  C     16.638070   -2.872250    3.585880
  C     15.765470   -3.459490    2.637500
  S     15.418380   -5.118100    3.087010
  C     15.185510   -2.889220    1.531660
  C     15.222860   -1.522140    1.133020
  C     14.449110   -1.235550    0.064650
  C     13.746800   -2.360840   -0.483880
  S     14.176590   -3.812320    0.437860
  C     12.885470   -2.378190   -1.507120
  H      6.102910  -14.993960  -10.483440
  H      5.442550  -13.300950  -10.202810
  H      7.635730  -16.049100   -8.580140
  H      8.603930  -15.441530   -6.274370
  H      9.233730  -14.398530   -4.251250
  H      9.616450  -12.773560   -2.301530
  H      9.094140  -10.442890   -1.558490
  H      6.539030   -8.979960   -4.314030
  H      9.255670   -8.905210   -0.198390
  H      9.311030   -5.841760   -0.083270
  H     10.454740   -7.988370    1.608640
  H     12.775920   -4.815410    4.455470
  H     11.639610   -8.372430    3.246460
  H     12.998790   -6.716360    5.418350
  H     11.435450  -10.316450    5.304780
  H     16.046560   -8.161040    7.196920
  H     14.953590   -7.138260    4.518840
  H     17.016540   -5.832540    6.384190
  H     17.625300   -3.422580    5.424800
  H     16.980100   -1.857960    3.485990
  H     15.795710   -0.798200    1.683960
  H     14.321370   -0.255590   -0.358340
  H     12.644100   -1.472370   -2.033740
  H     12.398950   -3.282580   -1.824290

 Total Charge           Charge          ....    0
 Multiplicity           Mult            ....    1
 Number of Electrons    NEL             ....  424
 Basis Dimension        Dim             ....  910

ORBITAL ENERGIES
----------------

  NO   OCC          E(Eh)            E(eV)
   0   2.0000     -88.979783     -2421.2630
   1   2.0000     -88.953845     -2420.5572
   2   2.0000     -88.946854     -2420.3669
   3   2.0000     -88.946692     -2420.3625
   4   2.0000     -88.943117     -2420.2653
   5   2.0000     -19.312623      -525.5232
   6   2.0000     -19.312097      -525.5089
   7   2.0000     -19.236717      -523.4577
   8   2.0000     -19.233880      -523.3805
   9   2.0000     -19.230432      -523.2866
  10   2.0000     -19.228871      -523.2442
  11   2.0000     -19.225587      -523.1548
  12   2.0000     -19.225384      -523.1493
  13   2.0000     -14.649957      -398.6456
  14   2.0000     -14.640520      -398.3888
  15   2.0000     -14.639522      -398.3616
  16   2.0000     -14.488868      -394.2621
  17   2.0000     -10.372812      -282.2586
  18   2.0000     -10.368761      -282.1483
  19   2.0000     -10.365603      -282.0624
  20   2.0000     -10.349212      -281.6164
  21   2.0000     -10.348544      -281.5982
  22   2.0000     -10.338263      -281.3184
  23   2.0000     -10.333178      -281.1801
  24   2.0000     -10.322602      -280.8923
  25   2.0000     -10.320277      -280.8290
  26   2.0000     -10.318303      -280.7753
  27   2.0000     -10.316367      -280.7226
  28   2.0000     -10.315522      -280.6996
  29   2.0000     -10.314515      -280.6722
  30   2.0000     -10.313575      -280.6466
  31   2.0000     -10.307884      -280.4918
  32   2.0000     -10.307565      -280.4831
  33   2.0000     -10.306810      -280.4626
  34   2.0000     -10.303458      -280.3714
  35   2.0000     -10.299250      -280.2569
  36   2.0000     -10.299123      -280.2534
  37   2.0000     -10.297816      -280.2178
  38   2.0000     -10.297252      -280.2025
  39   2.0000     -10.296198      -280.1738
  40   2.0000     -10.295821      -280.1635
  41   2.0000     -10.294140      -280.1178
  42   2.0000     -10.292567      -280.0750
  43   2.0000     -10.292563      -280.0749
  44   2.0000     -10.292530      -280.0740
  45   2.0000     -10.291988      -280.0592
  46   2.0000     -10.291737      -280.0524
  47   2.0000     -10.287775      -279.9446
  48   2.0000     -10.285861      -279.8925
  49   2.0000     -10.284154      -279.8461
  50   2.0000     -10.283851      -279.8378
  51   2.0000     -10.278863      -279.7021
  52   2.0000     -10.276000      -279.6242
  53   2.0000     -10.275698      -279.6160
  54   2.0000     -10.272729      -279.5352
  55   2.0000      -8.074860      -219.7281
  56   2.0000      -8.049866      -219.0480
  57   2.0000      -8.043348      -218.8706
  58   2.0000      -8.042577      -218.8496
  59   2.0000      -8.039155      -218.7565
  60   2.0000      -6.044596      -164.4818
  61   2.0000      -6.040207      -164.3624
  62   2.0000      -6.036168      -164.2525
  63   2.0000      -6.019666      -163.8034
  64   2.0000      -6.015663      -163.6945
  65   2.0000      -6.013191      -163.6273
  66   2.0000      -6.012313      -163.6034
  67   2.0000      -6.010666      -163.5585
  68   2.0000      -6.009265      -163.5204
  69   2.0000      -6.008966      -163.5123
  70   2.0000      -6.008379      -163.4963
  71   2.0000      -6.005084      -163.4067
  72   2.0000      -6.003857      -163.3733
  73   2.0000      -6.003475      -163.3629
  74   2.0000      -5.999800      -163.2629
  75   2.0000      -1.319562       -35.9071
  76   2.0000      -1.308351       -35.6020
  77   2.0000      -1.307305       -35.5736
  78   2.0000      -1.235628       -33.6231
  79   2.0000      -1.230546       -33.4848
  80   2.0000      -1.133358       -30.8402
  81   2.0000      -1.126404       -30.6510
  82   2.0000      -1.122351       -30.5407
  83   2.0000      -1.094770       -29.7902
  84   2.0000      -1.001011       -27.2389
  85   2.0000      -1.000681       -27.2299
  86   2.0000      -0.994870       -27.0718
  87   2.0000      -0.978221       -26.6187
  88   2.0000      -0.971673       -26.4406
  89   2.0000      -0.951026       -25.8787
  90   2.0000      -0.949560       -25.8388
  91   2.0000      -0.923350       -25.1256
  92   2.0000      -0.922294       -25.0969
  93   2.0000      -0.908564       -24.7233
  94   2.0000      -0.901960       -24.5436
  95   2.0000      -0.892373       -24.2827
  96   2.0000      -0.884226       -24.0610
  97   2.0000      -0.871967       -23.7274
  98   2.0000      -0.866025       -23.5657
  99   2.0000      -0.853880       -23.2352
 100   2.0000      -0.849920       -23.1275
 101   2.0000      -0.846321       -23.0296
 102   2.0000      -0.844153       -22.9706
 103   2.0000      -0.832433       -22.6517
 104   2.0000      -0.828237       -22.5375
 105   2.0000      -0.818342       -22.2682
 106   2.0000      -0.801643       -21.8138
 107   2.0000      -0.792027       -21.5522
 108   2.0000      -0.788435       -21.4544
 109   2.0000      -0.776583       -21.1319
 110   2.0000      -0.773616       -21.0511
 111   2.0000      -0.748024       -20.3548
 112   2.0000      -0.739864       -20.1327
 113   2.0000      -0.733914       -19.9708
 114   2.0000      -0.728432       -19.8216
 115   2.0000      -0.705016       -19.1845
 116   2.0000      -0.696810       -18.9612
 117   2.0000      -0.690924       -18.8010
 118   2.0000      -0.677257       -18.4291
 119   2.0000      -0.675524       -18.3820
 120   2.0000      -0.662355       -18.0236
 121   2.0000      -0.655579       -17.8392
 122   2.0000      -0.647272       -17.6132
 123   2.0000      -0.639548       -17.4030
 124   2.0000      -0.637924       -17.3588
 125   2.0000      -0.635359       -17.2890
 126   2.0000      -0.633520       -17.2390
 127   2.0000      -0.630594       -17.1593
 128   2.0000      -0.627829       -17.0841
 129   2.0000      -0.626533       -17.0488
 130   2.0000      -0.624974       -17.0064
 131   2.0000      -0.623209       -16.9584
 132   2.0000      -0.619956       -16.8699
 133   2.0000      -0.613906       -16.7052
 134   2.0000      -0.607216       -16.5232
 135   2.0000      -0.606458       -16.5026
 136   2.0000      -0.601668       -16.3722
 137   2.0000      -0.598302       -16.2806
 138   2.0000      -0.596123       -16.2213
 139   2.0000      -0.588450       -16.0125
 140   2.0000      -0.584028       -15.8922
 141   2.0000      -0.581789       -15.8313
 142   2.0000      -0.580848       -15.8057
 143   2.0000      -0.570262       -15.5176
 144   2.0000      -0.565214       -15.3803
 145   2.0000      -0.561325       -15.2744
 146   2.0000      -0.560650       -15.2561
 147   2.0000      -0.557134       -15.1604
 148   2.0000      -0.554607       -15.0916
 149   2.0000      -0.544220       -14.8090
 150   2.0000      -0.543074       -14.7778
 151   2.0000      -0.538921       -14.6648
 152   2.0000      -0.537155       -14.6167
 153   2.0000      -0.528290       -14.3755
 154   2.0000      -0.523864       -14.2551
 155   2.0000      -0.521202       -14.1826
 156   2.0000      -0.518089       -14.0979
 157   2.0000      -0.509804       -13.8725
 158   2.0000      -0.508708       -13.8426
 159   2.0000      -0.503146       -13.6913
 160   2.0000      -0.498742       -13.5715
 161   2.0000      -0.497297       -13.5321
 162   2.0000      -0.495747       -13.4900
 163   2.0000      -0.489308       -13.3147
 164   2.0000      -0.487458       -13.2644
 165   2.0000      -0.486784       -13.2461
 166   2.0000      -0.485782       -13.2188
 167   2.0000      -0.481083       -13.0909
 168   2.0000      -0.473821       -12.8933
 169   2.0000      -0.473562       -12.8863
 170   2.0000      -0.469804       -12.7840
 171   2.0000      -0.468291       -12.7428
 172   2.0000      -0.466168       -12.6851
 173   2.0000      -0.463472       -12.6117
 174   2.0000      -0.456923       -12.4335
 175   2.0000      -0.456624       -12.4254
 176   2.0000      -0.451988       -12.2992
 177   2.0000      -0.440869       -11.9967
 178   2.0000      -0.435997       -11.8641
 179   2.0000      -0.430535       -11.7155
 180   2.0000      -0.429524       -11.6879
 181   2.0000      -0.427115       -11.6224
 182   2.0000      -0.424371       -11.5477
 183   2.0000      -0.417177       -11.3520
 184   2.0000      -0.407137       -11.0788
 185   2.0000      -0.406339       -11.0570
 186   2.0000      -0.399535       -10.8719
 187   2.0000      -0.398090       -10.8326
 188   2.0000      -0.390764       -10.6332
 189   2.0000      -0.387073       -10.5328
 190   2.0000      -0.379313       -10.3216
 191   2.0000      -0.375727       -10.2241
 192   2.0000      -0.374436       -10.1889
 193   2.0000      -0.366536        -9.9740
 194   2.0000      -0.364122        -9.9083
 195   2.0000      -0.363436        -9.8896
 196   2.0000      -0.362729        -9.8703
 197   2.0000      -0.357819        -9.7367
 198   2.0000      -0.357073        -9.7165
 199   2.0000      -0.354711        -9.6522
 200   2.0000      -0.346672        -9.4334
 201   2.0000      -0.342416        -9.3176
 202   2.0000      -0.338030        -9.1983
 203   2.0000      -0.333327        -9.0703
 204   2.0000      -0.325333        -8.8528
 205   2.0000      -0.320816        -8.7299
 206   2.0000      -0.307517        -8.3680
 207   2.0000      -0.301580        -8.2064
 208   2.0000      -0.290740        -7.9115
 209   2.0000      -0.260283        -7.0827
 210   2.0000      -0.232860        -6.3365
 211   2.0000      -0.220559        -6.0017
 212   0.0000      -0.078464        -2.1351
 213   0.0000      -0.070196        -1.9101
 214   0.0000      -0.062965        -1.7134
 215   0.0000      -0.041438        -1.1276
 216   0.0000      -0.037152        -1.0110

MULLIKEN ATOMIC CHARGES
-----------------------
   0 C :   -0.024164
   1 C :   -0.069108
   2 C :    0.061135
   3 C :    0.025612
   4 C :   -0.060221
   5 S :    0.082680
   6 C :   -0.045080
   7 C :    0.040484
   8 C :    0.025848
   9 C :   -0.014611
  10 S :    0.044801
  11 C :   -0.030261
  12 C :    0.032913
  13 C :    0.083355
  14 O :   -0.137147
  15 C :    0.119259
  16 N :    0.290374
  17 O :   -0.275075
  18 O :   -0.240393
  19 C :    0.045192
  20 C :   -0.080836
  21 C :    0.080868
  22 N :   -0.023704
  23 C :   -0.115962
  24 S :    0.162983
  25 C :   -0.017117
  26 N :    0.280366
  27 O :   -0.259781
  28 O :   -0.266677
  29 C :    0.039430
  30 C :    0.115999
  31 C :   -0.024823
  32 C :   -0.039408
  33 C :    0.037495
  34 C :    0.099588
  35 O :   -0.145990
  36 C :    0.130189
  37 N :    0.284601
  38 O :   -0.267003
  39 O :   -0.253815
  40 C :    0.035373
  41 C :   -0.045227
  42 C :   -0.021623
  43 C :   -0.010564
  44 C :   -0.019077
  45 C :    0.033115
  46 C :    0.055568
  47 C :   -0.040384
  48 S :    0.044513
  49 C :   -0.070415
  50 C :    0.043369
  51 C :    0.079795
  52 C :   -0.061614
  53 S :    0.058825
  54 C :   -0.012111
  55 H :    0.024442
  56 H :    0.026517
  57 H :   -0.007489
  58 H :   -0.007623
  59 H :   -0.012533
  60 H :   -0.013211
  61 H :   -0.028825
  62 H :    0.035909
  63 H :   -0.027636
  64 H :    0.058988
  65 H :    0.133576
  66 H :    0.009607
  67 H :   -0.042720
  68 H :    0.028367
  69 H :    0.008317
  70 H :    0.016803
  71 H :    0.034980
  72 H :   -0.010717
  73 H :   -0.010251
  74 H :   -0.009162
  75 H :   -0.008163
  76 H :   -0.007419
  77 H :    0.026185
  78 H :    0.020518
Sum of atomic charges:   -0.0000000

LOEWDIN ATOMIC CHARGES
----------------------
   0 C :   -0.067465
   1 C :   -0.139994
   2 C :   -0.023496
   3 C :   -0.027233
   4 C :   -0.169342
   5 S :    0.352590
   6 C :   -0.183385
   7 C :   -0.028896
   8 C :   -0.035100
   9 C :   -0.135637
  10 S :    0.366951
  11 C :   -0.071745
  12 C :   -0.073542
  13 C :    0.060034
  14 O :    0.049870
  15 C :   -0.017089
  16 N :    0.276728
  17 O :   -0.229854
  18 O :   -0.201598
  19 C :   -0.009287
  20 C :   -0.100563
  21 C :    0.057752
  22 N :    0.044496
  23 C :   -0.096260
  24 S :    0.470875
  25 C :   -0.220717
  26 N :    0.277467
  27 O :   -0.226943
  28 O :   -0.233503
  29 C :    0.005542
  30 C :   -0.108550
  31 C :   -0.030631
  32 C :   -0.019494
  33 C :   -0.068965
  34 C :    0.065845
  35 O :    0.041323
  36 C :   -0.013242
  37 N :    0.274663
  38 O :   -0.227059
  39 O :   -0.215360
  40 C :   -0.014783
  41 C :   -0.042723
  42 C :   -0.009961
  43 C :   -0.075129
  44 C :   -0.122996
  45 C :   -0.041584
  46 C :   -0.009581
  47 C :   -0.186278
  48 S :    0.381557
  49 C :   -0.164350
  50 C :   -0.024484
  51 C :   -0.010984
  52 C :   -0.138516
  53 S :    0.354953
  54 C :   -0.057599
  55 H :    0.030704
  56 H :    0.028563
  57 H :    0.035364
  58 H :    0.033459
  59 H :    0.033016
  60 H :    0.032655
  61 H :    0.029937
  62 H :    0.018995
  63 H :    0.025016
  64 H :    0.021720
  65 H :    0.093142
  66 H :    0.037648
  67 H :    0.017652
  68 H :    0.036589
  69 H :    0.026893
  70 H :    0.035926
  71 H :    0.022463
  72 H :    0.034133
  73 H :    0.034763
  74 H :    0.034801
  75 H :    0.034720
  76 H :    0.036663
  77 H :    0.032495
  78 H :    0.025951

  Mayer bond orders larger than 0.100000
B(  0-C ,  1-C ) :   1.8723 B(  0-C , 55-H ) :   0.9508 B(  0-C , 56-H ) :   0.9415
B(  1-C ,  2-C ) :   1.0740 B(  1-C ,  5-S ) :   1.0057 B(  2-C ,  3-C ) :   1.6745
B(  2-C , 57-H ) :   0.9928 B(  3-C ,  4-C ) :   1.1398 B(  3-C , 58-H ) :   0.9919
B(  4-C ,  5-S ) :   1.0474 B(  4-C ,  6-C ) :   1.5815 B(  6-C ,  7-C ) :   1.1559
B(  6-C , 10-S ) :   1.0224 B(  7-C ,  8-C ) :   1.6344 B(  7-C , 59-H ) :   0.9908
B(  8-C ,  9-C ) :   1.1100 B(  8-C , 60-H ) :   0.9972 B(  9-C , 10-S ) :   1.0315
B(  9-C , 11-C ) :   1.6686 B( 11-C , 12-C ) :   1.0894 B( 11-C , 61-H ) :   0.9555
B( 12-C , 13-C ) :   1.4325 B( 12-C , 19-C ) :   1.2201 B( 13-C , 14-O ) :   1.1908
B( 13-C , 62-H ) :   0.9938 B( 14-O , 15-C ) :   1.1511 B( 15-C , 16-N ) :   0.9755
B( 15-C , 19-C ) :   1.3824 B( 16-N , 17-O ) :   1.4533 B( 16-N , 18-O ) :   1.5079
B( 17-O , 18-O ) :   0.2462 B( 17-O , 64-H ) :   0.1040 B( 19-C , 20-C ) :   1.1635
B( 20-C , 21-C ) :   1.6618 B( 20-C , 63-H ) :   0.9469 B( 21-C , 22-N ) :   1.1387
B( 21-C , 64-H ) :   0.9313 B( 22-N , 23-C ) :   1.2165 B( 22-N , 65-H ) :   0.9148
B( 23-C , 24-S ) :   1.1486 B( 23-C , 30-C ) :   1.3592 B( 24-S , 25-C ) :   1.0602
B( 25-C , 26-N ) :   0.9893 B( 25-C , 29-C ) :   1.4937 B( 26-N , 27-O ) :   1.5145
B( 26-N , 28-O ) :   1.4959 B( 27-O , 28-O ) :   0.2446 B( 29-C , 30-C ) :   1.2385
B( 29-C , 66-H ) :   0.9840 B( 30-C , 31-C ) :   1.0557 B( 31-C , 32-C ) :   1.8029
B( 31-C , 67-H ) :   0.9708 B( 32-C , 33-C ) :   1.0183 B( 32-C , 68-H ) :   0.9525
B( 33-C , 34-C ) :   1.4896 B( 33-C , 40-C ) :   1.2134 B( 34-C , 35-O ) :   1.1792
B( 34-C , 69-H ) :   1.0124 B( 35-O , 36-C ) :   1.1501 B( 36-C , 37-N ) :   0.9780
B( 36-C , 40-C ) :   1.3920 B( 37-N , 38-O ) :   1.4874 B( 37-N , 39-O ) :   1.4818
B( 38-O , 39-O ) :   0.2576 B( 40-C , 41-C ) :   1.1363 B( 41-C , 42-C ) :   1.5990
B( 41-C , 70-H ) :   0.9748 B( 42-C , 43-C ) :   1.1632 B( 42-C , 71-H ) :   0.9618
B( 43-C , 44-C ) :   1.5555 B( 43-C , 72-H ) :   0.9871 B( 44-C , 45-C ) :   1.1344
B( 44-C , 48-S ) :   1.0471 B( 45-C , 46-C ) :   1.6043 B( 45-C , 73-H ) :   0.9978
B( 46-C , 47-C ) :   1.1791 B( 46-C , 74-H ) :   0.9909 B( 47-C , 48-S ) :   1.0260
B( 47-C , 49-C ) :   1.5534 B( 49-C , 50-C ) :   1.1475 B( 49-C , 53-S ) :   1.0568
B( 50-C , 51-C ) :   1.6698 B( 50-C , 75-H ) :   0.9894 B( 51-C , 52-C ) :   1.0779
B( 51-C , 76-H ) :   0.9908 B( 52-C , 53-S ) :   0.9941 B( 52-C , 54-C ) :   1.8737
B( 54-C , 77-H ) :   0.9491 B( 54-C , 78-H ) :   0.9416

-----------------------------------------------------------------------------
         ABSORPTION SPECTRUM VIA TRANSITION ELECTRIC DIPOLE MOMENTS
-----------------------------------------------------------------------------
State   Energy  Wavelength   fosc         T2         TX        TY        TZ
        (cm-1)    (nm)                  (au**2)     (au)      (au)      (au)
-----------------------------------------------------------------------------
   0   16518.5    605.4   0.778842541  15.52223   0.24494  -2.80198   2.75883
   1   17465.6    572.6   0.173959544   3.27899  -0.24168   0.89006  -1.55833
   2   21128.1    473.3   1.515658824  23.61652   1.56034   2.65264   3.76103
   3   23062.7    433.6   0.242109044   3.45602  -0.21179   1.43439   1.16348
   4   23467.0    426.1   0.033621146   0.47166  -0.17886   0.16918  -0.64113
   5   23504.5    425.5   0.044137612   0.61821   0.40667  -0.40623   0.53647
   6   25098.5    398.4   0.000945458   0.01240   0.05391   0.08673   0.04442
   7   25355.7    394.4   0.301223153   3.91100  -1.49614  -0.43112  -1.21930
   8   25598.3    390.7   0.073796450   0.94907   0.43991  -0.28078   0.82263
   9   26381.2    379.1   0.015507852   0.19352   0.08609  -0.33297   0.27431
  10   28539.7    350.4   0.055436368   0.63947  -0.44652   0.34352  -0.56752
  11   29369.8    340.5   0.280188481   3.14069  -0.53583   1.38998  -0.95997
  12   29390.9    340.2   0.069909733   0.78307   0.13099  -0.83652   0.25718
  13   29983.9    333.5   0.228675349   2.51077  -0.99498  -1.17276  -0.38135
  14   31292.4    319.6   0.112821096   1.18693   0.32195  -0.92367   0.47971
  15   31795.9    314.5   0.040482761   0.41915  -0.27716   0.57461  -0.11030
  16   32436.1    308.3   0.000673563   0.00684  -0.07161  -0.03119  -0.02711
  17   32774.4    305.1   0.002558578   0.02570  -0.15000   0.00818  -0.05599
  18   33235.7    300.9   0.004587765   0.04544   0.07344  -0.03089  -0.19773
  19   33901.4    295.0   0.133386854   1.29530  -0.87451  -0.44276  -0.57836
  20   34360.5    291.0   0.026164644   0.25069   0.25760  -0.20133   0.37920
  21   34830.0    287.1   0.046617120   0.44062  -0.21068   0.11459  -0.61896
  22   34939.2    286.2   0.149526594   1.40890  -0.40773  -1.03557   0.41263
  23   35141.8    284.6   0.134972886   1.26444  -0.32026   1.07754   0.02796
  24   35398.6    282.5   0.119831279   1.11445  -0.38072   0.46884  -0.86584
  25   35481.5    281.8   0.022617789   0.20986   0.09504   0.33828   0.29393
  26   35645.5    280.5   0.153664548   1.41920   0.57323  -0.69988   0.77510
  27   37240.6    268.5   0.214975121   1.90041  -0.32988   1.33293   0.12203
  28   37582.6    266.1   0.051750988   0.45332   0.32327  -0.34433   0.47985
  29   37824.8    264.4   0.112693381   0.98084   0.49873  -0.43363   0.73761
  30   38377.1    260.6   0.015269070   0.13098  -0.03511   0.13446   0.33417
  31   38659.6    258.7   0.056371751   0.48004  -0.55101   0.21058  -0.36343
  32   38878.2    257.2   0.030293571   0.25652   0.14631   0.48316   0.04089
  33   39370.4    254.0   0.116449869   0.97374   0.11292  -0.98017   0.01589
  34   39579.7    252.7   0.006669146   0.05547  -0.10185  -0.05585   0.20489
  35   39689.0    252.0   0.018255161   0.15142   0.05498   0.30891  -0.23016
  36   40205.2    248.7   0.002596349   0.02126   0.04157  -0.13774   0.02362

FINAL SINGLE POINT ENERGY     -4270.359390807595

DIPOLE MOMENT
-------------
                                X             Y             Z
Electronic contribution:     -6.14810       7.93525       9.88010
Nuclear contribution   :      5.96990      -9.57309     -12.42018
                        -----------------------------------------
Total Dipole Moment    :     -0.17820      -1.63784      -2.54009
                        -----------------------------------------
Magnitude (a.u.)       :      3.02759
Magnitude (Debye)      :      7.69553

Rotational constants in cm-1:     0.001646     0.000542     0.000449
Rotational constants in MHz :    49.349649    16.252084    13.473020

                             ****ORCA TERMINATED NORMALLY****
TOTAL RUN TIME: 0 days 0 hours 10 minutes 9 seconds 617 msec
