                         Program Version 4.2.0 -  RELEASE  -
|  1> # ORCA input file
|  2> # SCF done       -152.019902017402          0.000599954605
|  3> ! CAM-B3LYP def2-SVP def2/J RIJCOSX Grid4 TightSCF
|  4> %maxcore 5000
|  5> %tddft
|  6>     Mode sTDDFT
|  7>     Ethresh 5.0
|  8>     maxcore 5000
|  9> end
| 10>
| 11> %pal
| 12>   nprocs 6
| 13>   end
| 14> * xyz 0 1
| 15>    C        2.77870        -5.14800        11.48371
| 16>    C        3.87320        -5.09481        10.71239
| 17>    C        5.20154        -4.71343        11.09823
| 18>    C        6.10698        -4.75112        10.09579
| 19>    C        5.57877        -5.16450         8.84085
| 20>    S        3.86558        -5.50710         8.98958
| 21>    C        6.25797        -5.29301         7.65329
| 22>    C        7.62843        -5.03477         7.40430
| 23>    C        8.00467        -5.24778         6.11656
| 24>    C        6.96263        -5.69177         5.26083
| 25>    S        5.47110        -5.82592         6.17603
| 26>    C        7.10453        -5.96644         3.92632
| 27>    C        6.12889        -6.41814         3.02288
| 28>    O        6.54199        -6.59744         1.71852
| 29>    C        5.46743        -7.03442         1.04774
| 30>    C        5.04640        -7.43000        -0.21715
| 31>    C        3.69763        -7.76294        -0.06072
| 32>    O        3.28518        -7.58503         1.23913
| 33>    C        4.35990        -7.14175         1.90887
| 34>    C        4.77647        -6.74580         3.17571
| 35>    C        2.80174        -8.23520        -1.04112
| 36>    C        1.50388        -8.57455        -0.79561
| 37>    C        0.62280        -9.05092        -1.78181
| 38>    C        0.83552        -9.25393        -3.15731
| 39>    N        1.98278        -9.01663        -3.81805
| 40>    C        2.00251        -9.26599        -5.10456
| 41>    C        3.28204        -9.00250        -5.82801
| 42>    C        0.85548        -9.77008        -5.78938
| 43>    C        0.89156       -10.05255        -7.25517
| 44>    N       -0.27207       -10.00563        -5.16430
| 45>    C       -0.31295        -9.75629        -3.84324
| 46>    C       -1.42526        -9.95143        -3.00505
| 47>    S       -1.00821        -9.49813        -1.37949
| 48>    C       -2.71041       -10.43133        -3.31159
| 49>    C       -3.11476       -10.76909        -4.56919
| 50>    C       -4.40031       -11.25825        -4.87980
| 51>    O       -5.32692       -11.46281        -3.88421
| 52>    C       -6.42791       -11.92501        -4.49540
| 53>    C       -7.72602       -12.35845        -4.24405
| 54>    C       -8.24591       -12.68834        -5.49935
| 55>    O       -7.32123       -12.47588        -6.49634
| 56>    C       -6.22002       -12.01626        -5.88365
| 57>    C       -4.91861       -11.59243        -6.13404
| 58>    C       -9.52850       -13.18176        -5.81240
| 59>    C       -9.95006       -13.42931        -7.08952
| 60>    C      -11.19752       -13.92982        -7.49626
| 61>    C      -12.26297       -14.36340        -6.74241
| 62>    C      -13.47859       -14.85807        -7.28371
| 63>    C      -14.39221       -15.26463        -6.36307
| 64>    C      -13.95866       -15.11848        -5.02381
| 65>    S      -12.34399       -14.43252        -4.99061
| 66>    C      -14.63511       -15.44483        -3.87249
| 67>    C      -15.93609       -16.00859        -3.76403
| 68>    C      -16.34416       -16.23243        -2.49485
| 69>    C      -15.38991       -15.86024        -1.49049
| 70>    S      -13.94453       -15.20682        -2.27817
| 71>    C      -15.51405       -15.96543        -0.16002
| 72>    H        2.82907        -4.88724        12.52611
| 73>    H        1.82448        -5.44833        11.09176
| 74>    H        5.41685        -4.42681        12.11247
| 75>    H        7.14617        -4.49708        10.20844
| 76>    H        8.29204        -4.69765         8.18000
| 77>    H        9.00314        -5.10235         5.74309
| 78>    H        8.08742        -5.82190         3.49800
| 79>    H        5.60211        -7.48333        -1.12929
| 80>    H        4.21052        -6.69733         4.08119
| 81>    H        3.18913        -8.33440        -2.04310
| 82>    H        1.11352        -8.48509         0.20914
| 83>    H        4.01352        -8.60369        -5.13093
| 84>    H        3.12468        -8.28707        -6.63394
| 85>    H        3.66788        -9.92287        -6.26498
| 86>    H       -0.07230       -10.44221        -7.57038
| 87>    H        1.66708       -10.78214        -7.48379
| 88>    H        1.11033        -9.14257        -7.81234
| 89>    H       -3.40556       -10.52832        -2.48865
| 90>    H       -2.42392       -10.66152        -5.39068
| 91>    H       -8.24633       -12.43519        -3.31268
| 92>    H       -4.39720       -11.52180        -7.06522
| 93>    H      -10.17575       -13.34518        -4.96577
| 94>    H       -9.24917       -13.21073        -7.88474
| 95>    H      -11.34922       -14.00113        -8.56676
| 96>    H      -13.63466       -14.89750        -8.34770
| 97>    H      -15.35938       -15.66629        -6.60680
| 98>    H      -16.52399       -16.22930        -4.63751
| 99>    H      -17.29476       -16.65320        -2.21855
|100>    H      -16.40979       -16.36966         0.27739
|101>    H      -14.73154       -15.65424         0.50723
|102> *
|103>
|104>                          ****END OF INPUT****

CARTESIAN COORDINATES (ANGSTROEM)
---------------------------------
  C      2.778700   -5.148000   11.483710
  C      3.873200   -5.094810   10.712390
  C      5.201540   -4.713430   11.098230
  C      6.106980   -4.751120   10.095790
  C      5.578770   -5.164500    8.840850
  S      3.865580   -5.507100    8.989580
  C      6.257970   -5.293010    7.653290
  C      7.628430   -5.034770    7.404300
  C      8.004670   -5.247780    6.116560
  C      6.962630   -5.691770    5.260830
  S      5.471100   -5.825920    6.176030
  C      7.104530   -5.966440    3.926320
  C      6.128890   -6.418140    3.022880
  O      6.541990   -6.597440    1.718520
  C      5.467430   -7.034420    1.047740
  C      5.046400   -7.430000   -0.217150
  C      3.697630   -7.762940   -0.060720
  O      3.285180   -7.585030    1.239130
  C      4.359900   -7.141750    1.908870
  C      4.776470   -6.745800    3.175710
  C      2.801740   -8.235200   -1.041120
  C      1.503880   -8.574550   -0.795610
  C      0.622800   -9.050920   -1.781810
  C      0.835520   -9.253930   -3.157310
  N      1.982780   -9.016630   -3.818050
  C      2.002510   -9.265990   -5.104560
  C      3.282040   -9.002500   -5.828010
  C      0.855480   -9.770080   -5.789380
  C      0.891560  -10.052550   -7.255170
  N     -0.272070  -10.005630   -5.164300
  C     -0.312950   -9.756290   -3.843240
  C     -1.425260   -9.951430   -3.005050
  S     -1.008210   -9.498130   -1.379490
  C     -2.710410  -10.431330   -3.311590
  C     -3.114760  -10.769090   -4.569190
  C     -4.400310  -11.258250   -4.879800
  O     -5.326920  -11.462810   -3.884210
  C     -6.427910  -11.925010   -4.495400
  C     -7.726020  -12.358450   -4.244050
  C     -8.245910  -12.688340   -5.499350
  O     -7.321230  -12.475880   -6.496340
  C     -6.220020  -12.016260   -5.883650
  C     -4.918610  -11.592430   -6.134040
  C     -9.528500  -13.181760   -5.812400
  C     -9.950060  -13.429310   -7.089520
  C    -11.197520  -13.929820   -7.496260
  C    -12.262970  -14.363400   -6.742410
  C    -13.478590  -14.858070   -7.283710
  C    -14.392210  -15.264630   -6.363070
  C    -13.958660  -15.118480   -5.023810
  S    -12.343990  -14.432520   -4.990610
  C    -14.635110  -15.444830   -3.872490
  C    -15.936090  -16.008590   -3.764030
  C    -16.344160  -16.232430   -2.494850
  C    -15.389910  -15.860240   -1.490490
  S    -13.944530  -15.206820   -2.278170
  C    -15.514050  -15.965430   -0.160020
  H      2.829070   -4.887240   12.526110
  H      1.824480   -5.448330   11.091760
  H      5.416850   -4.426810   12.112470
  H      7.146170   -4.497080   10.208440
  H      8.292040   -4.697650    8.180000
  H      9.003140   -5.102350    5.743090
  H      8.087420   -5.821900    3.498000
  H      5.602110   -7.483330   -1.129290
  H      4.210520   -6.697330    4.081190
  H      3.189130   -8.334400   -2.043100
  H      1.113520   -8.485090    0.209140
  H      4.013520   -8.603690   -5.130930
  H      3.124680   -8.287070   -6.633940
  H      3.667880   -9.922870   -6.264980
  H     -0.072300  -10.442210   -7.570380
  H      1.667080  -10.782140   -7.483790
  H      1.110330   -9.142570   -7.812340
  H     -3.405560  -10.528320   -2.488650
  H     -2.423920  -10.661520   -5.390680
  H     -8.246330  -12.435190   -3.312680
  H     -4.397200  -11.521800   -7.065220
  H    -10.175750  -13.345180   -4.965770
  H     -9.249170  -13.210730   -7.884740
  H    -11.349220  -14.001130   -8.566760
  H    -13.634660  -14.897500   -8.347700
  H    -15.359380  -15.666290   -6.606800
  H    -16.523990  -16.229300   -4.637510
  H    -17.294760  -16.653200   -2.218550
  H    -16.409790  -16.369660    0.277390
  H    -14.731540  -15.654240    0.507230

 Total Charge           Charge          ....    0
 Multiplicity           Mult            ....    1
 Number of Electrons    NEL             ....  432
 Basis Dimension        Dim             ....  968

ORBITAL ENERGIES
----------------

  NO   OCC          E(Eh)            E(eV)
   0   2.0000     -88.958813     -2420.6924
   1   2.0000     -88.938628     -2420.1431
   2   2.0000     -88.937870     -2420.1225
   3   2.0000     -88.932141     -2419.9666
   4   2.0000     -88.931935     -2419.9610
   5   2.0000     -19.282012      -524.6902
   6   2.0000     -19.281655      -524.6805
   7   2.0000     -19.281620      -524.6795
   8   2.0000     -19.281552      -524.6777
   9   2.0000     -14.413255      -392.2046
  10   2.0000     -14.413123      -392.2010
  11   2.0000     -10.327469      -281.0247
  12   2.0000     -10.324838      -280.9531
  13   2.0000     -10.324275      -280.9378
  14   2.0000     -10.323877      -280.9270
  15   2.0000     -10.316100      -280.7154
  16   2.0000     -10.315882      -280.7094
  17   2.0000     -10.315286      -280.6932
  18   2.0000     -10.314939      -280.6837
  19   2.0000     -10.314567      -280.6736
  20   2.0000     -10.314447      -280.6704
  21   2.0000     -10.303152      -280.3630
  22   2.0000     -10.302973      -280.3582
  23   2.0000     -10.302041      -280.3328
  24   2.0000     -10.301005      -280.3046
  25   2.0000     -10.300754      -280.2978
  26   2.0000     -10.300399      -280.2881
  27   2.0000     -10.300368      -280.2873
  28   2.0000     -10.298789      -280.2443
  29   2.0000     -10.298498      -280.2364
  30   2.0000     -10.296345      -280.1778
  31   2.0000     -10.295031      -280.1420
  32   2.0000     -10.294950      -280.1398
  33   2.0000     -10.283649      -279.8323
  34   2.0000     -10.283494      -279.8281
  35   2.0000     -10.278660      -279.6966
  36   2.0000     -10.278574      -279.6942
  37   2.0000     -10.278335      -279.6877
  38   2.0000     -10.277448      -279.6636
  39   2.0000     -10.277287      -279.6592
  40   2.0000     -10.276016      -279.6246
  41   2.0000     -10.275830      -279.6195
  42   2.0000     -10.273351      -279.5521
  43   2.0000     -10.273056      -279.5441
  44   2.0000     -10.272524      -279.5296
  45   2.0000     -10.272347      -279.5248
  46   2.0000     -10.270361      -279.4707
  47   2.0000     -10.270191      -279.4661
  48   2.0000     -10.269376      -279.4439
  49   2.0000     -10.268171      -279.4111
  50   2.0000     -10.267457      -279.3917
  51   2.0000     -10.267362      -279.3891
  52   2.0000     -10.264035      -279.2986
  53   2.0000     -10.263775      -279.2915
  54   2.0000     -10.263548      -279.2853
  55   2.0000     -10.263379      -279.2807
  56   2.0000     -10.263192      -279.2757
  57   2.0000      -8.053723      -219.1529
  58   2.0000      -8.034432      -218.6280
  59   2.0000      -8.033634      -218.6063
  60   2.0000      -8.028843      -218.4759
  61   2.0000      -8.028635      -218.4703
  62   2.0000      -6.022594      -163.8831
  63   2.0000      -6.018745      -163.7784
  64   2.0000      -6.016586      -163.7196
  65   2.0000      -6.004253      -163.3840
  66   2.0000      -6.003362      -163.3598
  67   2.0000      -6.000180      -163.2732
  68   2.0000      -5.999358      -163.2508
  69   2.0000      -5.998684      -163.2325
  70   2.0000      -5.998485      -163.2271
  71   2.0000      -5.995314      -163.1408
  72   2.0000      -5.994761      -163.1257
  73   2.0000      -5.994632      -163.1222
  74   2.0000      -5.994558      -163.1202
  75   2.0000      -5.989349      -162.9785
  76   2.0000      -5.989121      -162.9723
  77   2.0000      -1.204294       -32.7705
  78   2.0000      -1.204275       -32.7700
  79   2.0000      -1.186209       -32.2784
  80   2.0000      -1.186108       -32.2756
  81   2.0000      -1.070813       -29.1383
  82   2.0000      -0.995457       -27.0878
  83   2.0000      -0.985322       -26.8120
  84   2.0000      -0.984696       -26.7949
  85   2.0000      -0.971017       -26.4227
  86   2.0000      -0.962658       -26.1952
  87   2.0000      -0.961818       -26.1724
  88   2.0000      -0.907623       -24.6977
  89   2.0000      -0.904956       -24.6251
  90   2.0000      -0.899332       -24.4721
  91   2.0000      -0.892562       -24.2879
  92   2.0000      -0.890524       -24.2324
  93   2.0000      -0.889268       -24.1982
  94   2.0000      -0.879877       -23.9427
  95   2.0000      -0.877618       -23.8812
  96   2.0000      -0.869832       -23.6693
  97   2.0000      -0.861849       -23.4521
  98   2.0000      -0.850836       -23.1524
  99   2.0000      -0.839551       -22.8453
 100   2.0000      -0.837799       -22.7977
 101   2.0000      -0.835673       -22.7398
 102   2.0000      -0.824361       -22.4320
 103   2.0000      -0.815463       -22.1899
 104   2.0000      -0.813342       -22.1322
 105   2.0000      -0.807978       -21.9862
 106   2.0000      -0.800067       -21.7709
 107   2.0000      -0.789294       -21.4778
 108   2.0000      -0.786281       -21.3958
 109   2.0000      -0.771396       -20.9907
 110   2.0000      -0.752210       -20.4687
 111   2.0000      -0.738384       -20.0924
 112   2.0000      -0.723491       -19.6872
 113   2.0000      -0.710874       -19.3439
 114   2.0000      -0.704853       -19.1800
 115   2.0000      -0.700363       -19.0579
 116   2.0000      -0.697797       -18.9880
 117   2.0000      -0.694485       -18.8979
 118   2.0000      -0.680705       -18.5229
 119   2.0000      -0.678539       -18.4640
 120   2.0000      -0.674839       -18.3633
 121   2.0000      -0.671613       -18.2755
 122   2.0000      -0.661225       -17.9928
 123   2.0000      -0.646093       -17.5811
 124   2.0000      -0.640159       -17.4196
 125   2.0000      -0.631833       -17.1930
 126   2.0000      -0.625870       -17.0308
 127   2.0000      -0.619832       -16.8665
 128   2.0000      -0.616480       -16.7753
 129   2.0000      -0.613710       -16.6999
 130   2.0000      -0.608988       -16.5714
 131   2.0000      -0.603874       -16.4323
 132   2.0000      -0.597030       -16.2460
 133   2.0000      -0.592186       -16.1142
 134   2.0000      -0.591004       -16.0820
 135   2.0000      -0.589301       -16.0357
 136   2.0000      -0.587764       -15.9939
 137   2.0000      -0.583242       -15.8708
 138   2.0000      -0.571673       -15.5560
 139   2.0000      -0.564494       -15.3607
 140   2.0000      -0.564304       -15.3555
 141   2.0000      -0.563898       -15.3445
 142   2.0000      -0.557408       -15.1679
 143   2.0000      -0.550898       -14.9907
 144   2.0000      -0.544441       -14.8150
 145   2.0000      -0.540965       -14.7204
 146   2.0000      -0.535260       -14.5652
 147   2.0000      -0.529621       -14.4117
 148   2.0000      -0.526586       -14.3291
 149   2.0000      -0.519323       -14.1315
 150   2.0000      -0.513437       -13.9713
 151   2.0000      -0.513265       -13.9667
 152   2.0000      -0.512879       -13.9561
 153   2.0000      -0.510046       -13.8791
 154   2.0000      -0.505530       -13.7562
 155   2.0000      -0.501378       -13.6432
 156   2.0000      -0.498840       -13.5741
 157   2.0000      -0.497534       -13.5386
 158   2.0000      -0.496366       -13.5068
 159   2.0000      -0.489817       -13.3286
 160   2.0000      -0.489182       -13.3113
 161   2.0000      -0.487329       -13.2609
 162   2.0000      -0.487181       -13.2569
 163   2.0000      -0.485128       -13.2010
 164   2.0000      -0.483245       -13.1498
 165   2.0000      -0.481654       -13.1065
 166   2.0000      -0.480082       -13.0637
 167   2.0000      -0.478286       -13.0148
 168   2.0000      -0.476445       -12.9647
 169   2.0000      -0.474776       -12.9193
 170   2.0000      -0.473514       -12.8850
 171   2.0000      -0.470797       -12.8110
 172   2.0000      -0.467822       -12.7301
 173   2.0000      -0.463208       -12.6045
 174   2.0000      -0.454862       -12.3774
 175   2.0000      -0.454199       -12.3594
 176   2.0000      -0.453073       -12.3287
 177   2.0000      -0.451397       -12.2831
 178   2.0000      -0.447742       -12.1837
 179   2.0000      -0.445406       -12.1201
 180   2.0000      -0.436815       -11.8863
 181   2.0000      -0.432972       -11.7818
 182   2.0000      -0.430204       -11.7065
 183   2.0000      -0.423631       -11.5276
 184   2.0000      -0.421953       -11.4819
 185   2.0000      -0.420609       -11.4453
 186   2.0000      -0.418934       -11.3998
 187   2.0000      -0.415219       -11.2987
 188   2.0000      -0.412884       -11.2352
 189   2.0000      -0.410904       -11.1813
 190   2.0000      -0.409354       -11.1391
 191   2.0000      -0.405555       -11.0357
 192   2.0000      -0.395782       -10.7698
 193   2.0000      -0.390612       -10.6291
 194   2.0000      -0.388065       -10.5598
 195   2.0000      -0.386611       -10.5202
 196   2.0000      -0.381501       -10.3812
 197   2.0000      -0.372812       -10.1447
 198   2.0000      -0.369519       -10.0551
 199   2.0000      -0.354945        -9.6586
 200   2.0000      -0.340878        -9.2758
 201   2.0000      -0.332818        -9.0564
 202   2.0000      -0.331699        -9.0260
 203   2.0000      -0.330739        -8.9999
 204   2.0000      -0.330030        -8.9806
 205   2.0000      -0.324617        -8.8333
 206   2.0000      -0.317492        -8.6394
 207   2.0000      -0.312397        -8.5008
 208   2.0000      -0.310420        -8.4470
 209   2.0000      -0.308989        -8.4080
 210   2.0000      -0.300810        -8.1855
 211   2.0000      -0.276957        -7.5364
 212   2.0000      -0.253295        -6.8925
 213   2.0000      -0.227337        -6.1861
 214   2.0000      -0.204278        -5.5587
 215   2.0000      -0.186720        -5.0809
 216   0.0000      -0.078184        -2.1275
 217   0.0000      -0.062767        -1.7080
 218   0.0000      -0.049067        -1.3352
 219   0.0000      -0.008950        -0.2435
 220   0.0000      -0.002900        -0.0789

MULLIKEN ATOMIC CHARGES
-----------------------
   0 C :   -0.032530
   1 C :   -0.062086
   2 C :    0.050636
   3 C :    0.029724
   4 C :   -0.067186
   5 S :    0.076226
   6 C :   -0.039603
   7 C :    0.025968
   8 C :    0.036445
   9 C :   -0.030881
  10 S :    0.055461
  11 C :   -0.022316
  12 C :    0.154216
  13 O :   -0.206665
  14 C :    0.204747
  15 C :   -0.149241
  16 C :    0.188252
  17 O :   -0.206936
  18 C :    0.202867
  19 C :   -0.157928
  20 C :   -0.029107
  21 C :    0.015871
  22 C :   -0.147982
  23 C :    0.041276
  24 N :    0.003904
  25 C :   -0.173459
  26 C :    0.128027
  27 C :   -0.169463
  28 C :    0.125935
  29 N :    0.004759
  30 C :    0.038469
  31 C :   -0.150472
  32 S :    0.170750
  33 C :    0.016175
  34 C :   -0.029355
  35 C :    0.187626
  36 O :   -0.207043
  37 C :    0.207971
  38 C :   -0.147333
  39 C :    0.165629
  40 O :   -0.208073
  41 C :    0.206576
  42 C :   -0.149499
  43 C :   -0.025502
  44 C :    0.014934
  45 C :   -0.008306
  46 C :   -0.023279
  47 C :    0.036172
  48 C :    0.023188
  49 C :   -0.035812
  50 S :    0.051679
  51 C :   -0.065251
  52 C :    0.029064
  53 C :    0.050326
  54 C :   -0.062194
  55 S :    0.076805
  56 C :   -0.032185
  57 H :    0.018294
  58 H :    0.020251
  59 H :   -0.013428
  60 H :   -0.013134
  61 H :   -0.016729
  62 H :   -0.015343
  63 H :   -0.006122
  64 H :   -0.012341
  65 H :    0.008706
  66 H :    0.000408
  67 H :   -0.018303
  68 H :    0.025519
  69 H :    0.024184
  70 H :    0.024777
  71 H :    0.025270
  72 H :    0.023905
  73 H :    0.024919
  74 H :   -0.017856
  75 H :    0.001961
  76 H :   -0.007862
  77 H :   -0.012626
  78 H :   -0.000717
  79 H :   -0.005381
  80 H :   -0.017288
  81 H :   -0.015104
  82 H :   -0.018821
  83 H :   -0.012422
  84 H :   -0.013966
  85 H :    0.018365
  86 H :    0.020890
Sum of atomic charges:   -0.0000000

LOEWDIN ATOMIC CHARGES
----------------------
   0 C :   -0.080167
   1 C :   -0.138813
   2 C :   -0.033841
   3 C :   -0.026707
   4 C :   -0.179038
   5 S :    0.348034
   6 C :   -0.178969
   7 C :   -0.040724
   8 C :   -0.032105
   9 C :   -0.148711
  10 S :    0.372322
  11 C :   -0.073522
  12 C :    0.037713
  13 O :   -0.002611
  14 C :    0.000199
  15 C :   -0.075908
  16 C :    0.046126
  17 O :   -0.001514
  18 C :    0.003955
  19 C :   -0.082762
  20 C :   -0.036293
  21 C :   -0.045202
  22 C :   -0.184390
  23 C :   -0.048372
  24 N :   -0.040447
  25 C :   -0.004568
  26 C :   -0.052861
  27 C :   -0.004521
  28 C :   -0.052830
  29 N :   -0.040422
  30 C :   -0.048600
  31 C :   -0.184484
  32 S :    0.480952
  33 C :   -0.045832
  34 C :   -0.035986
  35 C :    0.045240
  36 O :   -0.001461
  37 C :    0.000860
  38 C :   -0.073420
  39 C :    0.046033
  40 O :   -0.001357
  41 C :    0.001448
  42 C :   -0.075202
  43 C :   -0.048382
  44 C :   -0.037364
  45 C :   -0.063151
  46 C :   -0.146886
  47 C :   -0.031158
  48 C :   -0.042851
  49 C :   -0.179767
  50 S :    0.378566
  51 C :   -0.178059
  52 C :   -0.026560
  53 C :   -0.033512
  54 C :   -0.138984
  55 S :    0.348152
  56 C :   -0.079982
  57 H :    0.027898
  58 H :    0.025607
  59 H :    0.032579
  60 H :    0.031747
  61 H :    0.030306
  62 H :    0.032624
  63 H :    0.042515
  64 H :    0.034632
  65 H :    0.025993
  66 H :    0.034348
  67 H :    0.028628
  68 H :    0.037176
  69 H :    0.036690
  70 H :    0.037243
  71 H :    0.037134
  72 H :    0.036720
  73 H :    0.037148
  74 H :    0.028402
  75 H :    0.034482
  76 H :    0.035987
  77 H :    0.034746
  78 H :    0.020498
  79 H :    0.031790
  80 H :    0.033641
  81 H :    0.032305
  82 H :    0.029634
  83 H :    0.032080
  84 H :    0.032468
  85 H :    0.027870
  86 H :    0.025806

  Mayer bond orders larger than 0.100000
B(  0-C ,  1-C ) :   1.8624 B(  0-C , 57-H ) :   0.9505 B(  0-C , 58-H ) :   0.9421
B(  1-C ,  2-C ) :   1.0808 B(  1-C ,  5-S ) :   1.0083 B(  2-C ,  3-C ) :   1.6594
B(  2-C , 59-H ) :   0.9928 B(  3-C ,  4-C ) :   1.1545 B(  3-C , 60-H ) :   0.9913
B(  4-C ,  5-S ) :   1.0411 B(  4-C ,  6-C ) :   1.5570 B(  6-C ,  7-C ) :   1.1736
B(  6-C , 10-S ) :   1.0320 B(  7-C ,  8-C ) :   1.6018 B(  7-C , 61-H ) :   0.9910
B(  8-C ,  9-C ) :   1.1459 B(  8-C , 62-H ) :   0.9983 B(  9-C , 10-S ) :   1.0357
B(  9-C , 11-C ) :   1.5635 B( 11-C , 12-C ) :   1.1831 B( 11-C , 63-H ) :   0.9626
B( 12-C , 13-O ) :   1.0797 B( 12-C , 19-C ) :   1.3998 B( 13-O , 14-C ) :   1.1484
B( 14-C , 15-C ) :   1.2213 B( 14-C , 18-C ) :   1.3252 B( 15-C , 16-C ) :   1.3803
B( 15-C , 64-H ) :   1.0376 B( 16-C , 17-O ) :   1.1054 B( 16-C , 20-C ) :   1.1873
B( 17-O , 18-C ) :   1.1370 B( 18-C , 19-C ) :   1.2563 B( 19-C , 65-H ) :   1.0095
B( 20-C , 21-C ) :   1.6041 B( 20-C , 66-H ) :   0.9412 B( 21-C , 22-C ) :   1.1798
B( 21-C , 67-H ) :   0.9607 B( 22-C , 23-C ) :   1.3048 B( 22-C , 31-C ) :   0.1196
B( 22-C , 32-S ) :   1.1443 B( 23-C , 24-N ) :   1.3877 B( 23-C , 30-C ) :   1.2325
B( 24-N , 25-C ) :   1.7132 B( 25-C , 26-C ) :   1.0965 B( 25-C , 27-C ) :   1.1368
B( 26-C , 68-H ) :   0.9437 B( 26-C , 69-H ) :   0.9408 B( 26-C , 70-H ) :   0.9410
B( 27-C , 28-C ) :   1.0961 B( 27-C , 29-N ) :   1.7128 B( 28-C , 71-H ) :   0.9441
B( 28-C , 72-H ) :   0.9409 B( 28-C , 73-H ) :   0.9414 B( 29-N , 30-C ) :   1.3887
B( 30-C , 31-C ) :   1.3047 B( 31-C , 32-S ) :   1.1463 B( 31-C , 33-C ) :   1.1793
B( 33-C , 34-C ) :   1.6071 B( 33-C , 74-H ) :   0.9604 B( 34-C , 35-C ) :   1.1849
B( 34-C , 75-H ) :   0.9425 B( 35-C , 36-O ) :   1.1048 B( 35-C , 42-C ) :   1.3828
B( 36-O , 37-C ) :   1.1384 B( 37-C , 38-C ) :   1.2251 B( 37-C , 41-C ) :   1.3261
B( 38-C , 39-C ) :   1.3788 B( 38-C , 76-H ) :   1.0353 B( 39-C , 40-O ) :   1.1014
B( 39-C , 43-C ) :   1.2355 B( 40-O , 41-C ) :   1.1388 B( 41-C , 42-C ) :   1.2201
B( 42-C , 77-H ) :   1.0383 B( 43-C , 44-C ) :   1.5734 B( 43-C , 78-H ) :   0.9357
B( 44-C , 45-C ) :   1.2116 B( 44-C , 79-H ) :   0.9695 B( 45-C , 46-C ) :   1.5591
B( 45-C , 80-H ) :   0.9635 B( 46-C , 47-C ) :   1.1506 B( 46-C , 50-S ) :   1.0371
B( 47-C , 48-C ) :   1.5967 B( 47-C , 81-H ) :   0.9984 B( 48-C , 49-C ) :   1.1762
B( 48-C , 82-H ) :   0.9916 B( 49-C , 50-S ) :   1.0322 B( 49-C , 51-C ) :   1.5503
B( 51-C , 52-C ) :   1.1558 B( 51-C , 55-S ) :   1.0427 B( 52-C , 53-C ) :   1.6559
B( 52-C , 83-H ) :   0.9920 B( 53-C , 54-C ) :   1.0839 B( 53-C , 84-H ) :   0.9925
B( 54-C , 55-S ) :   1.0085 B( 54-C , 56-C ) :   1.8601 B( 56-C , 85-H ) :   0.9507
B( 56-C , 86-H ) :   0.9416

-----------------------------------------------------------------------------
         ABSORPTION SPECTRUM VIA TRANSITION ELECTRIC DIPOLE MOMENTS
-----------------------------------------------------------------------------
State   Energy  Wavelength   fosc         T2         TX        TY        TZ
        (cm-1)    (nm)                  (au**2)     (au)      (au)      (au)
-----------------------------------------------------------------------------
   0   11183.0    894.2   2.311298258  68.04156  -6.45039  -3.26389  -3.97254
   1   15886.7    629.5   1.458360747  30.22079   3.11577   0.59410  -4.48997
   2   17522.4    570.7   0.031595642   0.59362  -0.07139   0.21422   0.73664
   3   17915.2    558.2   0.231218987   4.24891  -0.27248  -0.82212  -1.87051
   4   21032.2    475.5   0.022485840   0.35197  -0.45792   0.23919  -0.29165
   5   22768.1    439.2   0.045310605   0.65516  -0.49617  -0.00887  -0.63945
   6   24306.4    411.4   0.309695976   4.19460  -1.16866  -0.13755   1.67628
   7   24928.4    401.1   0.021049270   0.27798  -0.33208  -0.11785  -0.39220
   8   25740.4    388.5   0.608522453   7.78282  -2.24134  -0.73103  -1.49158
   9   27155.3    368.3   0.070071139   0.84949   0.31895   0.09905  -0.85904
  10   28068.9    356.3   0.140745846   1.65077   1.24920   0.28076   0.10701
  11   28532.3    350.5   0.014261934   0.16456  -0.33241  -0.12782   0.19422
  12   28706.2    348.4   0.002739711   0.03142  -0.07119   0.15998  -0.02754
  13   29889.0    334.6   0.019653406   0.21647   0.14833   0.16282  -0.40983
  14   31043.6    322.1   0.030051197   0.31869  -0.29149  -0.14623  -0.46080
  15   32047.4    312.0   0.300373218   3.08563   0.60111   0.21450   1.63655
  16   32765.7    305.2   0.037681764   0.37861   0.59202   0.10081  -0.13402
  17   33034.6    302.7   0.026031012   0.25942   0.49508   0.10648  -0.05456
  18   33709.1    296.7   0.091723737   0.89580   0.87765   0.17340  -0.30898
  19   34125.0    293.0   0.009373150   0.09042  -0.25599  -0.07624  -0.13814
  20   34406.7    290.6   0.065252439   0.62435   0.47831   0.04763  -0.62714
  21   35024.3    285.5   0.119505392   1.12329  -0.61344  -0.00227   0.86428
  22   35255.6    283.6   0.012215272   0.11406   0.15218  -0.00005  -0.30150
  23   36465.2    274.2   0.058977468   0.53245   0.05350   0.13293   0.71549
  24   36654.3    272.8   0.051254480   0.46034  -0.11511   0.02200   0.66829
  25   37508.9    266.6   0.000526029   0.00462   0.02149  -0.04231  -0.04863
  26   38023.7    263.0   0.045539873   0.39429  -0.03892   0.05279   0.62449
  27   38451.1    260.1   0.074805765   0.64048  -0.61207  -0.18983   0.47938
  28   38742.0    258.1   0.029130111   0.24753  -0.47430  -0.14898   0.01933
  29   38991.3    256.5   0.009643498   0.08142   0.00399  -0.10549  -0.26510
  30   39406.3    253.8   0.069406955   0.57985   0.53284  -0.03119  -0.54310
  31   39713.7    251.8   0.183751998   1.52324   0.28062   0.04994  -1.20083
  32   40239.8    248.5   0.001144375   0.00936  -0.00894  -0.09624   0.00460

FINAL SINGLE POINT ENERGY     -4168.760956101610

DIPOLE MOMENT
-------------
                                X             Y             Z
Electronic contribution:      2.85077       4.59986      14.93064
Nuclear contribution   :     -2.50901      -4.64744     -15.45947
                        -----------------------------------------
Total Dipole Moment    :      0.34176      -0.04758      -0.52883
                        -----------------------------------------
Magnitude (a.u.)       :      0.63145
Magnitude (Debye)      :      1.60501

Rotational constants in cm-1:     0.001463     0.000226     0.000196
Rotational constants in MHz :    43.849014     6.772577     5.879302

                             ****ORCA TERMINATED NORMALLY****
TOTAL RUN TIME: 0 days 0 hours 6 minutes 8 seconds 167 msec
