                         Program Version 4.2.0 -  RELEASE  -
|  1> # ORCA input file
|  2> # SCF done       -186.569823230841          0.000932088564
|  3> ! CAM-B3LYP def2-SVP def2/J RIJCOSX Grid4 TightSCF
|  4> %maxcore 5000
|  5> %tddft
|  6>     Mode sTDDFT
|  7>     Ethresh 5.0
|  8>     maxcore 5000
|  9> end
| 10>
| 11> %pal
| 12>   nprocs 6
| 13>   end
| 14> * xyz 0 1
| 15>    C       -8.65730       -10.67769        -3.51281
| 16>    S       -7.68204       -10.07101        -2.25607
| 17>    C       -7.06089        -8.80019        -3.29477
| 18>    C       -7.65480        -8.86923        -4.55388
| 19>    C       -8.56293        -9.97193        -4.68287
| 20>    C       -9.32751       -10.35158        -5.85678
| 21>    C       -9.20363        -9.85694        -7.08228
| 22>    O       -7.51007        -8.04062        -5.60623
| 23>    C       -7.02715        -6.72433        -5.45878
| 24>    C       -6.04246        -7.94547        -2.80257
| 25>    C       -5.56199        -7.97453        -1.53184
| 26>    C       -4.49985        -7.16923        -1.05422
| 27>    N       -3.83428        -7.52900         0.04040
| 28>    C       -2.81501        -6.66498         0.15790
| 29>    C       -2.82026        -5.67853        -0.93587
| 30>    C       -1.72121        -4.71891        -0.77037
| 31>    O       -1.42149        -3.77771        -1.48094
| 32>    C       -1.07482        -5.17940         0.46804
| 33>    C       -1.76357        -6.36911         0.99837
| 34>    N       -1.19152        -6.77801         2.15443
| 35>    C       -0.21656        -5.92459         2.37508
| 36>    C       -0.09561        -4.89609         1.37087
| 37>    C       -3.92995        -5.95442        -1.68980
| 38>    C       -4.48675        -5.22661        -2.78726
| 39>    C       -3.73438        -4.52376        -3.65870
| 40>    C       -4.21117        -3.75447        -4.77778
| 41>    C       -3.29867        -3.32810        -5.71835
| 42>    C       -3.70188        -2.52898        -6.80676
| 43>    C       -2.99718        -1.93580        -7.84167
| 44>    C       -1.58281        -2.08480        -8.29111
| 45>    C       -0.55670        -2.37303        -7.18499
| 46>    N        0.71216        -1.76542        -7.55808
| 47>    C       -1.53298        -3.15496        -9.40645
| 48>    N       -2.22598        -4.36361        -8.99862
| 49>    C       -3.94945        -1.13540        -8.58395
| 50>    C       -3.77517        -0.28715        -9.61020
| 51>    C       -4.90321         0.52663       -10.15387
| 52>    C       -6.24465         0.16846        -9.59801
| 53>    C       -6.39810        -0.67470        -8.56153
| 54>    C       -5.27480        -1.31809        -7.98632
| 55>    C       -5.11379        -2.15772        -6.90613
| 56>    C       -6.03545        -2.63709        -5.94517
| 57>    C       -5.59699        -3.40805        -4.92042
| 58>    C       -4.53759         1.96971        -9.88463
| 59>    C       -5.38307         2.95312        -9.57818
| 60>    C       -4.91907         4.29335        -9.31712
| 61>    N       -5.53099         5.33731        -9.82809
| 62>    C       -4.75499         6.40950        -9.52495
| 63>    C       -3.57328         6.00107        -8.75898
| 64>    C       -2.73776         7.16599        -8.43199
| 65>    O       -1.69547         7.20283        -7.81634
| 66>    C       -3.49248         8.27908        -9.04793
| 67>    C       -4.71432         7.76886        -9.70346
| 68>    N       -5.42400         8.78807       -10.25203
| 69>    C       -4.73820         9.86888        -9.97572
| 70>    C       -3.52648         9.62503        -9.21811
| 71>    C       -3.68520         4.64706        -8.56696
| 72>    C       -2.86571         3.80458        -7.76401
| 73>    C       -3.28006         2.66273        -7.16251
| 74>    C       -2.46581         1.84495        -6.33944
| 75>    S       -0.73070         1.98565        -6.36980
| 76>    C       -0.53106         0.63883        -5.30166
| 77>    C       -1.76014         0.10450        -4.95635
| 78>    C       -2.86563         0.79799        -5.51489
| 79>    C       -4.22485         0.41704        -5.18979
| 80>    C       -5.27765         1.22443        -5.12470
| 81>    O       -1.88933        -1.02425        -4.19224
| 82>    C       -2.21136        -0.81531        -2.82669
| 83>    C        0.79906         0.24702        -4.91790
| 84>    C        1.11676        -0.81683        -4.18098
| 85>    H       -9.27204       -11.53800        -3.33264
| 86>    H      -10.05215       -11.13385        -5.66489
| 87>    H       -8.49008        -9.09136        -7.32292
| 88>    H       -9.82378       -10.21565        -7.88612
| 89>    H       -7.41689        -6.17051        -6.31369
| 90>    H       -5.93466        -6.68450        -5.49309
| 91>    H       -7.39271        -6.26712        -4.53669
| 92>    H       -5.57035        -7.28547        -3.51157
| 93>    H       -5.93993        -8.70332        -0.82717
| 94>    H        0.41041        -6.03125         3.24338
| 95>    H        0.62552        -4.10239         1.37132
| 96>    H       -5.56406        -5.25690        -2.88061
| 97>    H       -2.65973        -4.55027        -3.53741
| 98>    H       -2.26284        -3.59644        -5.59712
| 99>    H       -1.26464        -1.13665        -8.73978
|100>    H       -0.47484        -3.45830        -7.00840
|101>    H       -0.87962        -1.90199        -6.25766
|102>    H        1.12580        -2.25161        -8.34711
|103>    H        1.36672        -1.81144        -6.78558
|104>    H       -0.47704        -3.32372        -9.68261
|105>    H       -2.05180        -2.77283       -10.29073
|106>    H       -1.81802        -4.74127        -8.15028
|107>    H       -2.15609        -5.07110        -9.72100
|108>    H       -2.80041        -0.10494       -10.04273
|109>    H       -4.92310         0.40280       -11.24874
|110>    H       -7.09707         0.63601       -10.06557
|111>    H       -7.38172        -0.88658        -8.16783
|112>    H       -7.07733        -2.36311        -6.02836
|113>    H       -6.29431        -3.74412        -4.16834
|114>    H       -3.47859         2.18548        -9.94217
|115>    H       -6.45453         2.81738        -9.59094
|116>    H       -5.08500        10.83217       -10.30784
|117>    H       -2.83491        10.37567        -8.88973
|118>    H       -1.87232         4.18285        -7.55402
|119>    H       -4.30029         2.32589        -7.28483
|120>    H       -4.33487        -0.62701        -4.92846
|121>    H       -5.21041         2.28488        -5.29770
|122>    H       -6.24884         0.84476        -4.85723
|123>    H       -1.48948        -0.14187        -2.35433
|124>    H       -2.15550        -1.79596        -2.35696
|125>    H       -3.21748        -0.39873        -2.71432
|126>    H        1.57814         0.90256        -5.28572
|127>    H        0.37632        -1.50089        -3.80675
|128>    H        2.14311        -1.02768        -3.93285
|129> *
|130>
|131>                          ****END OF INPUT****

CARTESIAN COORDINATES (ANGSTROEM)
---------------------------------
  C     -8.657300  -10.677690   -3.512810
  S     -7.682040  -10.071010   -2.256070
  C     -7.060890   -8.800190   -3.294770
  C     -7.654800   -8.869230   -4.553880
  C     -8.562930   -9.971930   -4.682870
  C     -9.327510  -10.351580   -5.856780
  C     -9.203630   -9.856940   -7.082280
  O     -7.510070   -8.040620   -5.606230
  C     -7.027150   -6.724330   -5.458780
  C     -6.042460   -7.945470   -2.802570
  C     -5.561990   -7.974530   -1.531840
  C     -4.499850   -7.169230   -1.054220
  N     -3.834280   -7.529000    0.040400
  C     -2.815010   -6.664980    0.157900
  C     -2.820260   -5.678530   -0.935870
  C     -1.721210   -4.718910   -0.770370
  O     -1.421490   -3.777710   -1.480940
  C     -1.074820   -5.179400    0.468040
  C     -1.763570   -6.369110    0.998370
  N     -1.191520   -6.778010    2.154430
  C     -0.216560   -5.924590    2.375080
  C     -0.095610   -4.896090    1.370870
  C     -3.929950   -5.954420   -1.689800
  C     -4.486750   -5.226610   -2.787260
  C     -3.734380   -4.523760   -3.658700
  C     -4.211170   -3.754470   -4.777780
  C     -3.298670   -3.328100   -5.718350
  C     -3.701880   -2.528980   -6.806760
  C     -2.997180   -1.935800   -7.841670
  C     -1.582810   -2.084800   -8.291110
  C     -0.556700   -2.373030   -7.184990
  N      0.712160   -1.765420   -7.558080
  C     -1.532980   -3.154960   -9.406450
  N     -2.225980   -4.363610   -8.998620
  C     -3.949450   -1.135400   -8.583950
  C     -3.775170   -0.287150   -9.610200
  C     -4.903210    0.526630  -10.153870
  C     -6.244650    0.168460   -9.598010
  C     -6.398100   -0.674700   -8.561530
  C     -5.274800   -1.318090   -7.986320
  C     -5.113790   -2.157720   -6.906130
  C     -6.035450   -2.637090   -5.945170
  C     -5.596990   -3.408050   -4.920420
  C     -4.537590    1.969710   -9.884630
  C     -5.383070    2.953120   -9.578180
  C     -4.919070    4.293350   -9.317120
  N     -5.530990    5.337310   -9.828090
  C     -4.754990    6.409500   -9.524950
  C     -3.573280    6.001070   -8.758980
  C     -2.737760    7.165990   -8.431990
  O     -1.695470    7.202830   -7.816340
  C     -3.492480    8.279080   -9.047930
  C     -4.714320    7.768860   -9.703460
  N     -5.424000    8.788070  -10.252030
  C     -4.738200    9.868880   -9.975720
  C     -3.526480    9.625030   -9.218110
  C     -3.685200    4.647060   -8.566960
  C     -2.865710    3.804580   -7.764010
  C     -3.280060    2.662730   -7.162510
  C     -2.465810    1.844950   -6.339440
  S     -0.730700    1.985650   -6.369800
  C     -0.531060    0.638830   -5.301660
  C     -1.760140    0.104500   -4.956350
  C     -2.865630    0.797990   -5.514890
  C     -4.224850    0.417040   -5.189790
  C     -5.277650    1.224430   -5.124700
  O     -1.889330   -1.024250   -4.192240
  C     -2.211360   -0.815310   -2.826690
  C      0.799060    0.247020   -4.917900
  C      1.116760   -0.816830   -4.180980
  H     -9.272040  -11.538000   -3.332640
  H    -10.052150  -11.133850   -5.664890
  H     -8.490080   -9.091360   -7.322920
  H     -9.823780  -10.215650   -7.886120
  H     -7.416890   -6.170510   -6.313690
  H     -5.934660   -6.684500   -5.493090
  H     -7.392710   -6.267120   -4.536690
  H     -5.570350   -7.285470   -3.511570
  H     -5.939930   -8.703320   -0.827170
  H      0.410410   -6.031250    3.243380
  H      0.625520   -4.102390    1.371320
  H     -5.564060   -5.256900   -2.880610
  H     -2.659730   -4.550270   -3.537410
  H     -2.262840   -3.596440   -5.597120
  H     -1.264640   -1.136650   -8.739780
  H     -0.474840   -3.458300   -7.008400
  H     -0.879620   -1.901990   -6.257660
  H      1.125800   -2.251610   -8.347110
  H      1.366720   -1.811440   -6.785580
  H     -0.477040   -3.323720   -9.682610
  H     -2.051800   -2.772830  -10.290730
  H     -1.818020   -4.741270   -8.150280
  H     -2.156090   -5.071100   -9.721000
  H     -2.800410   -0.104940  -10.042730
  H     -4.923100    0.402800  -11.248740
  H     -7.097070    0.636010  -10.065570
  H     -7.381720   -0.886580   -8.167830
  H     -7.077330   -2.363110   -6.028360
  H     -6.294310   -3.744120   -4.168340
  H     -3.478590    2.185480   -9.942170
  H     -6.454530    2.817380   -9.590940
  H     -5.085000   10.832170  -10.307840
  H     -2.834910   10.375670   -8.889730
  H     -1.872320    4.182850   -7.554020
  H     -4.300290    2.325890   -7.284830
  H     -4.334870   -0.627010   -4.928460
  H     -5.210410    2.284880   -5.297700
  H     -6.248840    0.844760   -4.857230
  H     -1.489480   -0.141870   -2.354330
  H     -2.155500   -1.795960   -2.356960
  H     -3.217480   -0.398730   -2.714320
  H      1.578140    0.902560   -5.285720
  H      0.376320   -1.500890   -3.806750
  H      2.143110   -1.027680   -3.932850

 Total Charge           Charge          ....    0
 Multiplicity           Mult            ....    1
 Number of Electrons    NEL             ....  498
 Basis Dimension        Dim             .... 1208

ORBITAL ENERGIES
----------------

  NO   OCC          E(Eh)            E(eV)
   0   2.0000     -88.963967     -2420.8326
   1   2.0000     -88.948951     -2420.4240
   2   2.0000     -19.269642      -524.3536
   3   2.0000     -19.231486      -523.3153
   4   2.0000     -19.202265      -522.5202
   5   2.0000     -19.198251      -522.4110
   6   2.0000     -14.403117      -391.9287
   7   2.0000     -14.394854      -391.7039
   8   2.0000     -14.394230      -391.6869
   9   2.0000     -14.390324      -391.5806
  10   2.0000     -14.379292      -391.2804
  11   2.0000     -14.374811      -391.1585
  12   2.0000     -10.362352      -281.9739
  13   2.0000     -10.359291      -281.8907
  14   2.0000     -10.358718      -281.8750
  15   2.0000     -10.337963      -281.3103
  16   2.0000     -10.336894      -281.2812
  17   2.0000     -10.332913      -281.1729
  18   2.0000     -10.323006      -280.9033
  19   2.0000     -10.320196      -280.8268
  20   2.0000     -10.319976      -280.8208
  21   2.0000     -10.312834      -280.6265
  22   2.0000     -10.311308      -280.5850
  23   2.0000     -10.310256      -280.5563
  24   2.0000     -10.310163      -280.5538
  25   2.0000     -10.310098      -280.5520
  26   2.0000     -10.306951      -280.4664
  27   2.0000     -10.304769      -280.4070
  28   2.0000     -10.304295      -280.3941
  29   2.0000     -10.302735      -280.3517
  30   2.0000     -10.302648      -280.3493
  31   2.0000     -10.299852      -280.2732
  32   2.0000     -10.297605      -280.2121
  33   2.0000     -10.296677      -280.1868
  34   2.0000     -10.296609      -280.1850
  35   2.0000     -10.293534      -280.1013
  36   2.0000     -10.289486      -279.9911
  37   2.0000     -10.287096      -279.9261
  38   2.0000     -10.286335      -279.9054
  39   2.0000     -10.285040      -279.8702
  40   2.0000     -10.282809      -279.8095
  41   2.0000     -10.280175      -279.7378
  42   2.0000     -10.278947      -279.7044
  43   2.0000     -10.278436      -279.6905
  44   2.0000     -10.278356      -279.6883
  45   2.0000     -10.278018      -279.6791
  46   2.0000     -10.277722      -279.6710
  47   2.0000     -10.277682      -279.6700
  48   2.0000     -10.277148      -279.6554
  49   2.0000     -10.276678      -279.6426
  50   2.0000     -10.276369      -279.6342
  51   2.0000     -10.276303      -279.6324
  52   2.0000     -10.275400      -279.6079
  53   2.0000     -10.275239      -279.6035
  54   2.0000     -10.275178      -279.6018
  55   2.0000     -10.274208      -279.5754
  56   2.0000     -10.274134      -279.5734
  57   2.0000     -10.273652      -279.5603
  58   2.0000     -10.273297      -279.5506
  59   2.0000     -10.272915      -279.5402
  60   2.0000     -10.272300      -279.5235
  61   2.0000     -10.270187      -279.4660
  62   2.0000     -10.266059      -279.3537
  63   2.0000     -10.264575      -279.3133
  64   2.0000     -10.264477      -279.3106
  65   2.0000     -10.263590      -279.2865
  66   2.0000     -10.262024      -279.2439
  67   2.0000     -10.260884      -279.2129
  68   2.0000     -10.260752      -279.2093
  69   2.0000     -10.258694      -279.1533
  70   2.0000      -8.059922      -219.3216
  71   2.0000      -8.044564      -218.9037
  72   2.0000      -6.029264      -164.0646
  73   2.0000      -6.025136      -163.9523
  74   2.0000      -6.021799      -163.8615
  75   2.0000      -6.013648      -163.6397
  76   2.0000      -6.009879      -163.5371
  77   2.0000      -6.006691      -163.4504
  78   2.0000      -1.172816       -31.9140
  79   2.0000      -1.132187       -30.8084
  80   2.0000      -1.114953       -30.3394
  81   2.0000      -1.112416       -30.2704
  82   2.0000      -1.068915       -29.0867
  83   2.0000      -1.064410       -28.9641
  84   2.0000      -1.048605       -28.5340
  85   2.0000      -1.043818       -28.4037
  86   2.0000      -0.993738       -27.0410
  87   2.0000      -0.986387       -26.8409
  88   2.0000      -0.979018       -26.6404
  89   2.0000      -0.967613       -26.3301
  90   2.0000      -0.951095       -25.8806
  91   2.0000      -0.948750       -25.8168
  92   2.0000      -0.929531       -25.2938
  93   2.0000      -0.927810       -25.2470
  94   2.0000      -0.922826       -25.1114
  95   2.0000      -0.914216       -24.8771
  96   2.0000      -0.910206       -24.7680
  97   2.0000      -0.896359       -24.3912
  98   2.0000      -0.889915       -24.2158
  99   2.0000      -0.880259       -23.9531
 100   2.0000      -0.877814       -23.8865
 101   2.0000      -0.868296       -23.6275
 102   2.0000      -0.860525       -23.4161
 103   2.0000      -0.851966       -23.1832
 104   2.0000      -0.848195       -23.0806
 105   2.0000      -0.844126       -22.9698
 106   2.0000      -0.843432       -22.9509
 107   2.0000      -0.840489       -22.8709
 108   2.0000      -0.833057       -22.6686
 109   2.0000      -0.828472       -22.5439
 110   2.0000      -0.815134       -22.1809
 111   2.0000      -0.812539       -22.1103
 112   2.0000      -0.800366       -21.7791
 113   2.0000      -0.792726       -21.5712
 114   2.0000      -0.787414       -21.4266
 115   2.0000      -0.764141       -20.7933
 116   2.0000      -0.758879       -20.6501
 117   2.0000      -0.758405       -20.6372
 118   2.0000      -0.756288       -20.5796
 119   2.0000      -0.745813       -20.2946
 120   2.0000      -0.738543       -20.0968
 121   2.0000      -0.730754       -19.8848
 122   2.0000      -0.726151       -19.7596
 123   2.0000      -0.713667       -19.4199
 124   2.0000      -0.711086       -19.3496
 125   2.0000      -0.700813       -19.0701
 126   2.0000      -0.695336       -18.9210
 127   2.0000      -0.691284       -18.8108
 128   2.0000      -0.684466       -18.6253
 129   2.0000      -0.678871       -18.4730
 130   2.0000      -0.668698       -18.1962
 131   2.0000      -0.664775       -18.0894
 132   2.0000      -0.659894       -17.9566
 133   2.0000      -0.655087       -17.8258
 134   2.0000      -0.651942       -17.7402
 135   2.0000      -0.651354       -17.7242
 136   2.0000      -0.644456       -17.5365
 137   2.0000      -0.628724       -17.1085
 138   2.0000      -0.621735       -16.9183
 139   2.0000      -0.619180       -16.8487
 140   2.0000      -0.617478       -16.8024
 141   2.0000      -0.617020       -16.7900
 142   2.0000      -0.613596       -16.6968
 143   2.0000      -0.611425       -16.6377
 144   2.0000      -0.603562       -16.4237
 145   2.0000      -0.598972       -16.2989
 146   2.0000      -0.596185       -16.2230
 147   2.0000      -0.590921       -16.0798
 148   2.0000      -0.585207       -15.9243
 149   2.0000      -0.579900       -15.7799
 150   2.0000      -0.574840       -15.6422
 151   2.0000      -0.573646       -15.6097
 152   2.0000      -0.572045       -15.5661
 153   2.0000      -0.570691       -15.5293
 154   2.0000      -0.561372       -15.2757
 155   2.0000      -0.561167       -15.2701
 156   2.0000      -0.554638       -15.0925
 157   2.0000      -0.553202       -15.0534
 158   2.0000      -0.550924       -14.9914
 159   2.0000      -0.548839       -14.9347
 160   2.0000      -0.544221       -14.8090
 161   2.0000      -0.542563       -14.7639
 162   2.0000      -0.539354       -14.6766
 163   2.0000      -0.534980       -14.5575
 164   2.0000      -0.532481       -14.4896
 165   2.0000      -0.531608       -14.4658
 166   2.0000      -0.529154       -14.3990
 167   2.0000      -0.528394       -14.3783
 168   2.0000      -0.526965       -14.3394
 169   2.0000      -0.523300       -14.2397
 170   2.0000      -0.522737       -14.2244
 171   2.0000      -0.516987       -14.0679
 172   2.0000      -0.516716       -14.0605
 173   2.0000      -0.513297       -13.9675
 174   2.0000      -0.511485       -13.9182
 175   2.0000      -0.510124       -13.8812
 176   2.0000      -0.507869       -13.8198
 177   2.0000      -0.505657       -13.7596
 178   2.0000      -0.505182       -13.7467
 179   2.0000      -0.501661       -13.6509
 180   2.0000      -0.500595       -13.6219
 181   2.0000      -0.498948       -13.5771
 182   2.0000      -0.495510       -13.4835
 183   2.0000      -0.491264       -13.3680
 184   2.0000      -0.490615       -13.3503
 185   2.0000      -0.485297       -13.2056
 186   2.0000      -0.483479       -13.1561
 187   2.0000      -0.479641       -13.0517
 188   2.0000      -0.476759       -12.9733
 189   2.0000      -0.475964       -12.9516
 190   2.0000      -0.473764       -12.8918
 191   2.0000      -0.471487       -12.8298
 192   2.0000      -0.468291       -12.7428
 193   2.0000      -0.466819       -12.7028
 194   2.0000      -0.464185       -12.6311
 195   2.0000      -0.462078       -12.5738
 196   2.0000      -0.460953       -12.5432
 197   2.0000      -0.460543       -12.5320
 198   2.0000      -0.460075       -12.5193
 199   2.0000      -0.458405       -12.4738
 200   2.0000      -0.453973       -12.3532
 201   2.0000      -0.452505       -12.3133
 202   2.0000      -0.449563       -12.2332
 203   2.0000      -0.447034       -12.1644
 204   2.0000      -0.443680       -12.0731
 205   2.0000      -0.442512       -12.0414
 206   2.0000      -0.438274       -11.9260
 207   2.0000      -0.436330       -11.8732
 208   2.0000      -0.431353       -11.7377
 209   2.0000      -0.429113       -11.6768
 210   2.0000      -0.428503       -11.6601
 211   2.0000      -0.419664       -11.4196
 212   2.0000      -0.415482       -11.3058
 213   2.0000      -0.410783       -11.1780
 214   2.0000      -0.409082       -11.1317
 215   2.0000      -0.408239       -11.1087
 216   2.0000      -0.400861       -10.9080
 217   2.0000      -0.398345       -10.8395
 218   2.0000      -0.397871       -10.8266
 219   2.0000      -0.393526       -10.7084
 220   2.0000      -0.387215       -10.5366
 221   2.0000      -0.381827       -10.3900
 222   2.0000      -0.378833       -10.3086
 223   2.0000      -0.370326       -10.0771
 224   2.0000      -0.366369        -9.9694
 225   2.0000      -0.365867        -9.9557
 226   2.0000      -0.355904        -9.6846
 227   2.0000      -0.346031        -9.4160
 228   2.0000      -0.345699        -9.4069
 229   2.0000      -0.343081        -9.3357
 230   2.0000      -0.342569        -9.3218
 231   2.0000      -0.339655        -9.2425
 232   2.0000      -0.334573        -9.1042
 233   2.0000      -0.327906        -8.9228
 234   2.0000      -0.324722        -8.8361
 235   2.0000      -0.323508        -8.8031
 236   2.0000      -0.319318        -8.6891
 237   2.0000      -0.317779        -8.6472
 238   2.0000      -0.317501        -8.6396
 239   2.0000      -0.313874        -8.5410
 240   2.0000      -0.305086        -8.3018
 241   2.0000      -0.301738        -8.2107
 242   2.0000      -0.296242        -8.0612
 243   2.0000      -0.290765        -7.9121
 244   2.0000      -0.289402        -7.8750
 245   2.0000      -0.277609        -7.5541
 246   2.0000      -0.264364        -7.1937
 247   2.0000      -0.244653        -6.6573
 248   2.0000      -0.221836        -6.0365
 249   0.0000      -0.103184        -2.8078
 250   0.0000      -0.098690        -2.6855
 251   0.0000      -0.071343        -1.9413
 252   0.0000      -0.048318        -1.3148
 253   0.0000      -0.039100        -1.0640

MULLIKEN ATOMIC CHARGES
-----------------------
   0 C :   -0.097048
   1 S :    0.132544
   2 C :   -0.205127
   3 C :    0.228038
   4 C :    0.066218
   5 C :   -0.021983
   6 C :   -0.006339
   7 O :   -0.300185
   8 C :    0.164494
   9 C :    0.026528
  10 C :   -0.031526
  11 C :    0.046083
  12 N :   -0.038207
  13 C :    0.057204
  14 C :   -0.158785
  15 C :    0.208023
  16 O :   -0.155727
  17 C :   -0.035411
  18 C :   -0.031995
  19 N :   -0.056312
  20 C :    0.078413
  21 C :   -0.095539
  22 C :    0.034412
  23 C :   -0.061529
  24 C :    0.013984
  25 C :    0.095282
  26 C :   -0.066167
  27 C :    0.033552
  28 C :    0.053000
  29 C :   -0.070507
  30 C :    0.109956
  31 N :   -0.201062
  32 C :    0.156814
  33 N :   -0.216676
  34 C :    0.088073
  35 C :   -0.166468
  36 C :    0.167612
  37 C :   -0.061636
  38 C :    0.021321
  39 C :    0.038389
  40 C :    0.010506
  41 C :   -0.016764
  42 C :   -0.015451
  43 C :   -0.062525
  44 C :    0.013960
  45 C :    0.013681
  46 N :   -0.036573
  47 C :    0.060599
  48 C :   -0.127483
  49 C :    0.199837
  50 O :   -0.132134
  51 C :   -0.043990
  52 C :   -0.019135
  53 N :   -0.054892
  54 C :    0.083774
  55 C :   -0.095527
  56 C :    0.023069
  57 C :   -0.076406
  58 C :    0.015800
  59 C :   -0.142050
  60 S :    0.134064
  61 C :   -0.106003
  62 C :    0.113941
  63 C :    0.118054
  64 C :   -0.036066
  65 C :   -0.023212
  66 O :   -0.361021
  67 C :    0.187861
  68 C :    0.022739
  69 C :   -0.035019
  70 H :    0.030922
  71 H :   -0.017034
  72 H :    0.028747
  73 H :    0.018435
  74 H :    0.044198
  75 H :    0.058886
  76 H :    0.029841
  77 H :   -0.005788
  78 H :    0.010820
  79 H :    0.000648
  80 H :   -0.013067
  81 H :   -0.012953
  82 H :    0.002806
  83 H :   -0.041883
  84 H :   -0.010471
  85 H :   -0.019094
  86 H :    0.024876
  87 H :    0.081325
  88 H :    0.090970
  89 H :   -0.024433
  90 H :   -0.014659
  91 H :    0.080981
  92 H :    0.092938
  93 H :    0.003314
  94 H :    0.048801
  95 H :   -0.000790
  96 H :   -0.039368
  97 H :   -0.040453
  98 H :   -0.033084
  99 H :    0.028086
 100 H :    0.016540
 101 H :    0.003464
 102 H :   -0.009363
 103 H :    0.011138
 104 H :    0.020880
 105 H :    0.027425
 106 H :    0.025341
 107 H :    0.017212
 108 H :    0.013081
 109 H :    0.049001
 110 H :    0.014431
 111 H :   -0.013144
 112 H :    0.046471
 113 H :    0.018662
Sum of atomic charges:   -0.0000000

LOEWDIN ATOMIC CHARGES
----------------------
   0 C :   -0.154448
   1 S :    0.450140
   2 C :   -0.230335
   3 C :    0.056351
   4 C :   -0.079542
   5 C :   -0.028060
   6 C :   -0.039613
   7 O :   -0.076568
   8 C :    0.081844
   9 C :    0.011478
  10 C :   -0.060144
  11 C :    0.071243
  12 N :   -0.110637
  13 C :    0.050653
  14 C :   -0.057740
  15 C :    0.072633
  16 O :   -0.160886
  17 C :   -0.048327
  18 C :    0.005028
  19 N :   -0.098205
  20 C :    0.057207
  21 C :   -0.045229
  22 C :   -0.021065
  23 C :   -0.063322
  24 C :    0.024204
  25 C :   -0.048986
  26 C :    0.018823
  27 C :   -0.025642
  28 C :    0.001398
  29 C :   -0.042010
  30 C :    0.023858
  31 N :   -0.112768
  32 C :    0.027950
  33 N :   -0.115474
  34 C :   -0.008527
  35 C :    0.062059
  36 C :   -0.029750
  37 C :   -0.037839
  38 C :   -0.011032
  39 C :   -0.039848
  40 C :   -0.025152
  41 C :   -0.016370
  42 C :   -0.032127
  43 C :    0.039790
  44 C :   -0.041335
  45 C :    0.074124
  46 N :   -0.097228
  47 C :    0.050130
  48 C :   -0.060315
  49 C :    0.065194
  50 O :   -0.143625
  51 C :   -0.042249
  52 C :    0.012923
  53 N :   -0.097939
  54 C :    0.065207
  55 C :   -0.039114
  56 C :   -0.026442
  57 C :   -0.043791
  58 C :   -0.014449
  59 C :   -0.171518
  60 S :    0.452036
  61 C :   -0.186377
  62 C :    0.007809
  63 C :   -0.056072
  64 C :   -0.012953
  65 C :   -0.040885
  66 O :   -0.120784
  67 C :    0.077825
  68 C :   -0.035321
  69 C :   -0.047739
  70 H :    0.028711
  71 H :    0.029629
  72 H :    0.021596
  73 H :    0.023764
  74 H :    0.033562
  75 H :    0.023781
  76 H :    0.017991
  77 H :    0.036880
  78 H :    0.033280
  79 H :    0.019875
  80 H :    0.030461
  81 H :    0.021598
  82 H :    0.035386
  83 H :    0.026219
  84 H :    0.029250
  85 H :   -0.006528
  86 H :    0.025697
  87 H :    0.046235
  88 H :    0.050566
  89 H :   -0.005579
  90 H :    0.014123
  91 H :    0.045154
  92 H :    0.055553
  93 H :    0.030139
  94 H :    0.062423
  95 H :    0.024545
  96 H :    0.028991
  97 H :    0.025812
  98 H :    0.021476
  99 H :    0.031716
 100 H :    0.041082
 101 H :    0.020969
 102 H :    0.032472
 103 H :    0.033312
 104 H :    0.035567
 105 H :    0.038097
 106 H :    0.022106
 107 H :    0.023695
 108 H :    0.013650
 109 H :    0.024677
 110 H :    0.010441
 111 H :    0.028655
 112 H :    0.027644
 113 H :    0.023205

  Mayer bond orders larger than 0.100000
B(  0-C ,  1-S ) :   1.1716 B(  0-C ,  4-C ) :   1.5296 B(  0-C , 70-H ) :   0.9709
B(  1-S ,  2-C ) :   1.0846 B(  2-C ,  3-C ) :   1.3956 B(  2-C ,  9-C ) :   1.1825
B(  3-C ,  4-C ) :   1.2078 B(  3-C ,  7-O ) :   1.2095 B(  4-C ,  5-C ) :   1.0806
B(  5-C ,  6-C ) :   1.9557 B(  5-C , 71-H ) :   0.9636 B(  6-C , 72-H ) :   0.9442
B(  6-C , 73-H ) :   0.9448 B(  7-O ,  8-C ) :   0.9301 B(  8-C , 74-H ) :   0.9719
B(  8-C , 75-H ) :   0.9658 B(  8-C , 76-H ) :   0.9659 B(  9-C , 10-C ) :   1.5730
B(  9-C , 77-H ) :   0.9668 B( 10-C , 11-C ) :   1.1746 B( 10-C , 78-H ) :   0.9589
B( 11-C , 12-N ) :   1.5462 B( 11-C , 13-C ) :   0.1080 B( 11-C , 22-C ) :   1.0085
B( 12-N , 13-C ) :   1.3765 B( 13-C , 14-C ) :   1.0431 B( 13-C , 18-C ) :   1.3944
B( 14-C , 15-C ) :   0.9058 B( 14-C , 22-C ) :   1.5956 B( 15-C , 16-O ) :   2.1596
B( 15-C , 17-C ) :   0.9297 B( 17-C , 18-C ) :   1.0742 B( 17-C , 21-C ) :   1.5729
B( 18-C , 19-N ) :   1.3318 B( 19-N , 20-C ) :   1.6369 B( 20-C , 21-C ) :   1.0997
B( 20-C , 79-H ) :   0.9899 B( 21-C , 80-H ) :   1.0106 B( 22-C , 23-C ) :   1.0749
B( 23-C , 24-C ) :   1.6753 B( 23-C , 81-H ) :   0.9428 B( 24-C , 25-C ) :   1.0833
B( 24-C , 82-H ) :   0.9845 B( 25-C , 26-C ) :   1.4932 B( 25-C , 42-C ) :   1.1102
B( 26-C , 27-C ) :   1.1127 B( 26-C , 83-H ) :   1.0004 B( 27-C , 28-C ) :   1.4864
B( 27-C , 40-C ) :   1.1260 B( 28-C , 29-C ) :   1.0281 B( 28-C , 34-C ) :   1.0983
B( 29-C , 30-C ) :   1.0420 B( 29-C , 32-C ) :   1.0456 B( 29-C , 84-H ) :   0.8683
B( 30-C , 31-N ) :   1.1189 B( 30-C , 85-H ) :   0.9181 B( 30-C , 86-H ) :   0.9413
B( 31-N , 87-H ) :   0.9654 B( 31-N , 88-H ) :   0.9539 B( 32-C , 33-N ) :   1.0973
B( 32-C , 89-H ) :   0.9347 B( 32-C , 90-H ) :   0.9316 B( 33-N , 91-H ) :   0.9684
B( 33-N , 92-H ) :   0.9676 B( 34-C , 35-C ) :   1.6964 B( 34-C , 39-C ) :   1.0513
B( 35-C , 36-C ) :   0.9639 B( 35-C , 93-H ) :   0.9617 B( 36-C , 37-C ) :   1.0239
B( 36-C , 43-C ) :   0.9472 B( 36-C , 94-H ) :   0.8481 B( 37-C , 38-C ) :   1.7379
B( 37-C , 95-H ) :   0.9586 B( 38-C , 39-C ) :   1.1203 B( 38-C , 96-H ) :   0.9916
B( 39-C , 40-C ) :   1.4470 B( 40-C , 41-C ) :   1.1279 B( 41-C , 42-C ) :   1.6094
B( 41-C , 97-H ) :   0.9929 B( 42-C , 98-H ) :   0.9801 B( 43-C , 44-C ) :   1.8671
B( 43-C , 99-H ) :   0.9618 B( 44-C , 45-C ) :   1.0529 B( 44-C ,100-H ) :   0.9447
B( 45-C , 46-N ) :   1.6543 B( 45-C , 47-C ) :   0.1050 B( 45-C , 56-C ) :   1.0025
B( 46-N , 47-C ) :   1.2948 B( 47-C , 48-C ) :   1.0583 B( 47-C , 52-C ) :   1.4462
B( 48-C , 49-C ) :   0.8983 B( 48-C , 56-C ) :   1.5529 B( 49-C , 50-O ) :   2.2889
B( 49-C , 51-C ) :   0.8957 B( 51-C , 52-C ) :   1.0576 B( 51-C , 55-C ) :   1.6177
B( 52-C , 53-N ) :   1.3023 B( 53-N , 54-C ) :   1.6675 B( 54-C , 55-C ) :   1.0728
B( 54-C ,101-H ) :   0.9891 B( 55-C ,102-H ) :   1.0091 B( 56-C , 57-C ) :   1.1345
B( 57-C , 58-C ) :   1.6187 B( 57-C ,103-H ) :   0.9679 B( 58-C , 59-C ) :   1.1800
B( 58-C ,104-H ) :   0.9532 B( 59-C , 60-S ) :   1.1142 B( 59-C , 63-C ) :   1.4336
B( 60-S , 61-C ) :   1.1143 B( 61-C , 62-C ) :   1.5123 B( 61-C , 68-C ) :   1.1035
B( 62-C , 63-C ) :   1.2248 B( 62-C , 66-O ) :   1.0942 B( 63-C , 64-C ) :   1.0822
B( 64-C , 65-C ) :   1.9302 B( 64-C ,105-H ) :   0.9407 B( 65-C ,106-H ) :   0.9553
B( 65-C ,107-H ) :   0.9458 B( 66-O , 67-C ) :   0.9140 B( 67-C ,108-H ) :   0.9652
B( 67-C ,109-H ) :   0.9651 B( 67-C ,110-H ) :   0.9667 B( 68-C , 69-C ) :   1.9173
B( 68-C ,111-H ) :   0.9479 B( 69-C ,112-H ) :   0.9481 B( 69-C ,113-H ) :   0.9451

-----------------------------------------------------------------------------
         ABSORPTION SPECTRUM VIA TRANSITION ELECTRIC DIPOLE MOMENTS
-----------------------------------------------------------------------------
State   Energy  Wavelength   fosc         T2         TX        TY        TZ
        (cm-1)    (nm)                  (au**2)     (au)      (au)      (au)
-----------------------------------------------------------------------------
   0   12373.4    808.2   0.065847412   1.75197   0.10617   0.57057  -1.18960
   1   13439.5    744.1   0.071028163   1.73989  -0.52532   1.01759  -0.65455
   2   14873.5    672.3   0.039375709   0.87155   0.76663   0.52390  -0.09673
   3   15572.0    642.2   0.213244285   4.50826  -0.61995   1.81844  -0.90399
   4   19721.8    507.1   0.015506973   0.25885   0.32585  -0.33569   0.19997
   5   20051.9    498.7   0.617703784  10.14148   2.27184   1.54581   1.60957
   6   20397.3    490.3   0.377879195   6.09897   1.76825   0.70628   1.57271
   7   22170.7    451.0   0.023873291   0.35449   0.20705  -0.50893   0.22937
   8   22501.7    444.4   0.016495042   0.24133  -0.00744  -0.48757  -0.05959
   9   22676.4    441.0   0.001740857   0.02527  -0.07279  -0.12538   0.06523
  10   22793.2    438.7   0.004931205   0.07122  -0.12813  -0.15436  -0.17601
  11   24175.9    413.6   0.452898859   6.16729   0.99337  -0.96050   2.06348
  12   25085.7    398.6   0.503655828   6.60973   0.95624  -1.92326   1.41294
  13   25707.1    389.0   0.221187021   2.83258   0.40331   1.44792  -0.75727
  14   25832.3    387.1   0.226576169   2.88753   0.08222  -1.38884   0.97565
  15   26021.3    384.3   0.019516545   0.24692   0.13433  -0.15961   0.45099
  16   26162.6    382.2   0.004468167   0.05622   0.01857  -0.13189  -0.19618
  17   26345.9    379.6   0.185435233   2.31715   0.10458   0.84645  -1.26085
  18   26805.8    373.1   0.083964394   1.03120   0.28560  -0.86383   0.45103
  19   27079.4    369.3   0.005826957   0.07084  -0.14623   0.10771  -0.19457
  20   27441.2    364.4   0.031185496   0.37413   0.16805  -0.18704   0.55759
  21   27789.4    359.8   0.016327739   0.19343  -0.10954   0.16862   0.39115
  22   27865.3    358.9   0.016443847   0.19427  -0.25804  -0.31048   0.17690
  23   28125.0    355.6   0.020484764   0.23978   0.09186   0.15776  -0.45437
  24   28377.5    352.4   0.013438210   0.15590   0.21701  -0.32923   0.02027
  25   28623.1    349.4   0.357081974   4.10703   0.22304  -1.96903   0.42449
  26   29328.7    341.0   0.210842341   2.36668   0.77592   0.79361   1.06527
  27   29548.8    338.4   0.332776565   3.70757  -0.08392   1.82300  -0.61416
  28   30274.7    330.3   0.008244456   0.08965   0.13599   0.26528  -0.02803
  29   30359.8    329.4   0.055379822   0.60052  -0.44770  -0.31083  -0.55088
  30   30456.9    328.3   0.023700348   0.25618  -0.19128  -0.33285   0.32985
  31   30614.2    326.6   0.046496362   0.50000  -0.15233  -0.45360   0.52062
  32   30897.4    323.7   0.003072392   0.03274  -0.02041   0.15995  -0.08208
  33   31042.8    322.1   0.001400376   0.01485  -0.02428  -0.11600   0.02840
  34   31295.2    319.5   0.000636573   0.00670   0.07205  -0.01963   0.03345
  35   31578.2    316.7   0.022828012   0.23799  -0.02484   0.35045  -0.33846
  36   31919.0    313.3   0.000768090   0.00792  -0.06002  -0.06341  -0.01730
  37   32090.7    311.6   0.027831736   0.28552   0.13355   0.40956  -0.31614
  38   32230.4    310.3   0.008291167   0.08469  -0.26674  -0.08553  -0.07890
  39   32892.7    304.0   0.029084821   0.29110  -0.04149   0.33389  -0.42178
  40   33121.3    301.9   0.041296672   0.41047  -0.46461   0.15965  -0.41124
  41   33462.6    298.8   0.009807287   0.09649   0.18061  -0.00628   0.25264
  42   33699.5    296.7   0.033761710   0.32982   0.34991  -0.32818   0.31572
  43   33817.1    295.7   0.037882318   0.36879  -0.05527  -0.48833   0.35674
  44   34078.1    293.4   0.264010263   2.55048  -0.90134   0.45213  -1.23840
  45   34237.5    292.1   0.066511002   0.63954   0.36770  -0.32217   0.63288
  46   34513.7    289.7   0.233142158   2.22385   0.63277  -0.41512   1.28496
  47   35009.1    285.6   0.005009659   0.04711  -0.02242   0.12035  -0.17923
  48   35124.8    284.7   0.061130135   0.57295  -0.26251  -0.13037   0.69788
  49   35317.2    283.1   0.071315548   0.66477   0.48758  -0.13742   0.63887
  50   35430.8    282.2   0.106271330   0.98744  -0.47528  -0.84552  -0.21595
  51   35564.0    281.2   0.093306746   0.86373   0.61619  -0.02258   0.69536
  52   35878.0    278.7   0.282069025   2.58823   0.81753   1.37352  -0.18253
  53   36353.5    275.1   0.043107021   0.39037   0.11800   0.61348  -0.00957
  54   36443.1    274.4   0.013907168   0.12563  -0.07538   0.14951  -0.31240
  55   36587.2    273.3   0.017479943   0.15728  -0.19489  -0.23238   0.25555
  56   36896.5    271.0   0.024958765   0.22270  -0.01290  -0.47158  -0.01202
  57   37188.0    268.9   0.034094583   0.30183   0.43362   0.30123   0.15187
  58   37307.2    268.0   0.032417357   0.28606   0.23041   0.40096   0.26871
  59   37458.6    267.0   0.078867089   0.69314   0.31031   0.76831   0.08090
  60   37978.0    263.3   0.000735182   0.00637   0.06580   0.04157  -0.01776
  61   38136.8    262.2   0.057011037   0.49214  -0.18171   0.64373  -0.21150
  62   38454.9    260.0   0.023335380   0.19977  -0.25590  -0.23602   0.28033
  63   38641.0    258.8   0.013341182   0.11366  -0.10039  -0.18932   0.26027
  64   38854.3    257.4   0.044107589   0.37372   0.07580   0.59136  -0.13518
  65   38975.1    256.6   0.003515184   0.02969  -0.02442  -0.02628  -0.16854
  66   39179.3    255.2   0.007552331   0.06346   0.25166  -0.01095  -0.00289
  67   39478.0    253.3   0.008220393   0.06855   0.08609   0.24509  -0.03269
  68   39556.8    252.8   0.000418505   0.00348  -0.03230  -0.01222  -0.04786
  69   39754.9    251.5   0.021050277   0.17432  -0.03549   0.29923  -0.28900
  70   39857.8    250.9   0.006130483   0.05064  -0.05068   0.03667   0.21616
  71   40018.7    249.9   0.025330317   0.20838  -0.08264   0.12931   0.42991
  72   40083.8    249.5   0.179151634   1.47139   0.18059  -0.72693   0.95412
  73   40253.7    248.4   0.075890470   0.62067  -0.32085   0.18408  -0.69558
  74   40326.3    248.0   0.004970685   0.04058  -0.03315  -0.19749   0.02188

FINAL SINGLE POINT ENERGY     -3658.209701629257

DIPOLE MOMENT
-------------
                                X             Y             Z
Electronic contribution:     -4.96152      21.01094      19.86199
Nuclear contribution   :      4.43353     -22.86865     -21.40234
                        -----------------------------------------
Total Dipole Moment    :     -0.52798      -1.85771      -1.54035
                        -----------------------------------------
Magnitude (a.u.)       :      2.47033
Magnitude (Debye)      :      6.27907

Rotational constants in cm-1:     0.001581     0.000465     0.000399
Rotational constants in MHz :    47.389905    13.949074    11.973259

                             ****ORCA TERMINATED NORMALLY****
TOTAL RUN TIME: 0 days 0 hours 12 minutes 23 seconds 44 msec
