                         Program Version 4.2.0 -  RELEASE  -
|  1> # ORCA input file
|  2> # SCF done       -200.159564096208          0.000345129644
|  3> ! CAM-B3LYP def2-SVP def2/J RIJCOSX Grid4 TightSCF
|  4> %maxcore 5000
|  5> %tddft
|  6>     Mode sTDDFT
|  7>     Ethresh 5.0
|  8>     maxcore 5000
|  9> end
| 10>
| 11> %pal
| 12>   nprocs 6
| 13>   end
| 14> * xyz 0 1
| 15>    C       16.62098        -1.95908        -7.34038
| 16>    C       16.59979        -1.90638        -8.70667
| 17>    F       17.45521        -2.66585        -9.41103
| 18>    C       15.71174        -1.08324        -9.41360
| 19>    C       14.83223        -0.30425        -8.71489
| 20>    C       14.80948        -0.32044        -7.30488
| 21>    C       15.72355        -1.16159        -6.60405
| 22>    C       15.72839        -1.18579        -5.19014
| 23>    C       14.84512        -0.39723        -4.50262
| 24>    C       13.91963         0.42702        -5.20890
| 25>    C       13.89951         0.47438        -6.57365
| 26>    C       13.05967         1.14121        -4.24729
| 27>    O       12.19865         1.95628        -4.47211
| 28>    C       13.43602         0.58581        -2.91166
| 29>    C       14.65311        -0.18725        -3.07198
| 30>    C       15.56362        -0.46264        -2.08673
| 31>    C       15.46383         0.03217        -0.76851
| 32>    N       15.46567         0.47731         0.28948
| 33>    C       16.76120        -1.17498        -2.30941
| 34>    N       17.73593        -1.76368        -2.44815
| 35>    C       12.62521         0.74357        -1.83748
| 36>    C       12.67455        -0.01247        -0.63290
| 37>    C       13.03893        -1.43376        -0.50982
| 38>    N       13.00439        -1.88887         0.70597
| 39>    C       12.64951        -0.82978         1.48581
| 40>    C       12.36900         0.35175         0.65534
| 41>    C       12.05134         1.48711         1.48935
| 42>    S       11.75179         3.01670         0.96783
| 43>    C       12.14876         0.97516         2.83065
| 44>    C       12.52134        -0.44965         2.79545
| 45>    N       12.68246        -0.93558         4.05826
| 46>    C       12.49909         0.07454         4.85178
| 47>    C       12.18060         1.33720         4.16543
| 48>    C       11.91621         2.59698         4.75998
| 49>    S       11.00711         3.77336         3.87071
| 50>    C       11.11792         4.91669         5.16586
| 51>    C       11.84401         4.39411         6.23977
| 52>    C       12.27822         3.08649         6.01878
| 53>    C       13.06790         2.31367         7.02976
| 54>    C       13.63988         3.23696         8.11527
| 55>    C       14.17100         2.43191         9.19396
| 56>    N       14.55935         1.77122        10.04028
| 57>    C       12.52501         4.16720         8.63497
| 58>    C       12.98953         4.92847         9.77428
| 59>    N       13.37223         5.55446        10.64894
| 60>    C       12.10837         5.13182         7.51572
| 61>    C       10.49697         6.18377         5.02723
| 62>    C       10.84390         7.42872         5.73019
| 63>    N       10.09954         8.44495         5.41805
| 64>    C        9.19790         7.97904         4.50947
| 65>    C        9.46547         6.56620         4.18891
| 66>    C        8.45757         6.06729         3.29140
| 67>    S        8.24965         4.55365         2.68685
| 68>    C        7.57557         7.19450         3.09427
| 69>    C        8.06012         8.36115         3.85012
| 70>    N        7.18822         9.40094         3.73636
| 71>    C        6.18259         8.94226         3.05453
| 72>    C        6.33092         7.54097         2.62970
| 73>    C        5.37307         6.79210         1.88840
| 74>    C        4.02776         6.89679         2.01190
| 75>    C        3.11069         6.39112         0.94551
| 76>    O        3.40002         5.65113         0.03728
| 77>    C        1.81788         7.04654         1.21775
| 78>    C        0.67094         7.01733         0.47669
| 79>    C       -0.45767         7.73968         0.92310
| 80>    C       -0.37409         8.48998         2.13317
| 81>    C       -1.50204         9.21128         2.57025
| 82>    C       -2.65057         9.17420         1.82902
| 83>    C       -2.75294         8.44195         0.63761
| 84>    C       -1.66723         7.73726         0.19789
| 85>    F       -3.72839         9.85966         2.24489
| 86>    C        0.82463         8.50048         2.88305
| 87>    C        1.90232         7.78371         2.43605
| 88>    C        3.22600         7.57631         3.01220
| 89>    C        3.57554         7.77747         4.32127
| 90>    C        4.75954         7.27889         4.90512
| 91>    N        5.66705         6.82610         5.44288
| 92>    C        2.73615         8.40698         5.26511
| 93>    N        2.09174         8.92755         6.05861
| 94>    H       17.32104        -2.60156        -6.82960
| 95>    H       15.74198        -1.08304       -10.49159
| 96>    H       14.13888         0.33752        -9.23712
| 97>    H       16.42541        -1.83536        -4.68447
| 98>    H       13.19698         1.11199        -7.08900
| 99>    H       11.83697         1.48416        -1.92569
|100>    H       13.25502        -2.08957        -1.33584
|101>    H       12.53305        -0.07309         5.91533
|102>    H       13.88405         1.77587         6.54141
|103>    H       12.41789         1.57267         7.50926
|104>    H       14.45499         3.84591         7.70509
|105>    H       11.66732         3.56076         8.95139
|106>    H       12.91658         5.85545         7.35888
|107>    H       11.21864         5.68658         7.82291
|108>    H       11.66887         7.56030         6.40589
|109>    H        5.35947         9.58299         2.78775
|110>    H        5.74604         6.11596         1.12632
|111>    H        0.62519         6.44730        -0.43913
|112>    H       -1.46011         9.78286         3.48422
|113>    H       -3.68497         8.45081         0.09519
|114>    H       -1.72240         7.16603        -0.71644
|115>    H        0.86407         9.08287         3.79004
|116> *
|117>
|118>                          ****END OF INPUT****

CARTESIAN COORDINATES (ANGSTROEM)
---------------------------------
  C     16.620980   -1.959080   -7.340380
  C     16.599790   -1.906380   -8.706670
  F     17.455210   -2.665850   -9.411030
  C     15.711740   -1.083240   -9.413600
  C     14.832230   -0.304250   -8.714890
  C     14.809480   -0.320440   -7.304880
  C     15.723550   -1.161590   -6.604050
  C     15.728390   -1.185790   -5.190140
  C     14.845120   -0.397230   -4.502620
  C     13.919630    0.427020   -5.208900
  C     13.899510    0.474380   -6.573650
  C     13.059670    1.141210   -4.247290
  O     12.198650    1.956280   -4.472110
  C     13.436020    0.585810   -2.911660
  C     14.653110   -0.187250   -3.071980
  C     15.563620   -0.462640   -2.086730
  C     15.463830    0.032170   -0.768510
  N     15.465670    0.477310    0.289480
  C     16.761200   -1.174980   -2.309410
  N     17.735930   -1.763680   -2.448150
  C     12.625210    0.743570   -1.837480
  C     12.674550   -0.012470   -0.632900
  C     13.038930   -1.433760   -0.509820
  N     13.004390   -1.888870    0.705970
  C     12.649510   -0.829780    1.485810
  C     12.369000    0.351750    0.655340
  C     12.051340    1.487110    1.489350
  S     11.751790    3.016700    0.967830
  C     12.148760    0.975160    2.830650
  C     12.521340   -0.449650    2.795450
  N     12.682460   -0.935580    4.058260
  C     12.499090    0.074540    4.851780
  C     12.180600    1.337200    4.165430
  C     11.916210    2.596980    4.759980
  S     11.007110    3.773360    3.870710
  C     11.117920    4.916690    5.165860
  C     11.844010    4.394110    6.239770
  C     12.278220    3.086490    6.018780
  C     13.067900    2.313670    7.029760
  C     13.639880    3.236960    8.115270
  C     14.171000    2.431910    9.193960
  N     14.559350    1.771220   10.040280
  C     12.525010    4.167200    8.634970
  C     12.989530    4.928470    9.774280
  N     13.372230    5.554460   10.648940
  C     12.108370    5.131820    7.515720
  C     10.496970    6.183770    5.027230
  C     10.843900    7.428720    5.730190
  N     10.099540    8.444950    5.418050
  C      9.197900    7.979040    4.509470
  C      9.465470    6.566200    4.188910
  C      8.457570    6.067290    3.291400
  S      8.249650    4.553650    2.686850
  C      7.575570    7.194500    3.094270
  C      8.060120    8.361150    3.850120
  N      7.188220    9.400940    3.736360
  C      6.182590    8.942260    3.054530
  C      6.330920    7.540970    2.629700
  C      5.373070    6.792100    1.888400
  C      4.027760    6.896790    2.011900
  C      3.110690    6.391120    0.945510
  O      3.400020    5.651130    0.037280
  C      1.817880    7.046540    1.217750
  C      0.670940    7.017330    0.476690
  C     -0.457670    7.739680    0.923100
  C     -0.374090    8.489980    2.133170
  C     -1.502040    9.211280    2.570250
  C     -2.650570    9.174200    1.829020
  C     -2.752940    8.441950    0.637610
  C     -1.667230    7.737260    0.197890
  F     -3.728390    9.859660    2.244890
  C      0.824630    8.500480    2.883050
  C      1.902320    7.783710    2.436050
  C      3.226000    7.576310    3.012200
  C      3.575540    7.777470    4.321270
  C      4.759540    7.278890    4.905120
  N      5.667050    6.826100    5.442880
  C      2.736150    8.406980    5.265110
  N      2.091740    8.927550    6.058610
  H     17.321040   -2.601560   -6.829600
  H     15.741980   -1.083040  -10.491590
  H     14.138880    0.337520   -9.237120
  H     16.425410   -1.835360   -4.684470
  H     13.196980    1.111990   -7.089000
  H     11.836970    1.484160   -1.925690
  H     13.255020   -2.089570   -1.335840
  H     12.533050   -0.073090    5.915330
  H     13.884050    1.775870    6.541410
  H     12.417890    1.572670    7.509260
  H     14.454990    3.845910    7.705090
  H     11.667320    3.560760    8.951390
  H     12.916580    5.855450    7.358880
  H     11.218640    5.686580    7.822910
  H     11.668870    7.560300    6.405890
  H      5.359470    9.582990    2.787750
  H      5.746040    6.115960    1.126320
  H      0.625190    6.447300   -0.439130
  H     -1.460110    9.782860    3.484220
  H     -3.684970    8.450810    0.095190
  H     -1.722400    7.166030   -0.716440
  H      0.864070    9.082870    3.790040

 Total Charge           Charge          ....    0
 Multiplicity           Mult            ....    1
 Number of Electrons    NEL             ....  546
 Basis Dimension        Dim             .... 1228

ORBITAL ENERGIES
----------------

  NO   OCC          E(Eh)            E(eV)
   0   2.0000     -88.975652     -2421.1506
   1   2.0000     -88.914029     -2419.4737
   2   2.0000     -88.913886     -2419.4699
   3   2.0000     -24.794171      -674.6837
   4   2.0000     -24.793687      -674.6705
   5   2.0000     -19.227329      -523.2022
   6   2.0000     -19.226587      -523.1820
   7   2.0000     -14.429799      -392.6548
   8   2.0000     -14.429705      -392.6522
   9   2.0000     -14.429042      -392.6342
  10   2.0000     -14.428564      -392.6212
  11   2.0000     -14.428209      -392.6115
  12   2.0000     -14.427595      -392.5948
  13   2.0000     -14.427533      -392.5931
  14   2.0000     -14.427012      -392.5790
  15   2.0000     -14.416066      -392.2811
  16   2.0000     -14.415899      -392.2766
  17   2.0000     -10.378840      -282.4226
  18   2.0000     -10.378514      -282.4137
  19   2.0000     -10.378376      -282.4100
  20   2.0000     -10.377718      -282.3921
  21   2.0000     -10.361082      -281.9394
  22   2.0000     -10.360488      -281.9232
  23   2.0000     -10.356042      -281.8022
  24   2.0000     -10.355450      -281.7861
  25   2.0000     -10.354714      -281.7661
  26   2.0000     -10.354573      -281.7623
  27   2.0000     -10.350780      -281.6590
  28   2.0000     -10.350717      -281.6573
  29   2.0000     -10.348686      -281.6021
  30   2.0000     -10.348454      -281.5957
  31   2.0000     -10.347817      -281.5784
  32   2.0000     -10.347659      -281.5741
  33   2.0000     -10.345161      -281.5062
  34   2.0000     -10.345077      -281.5039
  35   2.0000     -10.342612      -281.4368
  36   2.0000     -10.342486      -281.4333
  37   2.0000     -10.330904      -281.1182
  38   2.0000     -10.330506      -281.1074
  39   2.0000     -10.330142      -281.0975
  40   2.0000     -10.330028      -281.0944
  41   2.0000     -10.329943      -281.0921
  42   2.0000     -10.329309      -281.0748
  43   2.0000     -10.327628      -281.0290
  44   2.0000     -10.327265      -281.0192
  45   2.0000     -10.326975      -281.0113
  46   2.0000     -10.326786      -281.0061
  47   2.0000     -10.319744      -280.8145
  48   2.0000     -10.319563      -280.8096
  49   2.0000     -10.318317      -280.7757
  50   2.0000     -10.317860      -280.7632
  51   2.0000     -10.317803      -280.7617
  52   2.0000     -10.317442      -280.7519
  53   2.0000     -10.316550      -280.7276
  54   2.0000     -10.316064      -280.7144
  55   2.0000     -10.315486      -280.6987
  56   2.0000     -10.314663      -280.6762
  57   2.0000     -10.314633      -280.6754
  58   2.0000     -10.314168      -280.6628
  59   2.0000     -10.313871      -280.6547
  60   2.0000     -10.313665      -280.6491
  61   2.0000     -10.311618      -280.5934
  62   2.0000     -10.311057      -280.5781
  63   2.0000     -10.311042      -280.5777
  64   2.0000     -10.310476      -280.5623
  65   2.0000     -10.310078      -280.5515
  66   2.0000     -10.309963      -280.5484
  67   2.0000     -10.309652      -280.5399
  68   2.0000     -10.309528      -280.5365
  69   2.0000     -10.309507      -280.5359
  70   2.0000     -10.309409      -280.5333
  71   2.0000     -10.306861      -280.4640
  72   2.0000     -10.306379      -280.4508
  73   2.0000     -10.303613      -280.3756
  74   2.0000     -10.303091      -280.3614
  75   2.0000     -10.301663      -280.3225
  76   2.0000     -10.301072      -280.3064
  77   2.0000     -10.298108      -280.2258
  78   2.0000     -10.297698      -280.2146
  79   2.0000      -8.069590      -219.5847
  80   2.0000      -8.009677      -217.9544
  81   2.0000      -8.009611      -217.9526
  82   2.0000      -6.038522      -164.3165
  83   2.0000      -6.034390      -164.2041
  84   2.0000      -6.032200      -164.1445
  85   2.0000      -5.978563      -162.6850
  86   2.0000      -5.978544      -162.6845
  87   2.0000      -5.978218      -162.6756
  88   2.0000      -5.978102      -162.6724
  89   2.0000      -5.968811      -162.4196
  90   2.0000      -5.968724      -162.4172
  91   2.0000      -1.309768       -35.6406
  92   2.0000      -1.309247       -35.6264
  93   2.0000      -1.143000       -31.1026
  94   2.0000      -1.142285       -31.0831
  95   2.0000      -1.098564       -29.8934
  96   2.0000      -1.098211       -29.8838
  97   2.0000      -1.079616       -29.3779
  98   2.0000      -1.079241       -29.3676
  99   2.0000      -1.032175       -28.0869
 100   2.0000      -1.031584       -28.0708
 101   2.0000      -1.025345       -27.9011
 102   2.0000      -1.012390       -27.5485
 103   2.0000      -1.011818       -27.5330
 104   2.0000      -1.008437       -27.4410
 105   2.0000      -1.006890       -27.3989
 106   2.0000      -1.006336       -27.3838
 107   2.0000      -0.999065       -27.1859
 108   2.0000      -0.988287       -26.8927
 109   2.0000      -0.987739       -26.8778
 110   2.0000      -0.977461       -26.5981
 111   2.0000      -0.977402       -26.5964
 112   2.0000      -0.964641       -26.2492
 113   2.0000      -0.943027       -25.6611
 114   2.0000      -0.942410       -25.6443
 115   2.0000      -0.928228       -25.2584
 116   2.0000      -0.925192       -25.1758
 117   2.0000      -0.924678       -25.1618
 118   2.0000      -0.901826       -24.5399
 119   2.0000      -0.901416       -24.5288
 120   2.0000      -0.895340       -24.3634
 121   2.0000      -0.894880       -24.3509
 122   2.0000      -0.892698       -24.2915
 123   2.0000      -0.889788       -24.2124
 124   2.0000      -0.870521       -23.6881
 125   2.0000      -0.869049       -23.6480
 126   2.0000      -0.867034       -23.5932
 127   2.0000      -0.854144       -23.2424
 128   2.0000      -0.853118       -23.2145
 129   2.0000      -0.844226       -22.9726
 130   2.0000      -0.843743       -22.9594
 131   2.0000      -0.822386       -22.3783
 132   2.0000      -0.809540       -22.0287
 133   2.0000      -0.806365       -21.9423
 134   2.0000      -0.791514       -21.5382
 135   2.0000      -0.783441       -21.3185
 136   2.0000      -0.774075       -21.0637
 137   2.0000      -0.772698       -21.0262
 138   2.0000      -0.771058       -20.9815
 139   2.0000      -0.765756       -20.8373
 140   2.0000      -0.756311       -20.5803
 141   2.0000      -0.744244       -20.2519
 142   2.0000      -0.736248       -20.0343
 143   2.0000      -0.733838       -19.9687
 144   2.0000      -0.723757       -19.6944
 145   2.0000      -0.720526       -19.6065
 146   2.0000      -0.718976       -19.5643
 147   2.0000      -0.715881       -19.4801
 148   2.0000      -0.709722       -19.3125
 149   2.0000      -0.707813       -19.2606
 150   2.0000      -0.703790       -19.1511
 151   2.0000      -0.693480       -18.8705
 152   2.0000      -0.692954       -18.8562
 153   2.0000      -0.667178       -18.1548
 154   2.0000      -0.664246       -18.0750
 155   2.0000      -0.662617       -18.0307
 156   2.0000      -0.661555       -18.0018
 157   2.0000      -0.659247       -17.9390
 158   2.0000      -0.656548       -17.8656
 159   2.0000      -0.645883       -17.5754
 160   2.0000      -0.645367       -17.5613
 161   2.0000      -0.639297       -17.3962
 162   2.0000      -0.638877       -17.3847
 163   2.0000      -0.632600       -17.2139
 164   2.0000      -0.619571       -16.8594
 165   2.0000      -0.615703       -16.7541
 166   2.0000      -0.608968       -16.5709
 167   2.0000      -0.607869       -16.5410
 168   2.0000      -0.597191       -16.2504
 169   2.0000      -0.596040       -16.2191
 170   2.0000      -0.591428       -16.0936
 171   2.0000      -0.588753       -16.0208
 172   2.0000      -0.588502       -16.0140
 173   2.0000      -0.577492       -15.7144
 174   2.0000      -0.577430       -15.7127
 175   2.0000      -0.576471       -15.6866
 176   2.0000      -0.571008       -15.5379
 177   2.0000      -0.569392       -15.4940
 178   2.0000      -0.567037       -15.4299
 179   2.0000      -0.566537       -15.4162
 180   2.0000      -0.564653       -15.3650
 181   2.0000      -0.563696       -15.3390
 182   2.0000      -0.559801       -15.2330
 183   2.0000      -0.559479       -15.2242
 184   2.0000      -0.556225       -15.1356
 185   2.0000      -0.556135       -15.1332
 186   2.0000      -0.550616       -14.9830
 187   2.0000      -0.549069       -14.9409
 188   2.0000      -0.546285       -14.8652
 189   2.0000      -0.545764       -14.8510
 190   2.0000      -0.539829       -14.6895
 191   2.0000      -0.538614       -14.6564
 192   2.0000      -0.536192       -14.5905
 193   2.0000      -0.533276       -14.5112
 194   2.0000      -0.532909       -14.5012
 195   2.0000      -0.527603       -14.3568
 196   2.0000      -0.527099       -14.3431
 197   2.0000      -0.523132       -14.2352
 198   2.0000      -0.522543       -14.2191
 199   2.0000      -0.517692       -14.0871
 200   2.0000      -0.517063       -14.0700
 201   2.0000      -0.513628       -13.9765
 202   2.0000      -0.507869       -13.8198
 203   2.0000      -0.505595       -13.7580
 204   2.0000      -0.504998       -13.7417
 205   2.0000      -0.503734       -13.7073
 206   2.0000      -0.500980       -13.6324
 207   2.0000      -0.498313       -13.5598
 208   2.0000      -0.497771       -13.5450
 209   2.0000      -0.495800       -13.4914
 210   2.0000      -0.495133       -13.4732
 211   2.0000      -0.491521       -13.3750
 212   2.0000      -0.491406       -13.3718
 213   2.0000      -0.489968       -13.3327
 214   2.0000      -0.487689       -13.2707
 215   2.0000      -0.479161       -13.0386
 216   2.0000      -0.477847       -13.0029
 217   2.0000      -0.475811       -12.9475
 218   2.0000      -0.469112       -12.7652
 219   2.0000      -0.467315       -12.7163
 220   2.0000      -0.466649       -12.6982
 221   2.0000      -0.465108       -12.6562
 222   2.0000      -0.462650       -12.5894
 223   2.0000      -0.461763       -12.5652
 224   2.0000      -0.460796       -12.5389
 225   2.0000      -0.456327       -12.4173
 226   2.0000      -0.455364       -12.3911
 227   2.0000      -0.453229       -12.3330
 228   2.0000      -0.449475       -12.2308
 229   2.0000      -0.448773       -12.2117
 230   2.0000      -0.445937       -12.1346
 231   2.0000      -0.443005       -12.0548
 232   2.0000      -0.442309       -12.0358
 233   2.0000      -0.441045       -12.0014
 234   2.0000      -0.440206       -11.9786
 235   2.0000      -0.439479       -11.9588
 236   2.0000      -0.436081       -11.8664
 237   2.0000      -0.435285       -11.8447
 238   2.0000      -0.434491       -11.8231
 239   2.0000      -0.432563       -11.7706
 240   2.0000      -0.431569       -11.7436
 241   2.0000      -0.426570       -11.6076
 242   2.0000      -0.426063       -11.5938
 243   2.0000      -0.426043       -11.5932
 244   2.0000      -0.413744       -11.2585
 245   2.0000      -0.412593       -11.2272
 246   2.0000      -0.411250       -11.1907
 247   2.0000      -0.410897       -11.1811
 248   2.0000      -0.406013       -11.0482
 249   2.0000      -0.394712       -10.7407
 250   2.0000      -0.391485       -10.6529
 251   2.0000      -0.391059       -10.6412
 252   2.0000      -0.377920       -10.2837
 253   2.0000      -0.377529       -10.2731
 254   2.0000      -0.370844       -10.0912
 255   2.0000      -0.367160        -9.9909
 256   2.0000      -0.363896        -9.9021
 257   2.0000      -0.363364        -9.8876
 258   2.0000      -0.348114        -9.4727
 259   2.0000      -0.347062        -9.4440
 260   2.0000      -0.346641        -9.4326
 261   2.0000      -0.342391        -9.3169
 262   2.0000      -0.333133        -9.0650
 263   2.0000      -0.330273        -8.9872
 264   2.0000      -0.324058        -8.8181
 265   2.0000      -0.322599        -8.7784
 266   2.0000      -0.316481        -8.6119
 267   2.0000      -0.313467        -8.5299
 268   2.0000      -0.306767        -8.3476
 269   2.0000      -0.305598        -8.3157
 270   2.0000      -0.291128        -7.9220
 271   2.0000      -0.289925        -7.8893
 272   2.0000      -0.276887        -7.5345
 273   0.0000      -0.133674        -3.6374
 274   0.0000      -0.125593        -3.4176
 275   0.0000      -0.110053        -2.9947
 276   0.0000      -0.103490        -2.8161
 277   0.0000      -0.083051        -2.2599

MULLIKEN ATOMIC CHARGES
-----------------------
   0 C :   -0.093748
   1 C :    0.300265
   2 F :   -0.185995
   3 C :   -0.028625
   4 C :   -0.006396
   5 C :    0.098910
   6 C :    0.099565
   7 C :   -0.083038
   8 C :    0.046744
   9 C :    0.000842
  10 C :   -0.073107
  11 C :    0.143832
  12 O :   -0.127585
  13 C :   -0.130276
  14 C :    0.265452
  15 C :   -0.339680
  16 C :   -0.179014
  17 N :    0.170784
  18 C :   -0.173199
  19 N :    0.163439
  20 C :    0.040426
  21 C :   -0.077473
  22 C :    0.064849
  23 N :   -0.012240
  24 C :    0.030335
  25 C :    0.055217
  26 C :   -0.009030
  27 S :   -0.091505
  28 C :   -0.031844
  29 C :    0.012624
  30 N :   -0.015722
  31 C :    0.045267
  32 C :   -0.006965
  33 C :   -0.140387
  34 S :    0.264691
  35 C :   -0.139159
  36 C :   -0.071106
  37 C :   -0.075836
  38 C :    0.174302
  39 C :   -0.083374
  40 C :   -0.260808
  41 N :    0.166798
  42 C :   -0.088089
  43 C :   -0.258960
  44 N :    0.167786
  45 C :    0.175252
  46 C :   -0.011436
  47 C :    0.047180
  48 N :   -0.015981
  49 C :    0.016787
  50 C :   -0.026587
  51 C :   -0.007043
  52 S :   -0.093418
  53 C :    0.059729
  54 C :    0.021413
  55 N :   -0.011168
  56 C :    0.066533
  57 C :   -0.090026
  58 C :    0.048468
  59 C :   -0.129691
  60 C :    0.145169
  61 O :   -0.127144
  62 C :    0.001156
  63 C :   -0.075202
  64 C :    0.100281
  65 C :    0.103238
  66 C :   -0.097333
  67 C :    0.304856
  68 C :   -0.027514
  69 C :   -0.007977
  70 F :   -0.185881
  71 C :   -0.086264
  72 C :    0.047420
  73 C :    0.267210
  74 C :   -0.341320
  75 C :   -0.172313
  76 N :    0.169267
  77 C :   -0.178361
  78 N :    0.165077
  79 H :    0.000784
  80 H :    0.008770
  81 H :   -0.005508
  82 H :   -0.001530
  83 H :   -0.006837
  84 H :    0.037530
  85 H :    0.022078
  86 H :    0.013587
  87 H :    0.048461
  88 H :    0.042354
  89 H :    0.051300
  90 H :    0.052115
  91 H :    0.040671
  92 H :    0.048286
  93 H :    0.013497
  94 H :    0.020548
  95 H :    0.038322
  96 H :   -0.007648
  97 H :    0.000786
  98 H :    0.007567
  99 H :   -0.006028
 100 H :   -0.002454
Sum of atomic charges:   -0.0000000

LOEWDIN ATOMIC CHARGES
----------------------
   0 C :   -0.040837
   1 C :    0.094993
   2 F :   -0.060834
   3 C :   -0.033390
   4 C :    0.006277
   5 C :   -0.017131
   6 C :    0.004296
   7 C :    0.014190
   8 C :   -0.020216
   9 C :   -0.061621
  10 C :    0.038657
  11 C :    0.083159
  12 O :   -0.129232
  13 C :   -0.072352
  14 C :    0.065293
  15 C :   -0.126243
  16 C :   -0.019129
  17 N :   -0.040054
  18 C :   -0.018539
  19 N :   -0.038613
  20 C :    0.075128
  21 C :   -0.057332
  22 C :    0.088209
  23 N :   -0.069569
  24 C :    0.041956
  25 C :    0.002642
  26 C :   -0.145994
  27 S :    0.080293
  28 C :   -0.042709
  29 C :    0.048584
  30 N :   -0.068369
  31 C :    0.085885
  32 C :   -0.051043
  33 C :   -0.179211
  34 S :    0.549711
  35 C :   -0.178918
  36 C :   -0.058234
  37 C :   -0.057887
  38 C :   -0.009762
  39 C :   -0.030091
  40 C :   -0.039404
  41 N :   -0.039469
  42 C :   -0.030142
  43 C :   -0.039336
  44 N :   -0.039373
  45 C :   -0.009294
  46 C :   -0.051400
  47 C :    0.086416
  48 N :   -0.068412
  49 C :    0.049342
  50 C :   -0.040457
  51 C :   -0.145125
  52 S :    0.079396
  53 C :    0.002395
  54 C :    0.041003
  55 N :   -0.069221
  56 C :    0.087277
  57 C :   -0.058857
  58 C :    0.076206
  59 C :   -0.071963
  60 C :    0.083378
  61 O :   -0.129141
  62 C :   -0.061775
  63 C :    0.038821
  64 C :   -0.017123
  65 C :    0.004268
  66 C :   -0.040696
  67 C :    0.095187
  68 C :   -0.033060
  69 C :    0.006289
  70 F :   -0.060666
  71 C :    0.014371
  72 C :   -0.020556
  73 C :    0.065544
  74 C :   -0.125932
  75 C :   -0.017508
  76 N :   -0.042276
  77 C :   -0.018414
  78 N :   -0.038318
  79 H :    0.044264
  80 H :    0.043736
  81 H :    0.037085
  82 H :    0.040154
  83 H :    0.041517
  84 H :    0.053493
  85 H :    0.027342
  86 H :    0.026986
  87 H :    0.045849
  88 H :    0.042401
  89 H :    0.059910
  90 H :    0.060142
  91 H :    0.042034
  92 H :    0.045881
  93 H :    0.027068
  94 H :    0.027290
  95 H :    0.054240
  96 H :    0.041487
  97 H :    0.044377
  98 H :    0.043570
  99 H :    0.037075
 100 H :    0.040160

  Mayer bond orders larger than 0.100000
B(  0-C ,  1-C ) :   1.4431 B(  0-C ,  6-C ) :   1.2020 B(  0-C , 79-H ) :   1.0061
B(  1-C ,  2-F ) :   1.0940 B(  1-C ,  3-C ) :   1.2531 B(  3-C ,  4-C ) :   1.4646
B(  3-C , 80-H ) :   0.9916 B(  4-C ,  5-C ) :   1.2342 B(  4-C , 81-H ) :   0.9968
B(  5-C ,  6-C ) :   1.2528 B(  5-C , 10-C ) :   1.1971 B(  6-C ,  7-C ) :   1.2087
B(  7-C ,  8-C ) :   1.4573 B(  7-C , 82-H ) :   0.9946 B(  8-C ,  9-C ) :   1.2154
B(  8-C , 14-C ) :   1.0069 B(  9-C , 10-C ) :   1.4718 B(  9-C , 11-C ) :   0.9212
B( 10-C , 83-H ) :   1.0144 B( 11-C , 12-O ) :   2.2917 B( 11-C , 13-C ) :   0.9199
B( 13-C , 14-C ) :   1.0225 B( 13-C , 20-C ) :   1.7043 B( 14-C , 15-C ) :   1.6565
B( 15-C , 16-C ) :   1.1520 B( 15-C , 18-C ) :   1.1358 B( 16-C , 17-N ) :   2.9992
B( 18-C , 19-N ) :   2.9857 B( 20-C , 21-C ) :   1.0300 B( 20-C , 84-H ) :   0.9542
B( 21-C , 22-C ) :   1.0063 B( 21-C , 25-C ) :   1.5651 B( 22-C , 23-N ) :   1.7445
B( 22-C , 85-H ) :   0.9890 B( 23-N , 24-C ) :   1.2603 B( 24-C , 25-C ) :   1.0657
B( 24-C , 29-C ) :   1.5085 B( 25-C , 26-C ) :   1.0204 B( 26-C , 27-S ) :   1.7010
B( 26-C , 28-C ) :   1.0393 B( 28-C , 29-C ) :   1.0707 B( 28-C , 32-C ) :   1.5264
B( 29-C , 30-N ) :   1.2657 B( 30-N , 31-C ) :   1.7306 B( 31-C , 32-C ) :   1.0237
B( 31-C , 86-H ) :   0.9890 B( 32-C , 33-C ) :   1.1166 B( 33-C , 34-S ) :   1.1689
B( 33-C , 35-C ) :   0.1107 B( 33-C , 37-C ) :   1.4294 B( 34-S , 35-C ) :   1.1710
B( 35-C , 36-C ) :   1.4287 B( 35-C , 46-C ) :   1.1143 B( 36-C , 37-C ) :   1.3948
B( 36-C , 45-C ) :   1.0504 B( 37-C , 38-C ) :   1.0514 B( 38-C , 39-C ) :   1.0883
B( 38-C , 87-H ) :   0.9116 B( 38-C , 88-H ) :   0.8836 B( 39-C , 40-C ) :   1.0863
B( 39-C , 42-C ) :   1.0672 B( 39-C , 89-H ) :   0.8524 B( 40-C , 41-N ) :   3.1245
B( 42-C , 43-C ) :   1.0880 B( 42-C , 45-C ) :   1.0904 B( 42-C , 90-H ) :   0.8537
B( 43-C , 44-N ) :   3.1245 B( 45-C , 91-H ) :   0.8830 B( 45-C , 92-H ) :   0.9123
B( 46-C , 47-C ) :   1.0254 B( 46-C , 50-C ) :   1.5295 B( 47-C , 48-N ) :   1.7312
B( 47-C , 93-H ) :   0.9899 B( 48-N , 49-C ) :   1.2708 B( 49-C , 50-C ) :   1.0673
B( 49-C , 54-C ) :   1.5064 B( 50-C , 51-C ) :   1.0406 B( 51-C , 52-S ) :   1.7010
B( 51-C , 53-C ) :   1.0200 B( 53-C , 54-C ) :   1.0602 B( 53-C , 57-C ) :   1.5721
B( 54-C , 55-N ) :   1.2666 B( 55-N , 56-C ) :   1.7413 B( 56-C , 57-C ) :   1.0142
B( 56-C , 94-H ) :   0.9897 B( 57-C , 58-C ) :   1.0239 B( 58-C , 59-C ) :   1.7079
B( 58-C , 95-H ) :   0.9560 B( 59-C , 60-C ) :   0.9195 B( 59-C , 73-C ) :   1.0239
B( 60-C , 61-O ) :   2.2930 B( 60-C , 62-C ) :   0.9207 B( 62-C , 63-C ) :   1.4672
B( 62-C , 72-C ) :   1.2151 B( 63-C , 64-C ) :   1.1964 B( 63-C , 96-H ) :   1.0151
B( 64-C , 65-C ) :   1.2526 B( 64-C , 69-C ) :   1.2324 B( 65-C , 66-C ) :   1.2015
B( 65-C , 71-C ) :   1.2056 B( 66-C , 67-C ) :   1.4403 B( 66-C , 97-H ) :   1.0067
B( 67-C , 68-C ) :   1.2529 B( 67-C , 70-F ) :   1.0937 B( 68-C , 69-C ) :   1.4637
B( 68-C , 98-H ) :   0.9925 B( 69-C , 99-H ) :   0.9972 B( 71-C , 72-C ) :   1.4551
B( 71-C ,100-H ) :   0.9948 B( 72-C , 73-C ) :   1.0078 B( 73-C , 74-C ) :   1.6556
B( 74-C , 75-C ) :   1.1536 B( 74-C , 77-C ) :   1.1366 B( 75-C , 76-N ) :   2.9955
B( 77-C , 78-N ) :   2.9859

-----------------------------------------------------------------------------
         ABSORPTION SPECTRUM VIA TRANSITION ELECTRIC DIPOLE MOMENTS
-----------------------------------------------------------------------------
State   Energy  Wavelength   fosc         T2         TX        TY        TZ
        (cm-1)    (nm)                  (au**2)     (au)      (au)      (au)
-----------------------------------------------------------------------------
   0   13606.5    734.9   0.040893357   0.98942  -0.57991   0.73338   0.33952
   1   13739.0    727.9   0.001719981   0.04121   0.13580  -0.15036  -0.01279
   2   14511.2    689.1   0.285926784   6.48676  -1.70102   1.65045   0.93237
   3   15573.6    642.1   0.035884900   0.75858  -0.44922   0.05217  -0.74435
   4   15770.7    634.1   0.004947292   0.10327  -0.14937   0.24969   0.13645
   5   15956.9    626.7   0.011900368   0.24552  -0.28562   0.05630  -0.40096
   6   20015.9    499.6   0.028844979   0.47443  -0.08350   0.21741   0.64822
   7   20240.3    494.1   0.294249022   4.78601  -1.59810   1.31799   0.70354
   8   20599.4    485.5   0.009385344   0.14999   0.12899  -0.33530  -0.14467
   9   20659.0    484.1   0.087553689   1.39521   0.42756  -1.08014  -0.21379
  10   20741.7    482.1   0.003840256   0.06095  -0.02042   0.22522   0.09905
  11   21951.3    455.6   0.038401573   0.57592   0.31509  -0.01471   0.69024
  12   22978.6    435.2   0.169194342   2.42403  -1.33987   0.51083   0.60648
  13   23153.4    431.9   0.096356544   1.37006   0.47273   0.05201   1.06953
  14   24092.1    415.1   0.000587487   0.00803   0.06632  -0.01730  -0.05770
  15   24194.3    413.3   0.000825603   0.01123   0.09791  -0.00985   0.03939
  16   24736.0    404.3   0.069977337   0.93133   0.87521   0.01700  -0.40626
  17   24840.6    402.6   0.051689301   0.68504  -0.70676   0.01390   0.43051
  18   25112.3    398.2   0.360980034   4.73229  -1.77339   0.79841   0.97464
  19   25218.4    396.5   0.064896861   0.84719   0.79202  -0.14779   0.44503
  20   25386.1    393.9   0.179050692   2.32197  -0.94424   0.46215   1.10308
  21   25492.4    392.3   0.084867557   1.09599   0.74884  -0.07789   0.72743
  22   26057.1    383.8   0.019444696   0.24567   0.16073  -0.19229  -0.42762
  23   26209.0    381.5   0.094266819   1.18409  -0.85483   0.53709   0.40606
  24   26454.0    378.0   0.039436347   0.49077  -0.23994   0.24872   0.60937
  25   26544.9    376.7   0.030135529   0.37374  -0.48783   0.15223  -0.33554
  26   26947.1    371.1   0.028274110   0.34542  -0.57411   0.08034   0.09676
  27   27195.1    367.7   0.025270860   0.30592  -0.42530   0.09426   0.34081
  28   27656.5    361.6   0.058655044   0.69821  -0.31048  -0.01595  -0.77560
  29   27708.5    360.9   0.061294012   0.72825  -0.77683   0.31940   0.15091
  30   28097.6    355.9   0.008209985   0.09619   0.07129  -0.03960  -0.29924
  31   28289.5    353.5   0.038947930   0.45325  -0.04868  -0.01976  -0.67118
  32   28375.3    352.4   0.047667845   0.55304  -0.14862   0.51700   0.51349
  33   28483.6    351.1   0.084665345   0.97856  -0.98423   0.05926   0.07959
  34   28730.8    348.1   0.150028783   1.71911   0.69735  -0.11409   1.10444
  35   28981.1    345.1   0.182868000   2.07730  -1.11707   0.41976   0.80823
  36   29237.7    342.0   0.058971043   0.66401  -0.22176  -0.07182  -0.78082
  37   29494.5    339.0   0.021368441   0.23851   0.33075  -0.31115  -0.17974
  38   29835.4    335.2   0.000628859   0.00694  -0.07391  -0.00575  -0.03798
  39   30028.6    333.0   0.064821779   0.71066   0.73333  -0.14078  -0.39124
  40   30492.4    328.0   0.022498536   0.24291  -0.46924   0.08939   0.12138
  41   30840.7    324.2   0.577104008   6.16035   1.18213  -0.02292   2.18229
  42   31090.4    321.6   0.001055948   0.01118  -0.02913   0.10069   0.01391
  43   31211.4    320.4   0.016410360   0.17309  -0.08844  -0.39901  -0.07786
  44   31456.6    317.9   0.004969403   0.05201   0.05363  -0.08541   0.20454
  45   31899.6    313.5   0.039605117   0.40874   0.06546   0.57979   0.26133
  46   31904.2    313.4   0.042845430   0.44211   0.34189  -0.34585   0.45344
  47   32314.2    309.5   0.217032967   2.21110   1.09697  -0.58039  -0.81908
  48   32527.8    307.4   0.433170807   4.38410  -1.09455   0.01677  -1.78487
  49   32634.4    306.4   0.036787534   0.37111   0.04586  -0.60020   0.09360
  50   32677.7    306.0   0.004573694   0.04608   0.04559   0.20910  -0.01665
  51   32833.8    304.6   0.000994011   0.00997   0.07705  -0.05648  -0.02899
  52   32976.7    303.2   0.002857189   0.02852   0.12540  -0.08830  -0.07073
  53   33002.3    303.0   0.084025786   0.83819  -0.55520   0.70981   0.16161
  54   33388.8    299.5   0.239262814   2.35912  -0.79162   0.00797  -1.31621
  55   33477.1    298.7   0.050929207   0.50084  -0.43981   0.38156   0.40226
  56   33679.6    296.9   0.003818673   0.03733   0.19095  -0.02376  -0.01736
  57   33750.3    296.3   0.005923710   0.05778   0.20075  -0.02514  -0.12981
  58   33943.1    294.6   0.011488457   0.11143   0.15241   0.04909   0.29289
  59   34287.1    291.7   0.211649108   2.03217   0.65729  -0.20381  -1.24844
  60   34363.4    291.0   0.502749638   4.81649  -1.29572   0.02470  -1.77116
  61   34419.3    290.5   0.090018241   0.86100  -0.86909   0.21517   0.24369
  62   34584.8    289.1   0.049240783   0.46872  -0.25613  -0.08065  -0.62977
  63   34708.7    288.1   0.197836906   1.87648   0.82553  -0.07395   1.09065
  64   34754.4    287.7   0.002926152   0.02772  -0.02863   0.04472  -0.15779
  65   34797.2    287.4   0.035241994   0.33342   0.29915  -0.21688  -0.44372
  66   35007.0    285.7   0.037569083   0.35331  -0.41584   0.02393  -0.42404
  67   35098.3    284.9   0.032922898   0.30881   0.45586  -0.09715  -0.30259
  68   35425.9    282.3   0.005530385   0.05139   0.01518  -0.05176   0.22019
  69   35460.2    282.0   0.038441799   0.35689   0.11576   0.03880   0.58480
  70   35513.7    281.6   0.017055757   0.15811   0.25780   0.04742   0.29899
  71   35596.8    280.9   0.026542327   0.24547  -0.47125   0.02943   0.15010
  72   35704.6    280.1   0.126065133   1.16237   0.48297  -0.03825   0.96315
  73   35778.6    279.5   0.015998464   0.14721   0.09091   0.33088  -0.17165
  74   36409.1    274.7   0.018463832   0.16695   0.24786  -0.06513   0.31824
  75   36560.4    273.5   0.019577404   0.17629  -0.28416   0.24200   0.19230
  76   36693.2    272.5   0.008863850   0.07953   0.25316   0.05489  -0.11146
  77   36827.9    271.5   0.013913245   0.12437   0.17328   0.01645   0.30672
  78   37177.9    269.0   0.042840745   0.37936   0.17724  -0.19203   0.55773
  79   37240.0    268.5   0.305264029   2.69862  -0.75735  -0.09594  -1.45459
  80   37327.5    267.9   0.010248452   0.09039  -0.16014  -0.05378  -0.24870
  81   37980.3    263.3   0.038327225   0.33222   0.50440  -0.06563  -0.27110
  82   38178.1    261.9   0.012947567   0.11165  -0.10197  -0.15085  -0.28017
  83   38204.4    261.8   0.085755407   0.73897   0.40885  -0.09222   0.75053
  84   38368.4    260.6   0.006153487   0.05280  -0.15095   0.13705  -0.10597
  85   38482.4    259.9   0.175816240   1.50409  -0.13798  -1.21553   0.08682
  86   38661.9    258.7   0.252481974   2.14992   0.86622   0.11402   1.17754
  87   38663.8    258.6   0.086227848   0.73421   0.07693   0.38264  -0.76281
  88   38771.5    257.9   0.018124900   0.15390  -0.15317  -0.03775  -0.35919
  89   38984.7    256.5   0.002439974   0.02060  -0.08227   0.01119   0.11709
  90   39352.7    254.1   0.082186355   0.68754  -0.00197  -0.75537  -0.34200
  91   39440.3    253.5   0.136507728   1.13944  -0.46124   0.95428  -0.12671
  92   39618.6    252.4   0.008788206   0.07303   0.06751  -0.22338   0.13628
  93   39656.8    252.2   0.021213797   0.17611   0.26509  -0.29459   0.13804
  94   39806.1    251.2   0.093912852   0.77670   0.16752  -0.80455  -0.31833
  95   39819.8    251.1   0.145709259   1.20466  -0.66949   0.72304   0.48337
  96   39882.7    250.7   0.044472329   0.36710   0.39989  -0.44598  -0.09102
  97   40058.4    249.6   0.007157970   0.05883   0.21263  -0.10957   0.04011
  98   40139.1    249.1   0.005980222   0.04905  -0.05297  -0.21214  -0.03523
  99   40326.9    248.0   0.009816286   0.08014   0.06806  -0.20153   0.18678

FINAL SINGLE POINT ENERGY     -4463.322602175796

DIPOLE MOMENT
-------------
                                X             Y             Z
Electronic contribution:     -3.60304      -0.05881      -8.76085
Nuclear contribution   :      0.99246       0.18632       3.90262
                        -----------------------------------------
Total Dipole Moment    :     -2.61057       0.12751      -4.85823
                        -----------------------------------------
Magnitude (a.u.)       :      5.51668
Magnitude (Debye)      :     14.02229

Rotational constants in cm-1:     0.000814     0.000317     0.000241
Rotational constants in MHz :    24.404275     9.510808     7.217072

                             ****ORCA TERMINATED NORMALLY****
TOTAL RUN TIME: 0 days 0 hours 11 minutes 40 seconds 692 msec
