                         Program Version 4.2.0 -  RELEASE  -
|  1> # ORCA input file
|  2> # SCF done       -201.382564095425          0.000540074411
|  3> ! CAM-B3LYP def2-SVP def2/J RIJCOSX Grid4 TightSCF
|  4> %maxcore 5000
|  5> %tddft
|  6>     Mode sTDDFT
|  7>     Ethresh 5.0
|  8>     maxcore 5000
|  9> end
| 10>
| 11> %pal
| 12>   nprocs 6
| 13>   end
| 14> * xyz 0 1
| 15>    C        5.47098        -1.85410        -1.11822
| 16>    C        5.19592        -2.74522        -0.12184
| 17>    C        6.18135        -3.30358         0.72355
| 18>    N        6.93766        -3.78540         1.43807
| 19>    C        3.93260        -3.33949         0.10093
| 20>    N        2.98661        -3.97013         0.25939
| 21>    C        6.81056        -1.52200        -1.59702
| 22>    C        6.71617        -1.03565        -2.91608
| 23>    C        7.84412        -0.76004        -3.66731
| 24>    C        9.09106        -0.93877        -3.08234
| 25>    C        9.18848        -1.36452        -1.74739
| 26>    C        8.05294        -1.66693        -1.00315
| 27>   Cl       10.72554        -1.52332        -1.02343
| 28>   Cl       10.51086        -0.62127        -3.98604
| 29>    C        5.30106        -0.87448        -3.28565
| 30>    O        4.84747        -0.42492        -4.31246
| 31>    C        4.52907        -1.29060        -2.07287
| 32>    C        3.20315        -1.01603        -1.99246
| 33>    C        2.38453        -1.06162        -0.82765
| 34>    N        2.88889        -1.12084         0.39476
| 35>    C        1.83351        -1.10597         1.23651
| 36>    C        0.56511        -1.05553         0.49624
| 37>    C       -0.57586        -1.04063         1.42300
| 38>    O       -1.75854        -1.00423         1.16048
| 39>    C        0.08348        -1.07506         2.74438
| 40>    C        1.55777        -1.10957         2.57866
| 41>    N        2.17439        -1.12119         3.78591
| 42>    C        1.20655        -1.10281         4.66553
| 43>    C       -0.12691        -1.06859         4.08259
| 44>    C        0.90305        -1.00138        -0.83079
| 45>    C        0.11424        -0.87814        -2.00282
| 46>    C       -1.23682        -0.83262        -2.04284
| 47>    C       -1.87039        -0.61034        -3.30228
| 48>    N       -3.21572        -0.69619        -3.57528
| 49>    C       -3.46400        -0.41348        -4.87793
| 50>    C       -2.25303        -0.12239        -5.48721
| 51>    C       -1.26254        -0.25770        -4.48806
| 52>    S        0.29929         0.22915        -5.16331
| 53>    O        0.72179         1.45420        -4.54054
| 54>    O        1.25195        -0.85013        -5.15994
| 55>    C       -0.42325         0.49266        -6.81712
| 56>    C       -1.75913         0.26794        -6.77437
| 57>    C        0.42234         0.84309        -7.88993
| 58>    C        1.75228         1.04492        -7.69264
| 59>    C        2.65531         1.39249        -8.72656
| 60>    N        2.29493         1.54027        -9.99553
| 61>    C        3.39863         1.94153       -10.65023
| 62>    C        4.54549         2.08719        -9.73332
| 63>    C        5.74187         2.53870       -10.46687
| 64>    O        6.84316         2.78646       -10.02725
| 65>    C        5.25323         2.62378       -11.85390
| 66>    C        3.81960         2.26087       -11.91923
| 67>    N        3.36663         2.33553       -13.19346
| 68>    C        4.40380         2.70590       -13.90538
| 69>    C        5.61463         2.89891       -13.13339
| 70>    C        4.09268         1.70535        -8.49952
| 71>    C        4.72966         1.65438        -7.22794
| 72>    C        5.89342         2.28355        -6.94008
| 73>    C        6.45821         2.32919        -5.63243
| 74>    C        5.76015         2.34503        -4.46139
| 75>    C        6.31383         2.20589        -3.12503
| 76>    C        7.63699         2.16715        -2.77266
| 77>    C        8.09834         1.90480        -1.46618
| 78>    N        8.54388         1.65422        -0.43833
| 79>    C        8.72771         2.38326        -3.64229
| 80>    N        9.67011         2.56960        -4.27051
| 81>    C        5.19483         2.10556        -2.19031
| 82>    C        3.99717         2.32627        -2.89016
| 83>    C        4.28734         2.55961        -4.32044
| 84>    O        3.50613         2.95141        -5.15245
| 85>    C        2.76654         2.31870        -2.26618
| 86>    C        2.73594         2.09207        -0.89603
| 87>    C        3.92033         1.86505        -0.18311
| 88>    C        5.15395         1.86310        -0.82546
| 89>   Cl        3.85934         1.57358         1.50712
| 90>   Cl        1.23153         2.10672        -0.06590
| 91>    H        7.75585        -0.42195        -4.68842
| 92>    H        8.16429        -1.99488         0.01729
| 93>    H        2.74142        -0.66993        -2.91154
| 94>    H        1.42858        -1.11320         5.71854
| 95>    H       -1.04523        -1.04516         4.63512
| 96>    H        0.65443        -0.80234        -2.93397
| 97>    H       -1.83648        -0.94122        -1.14968
| 98>    H       -3.91481        -0.94502        -2.89174
| 99>    H       -4.45792        -0.43051        -5.27884
|100>    H       -2.40878         0.37050        -7.62991
|101>    H        0.00922         0.94430        -8.88598
|102>    H        2.15000         0.96482        -6.69217
|103>    H        4.31080         2.84309       -14.96872
|104>    H        6.56549         3.19713       -13.52839
|105>    H        4.23799         1.07880        -6.45732
|106>    H        6.46501         2.74683        -7.73586
|107>    H        7.53987         2.37571        -5.59224
|108>    H        1.86581         2.46544        -2.84459
|109>    H        6.04362         1.68557        -0.24400
|110> *
|111>
|112>                          ****END OF INPUT****

CARTESIAN COORDINATES (ANGSTROEM)
---------------------------------
  C      5.470980   -1.854100   -1.118220
  C      5.195920   -2.745220   -0.121840
  C      6.181350   -3.303580    0.723550
  N      6.937660   -3.785400    1.438070
  C      3.932600   -3.339490    0.100930
  N      2.986610   -3.970130    0.259390
  C      6.810560   -1.522000   -1.597020
  C      6.716170   -1.035650   -2.916080
  C      7.844120   -0.760040   -3.667310
  C      9.091060   -0.938770   -3.082340
  C      9.188480   -1.364520   -1.747390
  C      8.052940   -1.666930   -1.003150
  Cl    10.725540   -1.523320   -1.023430
  Cl    10.510860   -0.621270   -3.986040
  C      5.301060   -0.874480   -3.285650
  O      4.847470   -0.424920   -4.312460
  C      4.529070   -1.290600   -2.072870
  C      3.203150   -1.016030   -1.992460
  C      2.384530   -1.061620   -0.827650
  N      2.888890   -1.120840    0.394760
  C      1.833510   -1.105970    1.236510
  C      0.565110   -1.055530    0.496240
  C     -0.575860   -1.040630    1.423000
  O     -1.758540   -1.004230    1.160480
  C      0.083480   -1.075060    2.744380
  C      1.557770   -1.109570    2.578660
  N      2.174390   -1.121190    3.785910
  C      1.206550   -1.102810    4.665530
  C     -0.126910   -1.068590    4.082590
  C      0.903050   -1.001380   -0.830790
  C      0.114240   -0.878140   -2.002820
  C     -1.236820   -0.832620   -2.042840
  C     -1.870390   -0.610340   -3.302280
  N     -3.215720   -0.696190   -3.575280
  C     -3.464000   -0.413480   -4.877930
  C     -2.253030   -0.122390   -5.487210
  C     -1.262540   -0.257700   -4.488060
  S      0.299290    0.229150   -5.163310
  O      0.721790    1.454200   -4.540540
  O      1.251950   -0.850130   -5.159940
  C     -0.423250    0.492660   -6.817120
  C     -1.759130    0.267940   -6.774370
  C      0.422340    0.843090   -7.889930
  C      1.752280    1.044920   -7.692640
  C      2.655310    1.392490   -8.726560
  N      2.294930    1.540270   -9.995530
  C      3.398630    1.941530  -10.650230
  C      4.545490    2.087190   -9.733320
  C      5.741870    2.538700  -10.466870
  O      6.843160    2.786460  -10.027250
  C      5.253230    2.623780  -11.853900
  C      3.819600    2.260870  -11.919230
  N      3.366630    2.335530  -13.193460
  C      4.403800    2.705900  -13.905380
  C      5.614630    2.898910  -13.133390
  C      4.092680    1.705350   -8.499520
  C      4.729660    1.654380   -7.227940
  C      5.893420    2.283550   -6.940080
  C      6.458210    2.329190   -5.632430
  C      5.760150    2.345030   -4.461390
  C      6.313830    2.205890   -3.125030
  C      7.636990    2.167150   -2.772660
  C      8.098340    1.904800   -1.466180
  N      8.543880    1.654220   -0.438330
  C      8.727710    2.383260   -3.642290
  N      9.670110    2.569600   -4.270510
  C      5.194830    2.105560   -2.190310
  C      3.997170    2.326270   -2.890160
  C      4.287340    2.559610   -4.320440
  O      3.506130    2.951410   -5.152450
  C      2.766540    2.318700   -2.266180
  C      2.735940    2.092070   -0.896030
  C      3.920330    1.865050   -0.183110
  C      5.153950    1.863100   -0.825460
  Cl     3.859340    1.573580    1.507120
  Cl     1.231530    2.106720   -0.065900
  H      7.755850   -0.421950   -4.688420
  H      8.164290   -1.994880    0.017290
  H      2.741420   -0.669930   -2.911540
  H      1.428580   -1.113200    5.718540
  H     -1.045230   -1.045160    4.635120
  H      0.654430   -0.802340   -2.933970
  H     -1.836480   -0.941220   -1.149680
  H     -3.914810   -0.945020   -2.891740
  H     -4.457920   -0.430510   -5.278840
  H     -2.408780    0.370500   -7.629910
  H      0.009220    0.944300   -8.885980
  H      2.150000    0.964820   -6.692170
  H      4.310800    2.843090  -14.968720
  H      6.565490    3.197130  -13.528390
  H      4.237990    1.078800   -6.457320
  H      6.465010    2.746830   -7.735860
  H      7.539870    2.375710   -5.592240
  H      1.865810    2.465440   -2.844590
  H      6.043620    1.685570   -0.244000

 Total Charge           Charge          ....    0
 Multiplicity           Mult            ....    1
 Number of Electrons    NEL             ....  550
 Basis Dimension        Dim             .... 1179

ORBITAL ENERGIES
----------------

  NO   OCC          E(Eh)            E(eV)
   0   2.0000    -101.607019     -2764.8676
   1   2.0000    -101.599998     -2764.6765
   2   2.0000    -101.598718     -2764.6417
   3   2.0000    -101.598161     -2764.6265
   4   2.0000     -89.166841     -2426.3531
   5   2.0000     -19.239344      -523.5292
   6   2.0000     -19.224655      -523.1295
   7   2.0000     -19.218740      -522.9685
   8   2.0000     -19.217968      -522.9475
   9   2.0000     -19.215895      -522.8911
  10   2.0000     -19.213176      -522.8171
  11   2.0000     -14.508074      -394.7848
  12   2.0000     -14.428503      -392.6195
  13   2.0000     -14.424668      -392.5152
  14   2.0000     -14.422804      -392.4645
  15   2.0000     -14.421283      -392.4231
  16   2.0000     -14.420017      -392.3886
  17   2.0000     -14.416628      -392.2964
  18   2.0000     -14.411043      -392.1444
  19   2.0000     -14.405595      -391.9962
  20   2.0000     -10.387923      -282.6698
  21   2.0000     -10.383517      -282.5499
  22   2.0000     -10.373132      -282.2673
  23   2.0000     -10.371398      -282.2201
  24   2.0000     -10.359747      -281.9030
  25   2.0000     -10.359344      -281.8921
  26   2.0000     -10.359018      -281.8832
  27   2.0000     -10.358070      -281.8574
  28   2.0000     -10.357640      -281.8457
  29   2.0000     -10.354788      -281.7681
  30   2.0000     -10.350415      -281.6491
  31   2.0000     -10.348879      -281.6073
  32   2.0000     -10.348693      -281.6022
  33   2.0000     -10.346737      -281.5490
  34   2.0000     -10.345357      -281.5115
  35   2.0000     -10.344303      -281.4828
  36   2.0000     -10.342336      -281.4293
  37   2.0000     -10.337529      -281.2985
  38   2.0000     -10.336899      -281.2813
  39   2.0000     -10.334816      -281.2246
  40   2.0000     -10.334462      -281.2150
  41   2.0000     -10.327911      -281.0367
  42   2.0000     -10.326532      -280.9992
  43   2.0000     -10.325264      -280.9647
  44   2.0000     -10.324871      -280.9540
  45   2.0000     -10.324785      -280.9517
  46   2.0000     -10.324635      -280.9476
  47   2.0000     -10.324160      -280.9347
  48   2.0000     -10.324008      -280.9305
  49   2.0000     -10.323902      -280.9277
  50   2.0000     -10.322530      -280.8903
  51   2.0000     -10.319305      -280.8026
  52   2.0000     -10.318492      -280.7804
  53   2.0000     -10.315662      -280.7034
  54   2.0000     -10.314220      -280.6642
  55   2.0000     -10.314052      -280.6596
  56   2.0000     -10.311453      -280.5889
  57   2.0000     -10.310865      -280.5729
  58   2.0000     -10.309110      -280.5251
  59   2.0000     -10.308113      -280.4980
  60   2.0000     -10.306578      -280.4562
  61   2.0000     -10.306070      -280.4424
  62   2.0000     -10.305622      -280.4302
  63   2.0000     -10.302011      -280.3320
  64   2.0000     -10.301220      -280.3105
  65   2.0000     -10.300906      -280.3019
  66   2.0000     -10.300774      -280.2983
  67   2.0000     -10.300323      -280.2860
  68   2.0000     -10.299988      -280.2769
  69   2.0000     -10.299034      -280.2510
  70   2.0000     -10.297541      -280.2103
  71   2.0000     -10.297430      -280.2073
  72   2.0000     -10.295213      -280.1470
  73   2.0000     -10.289538      -279.9926
  74   2.0000     -10.288605      -279.9672
  75   2.0000     -10.284266      -279.8491
  76   2.0000      -9.561420      -260.1795
  77   2.0000      -9.554613      -259.9942
  78   2.0000      -9.553865      -259.9739
  79   2.0000      -9.553043      -259.9515
  80   2.0000      -8.230566      -223.9651
  81   2.0000      -7.331709      -199.5060
  82   2.0000      -7.325023      -199.3240
  83   2.0000      -7.324262      -199.3033
  84   2.0000      -7.323517      -199.2830
  85   2.0000      -7.321813      -199.2366
  86   2.0000      -7.321006      -199.2147
  87   2.0000      -7.314806      -199.0460
  88   2.0000      -7.314200      -199.0295
  89   2.0000      -7.314147      -199.0281
  90   2.0000      -7.313292      -199.0048
  91   2.0000      -7.313229      -199.0031
  92   2.0000      -7.312529      -198.9840
  93   2.0000      -6.199566      -168.6988
  94   2.0000      -6.199493      -168.6968
  95   2.0000      -6.198829      -168.6787
  96   2.0000      -1.222973       -33.2788
  97   2.0000      -1.154050       -31.4033
  98   2.0000      -1.138440       -30.9785
  99   2.0000      -1.135778       -30.9061
 100   2.0000      -1.127591       -30.6833
 101   2.0000      -1.120534       -30.4913
 102   2.0000      -1.099126       -29.9087
 103   2.0000      -1.092542       -29.7296
 104   2.0000      -1.078692       -29.3527
 105   2.0000      -1.072210       -29.1763
 106   2.0000      -1.059282       -28.8245
 107   2.0000      -1.036615       -28.2077
 108   2.0000      -1.033054       -28.1108
 109   2.0000      -1.021810       -27.8049
 110   2.0000      -1.019591       -27.7445
 111   2.0000      -1.000866       -27.2349
 112   2.0000      -1.000448       -27.2236
 113   2.0000      -0.998548       -27.1719
 114   2.0000      -0.993368       -27.0309
 115   2.0000      -0.986987       -26.8573
 116   2.0000      -0.964591       -26.2479
 117   2.0000      -0.962805       -26.1993
 118   2.0000      -0.951652       -25.8958
 119   2.0000      -0.942266       -25.6404
 120   2.0000      -0.940910       -25.6035
 121   2.0000      -0.939044       -25.5527
 122   2.0000      -0.936081       -25.4721
 123   2.0000      -0.926688       -25.2165
 124   2.0000      -0.919918       -25.0322
 125   2.0000      -0.913957       -24.8700
 126   2.0000      -0.899553       -24.4781
 127   2.0000      -0.891577       -24.2610
 128   2.0000      -0.880353       -23.9556
 129   2.0000      -0.876808       -23.8592
 130   2.0000      -0.869537       -23.6613
 131   2.0000      -0.865295       -23.5459
 132   2.0000      -0.864056       -23.5122
 133   2.0000      -0.861779       -23.4502
 134   2.0000      -0.854719       -23.2581
 135   2.0000      -0.834450       -22.7065
 136   2.0000      -0.824230       -22.4284
 137   2.0000      -0.807487       -21.9729
 138   2.0000      -0.800832       -21.7918
 139   2.0000      -0.799914       -21.7668
 140   2.0000      -0.783001       -21.3065
 141   2.0000      -0.779081       -21.1999
 142   2.0000      -0.771628       -20.9971
 143   2.0000      -0.767491       -20.8845
 144   2.0000      -0.758909       -20.6510
 145   2.0000      -0.754048       -20.5187
 146   2.0000      -0.740752       -20.1569
 147   2.0000      -0.729180       -19.8420
 148   2.0000      -0.724895       -19.7254
 149   2.0000      -0.722914       -19.6715
 150   2.0000      -0.709279       -19.3005
 151   2.0000      -0.708990       -19.2926
 152   2.0000      -0.699874       -19.0445
 153   2.0000      -0.695858       -18.9353
 154   2.0000      -0.693200       -18.8629
 155   2.0000      -0.691453       -18.8154
 156   2.0000      -0.675932       -18.3930
 157   2.0000      -0.669726       -18.2242
 158   2.0000      -0.665798       -18.1173
 159   2.0000      -0.657702       -17.8970
 160   2.0000      -0.651396       -17.7254
 161   2.0000      -0.648971       -17.6594
 162   2.0000      -0.641012       -17.4428
 163   2.0000      -0.634406       -17.2631
 164   2.0000      -0.631507       -17.1842
 165   2.0000      -0.628579       -17.1045
 166   2.0000      -0.622086       -16.9278
 167   2.0000      -0.621394       -16.9090
 168   2.0000      -0.619910       -16.8686
 169   2.0000      -0.612667       -16.6715
 170   2.0000      -0.608284       -16.5523
 171   2.0000      -0.606488       -16.5034
 172   2.0000      -0.600707       -16.3461
 173   2.0000      -0.593864       -16.1599
 174   2.0000      -0.587823       -15.9955
 175   2.0000      -0.586008       -15.9461
 176   2.0000      -0.578587       -15.7441
 177   2.0000      -0.576036       -15.6747
 178   2.0000      -0.572684       -15.5835
 179   2.0000      -0.571940       -15.5633
 180   2.0000      -0.568216       -15.4620
 181   2.0000      -0.563911       -15.3448
 182   2.0000      -0.563151       -15.3241
 183   2.0000      -0.558915       -15.2088
 184   2.0000      -0.557585       -15.1727
 185   2.0000      -0.557206       -15.1624
 186   2.0000      -0.553028       -15.0486
 187   2.0000      -0.549323       -14.9478
 188   2.0000      -0.547826       -14.9071
 189   2.0000      -0.547366       -14.8946
 190   2.0000      -0.545657       -14.8481
 191   2.0000      -0.544107       -14.8059
 192   2.0000      -0.541788       -14.7428
 193   2.0000      -0.537994       -14.6396
 194   2.0000      -0.535682       -14.5766
 195   2.0000      -0.530860       -14.4454
 196   2.0000      -0.530145       -14.4260
 197   2.0000      -0.527014       -14.3408
 198   2.0000      -0.526150       -14.3173
 199   2.0000      -0.523223       -14.2376
 200   2.0000      -0.521972       -14.2036
 201   2.0000      -0.516944       -14.0668
 202   2.0000      -0.513840       -13.9823
 203   2.0000      -0.513003       -13.9595
 204   2.0000      -0.509030       -13.8514
 205   2.0000      -0.507992       -13.8232
 206   2.0000      -0.503800       -13.7091
 207   2.0000      -0.500310       -13.6141
 208   2.0000      -0.496565       -13.5122
 209   2.0000      -0.494487       -13.4557
 210   2.0000      -0.493941       -13.4408
 211   2.0000      -0.491246       -13.3675
 212   2.0000      -0.489289       -13.3142
 213   2.0000      -0.486610       -13.2413
 214   2.0000      -0.484900       -13.1948
 215   2.0000      -0.483740       -13.1632
 216   2.0000      -0.480491       -13.0748
 217   2.0000      -0.477543       -12.9946
 218   2.0000      -0.474721       -12.9178
 219   2.0000      -0.474127       -12.9017
 220   2.0000      -0.470789       -12.8108
 221   2.0000      -0.469624       -12.7791
 222   2.0000      -0.466295       -12.6885
 223   2.0000      -0.464476       -12.6390
 224   2.0000      -0.460255       -12.5242
 225   2.0000      -0.455714       -12.4006
 226   2.0000      -0.454870       -12.3776
 227   2.0000      -0.452665       -12.3176
 228   2.0000      -0.450514       -12.2591
 229   2.0000      -0.449309       -12.2263
 230   2.0000      -0.446675       -12.1547
 231   2.0000      -0.443129       -12.0581
 232   2.0000      -0.436103       -11.8670
 233   2.0000      -0.435873       -11.8607
 234   2.0000      -0.433589       -11.7986
 235   2.0000      -0.432253       -11.7622
 236   2.0000      -0.431057       -11.7297
 237   2.0000      -0.427136       -11.6230
 238   2.0000      -0.425615       -11.5816
 239   2.0000      -0.423063       -11.5121
 240   2.0000      -0.422662       -11.5012
 241   2.0000      -0.420381       -11.4392
 242   2.0000      -0.417348       -11.3566
 243   2.0000      -0.414292       -11.2734
 244   2.0000      -0.410056       -11.1582
 245   2.0000      -0.407289       -11.0829
 246   2.0000      -0.406115       -11.0509
 247   2.0000      -0.396143       -10.7796
 248   2.0000      -0.387924       -10.5560
 249   2.0000      -0.385784       -10.4977
 250   2.0000      -0.384275       -10.4566
 251   2.0000      -0.379609       -10.3297
 252   2.0000      -0.378860       -10.3093
 253   2.0000      -0.375027       -10.2050
 254   2.0000      -0.371134       -10.0991
 255   2.0000      -0.364644        -9.9225
 256   2.0000      -0.361362        -9.8332
 257   2.0000      -0.359431        -9.7806
 258   2.0000      -0.355787        -9.6815
 259   2.0000      -0.354104        -9.6357
 260   2.0000      -0.351419        -9.5626
 261   2.0000      -0.346099        -9.4178
 262   2.0000      -0.343778        -9.3547
 263   2.0000      -0.342424        -9.3178
 264   2.0000      -0.340480        -9.2649
 265   2.0000      -0.339090        -9.2271
 266   2.0000      -0.334308        -9.0970
 267   2.0000      -0.332874        -9.0580
 268   2.0000      -0.330754        -9.0003
 269   2.0000      -0.321808        -8.7568
 270   2.0000      -0.313674        -8.5355
 271   2.0000      -0.307805        -8.3758
 272   2.0000      -0.295824        -8.0498
 273   2.0000      -0.282014        -7.6740
 274   2.0000      -0.273950        -7.4546
 275   0.0000      -0.135986        -3.7004
 276   0.0000      -0.122859        -3.3432
 277   0.0000      -0.096348        -2.6218
 278   0.0000      -0.085608        -2.3295
 279   0.0000      -0.081726        -2.2239

MULLIKEN ATOMIC CHARGES
-----------------------
   0 C :    0.267624
   1 C :   -0.254678
   2 C :   -0.194378
   3 N :    0.173526
   4 C :   -0.179387
   5 N :    0.159214
   6 C :    0.020158
   7 C :   -0.025520
   8 C :   -0.010770
   9 C :    0.033053
  10 C :    0.070467
  11 C :   -0.005706
  12 Cl:   -0.019209
  13 Cl:   -0.016056
  14 C :    0.154016
  15 O :   -0.131525
  16 C :   -0.045526
  17 C :   -0.024952
  18 C :    0.024295
  19 N :   -0.058313
  20 C :    0.099521
  21 C :   -0.151518
  22 C :    0.215668
  23 O :   -0.143446
  24 C :   -0.003808
  25 C :   -0.039263
  26 N :   -0.048415
  27 C :    0.098108
  28 C :   -0.098209
  29 C :    0.108687
  30 C :   -0.054317
  31 C :    0.038071
  32 C :    0.016999
  33 N :   -0.023736
  34 C :    0.012467
  35 C :    0.063129
  36 C :   -0.079481
  37 S :    0.790424
  38 O :   -0.443787
  39 O :   -0.441265
  40 C :   -0.019418
  41 C :    0.054584
  42 C :    0.056253
  43 C :   -0.031877
  44 C :    0.043215
  45 N :   -0.041897
  46 C :    0.070035
  47 C :   -0.150312
  48 C :    0.216512
  49 O :   -0.133855
  50 C :   -0.019406
  51 C :   -0.029325
  52 N :   -0.055042
  53 C :    0.088051
  54 C :   -0.095316
  55 C :    0.025128
  56 C :    0.040480
  57 C :    0.000095
  58 C :   -0.011912
  59 C :   -0.063055
  60 C :    0.289914
  61 C :   -0.338545
  62 C :   -0.188489
  63 N :    0.159566
  64 C :   -0.220564
  65 N :    0.177550
  66 C :    0.034809
  67 C :   -0.008525
  68 C :    0.146568
  69 O :   -0.127874
  70 C :   -0.036077
  71 C :    0.041718
  72 C :    0.061490
  73 C :   -0.033310
  74 Cl:   -0.016918
  75 Cl:   -0.038751
  76 H :   -0.002616
  77 H :    0.007758
  78 H :    0.030739
  79 H :    0.018121
  80 H :   -0.001214
  81 H :   -0.027464
  82 H :   -0.012699
  83 H :    0.145107
  84 H :    0.012804
  85 H :    0.006523
  86 H :    0.021252
  87 H :    0.021414
  88 H :    0.010432
  89 H :   -0.004996
  90 H :    0.016700
  91 H :    0.025273
  92 H :    0.030119
  93 H :    0.008576
  94 H :   -0.003495
Sum of atomic charges:   -0.0000000

LOEWDIN ATOMIC CHARGES
----------------------
   0 C :    0.057427
   1 C :   -0.086499
   2 C :   -0.017518
   3 N :   -0.028122
   4 C :   -0.012942
   5 N :   -0.044561
   6 C :   -0.005144
   7 C :   -0.059732
   8 C :    0.001108
   9 C :   -0.140313
  10 C :   -0.119133
  11 C :   -0.008926
  12 Cl:    0.184253
  13 Cl:    0.182384
  14 C :    0.089840
  15 O :   -0.128508
  16 C :   -0.025000
  17 C :    0.035575
  18 C :    0.054564
  19 N :   -0.074518
  20 C :    0.043338
  21 C :   -0.042661
  22 C :    0.071737
  23 O :   -0.144813
  24 C :   -0.036158
  25 C :    0.038990
  26 N :   -0.091312
  27 C :    0.086484
  28 C :   -0.027801
  29 C :   -0.023474
  30 C :   -0.016301
  31 C :   -0.001668
  32 C :    0.003417
  33 N :    0.113895
  34 C :    0.021258
  35 C :   -0.089382
  36 C :   -0.215526
  37 S :    1.180400
  38 O :   -0.486605
  39 O :   -0.488312
  40 C :   -0.159363
  41 C :    0.030704
  42 C :    0.039316
  43 C :   -0.036657
  44 C :    0.074723
  45 N :   -0.107000
  46 C :    0.046214
  47 C :   -0.030856
  48 C :    0.067364
  49 O :   -0.137030
  50 C :   -0.040985
  51 C :    0.022196
  52 N :   -0.097027
  53 C :    0.073748
  54 C :   -0.035830
  55 C :   -0.025439
  56 C :    0.038195
  57 C :   -0.014639
  58 C :    0.069193
  59 C :   -0.082829
  60 C :    0.070199
  61 C :   -0.136810
  62 C :   -0.018957
  63 N :   -0.050178
  64 C :   -0.029514
  65 N :   -0.040192
  66 C :   -0.018628
  67 C :   -0.039243
  68 C :    0.087074
  69 O :   -0.120945
  70 C :    0.006717
  71 C :   -0.141914
  72 C :   -0.130476
  73 C :   -0.019340
  74 Cl:    0.184224
  75 Cl:    0.175717
  76 H :    0.044479
  77 H :    0.046826
  78 H :    0.046914
  79 H :    0.027185
  80 H :    0.036082
  81 H :    0.018636
  82 H :    0.033864
  83 H :    0.104311
  84 H :    0.030694
  85 H :    0.044759
  86 H :    0.050274
  87 H :    0.026366
  88 H :    0.023731
  89 H :    0.034595
  90 H :    0.036522
  91 H :    0.039781
  92 H :    0.045070
  93 H :    0.045773
  94 H :    0.042663

  Mayer bond orders larger than 0.100000
B(  0-C ,  1-C ) :   1.7123 B(  0-C ,  6-C ) :   0.9952 B(  0-C , 16-C ) :   1.0048
B(  1-C ,  2-C ) :   1.1349 B(  1-C ,  4-C ) :   1.1569 B(  2-C ,  3-N ) :   2.9916
B(  4-C ,  5-N ) :   2.9641 B(  6-C ,  7-C ) :   1.3271 B(  6-C , 11-C ) :   1.3417
B(  7-C ,  8-C ) :   1.3287 B(  7-C , 14-C ) :   0.9465 B(  8-C ,  9-C ) :   1.3604
B(  8-C , 76-H ) :   1.0219 B(  9-C , 10-C ) :   1.3835 B(  9-C , 13-Cl) :   1.0737
B( 10-C , 11-C ) :   1.3544 B( 10-C , 12-Cl) :   1.0864 B( 11-C , 77-H ) :   0.9866
B( 14-C , 15-O ) :   2.1833 B( 14-C , 16-C ) :   0.9293 B( 16-C , 17-C ) :   1.7116
B( 17-C , 18-C ) :   1.0620 B( 17-C , 78-H ) :   0.9215 B( 18-C , 19-N ) :   1.5517
B( 18-C , 20-C ) :   0.1159 B( 18-C , 29-C ) :   1.0216 B( 19-N , 20-C ) :   1.2837
B( 20-C , 21-C ) :   1.0549 B( 20-C , 25-C ) :   1.4423 B( 21-C , 22-C ) :   0.8994
B( 21-C , 29-C ) :   1.5252 B( 22-C , 23-O ) :   2.2025 B( 22-C , 24-C ) :   0.9201
B( 24-C , 25-C ) :   1.0597 B( 24-C , 28-C ) :   1.6168 B( 25-C , 26-N ) :   1.3050
B( 26-N , 27-C ) :   1.6648 B( 27-C , 28-C ) :   1.0530 B( 27-C , 79-H ) :   0.9886
B( 28-C , 80-H ) :   1.0113 B( 29-C , 30-C ) :   1.1240 B( 30-C , 31-C ) :   1.6582
B( 30-C , 81-H ) :   0.9407 B( 31-C , 32-C ) :   1.0865 B( 31-C , 82-H ) :   0.9645
B( 32-C , 33-N ) :   1.2218 B( 32-C , 36-C ) :   1.4892 B( 33-N , 34-C ) :   1.2470
B( 33-N , 83-H ) :   0.9275 B( 34-C , 35-C ) :   1.4061 B( 34-C , 84-H ) :   0.9880
B( 35-C , 36-C ) :   1.3408 B( 35-C , 41-C ) :   1.0556 B( 36-C , 37-S ) :   0.8172
B( 37-S , 38-O ) :   1.6598 B( 37-S , 39-O ) :   1.6346 B( 37-S , 40-C ) :   0.7873
B( 40-C , 41-C ) :   1.6349 B( 40-C , 42-C ) :   1.1619 B( 41-C , 85-H ) :   1.0001
B( 42-C , 43-C ) :   1.6090 B( 42-C , 86-H ) :   0.9958 B( 43-C , 44-C ) :   1.1703
B( 43-C , 87-H ) :   0.9251 B( 44-C , 45-N ) :   1.5930 B( 44-C , 46-C ) :   0.1116
B( 44-C , 55-C ) :   1.0108 B( 45-N , 46-C ) :   1.3635 B( 46-C , 47-C ) :   1.0509
B( 46-C , 51-C ) :   1.3992 B( 47-C , 48-C ) :   0.8906 B( 47-C , 55-C ) :   1.5583
B( 48-C , 49-O ) :   2.2193 B( 48-C , 50-C ) :   0.9217 B( 50-C , 51-C ) :   1.0662
B( 50-C , 54-C ) :   1.5981 B( 51-C , 52-N ) :   1.3208 B( 52-N , 53-C ) :   1.6472
B( 53-C , 54-C ) :   1.0769 B( 53-C , 88-H ) :   0.9890 B( 54-C , 89-H ) :   1.0112
B( 55-C , 56-C ) :   1.1537 B( 56-C , 57-C ) :   1.6913 B( 56-C , 90-H ) :   0.9329
B( 57-C , 58-C ) :   1.1371 B( 57-C , 91-H ) :   0.9385 B( 58-C , 59-C ) :   1.6370
B( 58-C , 92-H ) :   0.9345 B( 59-C , 60-C ) :   1.0823 B( 59-C , 68-C ) :   0.9217
B( 60-C , 61-C ) :   1.6389 B( 60-C , 66-C ) :   0.9943 B( 61-C , 62-C ) :   1.1509
B( 61-C , 64-C ) :   1.1407 B( 62-C , 63-N ) :   2.9293 B( 64-C , 65-N ) :   2.9559
B( 66-C , 67-C ) :   1.3237 B( 66-C , 73-C ) :   1.3210 B( 67-C , 68-C ) :   0.9310
B( 67-C , 70-C ) :   1.3515 B( 68-C , 69-O ) :   2.2368 B( 70-C , 71-C ) :   1.3147
B( 70-C , 93-H ) :   1.0109 B( 71-C , 72-C ) :   1.3846 B( 71-C , 75-Cl) :   1.0489
B( 72-C , 73-C ) :   1.3583 B( 72-C , 74-Cl) :   1.0897 B( 73-C , 94-H ) :   0.9954

-----------------------------------------------------------------------------
         ABSORPTION SPECTRUM VIA TRANSITION ELECTRIC DIPOLE MOMENTS
-----------------------------------------------------------------------------
State   Energy  Wavelength   fosc         T2         TX        TY        TZ
        (cm-1)    (nm)                  (au**2)     (au)      (au)      (au)
-----------------------------------------------------------------------------
   0   14221.0    703.2   0.082614871   1.91251   0.22810   0.06534  -1.36243
   1   17315.1    577.5   0.105215188   2.00046  -0.36102   0.00023  -1.36753
   2   18294.9    546.6   0.001305256   0.02349   0.08159   0.04330  -0.12230
   3   19277.0    518.8   0.683678862  11.67583   1.72817   1.09274  -2.73773
   4   19684.0    508.0   0.137587002   2.30112  -0.87644  -0.25788   1.21098
   5   20640.4    484.5   0.022936946   0.36584  -0.15953   0.47987  -0.33183
   6   21400.6    467.3   0.000357726   0.00550   0.00951   0.07354  -0.00216
   7   21577.3    463.4   0.054866188   0.83711   0.66635  -0.45054  -0.43600
   8   22038.2    453.8   0.045968130   0.68668  -0.01909  -0.30710   0.76942
   9   22114.1    452.2   0.425191235   6.32982   0.72317   0.29316   2.39184
  10   23359.4    428.1   0.155243550   2.18790   0.85701   0.44297  -1.12126
  11   23808.2    420.0   0.250839184   3.46853   1.71738  -0.13731  -0.70729
  12   24349.2    410.7   0.009935990   0.13434  -0.32542   0.05735   0.15859
  13   24499.1    408.2   0.063319709   0.85087   0.91848  -0.08454  -0.01084
  14   24538.1    407.5   0.011642641   0.15620   0.39398  -0.01561   0.02714
  15   24943.8    400.9   0.046989944   0.62018  -0.50251  -0.19029   0.57572
  16   25175.5    397.2   0.476170507   6.22673  -0.55540  -0.42598   2.39516
  17   25393.9    393.8   0.000175978   0.00228  -0.00079   0.00804   0.04708
  18   25654.9    389.8   0.014239419   0.18272   0.20421  -0.16191  -0.33884
  19   26571.5    376.3   0.121910608   1.51043  -1.16600   0.19846  -0.33391
  20   26729.8    374.1   0.042954109   0.52904   0.56394   0.07299   0.45351
  21   26904.7    371.7   0.042088533   0.51500  -0.24876   0.26394   0.61924
  22   26959.5    370.9   0.027469890   0.33544  -0.46242   0.02898  -0.34752
  23   27118.8    368.7   0.151252377   1.83615  -1.02164   0.01693  -0.89001
  24   27353.8    365.6   0.100252468   1.20657  -0.18941   0.36932   1.01701
  25   27725.1    360.7   0.113364969   1.34611   0.26448   0.01873   1.12952
  26   27902.6    358.4   0.035831545   0.42276  -0.23730   0.04494   0.60368
  27   28285.1    353.5   0.113787739   1.32438  -0.20589   0.08664  -1.12893
  28   28708.3    348.3   0.019355984   0.22196   0.14899  -0.29423  -0.33644
  29   28852.8    346.6   0.152187417   1.73647   0.97906   0.38395  -0.79404
  30   29434.7    339.7   0.036142952   0.40424  -0.08828  -0.37015   0.50935
  31   29459.6    339.4   0.034730901   0.38812   0.35284   0.00656  -0.51340
  32   29558.8    338.3   0.011799652   0.13142  -0.34280   0.04196   0.11020
  33   29904.4    334.4   0.002850733   0.03138  -0.16324  -0.03614   0.05857
  34   30069.1    332.6   0.051163697   0.56017  -0.34541   0.08994   0.65785
  35   30203.3    331.1   0.030224591   0.32944   0.15286   0.06543  -0.54936
  36   30374.9    329.2   0.155422081   1.68451   0.21253  -0.29349   1.24628
  37   30933.9    323.3   0.055718982   0.59299   0.69627   0.01876  -0.32838
  38   31004.0    322.5   0.017225118   0.18290  -0.11588  -0.02903   0.41065
  39   31164.9    320.9   0.053900066   0.56938  -0.00978   0.07495   0.75078
  40   31307.1    319.4   0.017737598   0.18652  -0.13632  -0.36290   0.19037
  41   31491.6    317.5   0.032400421   0.33871  -0.27816   0.45565  -0.23179
  42   31670.0    315.8   0.042965682   0.44663   0.66381   0.04182   0.06514
  43   31966.8    312.8   0.033009699   0.33995   0.32423   0.05590  -0.48136
  44   32044.3    312.1   0.010262705   0.10544   0.25919   0.07815   0.17931
  45   32314.6    309.5   0.022772199   0.23200  -0.20347  -0.21289   0.38115
  46   32491.9    307.8   0.024176450   0.24496  -0.18928  -0.19366   0.41428
  47   32684.9    306.0   0.328431647   3.30806  -1.07827  -0.25197   1.44288
  48   32844.0    304.5   0.024369251   0.24427   0.00211  -0.25836  -0.42132
  49   32962.4    303.4   0.070567137   0.70479  -0.37257  -0.13023   0.74096
  50   33102.9    302.1   0.080360700   0.79920   0.26364   0.53551  -0.66552
  51   33252.1    300.7   0.038580104   0.38196   0.59626   0.05015   0.15465
  52   33459.7    298.9   0.019407738   0.19095   0.10844  -0.18154   0.38241
  53   33564.8    297.9   0.026043848   0.25544  -0.29594  -0.17026   0.37266
  54   33757.6    296.2   0.042821862   0.41761  -0.44482  -0.25881   0.39085
  55   33832.5    295.6   0.079988591   0.77834   0.45300   0.37039  -0.66026
  56   33933.2    294.7   0.038758735   0.37603  -0.42453  -0.38552   0.21719
  57   34026.7    293.9   0.000431342   0.00417   0.04937  -0.01250  -0.03974
  58   34397.3    290.7   0.045095586   0.43160  -0.60964   0.06404   0.23631
  59   34692.6    288.2   0.087170502   0.82720   0.59272  -0.20927  -0.65733
  60   34919.0    286.4   0.005967841   0.05626   0.10808  -0.19294  -0.08576
  61   35003.8    285.7   0.248720407   2.33923  -0.94681   0.41648  -1.12664
  62   35159.8    284.4   0.062617035   0.58630   0.62938   0.27662  -0.33714
  63   35382.1    282.6   0.040391200   0.37582  -0.61098  -0.01269   0.04863
  64   35558.7    281.2   0.102148443   0.94572   0.75417   0.12481  -0.60114
  65   35623.2    280.7   0.057621445   0.53251   0.60931   0.17427  -0.36177
  66   35820.5    279.2   0.175899619   1.61662  -0.26980  -0.38931   1.17995
  67   36113.4    276.9   0.035815008   0.32649  -0.46598  -0.18837   0.27179
  68   36225.6    276.0   0.020383775   0.18524   0.33480  -0.06466  -0.26262
  69   36328.9    275.3   0.506636329   4.59113  -2.07177  -0.08435   0.54018
  70   36587.2    273.3   0.066967835   0.60258   0.63799  -0.18168   0.40316
  71   36654.6    272.8   0.015298820   0.13741   0.36937  -0.00078   0.03112
  72   36980.2    270.4   0.034726833   0.30915  -0.00352   0.19234  -0.52167
  73   37031.1    270.0   0.107325231   0.95414  -0.94920  -0.20092   0.11303
  74   37358.4    267.7   0.007566896   0.06668  -0.07832  -0.06063  -0.23848
  75   37489.4    266.7   0.011812357   0.10373  -0.25160  -0.01210   0.20070
  76   37527.7    266.5   0.052106047   0.45710   0.18805   0.01019  -0.64933
  77   37740.1    265.0   0.051132044   0.44603  -0.44604  -0.45017   0.21079
  78   37836.6    264.3   0.071080203   0.61846   0.72470  -0.11502   0.28290
  79   37913.9    263.8   0.145225852   1.26102   0.28509   0.24131  -1.05902
  80   38002.5    263.1   0.021633569   0.18741   0.37289   0.12602  -0.18022
  81   38263.8    261.3   0.001489297   0.01281   0.00920   0.01593   0.11169
  82   38356.1    260.7   0.021405847   0.18373  -0.13492   0.04000  -0.40487
  83   38454.6    260.0   0.040735865   0.34874  -0.48278   0.00020  -0.34009
  84   38512.3    259.7   0.018444993   0.15767   0.30514  -0.01220  -0.25380
  85   38625.3    258.9   0.042956943   0.36613   0.43226   0.13313  -0.40195
  86   38669.6    258.6   0.001085996   0.00925   0.08953   0.02138   0.02780
  87   38852.0    257.4   0.016866298   0.14292  -0.22751  -0.09864  -0.28535
  88   38996.1    256.4   0.058518257   0.49402  -0.65372  -0.18553   0.17958
  89   39111.8    255.7   0.094133502   0.79234  -0.77952  -0.21196   0.37386
  90   39262.2    254.7   0.007430341   0.06230  -0.16375   0.01651   0.18766
  91   39490.0    253.2   0.034022129   0.28363   0.33713  -0.17053   0.37535
  92   39526.1    253.0   0.015740991   0.13111   0.35917  -0.01472   0.04346
  93   39676.5    252.0   0.002173993   0.01804   0.04145   0.00109   0.12775
  94   39765.8    251.5   0.018768278   0.15538  -0.19482   0.07557   0.33424
  95   39797.0    251.3   0.036098293   0.29862  -0.46095  -0.01577  -0.29307
  96   39878.9    250.8   0.043536184   0.35940   0.55850  -0.16102   0.14683
  97   39903.8    250.6   0.020167037   0.16638   0.09447  -0.07090   0.39042
  98   40006.0    250.0   0.001976030   0.01626   0.12637  -0.01699  -0.00181
  99   40027.7    249.8   0.002933053   0.02412  -0.12438   0.07242   0.05837
 100   40102.3    249.4   0.007466022   0.06129  -0.03448  -0.01817   0.24448
 101   40138.2    249.1   0.041785862   0.34273   0.24208  -0.14498   0.51293
 102   40290.9    248.2   0.004062674   0.03320  -0.09943  -0.03550  -0.14849

FINAL SINGLE POINT ENERGY     -5323.596031224462

DIPOLE MOMENT
-------------
                                X             Y             Z
Electronic contribution:     34.51832      -3.38275      31.59910
Nuclear contribution   :    -39.39305       3.45842     -32.31688
                        -----------------------------------------
Total Dipole Moment    :     -4.87473       0.07567      -0.71778
                        -----------------------------------------
Magnitude (a.u.)       :      4.92787
Magnitude (Debye)      :     12.52566

Rotational constants in cm-1:     0.001076     0.000748     0.000500
Rotational constants in MHz :    32.267881    22.433514    14.995775

                             ****ORCA TERMINATED NORMALLY****
TOTAL RUN TIME: 0 days 0 hours 12 minutes 7 seconds 144 msec
