                         Program Version 4.2.0 -  RELEASE  -
|  1> # ORCA input file
|  2> # SCF done       -211.584269989378          0.000708775354
|  3> ! CAM-B3LYP def2-SVP def2/J RIJCOSX Grid4 TightSCF
|  4> %maxcore 5000
|  5> %tddft
|  6>     Mode sTDDFT
|  7>     Ethresh 5.0
|  8>     maxcore 5000
|  9> end
| 10>
| 11> %pal
| 12>   nprocs 6
| 13>   end
| 14> * xyz 0 1
| 15>    C       -2.73657         0.45541        -3.36161
| 16>    C       -2.32370         1.70006        -3.80841
| 17>    C       -1.80645         2.60310        -2.87739
| 18>    C       -1.37467         3.88007        -3.31451
| 19>    N       -1.02628         4.90961        -3.67384
| 20>    C       -1.70338         2.27052        -1.51285
| 21>    C       -1.18134         3.21175        -0.59334
| 22>    N       -0.76172         3.96012         0.16504
| 23>    C       -2.11328         1.01293        -1.06841
| 24>    C       -2.61853         0.13039        -1.99897
| 25>    C       -3.09989        -1.25072        -1.76954
| 26>    O       -3.10660        -1.81621        -0.69782
| 27>    C       -3.50733        -1.75594        -3.09751
| 28>    C       -3.32250        -0.68717        -4.06469
| 29>    C       -3.67894        -0.68527        -5.38802
| 30>    C       -3.47846         0.40794        -6.25954
| 31>    N       -3.34309         1.25741        -7.01871
| 32>    C       -4.32076        -1.73552        -6.08012
| 33>    N       -4.85662        -2.52840        -6.71472
| 34>    C       -3.91159        -3.02455        -3.43350
| 35>    C       -4.20400        -4.14787        -2.64357
| 36>    C       -4.29573        -4.34179        -1.26732
| 37>    C       -4.65449        -5.63912        -0.94349
| 38>    C       -4.84165        -6.46765        -2.07969
| 39>    S       -4.58523        -5.63486        -3.53659
| 40>    C       -5.18989        -7.76067        -1.63624
| 41>    C       -5.22740        -7.76231        -0.22815
| 42>    C       -4.89895        -6.42715         0.25172
| 43>    C       -4.84913        -6.01699         1.55087
| 44>    C       -5.10889        -6.90497         2.61709
| 45>    N       -5.31923        -7.63053         3.47964
| 46>    C       -4.55426        -4.69000         1.93456
| 47>    N       -4.33389        -3.62026         2.28075
| 48>    C       -5.56552        -9.00076         0.30486
| 49>    C       -5.78784        -9.95141        -0.68099
| 50>    S       -5.57238        -9.28999        -2.29785
| 51>    C       -6.14883       -11.31502        -0.49618
| 52>    C       -6.34325       -12.17997        -1.55050
| 53>    C       -6.69458       -13.51822        -1.42567
| 54>    C       -6.89062       -14.13340        -0.11237
| 55>    C       -6.75244       -13.47399         1.05970
| 56>    S       -6.32776       -11.81859         1.17992
| 57>    C       -7.23037       -15.48762        -0.37985
| 58>    C       -7.24578       -15.71781        -1.75978
| 59>    C       -7.58971       -17.05662        -2.05549
| 60>    C       -7.81470       -17.78073        -0.92768
| 61>    S       -7.62388       -16.88276         0.53707
| 62>    C       -6.90884       -14.48935        -2.43433
| 63>    C       -6.78983       -14.22642        -3.81149
| 64>    C       -6.91969       -15.12460        -4.82971
| 65>    C       -6.77528       -14.78591        -6.19177
| 66>    C       -6.52902       -13.53812        -6.76137
| 67>    C       -6.44094       -13.59973        -8.14272
| 68>    C       -6.61762       -14.90275        -8.65618
| 69>    S       -6.89821       -16.04483        -7.41330
| 70>    C       -6.49550       -14.85494       -10.05858
| 71>    C       -6.24950       -13.51236       -10.44165
| 72>    C       -6.19700       -12.68815        -9.25168
| 73>    C       -5.93136       -11.35079        -9.18395
| 74>    C       -5.68687       -10.59566       -10.35030
| 75>    N       -5.49630       -10.00389       -11.31369
| 76>    C       -5.88119       -10.66223        -7.95490
| 77>    N       -5.84646       -10.11691        -6.94632
| 78>    C       -6.07973       -13.36142       -11.80714
| 79>    C       -6.18163       -14.56869       -12.49155
| 80>    S       -6.53607       -15.90809       -11.39351
| 81>    C       -6.09097       -14.82783       -13.86720
| 82>    C       -5.61100       -14.03440       -14.87485
| 83>    C       -6.02399       -14.34541       -16.26650
| 84>    O       -6.58805       -15.34176       -16.65460
| 85>    C       -5.64278       -13.15421       -17.06070
| 86>    C       -5.90751       -12.88145       -18.38541
| 87>    C       -5.47798       -11.65778       -18.90314
| 88>    C       -4.80317       -10.73782       -18.07814
| 89>    C       -4.53006       -11.02984       -16.73974
| 90>    C       -4.94680       -12.24921       -16.23594
| 91>    C       -4.78750       -12.84931       -14.90775
| 92>    C       -3.82263       -12.47883       -14.00579
| 93>    C       -3.50588       -13.21562       -12.84840
| 94>    N       -3.20061       -13.80043       -11.90861
| 95>    C       -2.95933       -11.37649       -14.18255
| 96>    N       -2.23025       -10.49656       -14.28215
| 97>    C       -4.39677        -9.49183       -18.61703
| 98>    N       -4.06931        -8.48310       -19.04766
| 99>    C       -5.73016       -11.33933       -20.25924
|100>    N       -5.94527       -11.10223       -21.35874
|101>    H       -2.38332         1.99397        -4.84389
|102>    H       -2.03944         0.73593        -0.02771
|103>    H       -4.02571        -3.21603        -4.49400
|104>    H       -4.09608        -3.55709        -0.55979
|105>    H       -5.64957        -9.21759         1.35439
|106>    H       -6.20626       -11.76643        -2.54107
|107>    H       -6.90084       -13.95046         2.01582
|108>    H       -7.67623       -17.48240        -3.03768
|109>    H       -8.08918       -18.81525        -0.85975
|110>    H       -6.56013       -13.20280        -4.07143
|111>    H       -7.12875       -16.16028        -4.61352
|112>    H       -6.42348       -12.63678        -6.18733
|113>    H       -5.93857       -12.41825       -12.30254
|114>    H       -6.52524       -15.76391       -14.20641
|115>    H       -6.43314       -13.59284       -19.00409
|116>    H       -4.01796       -10.29955       -16.13323
|117> *
|118>
|119>                          ****END OF INPUT****

CARTESIAN COORDINATES (ANGSTROEM)
---------------------------------
  C     -2.736570    0.455410   -3.361610
  C     -2.323700    1.700060   -3.808410
  C     -1.806450    2.603100   -2.877390
  C     -1.374670    3.880070   -3.314510
  N     -1.026280    4.909610   -3.673840
  C     -1.703380    2.270520   -1.512850
  C     -1.181340    3.211750   -0.593340
  N     -0.761720    3.960120    0.165040
  C     -2.113280    1.012930   -1.068410
  C     -2.618530    0.130390   -1.998970
  C     -3.099890   -1.250720   -1.769540
  O     -3.106600   -1.816210   -0.697820
  C     -3.507330   -1.755940   -3.097510
  C     -3.322500   -0.687170   -4.064690
  C     -3.678940   -0.685270   -5.388020
  C     -3.478460    0.407940   -6.259540
  N     -3.343090    1.257410   -7.018710
  C     -4.320760   -1.735520   -6.080120
  N     -4.856620   -2.528400   -6.714720
  C     -3.911590   -3.024550   -3.433500
  C     -4.204000   -4.147870   -2.643570
  C     -4.295730   -4.341790   -1.267320
  C     -4.654490   -5.639120   -0.943490
  C     -4.841650   -6.467650   -2.079690
  S     -4.585230   -5.634860   -3.536590
  C     -5.189890   -7.760670   -1.636240
  C     -5.227400   -7.762310   -0.228150
  C     -4.898950   -6.427150    0.251720
  C     -4.849130   -6.016990    1.550870
  C     -5.108890   -6.904970    2.617090
  N     -5.319230   -7.630530    3.479640
  C     -4.554260   -4.690000    1.934560
  N     -4.333890   -3.620260    2.280750
  C     -5.565520   -9.000760    0.304860
  C     -5.787840   -9.951410   -0.680990
  S     -5.572380   -9.289990   -2.297850
  C     -6.148830  -11.315020   -0.496180
  C     -6.343250  -12.179970   -1.550500
  C     -6.694580  -13.518220   -1.425670
  C     -6.890620  -14.133400   -0.112370
  C     -6.752440  -13.473990    1.059700
  S     -6.327760  -11.818590    1.179920
  C     -7.230370  -15.487620   -0.379850
  C     -7.245780  -15.717810   -1.759780
  C     -7.589710  -17.056620   -2.055490
  C     -7.814700  -17.780730   -0.927680
  S     -7.623880  -16.882760    0.537070
  C     -6.908840  -14.489350   -2.434330
  C     -6.789830  -14.226420   -3.811490
  C     -6.919690  -15.124600   -4.829710
  C     -6.775280  -14.785910   -6.191770
  C     -6.529020  -13.538120   -6.761370
  C     -6.440940  -13.599730   -8.142720
  C     -6.617620  -14.902750   -8.656180
  S     -6.898210  -16.044830   -7.413300
  C     -6.495500  -14.854940  -10.058580
  C     -6.249500  -13.512360  -10.441650
  C     -6.197000  -12.688150   -9.251680
  C     -5.931360  -11.350790   -9.183950
  C     -5.686870  -10.595660  -10.350300
  N     -5.496300  -10.003890  -11.313690
  C     -5.881190  -10.662230   -7.954900
  N     -5.846460  -10.116910   -6.946320
  C     -6.079730  -13.361420  -11.807140
  C     -6.181630  -14.568690  -12.491550
  S     -6.536070  -15.908090  -11.393510
  C     -6.090970  -14.827830  -13.867200
  C     -5.611000  -14.034400  -14.874850
  C     -6.023990  -14.345410  -16.266500
  O     -6.588050  -15.341760  -16.654600
  C     -5.642780  -13.154210  -17.060700
  C     -5.907510  -12.881450  -18.385410
  C     -5.477980  -11.657780  -18.903140
  C     -4.803170  -10.737820  -18.078140
  C     -4.530060  -11.029840  -16.739740
  C     -4.946800  -12.249210  -16.235940
  C     -4.787500  -12.849310  -14.907750
  C     -3.822630  -12.478830  -14.005790
  C     -3.505880  -13.215620  -12.848400
  N     -3.200610  -13.800430  -11.908610
  C     -2.959330  -11.376490  -14.182550
  N     -2.230250  -10.496560  -14.282150
  C     -4.396770   -9.491830  -18.617030
  N     -4.069310   -8.483100  -19.047660
  C     -5.730160  -11.339330  -20.259240
  N     -5.945270  -11.102230  -21.358740
  H     -2.383320    1.993970   -4.843890
  H     -2.039440    0.735930   -0.027710
  H     -4.025710   -3.216030   -4.494000
  H     -4.096080   -3.557090   -0.559790
  H     -5.649570   -9.217590    1.354390
  H     -6.206260  -11.766430   -2.541070
  H     -6.900840  -13.950460    2.015820
  H     -7.676230  -17.482400   -3.037680
  H     -8.089180  -18.815250   -0.859750
  H     -6.560130  -13.202800   -4.071430
  H     -7.128750  -16.160280   -4.613520
  H     -6.423480  -12.636780   -6.187330
  H     -5.938570  -12.418250  -12.302540
  H     -6.525240  -15.763910  -14.206410
  H     -6.433140  -13.592840  -19.004090
  H     -4.017960  -10.299550  -16.133230

 Total Charge           Charge          ....    0
 Multiplicity           Mult            ....    1
 Number of Electrons    NEL             ....  608
 Basis Dimension        Dim             .... 1308

ORBITAL ENERGIES
----------------

  NO   OCC          E(Eh)            E(eV)
   0   2.0000     -89.013214     -2422.1727
   1   2.0000     -89.011229     -2422.1187
   2   2.0000     -89.006889     -2422.0006
   3   2.0000     -89.002870     -2421.8912
   4   2.0000     -89.002296     -2421.8756
   5   2.0000     -88.978413     -2421.2257
   6   2.0000     -19.241308      -523.5826
   7   2.0000     -19.233242      -523.3631
   8   2.0000     -14.447390      -393.1335
   9   2.0000     -14.447199      -393.1283
  10   2.0000     -14.444315      -393.0498
  11   2.0000     -14.442963      -393.0130
  12   2.0000     -14.435360      -392.8061
  13   2.0000     -14.432572      -392.7302
  14   2.0000     -14.430789      -392.6817
  15   2.0000     -14.427721      -392.5982
  16   2.0000     -14.426598      -392.5677
  17   2.0000     -14.426339      -392.5606
  18   2.0000     -14.425624      -392.5412
  19   2.0000     -14.424324      -392.5058
  20   2.0000     -10.392347      -282.7901
  21   2.0000     -10.384551      -282.5780
  22   2.0000     -10.384219      -282.5690
  23   2.0000     -10.379664      -282.4450
  24   2.0000     -10.369983      -282.1816
  25   2.0000     -10.367267      -282.1077
  26   2.0000     -10.364347      -282.0282
  27   2.0000     -10.364221      -282.0248
  28   2.0000     -10.362347      -281.9738
  29   2.0000     -10.360789      -281.9314
  30   2.0000     -10.359421      -281.8942
  31   2.0000     -10.359394      -281.8935
  32   2.0000     -10.359250      -281.8895
  33   2.0000     -10.358796      -281.8772
  34   2.0000     -10.357071      -281.8302
  35   2.0000     -10.356097      -281.8037
  36   2.0000     -10.356023      -281.8017
  37   2.0000     -10.355772      -281.7949
  38   2.0000     -10.353023      -281.7201
  39   2.0000     -10.353000      -281.7194
  40   2.0000     -10.348131      -281.5870
  41   2.0000     -10.347137      -281.5599
  42   2.0000     -10.346261      -281.5361
  43   2.0000     -10.344462      -281.4871
  44   2.0000     -10.344399      -281.4854
  45   2.0000     -10.343576      -281.4630
  46   2.0000     -10.341523      -281.4072
  47   2.0000     -10.341307      -281.4013
  48   2.0000     -10.339497      -281.3520
  49   2.0000     -10.339487      -281.3518
  50   2.0000     -10.337802      -281.3059
  51   2.0000     -10.337169      -281.2887
  52   2.0000     -10.337073      -281.2860
  53   2.0000     -10.333201      -281.1807
  54   2.0000     -10.333006      -281.1754
  55   2.0000     -10.332995      -281.1751
  56   2.0000     -10.332660      -281.1660
  57   2.0000     -10.331348      -281.1303
  58   2.0000     -10.331124      -281.1242
  59   2.0000     -10.330697      -281.1126
  60   2.0000     -10.328250      -281.0460
  61   2.0000     -10.327548      -281.0269
  62   2.0000     -10.326906      -281.0094
  63   2.0000     -10.324536      -280.9449
  64   2.0000     -10.324299      -280.9385
  65   2.0000     -10.324254      -280.9372
  66   2.0000     -10.324190      -280.9355
  67   2.0000     -10.324142      -280.9342
  68   2.0000     -10.323089      -280.9055
  69   2.0000     -10.322688      -280.8946
  70   2.0000     -10.322615      -280.8926
  71   2.0000     -10.322341      -280.8852
  72   2.0000     -10.322164      -280.8803
  73   2.0000     -10.320652      -280.8392
  74   2.0000     -10.319654      -280.8121
  75   2.0000     -10.318316      -280.7757
  76   2.0000     -10.317379      -280.7502
  77   2.0000     -10.314353      -280.6678
  78   2.0000     -10.313202      -280.6365
  79   2.0000     -10.311843      -280.5995
  80   2.0000     -10.311163      -280.5810
  81   2.0000     -10.309916      -280.5471
  82   2.0000     -10.305723      -280.4330
  83   2.0000     -10.303219      -280.3648
  84   2.0000     -10.298994      -280.2499
  85   2.0000     -10.296944      -280.1941
  86   2.0000      -8.107312      -220.6112
  87   2.0000      -8.105909      -220.5730
  88   2.0000      -8.101630      -220.4566
  89   2.0000      -8.097485      -220.3438
  90   2.0000      -8.097445      -220.3427
  91   2.0000      -8.073936      -219.7030
  92   2.0000      -6.076666      -165.3545
  93   2.0000      -6.075008      -165.3094
  94   2.0000      -6.072475      -165.2404
  95   2.0000      -6.070864      -165.1966
  96   2.0000      -6.070802      -165.1949
  97   2.0000      -6.069520      -165.1600
  98   2.0000      -6.068440      -165.1306
  99   2.0000      -6.067058      -165.0930
 100   2.0000      -6.066721      -165.0839
 101   2.0000      -6.066698      -165.0832
 102   2.0000      -6.064028      -165.0106
 103   2.0000      -6.062600      -164.9717
 104   2.0000      -6.062428      -164.9671
 105   2.0000      -6.059850      -164.8969
 106   2.0000      -6.059289      -164.8816
 107   2.0000      -6.043352      -164.4480
 108   2.0000      -6.039058      -164.3311
 109   2.0000      -6.036005      -164.2481
 110   2.0000      -1.157081       -31.4858
 111   2.0000      -1.148832       -31.2613
 112   2.0000      -1.067268       -29.0418
 113   2.0000      -1.061306       -28.8796
 114   2.0000      -1.043615       -28.3982
 115   2.0000      -1.040669       -28.3180
 116   2.0000      -1.038441       -28.2574
 117   2.0000      -1.037134       -28.2218
 118   2.0000      -1.033014       -28.1097
 119   2.0000      -1.029524       -28.0148
 120   2.0000      -1.026555       -27.9340
 121   2.0000      -1.023274       -27.8447
 122   2.0000      -1.022940       -27.8356
 123   2.0000      -1.020809       -27.7776
 124   2.0000      -1.013882       -27.5891
 125   2.0000      -1.012505       -27.5516
 126   2.0000      -1.010287       -27.4913
 127   2.0000      -1.009651       -27.4740
 128   2.0000      -1.006230       -27.3809
 129   2.0000      -1.005828       -27.3700
 130   2.0000      -1.004276       -27.3278
 131   2.0000      -0.997054       -27.1312
 132   2.0000      -0.980976       -26.6937
 133   2.0000      -0.979301       -26.6481
 134   2.0000      -0.975629       -26.5482
 135   2.0000      -0.973345       -26.4861
 136   2.0000      -0.954053       -25.9611
 137   2.0000      -0.941239       -25.6124
 138   2.0000      -0.936750       -25.4903
 139   2.0000      -0.927199       -25.2304
 140   2.0000      -0.923945       -25.1418
 141   2.0000      -0.921452       -25.0740
 142   2.0000      -0.912827       -24.8393
 143   2.0000      -0.905333       -24.6354
 144   2.0000      -0.902664       -24.5627
 145   2.0000      -0.901287       -24.5253
 146   2.0000      -0.898356       -24.4455
 147   2.0000      -0.889295       -24.1989
 148   2.0000      -0.882097       -24.0031
 149   2.0000      -0.877332       -23.8734
 150   2.0000      -0.872150       -23.7324
 151   2.0000      -0.863821       -23.5058
 152   2.0000      -0.855941       -23.2913
 153   2.0000      -0.844812       -22.9885
 154   2.0000      -0.835882       -22.7455
 155   2.0000      -0.824061       -22.4238
 156   2.0000      -0.810411       -22.0524
 157   2.0000      -0.807033       -21.9605
 158   2.0000      -0.802393       -21.8342
 159   2.0000      -0.798340       -21.7239
 160   2.0000      -0.793280       -21.5863
 161   2.0000      -0.784166       -21.3383
 162   2.0000      -0.765981       -20.8434
 163   2.0000      -0.759816       -20.6756
 164   2.0000      -0.752041       -20.4641
 165   2.0000      -0.750355       -20.4182
 166   2.0000      -0.737743       -20.0750
 167   2.0000      -0.734308       -19.9815
 168   2.0000      -0.721159       -19.6237
 169   2.0000      -0.716656       -19.5012
 170   2.0000      -0.710893       -19.3444
 171   2.0000      -0.709861       -19.3163
 172   2.0000      -0.706337       -19.2204
 173   2.0000      -0.702285       -19.1102
 174   2.0000      -0.697265       -18.9736
 175   2.0000      -0.688784       -18.7428
 176   2.0000      -0.687186       -18.6993
 177   2.0000      -0.684164       -18.6170
 178   2.0000      -0.676906       -18.4195
 179   2.0000      -0.668859       -18.2006
 180   2.0000      -0.664622       -18.0853
 181   2.0000      -0.658011       -17.9054
 182   2.0000      -0.654635       -17.8135
 183   2.0000      -0.653727       -17.7888
 184   2.0000      -0.650976       -17.7140
 185   2.0000      -0.648961       -17.6591
 186   2.0000      -0.640228       -17.4215
 187   2.0000      -0.636058       -17.3080
 188   2.0000      -0.633236       -17.2312
 189   2.0000      -0.622806       -16.9474
 190   2.0000      -0.618728       -16.8364
 191   2.0000      -0.615434       -16.7468
 192   2.0000      -0.612500       -16.6670
 193   2.0000      -0.607417       -16.5287
 194   2.0000      -0.599403       -16.3106
 195   2.0000      -0.597305       -16.2535
 196   2.0000      -0.591361       -16.0917
 197   2.0000      -0.587464       -15.9857
 198   2.0000      -0.584319       -15.9001
 199   2.0000      -0.577791       -15.7225
 200   2.0000      -0.569650       -15.5010
 201   2.0000      -0.569446       -15.4954
 202   2.0000      -0.567551       -15.4438
 203   2.0000      -0.565793       -15.3960
 204   2.0000      -0.563945       -15.3457
 205   2.0000      -0.563265       -15.3272
 206   2.0000      -0.560366       -15.2483
 207   2.0000      -0.558068       -15.1858
 208   2.0000      -0.556218       -15.1355
 209   2.0000      -0.554069       -15.0770
 210   2.0000      -0.542433       -14.7604
 211   2.0000      -0.539422       -14.6784
 212   2.0000      -0.538597       -14.6560
 213   2.0000      -0.536467       -14.5980
 214   2.0000      -0.534084       -14.5332
 215   2.0000      -0.530706       -14.4412
 216   2.0000      -0.529550       -14.4098
 217   2.0000      -0.527538       -14.3550
 218   2.0000      -0.526585       -14.3291
 219   2.0000      -0.525213       -14.2918
 220   2.0000      -0.522130       -14.2079
 221   2.0000      -0.521060       -14.1788
 222   2.0000      -0.518646       -14.1131
 223   2.0000      -0.516901       -14.0656
 224   2.0000      -0.514639       -14.0040
 225   2.0000      -0.512569       -13.9477
 226   2.0000      -0.511472       -13.9179
 227   2.0000      -0.510655       -13.8956
 228   2.0000      -0.509899       -13.8751
 229   2.0000      -0.505058       -13.7433
 230   2.0000      -0.501192       -13.6381
 231   2.0000      -0.494615       -13.4592
 232   2.0000      -0.491907       -13.3855
 233   2.0000      -0.490332       -13.3426
 234   2.0000      -0.487748       -13.2723
 235   2.0000      -0.484668       -13.1885
 236   2.0000      -0.483485       -13.1563
 237   2.0000      -0.478385       -13.0175
 238   2.0000      -0.476700       -12.9717
 239   2.0000      -0.476127       -12.9561
 240   2.0000      -0.474068       -12.9001
 241   2.0000      -0.472799       -12.8655
 242   2.0000      -0.469040       -12.7632
 243   2.0000      -0.467196       -12.7131
 244   2.0000      -0.465079       -12.6554
 245   2.0000      -0.464230       -12.6323
 246   2.0000      -0.462728       -12.5915
 247   2.0000      -0.461426       -12.5560
 248   2.0000      -0.460595       -12.5334
 249   2.0000      -0.459168       -12.4946
 250   2.0000      -0.457998       -12.4628
 251   2.0000      -0.457749       -12.4560
 252   2.0000      -0.457703       -12.4547
 253   2.0000      -0.456549       -12.4233
 254   2.0000      -0.455778       -12.4024
 255   2.0000      -0.454412       -12.3652
 256   2.0000      -0.453316       -12.3353
 257   2.0000      -0.453284       -12.3345
 258   2.0000      -0.453065       -12.3285
 259   2.0000      -0.452762       -12.3203
 260   2.0000      -0.451673       -12.2906
 261   2.0000      -0.451251       -12.2792
 262   2.0000      -0.450660       -12.2631
 263   2.0000      -0.449708       -12.2372
 264   2.0000      -0.449356       -12.2276
 265   2.0000      -0.448589       -12.2067
 266   2.0000      -0.445037       -12.1101
 267   2.0000      -0.443807       -12.0766
 268   2.0000      -0.442718       -12.0470
 269   2.0000      -0.442119       -12.0307
 270   2.0000      -0.441316       -12.0088
 271   2.0000      -0.439931       -11.9711
 272   2.0000      -0.439805       -11.9677
 273   2.0000      -0.435813       -11.8591
 274   2.0000      -0.435326       -11.8458
 275   2.0000      -0.433740       -11.8027
 276   2.0000      -0.431721       -11.7477
 277   2.0000      -0.426860       -11.6154
 278   2.0000      -0.425778       -11.5860
 279   2.0000      -0.424909       -11.5624
 280   2.0000      -0.423819       -11.5327
 281   2.0000      -0.422965       -11.5095
 282   2.0000      -0.418418       -11.3857
 283   2.0000      -0.417770       -11.3681
 284   2.0000      -0.404198       -10.9988
 285   2.0000      -0.396092       -10.7782
 286   2.0000      -0.386493       -10.5170
 287   2.0000      -0.371929       -10.1207
 288   2.0000      -0.369797       -10.0627
 289   2.0000      -0.366359        -9.9691
 290   2.0000      -0.363607        -9.8943
 291   2.0000      -0.363184        -9.8827
 292   2.0000      -0.362187        -9.8556
 293   2.0000      -0.356778        -9.7084
 294   2.0000      -0.355479        -9.6731
 295   2.0000      -0.341894        -9.3034
 296   2.0000      -0.341111        -9.2821
 297   2.0000      -0.338417        -9.2088
 298   2.0000      -0.336213        -9.1488
 299   2.0000      -0.329219        -8.9585
 300   2.0000      -0.308478        -8.3941
 301   2.0000      -0.296726        -8.0743
 302   2.0000      -0.279280        -7.5996
 303   2.0000      -0.242832        -6.6078
 304   0.0000      -0.134145        -3.6503
 305   0.0000      -0.124455        -3.3866
 306   0.0000      -0.109562        -2.9813
 307   0.0000      -0.105561        -2.8724
 308   0.0000      -0.096035        -2.6132

MULLIKEN ATOMIC CHARGES
-----------------------
   0 C :    0.047846
   1 C :   -0.043174
   2 C :   -0.064482
   3 C :   -0.174408
   4 N :    0.206293
   5 C :   -0.063588
   6 C :   -0.171642
   7 N :    0.197010
   8 C :   -0.036269
   9 C :    0.000062
  10 C :    0.160176
  11 O :   -0.138903
  12 C :   -0.093682
  13 C :    0.313241
  14 C :   -0.346290
  15 C :   -0.185945
  16 N :    0.167717
  17 C :   -0.189867
  18 N :    0.165878
  19 C :    0.044717
  20 C :   -0.120271
  21 C :   -0.003019
  22 C :   -0.009629
  23 C :   -0.071793
  24 S :    0.223284
  25 C :   -0.101082
  26 C :    0.034078
  27 C :    0.308368
  28 C :   -0.290247
  29 C :   -0.189541
  30 N :    0.174948
  31 C :   -0.189352
  32 N :    0.201181
  33 C :   -0.064334
  34 C :   -0.054662
  35 S :    0.196719
  36 C :   -0.021775
  37 C :   -0.091389
  38 C :    0.062279
  39 C :    0.059672
  40 C :   -0.113126
  41 S :    0.147791
  42 C :   -0.111073
  43 C :    0.056378
  44 C :   -0.011545
  45 C :   -0.061035
  46 S :    0.143925
  47 C :    0.100115
  48 C :   -0.009728
  49 C :    0.036179
  50 C :   -0.060313
  51 C :   -0.048715
  52 C :    0.023951
  53 C :   -0.117066
  54 S :    0.196428
  55 C :   -0.061825
  56 C :   -0.013063
  57 C :    0.308490
  58 C :   -0.283937
  59 C :   -0.183372
  60 N :    0.172267
  61 C :   -0.170842
  62 N :    0.152127
  63 C :    0.004521
  64 C :   -0.113473
  65 S :    0.212493
  66 C :    0.090345
  67 C :   -0.148575
  68 C :    0.137641
  69 O :   -0.134148
  70 C :    0.014556
  71 C :   -0.038703
  72 C :   -0.069788
  73 C :   -0.065789
  74 C :   -0.036549
  75 C :    0.029361
  76 C :    0.268274
  77 C :   -0.320296
  78 C :   -0.204727
  79 N :    0.174151
  80 C :   -0.174328
  81 N :    0.173814
  82 C :   -0.173409
  83 N :    0.203579
  84 C :   -0.171465
  85 N :    0.195463
  86 H :    0.021820
  87 H :    0.019330
  88 H :    0.011945
  89 H :    0.042401
  90 H :    0.026880
  91 H :    0.000338
  92 H :    0.045070
  93 H :   -0.010825
  94 H :    0.031775
  95 H :   -0.033918
  96 H :   -0.043655
  97 H :    0.003108
  98 H :    0.024755
  99 H :    0.023516
 100 H :    0.016224
 101 H :    0.028149
Sum of atomic charges:   -0.0000000

LOEWDIN ATOMIC CHARGES
----------------------
   0 C :    0.001643
   1 C :    0.034120
   2 C :   -0.023951
   3 C :   -0.031753
   4 N :   -0.010759
   5 C :   -0.028018
   6 C :   -0.031660
   7 N :   -0.013162
   8 C :    0.049362
   9 C :   -0.028499
  10 C :    0.086371
  11 O :   -0.126130
  12 C :   -0.106023
  13 C :    0.069974
  14 C :   -0.127753
  15 C :   -0.021811
  16 N :   -0.035386
  17 C :   -0.024129
  18 N :   -0.037856
  19 C :    0.049459
  20 C :   -0.178303
  21 C :    0.022633
  22 C :   -0.074652
  23 C :   -0.151067
  24 S :    0.507398
  25 C :   -0.190802
  26 C :   -0.045376
  27 C :    0.073160
  28 C :   -0.088000
  29 C :   -0.014767
  30 N :   -0.026663
  31 C :   -0.023686
  32 N :   -0.008539
  33 C :   -0.041883
  34 C :   -0.165140
  35 S :    0.494044
  36 C :   -0.181621
  37 C :   -0.023338
  38 C :   -0.011160
  39 C :   -0.049676
  40 C :   -0.132808
  41 S :    0.476528
  42 C :   -0.196974
  43 C :   -0.037064
  44 C :   -0.066038
  45 C :   -0.159287
  46 S :    0.436699
  47 C :   -0.046855
  48 C :    0.006487
  49 C :   -0.065600
  50 C :   -0.136920
  51 C :   -0.038819
  52 C :   -0.043028
  53 C :   -0.207754
  54 S :    0.477888
  55 C :   -0.141580
  56 C :   -0.074905
  57 C :    0.084012
  58 C :   -0.098922
  59 C :   -0.013674
  60 N :   -0.028545
  61 C :   -0.009597
  62 N :   -0.042383
  63 C :    0.020510
  64 C :   -0.188423
  65 S :    0.495347
  66 C :    0.050681
  67 C :   -0.109292
  68 C :    0.081614
  69 O :   -0.135421
  70 C :   -0.031201
  71 C :    0.047634
  72 C :   -0.030521
  73 C :   -0.023276
  74 C :    0.032965
  75 C :    0.006068
  76 C :    0.059336
  77 C :   -0.129607
  78 C :   -0.014671
  79 N :   -0.038547
  80 C :   -0.023605
  81 N :   -0.033955
  82 C :   -0.031339
  83 N :   -0.011183
  84 C :   -0.031759
  85 N :   -0.015846
  86 H :    0.052527
  87 H :    0.055271
  88 H :    0.044283
  89 H :    0.043867
  90 H :    0.036521
  91 H :    0.028490
  92 H :    0.040996
  93 H :    0.029051
  94 H :    0.026611
  95 H :    0.028695
  96 H :    0.026130
  97 H :    0.036371
  98 H :    0.043251
  99 H :    0.047170
 100 H :    0.053897
 101 H :    0.053900

  Mayer bond orders larger than 0.100000
B(  0-C ,  1-C ) :   1.3556 B(  0-C ,  9-C ) :   1.3389 B(  0-C , 13-C ) :   0.9524
B(  1-C ,  2-C ) :   1.3921 B(  1-C , 86-H ) :   0.9864 B(  2-C ,  3-C ) :   1.0881
B(  2-C ,  5-C ) :   1.4061 B(  3-C ,  4-N ) :   3.0448 B(  5-C ,  6-C ) :   1.0843
B(  5-C ,  8-C ) :   1.3563 B(  6-C ,  7-N ) :   3.0435 B(  8-C ,  9-C ) :   1.3641
B(  8-C , 87-H ) :   1.0166 B(  9-C , 10-C ) :   0.9340 B( 10-C , 11-O ) :   2.1739
B( 10-C , 12-C ) :   0.9500 B( 12-C , 13-C ) :   1.0976 B( 12-C , 19-C ) :   1.5553
B( 13-C , 14-C ) :   1.6351 B( 14-C , 15-C ) :   1.1503 B( 14-C , 17-C ) :   1.1416
B( 15-C , 16-N ) :   2.9599 B( 17-C , 18-N ) :   2.9699 B( 19-C , 20-C ) :   1.2528
B( 19-C , 88-H ) :   0.9091 B( 20-C , 21-C ) :   1.3716 B( 20-C , 24-S ) :   1.0686
B( 21-C , 22-C ) :   1.3338 B( 21-C , 89-H ) :   0.9683 B( 22-C , 23-C ) :   1.3573
B( 22-C , 27-C ) :   0.9974 B( 23-C , 24-S ) :   1.1764 B( 23-C , 25-C ) :   1.2168
B( 25-C , 26-C ) :   1.4252 B( 25-C , 35-S ) :   1.1118 B( 26-C , 27-C ) :   0.9946
B( 26-C , 33-C ) :   1.3218 B( 27-C , 28-C ) :   1.7194 B( 28-C , 29-C ) :   1.1361
B( 28-C , 31-C ) :   1.1347 B( 29-C , 30-N ) :   2.9838 B( 31-C , 32-N ) :   2.9971
B( 33-C , 34-C ) :   1.4313 B( 33-C , 90-H ) :   0.9788 B( 34-C , 35-S ) :   1.1203
B( 34-C , 36-C ) :   1.1770 B( 36-C , 37-C ) :   1.5057 B( 36-C , 41-S ) :   1.0626
B( 37-C , 38-C ) :   1.2725 B( 37-C , 91-H ) :   0.9598 B( 38-C , 39-C ) :   1.0562
B( 38-C , 47-C ) :   1.3441 B( 39-C , 40-C ) :   1.5984 B( 39-C , 42-C ) :   1.1800
B( 40-C , 41-S ) :   1.1466 B( 40-C , 92-H ) :   0.9411 B( 42-C , 43-C ) :   1.4464
B( 42-C , 46-S ) :   1.0860 B( 43-C , 44-C ) :   1.2111 B( 43-C , 47-C ) :   1.0744
B( 44-C , 45-C ) :   1.5897 B( 44-C , 93-H ) :   1.0018 B( 45-C , 46-S ) :   1.1591
B( 45-C , 94-H ) :   0.9641 B( 47-C , 48-C ) :   1.2115 B( 48-C , 49-C ) :   1.5995
B( 48-C , 95-H ) :   0.9545 B( 49-C , 50-C ) :   1.1494 B( 49-C , 96-H ) :   0.9671
B( 50-C , 51-C ) :   1.4030 B( 50-C , 54-S ) :   1.1271 B( 51-C , 52-C ) :   1.3363
B( 51-C , 97-H ) :   0.9868 B( 52-C , 53-C ) :   1.4053 B( 52-C , 57-C ) :   0.9952
B( 53-C , 54-S ) :   1.0895 B( 53-C , 55-C ) :   1.2389 B( 55-C , 56-C ) :   1.3669
B( 55-C , 65-S ) :   1.1668 B( 56-C , 57-C ) :   1.0079 B( 56-C , 63-C ) :   1.3883
B( 57-C , 58-C ) :   1.7108 B( 58-C , 59-C ) :   1.1323 B( 58-C , 61-C ) :   1.1358
B( 59-C , 60-N ) :   2.9822 B( 61-C , 62-N ) :   2.9727 B( 63-C , 64-C ) :   1.3539
B( 63-C , 98-H ) :   0.9776 B( 64-C , 65-S ) :   1.0647 B( 64-C , 66-C ) :   1.1971
B( 66-C , 67-C ) :   1.5996 B( 66-C , 99-H ) :   0.9262 B( 67-C , 68-C ) :   0.9635
B( 67-C , 76-C ) :   1.0642 B( 68-C , 69-O ) :   2.2687 B( 68-C , 70-C ) :   0.8987
B( 70-C , 71-C ) :   1.3726 B( 70-C , 75-C ) :   1.3347 B( 71-C , 72-C ) :   1.3618
B( 71-C ,100-H ) :   1.0146 B( 72-C , 73-C ) :   1.4053 B( 72-C , 84-C ) :   1.0871
B( 73-C , 74-C ) :   1.3855 B( 73-C , 82-C ) :   1.0871 B( 74-C , 75-C ) :   1.3670
B( 74-C ,101-H ) :   0.9893 B( 75-C , 76-C ) :   0.9704 B( 76-C , 77-C ) :   1.6463
B( 77-C , 78-C ) :   1.1768 B( 77-C , 80-C ) :   1.1280 B( 78-C , 79-N ) :   2.9909
B( 80-C , 81-N ) :   2.9870 B( 82-C , 83-N ) :   3.0447 B( 84-C , 85-N ) :   3.0454

-----------------------------------------------------------------------------
         ABSORPTION SPECTRUM VIA TRANSITION ELECTRIC DIPOLE MOMENTS
-----------------------------------------------------------------------------
State   Energy  Wavelength   fosc         T2         TX        TY        TZ
        (cm-1)    (nm)                  (au**2)     (au)      (au)      (au)
-----------------------------------------------------------------------------
   0    9368.1   1067.5   0.466741492  16.40218   0.22085   2.23595   3.36956
   1   11016.4    907.7   0.249842424   7.46623   0.71989   2.45660  -0.95556
   2   15774.7    633.9   0.663683124  13.85085  -0.36116   1.09686   3.53798
   3   16707.5    598.5   0.016621177   0.32751   0.02592  -0.52916  -0.21640
   4   18075.9    553.2   1.031043902  18.77820  -1.41503  -3.70676   1.74237
   5   19142.7    522.4   0.052102031   0.89604  -0.01190   0.84763  -0.42121
   6   20302.8    492.5   0.296676540   4.81065  -0.10539   0.03015  -2.19058
   7   21812.9    458.4   0.303235123   4.57658  -0.24556  -0.62824   2.03017
   8   22252.2    449.4   0.209795603   3.10384   0.58919   1.61573  -0.38224
   9   22882.8    437.0   0.293896926   4.22825   0.38517   1.39686  -1.45900
  10   23865.9    419.0   0.011374955   0.15691  -0.12477   0.22534  -0.30094
  11   24053.9    415.7   0.107368858   1.46949  -0.05182  -0.96366   0.73360
  12   24649.6    405.7   0.021537772   0.28765   0.39943   0.34622  -0.09077
  13   24696.3    404.9   0.132282948   1.76338   0.32488  -0.15757  -1.27789
  14   25828.0    387.2   0.018936321   0.24137  -0.32064  -0.30528  -0.21299
  15   26962.3    370.9   0.060263795   0.73583   0.29050   0.80680  -0.02245
  16   27728.7    360.6   0.118117338   1.40236  -0.16024  -0.17678  -1.15993
  17   28367.9    352.5   0.030067415   0.34894  -0.28905  -0.37246  -0.35589
  18   28667.2    348.8   0.005457453   0.06267   0.12259  -0.20103   0.08504
  19   28916.8    345.8   0.027184980   0.30950   0.09722   0.52532  -0.15520
  20   29136.5    343.2   0.039253568   0.44352  -0.28375  -0.29162  -0.52723
  21   29603.7    337.8   0.361349231   4.01843   0.27135   1.88999   0.61053
  22   29739.2    336.3   0.119588005   1.32383  -0.13420  -0.29668  -1.10354
  23   29903.1    334.4   0.147785571   1.62701  -0.42364  -1.15251   0.34533
  24   30456.9    328.3   0.039005165   0.42161   0.33463   0.42558  -0.35849
  25   30637.7    326.4   0.024074544   0.25869   0.21293  -0.05503   0.45861
  26   30878.5    323.8   0.351039691   3.74262  -0.10576   0.23585  -1.91724
  27   31176.0    320.8   0.210815360   2.22616   0.26612   0.29483  -1.43820
  28   31407.2    318.4   0.011341477   0.11888   0.33329  -0.05572   0.06851
  29   31479.0    317.7   0.192642926   2.01469  -0.14696   0.10368  -1.40796
  30   31697.8    315.5   0.039581215   0.41109   0.12873   0.47695   0.40870
  31   32026.9    312.2   0.165201562   1.69815   0.39820   0.56080   1.10684
  32   32234.3    310.2   0.279751998   2.85714  -0.28532  -1.61854   0.39506
  33   32462.5    308.0   0.098028531   0.99414  -0.09190  -0.00447   0.99281
  34   32835.3    304.6   0.035664439   0.35758   0.35316   0.44374  -0.18962
  35   33025.6    302.8   0.147199003   1.46734   0.20477   1.14241   0.34685
  36   33547.4    298.1   0.018651130   0.18303  -0.04604   0.16674  -0.39129
  37   33735.2    296.4   0.192743727   1.88093   0.63052   1.12287   0.47175
  38   34020.1    293.9   0.336850508   3.25969  -0.44309  -1.42306  -1.01895
  39   34160.3    292.7   0.204089798   1.96687  -0.06895  -1.20001  -0.72257
  40   34308.9    291.5   0.047697304   0.45768   0.34315   0.12696   0.56904
  41   34685.1    288.3   0.006962474   0.06608   0.07179  -0.23997  -0.05785
  42   34862.4    286.8   0.241269484   2.27835  -0.03007  -0.97616   1.15089
  43   34936.0    286.2   0.395348617   3.72548  -0.60001  -1.38033  -1.20837
  44   35022.2    285.5   0.426037468   4.00479   0.78089   0.00997   1.84253
  45   35213.7    284.0   0.088833241   0.83050  -0.12770   0.05020  -0.90093
  46   35423.1    282.3   0.015025341   0.13964   0.27199   0.16460   0.19639
  47   35609.3    280.8   0.082427907   0.76206   0.17077   0.65342   0.55311
  48   35755.0    279.7   0.131118333   1.20726  -0.10699  -0.68959   0.84869
  49   35858.3    278.9   0.112359585   1.03156   0.57058   0.69104   0.47799
  50   35985.7    277.9   0.031592883   0.28902   0.02899  -0.36677   0.39200
  51   36398.5    274.7   0.008841949   0.07997  -0.00453  -0.25817  -0.11533
  52   36558.7    273.5   0.014385370   0.12954  -0.08511  -0.34878  -0.02552
  53   36883.8    271.1   0.085606836   0.76410   0.04266  -0.06107   0.87095
  54   36987.6    270.4   0.076537996   0.68124  -0.21391  -0.76763   0.21500
  55   37041.5    270.0   0.080882518   0.71886   0.29954   0.11809   0.78434
  56   37627.8    265.8   0.011041139   0.09660  -0.03239  -0.07254  -0.30048
  57   37717.0    265.1   0.004213981   0.03678  -0.07034  -0.17628  -0.02756
  58   37845.8    264.2   0.002493452   0.02169  -0.05049  -0.13823   0.00565
  59   38016.9    263.0   0.031611867   0.27375   0.02873   0.02534   0.52180
  60   38403.3    260.4   0.017880270   0.15328   0.12866   0.35974  -0.08550
  61   38506.2    259.7   0.138323025   1.18260   0.21186   0.91357  -0.55056
  62   38648.7    258.7   0.017365673   0.14792  -0.06139  -0.22132  -0.30850
  63   38999.0    256.4   0.197168325   1.66441  -0.46580   0.12584  -1.19650
  64   39161.8    255.4   0.062475744   0.52520  -0.11329   0.27834  -0.65946
  65   39336.0    254.2   0.083112517   0.69559   0.34573   0.66084   0.37329
  66   39498.1    253.2   0.069201331   0.57678  -0.20669  -0.48271   0.54869
  67   39570.6    252.7   0.016931990   0.14087  -0.26547  -0.18050  -0.19446
  68   39973.4    250.2   0.006584640   0.05423  -0.00488  -0.22788   0.04772
  69   39981.5    250.1   0.001147184   0.00945  -0.01849   0.04390   0.08472
  70   40224.7    248.6   0.105806149   0.86595   0.21134   0.89726   0.12732

FINAL SINGLE POINT ENERGY     -5715.998888909287

DIPOLE MOMENT
-------------
                                X             Y             Z
Electronic contribution:      4.95181      13.68195      -5.46019
Nuclear contribution   :     -8.01730     -21.62020      10.08799
                        -----------------------------------------
Total Dipole Moment    :     -3.06549      -7.93825       4.62779
                        -----------------------------------------
Magnitude (a.u.)       :      9.68656
Magnitude (Debye)      :     24.62128

Rotational constants in cm-1:     0.000504     0.000261     0.000174
Rotational constants in MHz :    15.096548     7.818617     5.209333

                             ****ORCA TERMINATED NORMALLY****
TOTAL RUN TIME: 0 days 0 hours 13 minutes 27 seconds 666 msec
