                         Program Version 4.2.0 -  RELEASE  -
|  1> # ORCA input file
|  2> # SCF done       -163.206963977615          0.000678952408
|  3> ! CAM-B3LYP def2-SVP def2/J RIJCOSX Grid4 TightSCF
|  4> %maxcore 5000
|  5> %tddft
|  6>     Mode sTDDFT
|  7>     Ethresh 5.0
|  8>     maxcore 5000
|  9> end
| 10>
| 11> %pal
| 12>   nprocs 6
| 13>   end
| 14> * xyz 0 1
| 15>    C        0.30733        -0.79880        -0.51144
| 16>    C       -0.90220        -0.24885        -0.18997
| 17>    F       -1.90765        -1.04812         0.20988
| 18>    C       -1.14344         1.13018        -0.25973
| 19>    C       -0.13357         1.95862        -0.66302
| 20>    C        1.13411         1.44535        -1.00655
| 21>    C        1.35837         0.03934        -0.93204
| 22>    C        2.61686        -0.50099        -1.28436
| 23>    C        3.61648         0.33868        -1.69572
| 24>    C        3.39258         1.74516        -1.74927
| 25>    C        2.18599         2.29287        -1.42021
| 26>    C        4.63110         2.41962        -2.18065
| 27>    O        4.80605         3.59709        -2.39029
| 28>    C        5.65966         1.33878        -2.25075
| 29>    C        4.97451         0.06690        -2.15456
| 30>    C        5.42653        -1.13843        -2.61855
| 31>    C        6.64764        -1.31000        -3.30099
| 32>    N        7.61707        -1.50309        -3.88471
| 33>    C        4.70017        -2.34250        -2.52220
| 34>    N        4.16989        -3.35762        -2.44409
| 35>    C        6.97129         1.68067        -2.27604
| 36>    C        8.12988         0.88362        -2.01399
| 37>    C        9.37089         1.23399        -2.54607
| 38>    N       10.48886         0.54505        -2.41513
| 39>    C       10.54505        -0.56530        -1.70229
| 40>    C        9.37366        -1.00620        -1.01866
| 41>    C        8.15007        -0.26879        -1.18881
| 42>    N        7.15074        -0.78819        -0.47576
| 43>    S        7.69093        -2.08398         0.30919
| 44>    N        9.20990        -2.04466        -0.20167
| 45>    C       11.79978        -1.27891        -1.66839
| 46>    C       12.07618        -2.30975        -0.77377
| 47>    N       13.20111        -3.00406        -0.72555
| 48>    C       14.19881        -2.77419        -1.55941
| 49>    C       14.07368        -1.73090        -2.52089
| 50>    C       12.85212        -0.96816        -2.56842
| 51>    N       12.88546        -0.03937        -3.51942
| 52>    S       14.29939        -0.10466        -4.26532
| 53>    N       14.95224        -1.31649        -3.43323
| 54>    C       15.36519        -3.62196        -1.45564
| 55>    C       16.30829        -3.74610        -2.47203
| 56>    N       17.35242        -4.56053        -2.45573
| 57>    C       17.59407        -5.34692        -1.41737
| 58>    C       16.73293        -5.30858        -0.28712
| 59>    C       15.59449        -4.42971        -0.31146
| 60>    N       14.90165        -4.49398         0.82248
| 61>    S       15.59792        -5.55216         1.80284
| 62>    N       16.82173        -5.98716         0.85444
| 63>    C       18.72312        -6.21201        -1.50147
| 64>    C       19.19401        -7.12518        -0.57738
| 65>    C       20.32362        -7.79081        -1.05017
| 66>    C       20.70165        -7.37284        -2.33945
| 67>    S       19.67768        -6.16667        -2.96983
| 68>    C       21.85477        -8.11519        -2.72567
| 69>    C       22.19667        -8.99096        -1.68849
| 70>    C       21.25032        -8.81908        -0.59944
| 71>    C       21.23139        -9.48020         0.59374
| 72>    C       22.18649       -10.46544         0.92132
| 73>    N       22.96071       -11.26665         1.19266
| 74>    C       20.25811        -9.22733         1.58378
| 75>    N       19.47548        -9.03339         2.39913
| 76>    C       23.33052        -9.76749        -1.99164
| 77>    C       23.81624        -9.47046        -3.22962
| 78>    S       22.91483        -8.24552        -4.05718
| 79>    H        0.45611        -1.86552        -0.44972
| 80>    H       -2.11858         1.50655         0.00577
| 81>    H       -0.29529         3.02427        -0.72439
| 82>    H        2.76232        -1.56717        -1.21215
| 83>    H        2.03471         3.36053        -1.47567
| 84>    H        7.16595         2.72982        -2.48026
| 85>    H        9.45598         2.11864        -3.16361
| 86>    H       11.33457        -2.59980        -0.04353
| 87>    H       16.20683        -3.15650        -3.37162
| 88>    H       18.71919        -7.27403         0.37540
| 89>    H       23.76586       -10.50265        -1.33989
| 90>    H       24.66521        -9.90204        -3.72106
| 91> *
| 92>
| 93>                          ****END OF INPUT****

CARTESIAN COORDINATES (ANGSTROEM)
---------------------------------
  C      0.307330   -0.798800   -0.511440
  C     -0.902200   -0.248850   -0.189970
  F     -1.907650   -1.048120    0.209880
  C     -1.143440    1.130180   -0.259730
  C     -0.133570    1.958620   -0.663020
  C      1.134110    1.445350   -1.006550
  C      1.358370    0.039340   -0.932040
  C      2.616860   -0.500990   -1.284360
  C      3.616480    0.338680   -1.695720
  C      3.392580    1.745160   -1.749270
  C      2.185990    2.292870   -1.420210
  C      4.631100    2.419620   -2.180650
  O      4.806050    3.597090   -2.390290
  C      5.659660    1.338780   -2.250750
  C      4.974510    0.066900   -2.154560
  C      5.426530   -1.138430   -2.618550
  C      6.647640   -1.310000   -3.300990
  N      7.617070   -1.503090   -3.884710
  C      4.700170   -2.342500   -2.522200
  N      4.169890   -3.357620   -2.444090
  C      6.971290    1.680670   -2.276040
  C      8.129880    0.883620   -2.013990
  C      9.370890    1.233990   -2.546070
  N     10.488860    0.545050   -2.415130
  C     10.545050   -0.565300   -1.702290
  C      9.373660   -1.006200   -1.018660
  C      8.150070   -0.268790   -1.188810
  N      7.150740   -0.788190   -0.475760
  S      7.690930   -2.083980    0.309190
  N      9.209900   -2.044660   -0.201670
  C     11.799780   -1.278910   -1.668390
  C     12.076180   -2.309750   -0.773770
  N     13.201110   -3.004060   -0.725550
  C     14.198810   -2.774190   -1.559410
  C     14.073680   -1.730900   -2.520890
  C     12.852120   -0.968160   -2.568420
  N     12.885460   -0.039370   -3.519420
  S     14.299390   -0.104660   -4.265320
  N     14.952240   -1.316490   -3.433230
  C     15.365190   -3.621960   -1.455640
  C     16.308290   -3.746100   -2.472030
  N     17.352420   -4.560530   -2.455730
  C     17.594070   -5.346920   -1.417370
  C     16.732930   -5.308580   -0.287120
  C     15.594490   -4.429710   -0.311460
  N     14.901650   -4.493980    0.822480
  S     15.597920   -5.552160    1.802840
  N     16.821730   -5.987160    0.854440
  C     18.723120   -6.212010   -1.501470
  C     19.194010   -7.125180   -0.577380
  C     20.323620   -7.790810   -1.050170
  C     20.701650   -7.372840   -2.339450
  S     19.677680   -6.166670   -2.969830
  C     21.854770   -8.115190   -2.725670
  C     22.196670   -8.990960   -1.688490
  C     21.250320   -8.819080   -0.599440
  C     21.231390   -9.480200    0.593740
  C     22.186490  -10.465440    0.921320
  N     22.960710  -11.266650    1.192660
  C     20.258110   -9.227330    1.583780
  N     19.475480   -9.033390    2.399130
  C     23.330520   -9.767490   -1.991640
  C     23.816240   -9.470460   -3.229620
  S     22.914830   -8.245520   -4.057180
  H      0.456110   -1.865520   -0.449720
  H     -2.118580    1.506550    0.005770
  H     -0.295290    3.024270   -0.724390
  H      2.762320   -1.567170   -1.212150
  H      2.034710    3.360530   -1.475670
  H      7.165950    2.729820   -2.480260
  H      9.455980    2.118640   -3.163610
  H     11.334570   -2.599800   -0.043530
  H     16.206830   -3.156500   -3.371620
  H     18.719190   -7.274030    0.375400
  H     23.765860  -10.502650   -1.339890
  H     24.665210   -9.902040   -3.721060

 Total Charge           Charge          ....    0
 Multiplicity           Mult            ....    1
 Number of Electrons    NEL             ....  464
 Basis Dimension        Dim             ....  976

ORBITAL ENERGIES
----------------

  NO   OCC          E(Eh)            E(eV)
   0   2.0000     -89.040020     -2422.9021
   1   2.0000     -89.029657     -2422.6201
   2   2.0000     -89.029574     -2422.6179
   3   2.0000     -88.986736     -2421.4522
   4   2.0000     -88.983630     -2421.3677
   5   2.0000     -24.786041      -674.4625
   6   2.0000     -19.215183      -522.8717
   7   2.0000     -14.456768      -393.3887
   8   2.0000     -14.449108      -393.1802
   9   2.0000     -14.447879      -393.1468
  10   2.0000     -14.447253      -393.1297
  11   2.0000     -14.437204      -392.8563
  12   2.0000     -14.437165      -392.8552
  13   2.0000     -14.425599      -392.5405
  14   2.0000     -14.424495      -392.5105
  15   2.0000     -14.417108      -392.3095
  16   2.0000     -14.416428      -392.2909
  17   2.0000     -14.415931      -392.2774
  18   2.0000     -14.414632      -392.2421
  19   2.0000     -14.408619      -392.0784
  20   2.0000     -10.369654      -282.1726
  21   2.0000     -10.365933      -282.0714
  22   2.0000     -10.359108      -281.8857
  23   2.0000     -10.347124      -281.5596
  24   2.0000     -10.346671      -281.5472
  25   2.0000     -10.344884      -281.4986
  26   2.0000     -10.341424      -281.4044
  27   2.0000     -10.340064      -281.3675
  28   2.0000     -10.338492      -281.3247
  29   2.0000     -10.338361      -281.3211
  30   2.0000     -10.336505      -281.2706
  31   2.0000     -10.330750      -281.1140
  32   2.0000     -10.330585      -281.1095
  33   2.0000     -10.329955      -281.0924
  34   2.0000     -10.329768      -281.0873
  35   2.0000     -10.329162      -281.0708
  36   2.0000     -10.327276      -281.0195
  37   2.0000     -10.327087      -281.0143
  38   2.0000     -10.326154      -280.9889
  39   2.0000     -10.324803      -280.9522
  40   2.0000     -10.318854      -280.7903
  41   2.0000     -10.317720      -280.7594
  42   2.0000     -10.317563      -280.7552
  43   2.0000     -10.315547      -280.7003
  44   2.0000     -10.313543      -280.6458
  45   2.0000     -10.312645      -280.6213
  46   2.0000     -10.312326      -280.6127
  47   2.0000     -10.306194      -280.4458
  48   2.0000     -10.305396      -280.4241
  49   2.0000     -10.305221      -280.4193
  50   2.0000     -10.301112      -280.3075
  51   2.0000     -10.300142      -280.2811
  52   2.0000     -10.299698      -280.2690
  53   2.0000     -10.298514      -280.2368
  54   2.0000     -10.297867      -280.2192
  55   2.0000     -10.297446      -280.2077
  56   2.0000     -10.296799      -280.1901
  57   2.0000     -10.296598      -280.1847
  58   2.0000     -10.296562      -280.1837
  59   2.0000     -10.296283      -280.1761
  60   2.0000     -10.295052      -280.1426
  61   2.0000     -10.294575      -280.1296
  62   2.0000     -10.289779      -279.9991
  63   2.0000     -10.288940      -279.9763
  64   2.0000      -8.131490      -221.2691
  65   2.0000      -8.121521      -220.9978
  66   2.0000      -8.121485      -220.9968
  67   2.0000      -8.081752      -219.9157
  68   2.0000      -8.077596      -219.8026
  69   2.0000      -6.102695      -166.0628
  70   2.0000      -6.094840      -165.8490
  71   2.0000      -6.094015      -165.8266
  72   2.0000      -6.092685      -165.7904
  73   2.0000      -6.092640      -165.7892
  74   2.0000      -6.084712      -165.5734
  75   2.0000      -6.084671      -165.5723
  76   2.0000      -6.084174      -165.5588
  77   2.0000      -6.084164      -165.5585
  78   2.0000      -6.050984      -164.6557
  79   2.0000      -6.046784      -164.5413
  80   2.0000      -6.046553      -164.5351
  81   2.0000      -6.044391      -164.4762
  82   2.0000      -6.042499      -164.4248
  83   2.0000      -6.040218      -164.3627
  84   2.0000      -1.300962       -35.4010
  85   2.0000      -1.140150       -31.0251
  86   2.0000      -1.131735       -30.7961
  87   2.0000      -1.130700       -30.7679
  88   2.0000      -1.130437       -30.7607
  89   2.0000      -1.057869       -28.7861
  90   2.0000      -1.056013       -28.7356
  91   2.0000      -1.047437       -28.5022
  92   2.0000      -1.038316       -28.2540
  93   2.0000      -1.019608       -27.7450
  94   2.0000      -1.016614       -27.6635
  95   2.0000      -1.002525       -27.2801
  96   2.0000      -1.000752       -27.2318
  97   2.0000      -0.997204       -27.1353
  98   2.0000      -0.992344       -27.0030
  99   2.0000      -0.991041       -26.9676
 100   2.0000      -0.983673       -26.7671
 101   2.0000      -0.980908       -26.6919
 102   2.0000      -0.975431       -26.5428
 103   2.0000      -0.951914       -25.9029
 104   2.0000      -0.932923       -25.3861
 105   2.0000      -0.921391       -25.0723
 106   2.0000      -0.915845       -24.9214
 107   2.0000      -0.908774       -24.7290
 108   2.0000      -0.903917       -24.5968
 109   2.0000      -0.897311       -24.4171
 110   2.0000      -0.889185       -24.1960
 111   2.0000      -0.885327       -24.0910
 112   2.0000      -0.879392       -23.9295
 113   2.0000      -0.864750       -23.5310
 114   2.0000      -0.857499       -23.3337
 115   2.0000      -0.848847       -23.0983
 116   2.0000      -0.841594       -22.9009
 117   2.0000      -0.833601       -22.6834
 118   2.0000      -0.812361       -22.1055
 119   2.0000      -0.794112       -21.6089
 120   2.0000      -0.777726       -21.1630
 121   2.0000      -0.772115       -21.0103
 122   2.0000      -0.764238       -20.7960
 123   2.0000      -0.759525       -20.6677
 124   2.0000      -0.753377       -20.5004
 125   2.0000      -0.740180       -20.1413
 126   2.0000      -0.732298       -19.9268
 127   2.0000      -0.727438       -19.7946
 128   2.0000      -0.723926       -19.6990
 129   2.0000      -0.713353       -19.4113
 130   2.0000      -0.710747       -19.3404
 131   2.0000      -0.707978       -19.2651
 132   2.0000      -0.697761       -18.9870
 133   2.0000      -0.692506       -18.8440
 134   2.0000      -0.679761       -18.4972
 135   2.0000      -0.675704       -18.3868
 136   2.0000      -0.670298       -18.2397
 137   2.0000      -0.655283       -17.8311
 138   2.0000      -0.646008       -17.5788
 139   2.0000      -0.639081       -17.3903
 140   2.0000      -0.635703       -17.2984
 141   2.0000      -0.629781       -17.1372
 142   2.0000      -0.629422       -17.1274
 143   2.0000      -0.618493       -16.8300
 144   2.0000      -0.616796       -16.7839
 145   2.0000      -0.611461       -16.6387
 146   2.0000      -0.609960       -16.5978
 147   2.0000      -0.605025       -16.4636
 148   2.0000      -0.599324       -16.3084
 149   2.0000      -0.591299       -16.0901
 150   2.0000      -0.583301       -15.8724
 151   2.0000      -0.576396       -15.6845
 152   2.0000      -0.570868       -15.5341
 153   2.0000      -0.566309       -15.4101
 154   2.0000      -0.563441       -15.3320
 155   2.0000      -0.561966       -15.2919
 156   2.0000      -0.561014       -15.2660
 157   2.0000      -0.558566       -15.1993
 158   2.0000      -0.556700       -15.1486
 159   2.0000      -0.553405       -15.0589
 160   2.0000      -0.550096       -14.9689
 161   2.0000      -0.546841       -14.8803
 162   2.0000      -0.545012       -14.8305
 163   2.0000      -0.541237       -14.7278
 164   2.0000      -0.534097       -14.5335
 165   2.0000      -0.529374       -14.4050
 166   2.0000      -0.523650       -14.2492
 167   2.0000      -0.516651       -14.0588
 168   2.0000      -0.513472       -13.9723
 169   2.0000      -0.509851       -13.8738
 170   2.0000      -0.509023       -13.8512
 171   2.0000      -0.508432       -13.8351
 172   2.0000      -0.502135       -13.6638
 173   2.0000      -0.501821       -13.6552
 174   2.0000      -0.496639       -13.5142
 175   2.0000      -0.492838       -13.4108
 176   2.0000      -0.491019       -13.3613
 177   2.0000      -0.490301       -13.3418
 178   2.0000      -0.488402       -13.2901
 179   2.0000      -0.484755       -13.1909
 180   2.0000      -0.483531       -13.1575
 181   2.0000      -0.481480       -13.1017
 182   2.0000      -0.477005       -12.9800
 183   2.0000      -0.471147       -12.8206
 184   2.0000      -0.469321       -12.7709
 185   2.0000      -0.467789       -12.7292
 186   2.0000      -0.466700       -12.6996
 187   2.0000      -0.463272       -12.6063
 188   2.0000      -0.458040       -12.4639
 189   2.0000      -0.456683       -12.4270
 190   2.0000      -0.453398       -12.3376
 191   2.0000      -0.452856       -12.3228
 192   2.0000      -0.448395       -12.2014
 193   2.0000      -0.448145       -12.1946
 194   2.0000      -0.443073       -12.0566
 195   2.0000      -0.438202       -11.9241
 196   2.0000      -0.438165       -11.9231
 197   2.0000      -0.435316       -11.8455
 198   2.0000      -0.434063       -11.8115
 199   2.0000      -0.430091       -11.7034
 200   2.0000      -0.428173       -11.6512
 201   2.0000      -0.424719       -11.5572
 202   2.0000      -0.421731       -11.4759
 203   2.0000      -0.420622       -11.4457
 204   2.0000      -0.418501       -11.3880
 205   2.0000      -0.411987       -11.2107
 206   2.0000      -0.409238       -11.1359
 207   2.0000      -0.407032       -11.0759
 208   2.0000      -0.403334       -10.9753
 209   2.0000      -0.401203       -10.9173
 210   2.0000      -0.398290       -10.8380
 211   2.0000      -0.386595       -10.5198
 212   2.0000      -0.381378       -10.3778
 213   2.0000      -0.377031       -10.2595
 214   2.0000      -0.376376       -10.2417
 215   2.0000      -0.370470       -10.0810
 216   2.0000      -0.361293        -9.8313
 217   2.0000      -0.360074        -9.7981
 218   2.0000      -0.355992        -9.6870
 219   2.0000      -0.352054        -9.5799
 220   2.0000      -0.345739        -9.4080
 221   2.0000      -0.342583        -9.3222
 222   2.0000      -0.340486        -9.2651
 223   2.0000      -0.336975        -9.1696
 224   2.0000      -0.326113        -8.8740
 225   2.0000      -0.322328        -8.7710
 226   2.0000      -0.318685        -8.6719
 227   2.0000      -0.314798        -8.5661
 228   2.0000      -0.310317        -8.4442
 229   2.0000      -0.297325        -8.0906
 230   2.0000      -0.286084        -7.7847
 231   2.0000      -0.258296        -7.0286
 232   0.0000      -0.113355        -3.0846
 233   0.0000      -0.099224        -2.7000
 234   0.0000      -0.083487        -2.2718
 235   0.0000      -0.065388        -1.7793
 236   0.0000      -0.053029        -1.4430

MULLIKEN ATOMIC CHARGES
-----------------------
   0 C :   -0.100452
   1 C :    0.303800
   2 F :   -0.190009
   3 C :   -0.028133
   4 C :   -0.011905
   5 C :    0.102653
   6 C :    0.105195
   7 C :   -0.092862
   8 C :    0.041222
   9 C :    0.014268
  10 C :   -0.082415
  11 C :    0.131238
  12 O :   -0.140095
  13 C :   -0.113775
  14 C :    0.323946
  15 C :   -0.332080
  16 C :   -0.208532
  17 N :    0.171524
  18 C :   -0.190479
  19 N :    0.153553
  20 C :    0.018539
  21 C :    0.029572
  22 C :   -0.000279
  23 N :   -0.009517
  24 C :   -0.010466
  25 C :    0.036015
  26 C :    0.021254
  27 N :   -0.287041
  28 S :    0.540514
  29 N :   -0.259008
  30 C :   -0.027721
  31 C :   -0.011634
  32 N :   -0.009114
  33 C :   -0.022963
  34 C :    0.014179
  35 C :    0.030433
  36 N :   -0.226993
  37 S :    0.522658
  38 N :   -0.274277
  39 C :   -0.033996
  40 C :   -0.008042
  41 N :   -0.065750
  42 C :    0.047727
  43 C :   -0.011531
  44 C :    0.053338
  45 N :   -0.233694
  46 S :    0.530853
  47 N :   -0.263875
  48 C :   -0.129542
  49 C :   -0.041464
  50 C :    0.003754
  51 C :   -0.085298
  52 S :    0.237015
  53 C :   -0.124759
  54 C :   -0.024997
  55 C :    0.302966
  56 C :   -0.300317
  57 C :   -0.191717
  58 N :    0.170016
  59 C :   -0.189051
  60 N :    0.175853
  61 C :    0.030840
  62 C :   -0.076064
  63 S :    0.186731
  64 H :   -0.002123
  65 H :    0.002671
  66 H :   -0.007940
  67 H :   -0.005467
  68 H :   -0.010680
  69 H :    0.023685
  70 H :    0.009290
  71 H :    0.014490
  72 H :    0.015776
  73 H :    0.019868
  74 H :    0.013278
  75 H :    0.037340
Sum of atomic charges:   -0.0000000

LOEWDIN ATOMIC CHARGES
----------------------
   0 C :   -0.042857
   1 C :    0.093412
   2 F :   -0.064731
   3 C :   -0.037055
   4 C :    0.004799
   5 C :   -0.019027
   6 C :    0.004219
   7 C :    0.009401
   8 C :   -0.013292
   9 C :   -0.060059
  10 C :    0.035148
  11 C :    0.084832
  12 O :   -0.140728
  13 C :   -0.078719
  14 C :    0.077791
  15 C :   -0.133173
  16 C :   -0.019334
  17 N :   -0.052953
  18 C :   -0.019559
  19 N :   -0.054068
  20 C :    0.071996
  21 C :   -0.072427
  22 C :    0.059962
  23 N :   -0.047323
  24 C :    0.049632
  25 C :   -0.054393
  26 C :   -0.034612
  27 N :   -0.283647
  28 S :    0.667096
  29 N :   -0.260651
  30 C :   -0.070635
  31 C :    0.047419
  32 N :   -0.053212
  33 C :    0.038506
  34 C :   -0.065250
  35 C :   -0.029286
  36 N :   -0.259600
  37 S :    0.657667
  38 N :   -0.276832
  39 C :   -0.073666
  40 C :    0.044537
  41 N :   -0.095018
  42 C :    0.015323
  43 C :   -0.068244
  44 C :   -0.027866
  45 N :   -0.261192
  46 S :    0.665270
  47 N :   -0.272275
  48 C :   -0.184935
  49 C :   -0.001729
  50 C :   -0.079295
  51 C :   -0.167753
  52 S :    0.516475
  53 C :   -0.188463
  54 C :   -0.069037
  55 C :    0.081650
  56 C :   -0.104262
  57 C :   -0.016767
  58 N :   -0.035926
  59 C :   -0.018026
  60 N :   -0.031854
  61 C :   -0.035323
  62 C :   -0.173563
  63 S :    0.481194
  64 H :    0.043043
  65 H :    0.041761
  66 H :    0.035945
  67 H :    0.038741
  68 H :    0.039854
  69 H :    0.048790
  70 H :    0.030262
  71 H :    0.025316
  72 H :    0.025886
  73 H :    0.041582
  74 H :    0.042926
  75 H :    0.028181

  Mayer bond orders larger than 0.100000
B(  0-C ,  1-C ) :   1.4412 B(  0-C ,  6-C ) :   1.2017 B(  0-C , 64-H ) :   1.0071
B(  1-C ,  2-F ) :   1.0891 B(  1-C ,  3-C ) :   1.2551 B(  3-C ,  4-C ) :   1.4624
B(  3-C , 65-H ) :   0.9922 B(  4-C ,  5-C ) :   1.2319 B(  4-C , 66-H ) :   0.9976
B(  5-C ,  6-C ) :   1.2561 B(  5-C , 10-C ) :   1.1932 B(  6-C ,  7-C ) :   1.2023
B(  7-C ,  8-C ) :   1.4594 B(  7-C , 67-H ) :   0.9949 B(  8-C ,  9-C ) :   1.2156
B(  8-C , 14-C ) :   1.0066 B(  9-C , 10-C ) :   1.4672 B(  9-C , 11-C ) :   0.9213
B( 10-C , 68-H ) :   1.0157 B( 11-C , 12-O ) :   2.2729 B( 11-C , 13-C ) :   0.9318
B( 13-C , 14-C ) :   1.0292 B( 13-C , 20-C ) :   1.6928 B( 14-C , 15-C ) :   1.6489
B( 15-C , 16-C ) :   1.1669 B( 15-C , 18-C ) :   1.1440 B( 16-C , 17-N ) :   3.0029
B( 18-C , 19-N ) :   2.9840 B( 20-C , 21-C ) :   1.0666 B( 20-C , 69-H ) :   0.9403
B( 21-C , 22-C ) :   1.3736 B( 21-C , 24-C ) :   0.1008 B( 21-C , 26-C ) :   1.1979
B( 22-C , 23-N ) :   1.4637 B( 22-C , 70-H ) :   0.9828 B( 23-N , 24-C ) :   1.6872
B( 24-C , 25-C ) :   1.1244 B( 24-C , 30-C ) :   1.0641 B( 25-C , 26-C ) :   1.1899
B( 25-C , 29-N ) :   1.5439 B( 26-C , 27-N ) :   1.5197 B( 27-N , 28-S ) :   1.2535
B( 27-N , 29-N ) :   0.1406 B( 28-S , 29-N ) :   1.2826 B( 30-C , 31-C ) :   1.4367
B( 30-C , 33-C ) :   0.1113 B( 30-C , 35-C ) :   1.1793 B( 31-C , 32-N ) :   1.4424
B( 31-C , 71-H ) :   0.9587 B( 32-N , 33-C ) :   1.6895 B( 33-C , 34-C ) :   1.1333
B( 33-C , 39-C ) :   1.0647 B( 34-C , 35-C ) :   1.1835 B( 34-C , 38-N ) :   1.5364
B( 35-C , 36-N ) :   1.5513 B( 36-N , 37-S ) :   1.2760 B( 36-N , 38-N ) :   0.1480
B( 37-S , 38-N ) :   1.2689 B( 39-C , 40-C ) :   1.4526 B( 39-C , 42-C ) :   0.1094
B( 39-C , 44-C ) :   1.1767 B( 40-C , 41-N ) :   1.4336 B( 40-C , 72-H ) :   0.9562
B( 41-N , 42-C ) :   1.6610 B( 42-C , 43-C ) :   1.1670 B( 42-C , 48-C ) :   1.1409
B( 43-C , 44-C ) :   1.1847 B( 43-C , 47-N ) :   1.5486 B( 44-C , 45-N ) :   1.5404
B( 45-N , 46-S ) :   1.2783 B( 45-N , 47-N ) :   0.1471 B( 46-S , 47-N ) :   1.2694
B( 48-C , 49-C ) :   1.4765 B( 48-C , 52-S ) :   1.0854 B( 49-C , 50-C ) :   1.2646
B( 49-C , 73-H ) :   0.9825 B( 50-C , 51-C ) :   1.4321 B( 50-C , 55-C ) :   0.9975
B( 51-C , 52-S ) :   1.1398 B( 51-C , 53-C ) :   1.1851 B( 53-C , 54-C ) :   1.4604
B( 53-C , 63-S ) :   1.1336 B( 54-C , 55-C ) :   1.0105 B( 54-C , 61-C ) :   1.2806
B( 55-C , 56-C ) :   1.7088 B( 56-C , 57-C ) :   1.1285 B( 56-C , 59-C ) :   1.1377
B( 57-C , 58-N ) :   3.0015 B( 59-C , 60-N ) :   2.9912 B( 61-C , 62-C ) :   1.5423
B( 61-C , 74-H ) :   0.9964 B( 62-C , 63-S ) :   1.1571 B( 62-C , 75-H ) :   0.9641

-----------------------------------------------------------------------------
         ABSORPTION SPECTRUM VIA TRANSITION ELECTRIC DIPOLE MOMENTS
-----------------------------------------------------------------------------
State   Energy  Wavelength   fosc         T2         TX        TY        TZ
        (cm-1)    (nm)                  (au**2)     (au)      (au)      (au)
-----------------------------------------------------------------------------
   0   15640.4    639.4   0.500014022  10.52472  -2.81096   1.60760   0.19701
   1   17467.0    572.5   1.245910412  23.48244   4.36710  -2.09283   0.17585
   2   22092.2    452.6   0.130441400   1.94381   0.00888  -1.36884  -0.26457
   3   23297.7    429.2   0.008238621   0.11642   0.29509  -0.17022   0.01904
   4   23813.9    419.9   0.006075491   0.08399   0.17934  -0.21321   0.07981
   5   24614.8    406.3   0.001425808   0.01907   0.09967  -0.04303   0.08534
   6   25396.3    393.8   0.184158251   2.38724   1.48644  -0.39478  -0.14794
   7   26773.4    373.5   0.043390185   0.53354   0.57213   0.37122  -0.26152
   8   27090.4    369.1   0.025659989   0.31183   0.31324  -0.45879   0.05680
   9   27936.8    358.0   0.023332235   0.27495   0.51779  -0.05205   0.06427
  10   28717.8    348.2   0.020936114   0.24000  -0.16973  -0.26263  -0.37713
  11   29022.1    344.6   0.016542083   0.18764  -0.20711   0.20478   0.32065
  12   29144.6    343.1   0.007953298   0.08984  -0.15910   0.12622   0.22044
  13   30104.1    332.2   0.029110258   0.31834  -0.49932   0.20419   0.16531
  14   30546.8    327.4   0.000982880   0.01059  -0.01865   0.10104  -0.00600
  15   30943.9    323.2   0.319030982   3.39416  -0.12202   0.94468  -1.57697
  16   31023.2    322.3   0.000650272   0.00690  -0.02044   0.02754  -0.07566
  17   31437.6    318.1   0.014740619   0.15436  -0.22116  -0.17264   0.27503
  18   31898.0    313.5   0.223836468   2.31016  -1.44035   0.10136   0.47463
  19   32689.9    305.9   0.012343798   0.12431  -0.07391  -0.06725   0.33812
  20   32985.7    303.2   0.149412709   1.49120  -1.08692   0.45716   0.31751
  21   33367.6    299.7   0.282481970   2.78703   1.18508  -1.01218   0.59843
  22   33422.6    299.2   0.367086468   3.61580   1.22878  -0.08874  -1.44846
  23   33798.4    295.9   0.104731968   1.02014  -0.50800  -0.00939   0.87292
  24   34008.1    294.0   0.049545410   0.47962  -0.34208   0.59634  -0.08351
  25   34300.5    291.5   0.058857546   0.56491  -0.23987   0.25608  -0.66467
  26   34536.7    289.5   0.066751863   0.63630   0.43608  -0.63412   0.20982
  27   35073.2    285.1   0.057652825   0.54115  -0.40944  -0.33570   0.51071
  28   35151.3    284.5   0.063387367   0.59366   0.05872  -0.58592   0.49690
  29   35374.0    282.7   0.010241618   0.09531   0.29118  -0.07548   0.06951
  30   35608.6    280.8   0.027214949   0.25161   0.39738   0.17037  -0.25432
  31   35839.6    279.0   0.034129950   0.31351  -0.22601  -0.14515   0.49128
  32   36353.8    275.1   0.001889620   0.01711   0.01399   0.11341   0.06368
  33   36594.7    273.3   0.179159130   1.61175   0.92514  -0.54405  -0.67814
  34   36657.3    272.8   0.340811078   3.06075   1.53039  -0.76161  -0.37231
  35   36851.1    271.4   0.233950257   2.09001   1.04952  -0.90362  -0.41470
  36   37097.4    269.6   0.094023685   0.83439  -0.84882   0.30135   0.15192
  37   37454.9    267.0   0.026150324   0.22985   0.27353  -0.23681   0.31457
  38   37743.0    264.9   0.099452163   0.86747   0.81503  -0.43256   0.12686
  39   37929.6    263.6   0.174787609   1.51708   0.74792  -0.95445   0.21615
  40   37992.4    263.2   0.006181233   0.05356  -0.18179   0.08416   0.11589
  41   38089.9    262.5   0.034493114   0.29812  -0.23162   0.48013  -0.11814
  42   38697.5    258.4   0.033967736   0.28897  -0.43956   0.26259   0.16373
  43   38783.0    257.8   0.038898680   0.33019  -0.36007   0.39297   0.21475
  44   38979.9    256.5   0.042977034   0.36297  -0.00290  -0.40423   0.44672
  45   39066.0    256.0   0.049723009   0.41902  -0.39881  -0.46003  -0.21986
  46   39133.0    255.5   0.076829133   0.64634   0.07936   0.69909  -0.38899
  47   39411.7    253.7   0.027421136   0.22905  -0.47536   0.04850   0.02710
  48   39507.6    253.1   0.004494287   0.03745   0.12091  -0.15110   0.00090
  49   39787.7    251.3   0.005052210   0.04180   0.03289   0.19577  -0.04895
  50   40205.5    248.7   0.111508368   0.91306   0.72742   0.48631  -0.38396
  51   40317.7    248.0   0.001308793   0.01069   0.03668  -0.03860  -0.08861

FINAL SINGLE POINT ENERGY     -4557.745660540393

DIPOLE MOMENT
-------------
                                X             Y             Z
Electronic contribution:     16.95751      -9.21907       1.49935
Nuclear contribution   :    -16.82088      10.84580      -1.95496
                        -----------------------------------------
Total Dipole Moment    :      0.13663       1.62673      -0.45560
                        -----------------------------------------
Magnitude (a.u.)       :      1.69484
Magnitude (Debye)      :      4.30795

Rotational constants in cm-1:     0.003199     0.000275     0.000262
Rotational constants in MHz :    95.908138     8.248024     7.865319

                             ****ORCA TERMINATED NORMALLY****
TOTAL RUN TIME: 0 days 0 hours 7 minutes 15 seconds 812 msec
