                         Program Version 4.2.0 -  RELEASE  -
|  1> # ORCA input file
|  2> # SCF done       -206.055535940057          0.000465555369
|  3> ! CAM-B3LYP def2-SVP def2/J RIJCOSX Grid4 TightSCF
|  4> %maxcore 5000
|  5> %tddft
|  6>     Mode sTDDFT
|  7>     Ethresh 5.0
|  8>     maxcore 5000
|  9> end
| 10>
| 11> %pal
| 12>   nprocs 6
| 13>   end
| 14> * xyz 0 1
| 15>    C       -5.52742       -14.45003         5.62891
| 16>    C       -4.28839       -14.92568         5.95660
| 17>    F       -4.15891       -16.13145         6.52824
| 18>    C       -3.13520       -14.15954         5.69832
| 19>    F       -1.93160       -14.65083         6.02886
| 20>    C       -3.23655       -12.92706         5.11584
| 21>    C       -4.49868       -12.41043         4.76585
| 22>    C       -5.66606       -13.18423         5.02600
| 23>    C       -6.94494       -12.68684         4.68076
| 24>    C       -7.05175       -11.45602         4.09145
| 25>    C       -5.87866       -10.68987         3.83646
| 26>    C       -4.63241       -11.14062         4.16005
| 27>    C       -6.26758        -9.41830         3.20162
| 28>    O       -5.51748        -8.52399         2.84172
| 29>    C       -7.72345        -9.45542         3.07876
| 30>    C       -8.21318       -10.69528         3.63038
| 31>    C       -9.52178       -11.10039         3.73316
| 32>    C       -9.92193       -12.33450         4.28475
| 33>    N      -10.30761       -13.32983         4.70783
| 34>    C      -10.64445       -10.35749         3.31700
| 35>    N      -11.60757        -9.80809         3.01406
| 36>    C       -8.48587        -8.44818         2.52966
| 37>    C       -8.09672        -7.20792         2.04057
| 38>    C       -9.07207        -6.28767         1.57115
| 39>    C       -8.54058        -5.04909         1.14425
| 40>    N       -9.34685        -4.09183         0.68113
| 41>    C      -10.63815        -4.33971         0.63221
| 42>    C      -11.16548        -5.59294         1.05837
| 43>    N      -10.38324        -6.54227         1.52255
| 44>    C      -12.62035        -5.90146         0.98152
| 45>    C      -11.52258        -3.26743         0.09559
| 46>    C       -7.12683        -4.99998         1.25145
| 47>    S       -6.51398        -6.50320         1.91207
| 48>    C       -6.23194        -4.00326         0.89369
| 49>    C       -6.48853        -2.73224         0.40215
| 50>    C       -5.47893        -1.81047         0.03876
| 51>    C       -5.94452        -0.59660        -0.38730
| 52>    C       -7.34535        -0.51561        -0.35047
| 53>    S       -8.05800        -2.01939         0.17915
| 54>    C       -8.19901         0.54988        -0.63033
| 55>    C       -7.96523         1.84473        -1.11373
| 56>    C       -9.10228         2.61007        -1.20212
| 57>    C      -10.26999         1.96090        -0.75825
| 58>    S       -9.89668         0.32480        -0.29774
| 59>    C      -11.53742         2.50491        -0.58335
| 60>    C      -12.57512         1.89520         0.09352
| 61>    C      -13.80279         2.49835         0.48564
| 62>    C      -14.56927         1.69740         1.37038
| 63>    N      -15.73514         2.13128         1.86320
| 64>    C      -16.13457         3.32646         1.48614
| 65>    C      -15.36141         4.13154         0.60022
| 66>    N      -14.21104         3.71385         0.11296
| 67>    C      -15.82148         5.48663         0.18143
| 68>    C      -17.43865         3.80333         2.02816
| 69>    C      -13.94854         0.46794         1.70091
| 70>    S      -12.48527         0.29327         0.76572
| 71>    C      -14.40458        -0.47888         2.60726
| 72>    C      -13.73037        -1.55338         3.15928
| 73>    C      -14.50588        -2.70290         3.67061
| 74>    O      -15.70961        -2.77961         3.79615
| 75>    C      -13.50806        -3.76311         3.94759
| 76>    C      -13.70593        -5.03350         4.40441
| 77>    C      -12.58531        -5.86290         4.64450
| 78>    C      -11.27866        -5.35468         4.39450
| 79>    C      -10.16391        -6.16963         4.67206
| 80>    C      -10.34177        -7.42465         5.17959
| 81>    C      -11.63237        -7.92725         5.42739
| 82>    C      -12.73417        -7.16453         5.15930
| 83>    F      -11.76358        -9.15045         5.95863
| 84>    F       -9.27506        -8.19651         5.45913
| 85>    C      -11.10659        -4.04027         3.90155
| 86>    C      -12.20484        -3.25143         3.68965
| 87>    C      -12.33060        -1.84471         3.30249
| 88>    C      -11.28868        -0.94198         3.35351
| 89>    C      -11.46889         0.45206         3.42317
| 90>    N      -11.56914         1.58866         3.56308
| 91>    C       -9.93302        -1.30280         3.43232
| 92>    N       -8.80650        -1.53270         3.44662
| 93>    H       -6.40051       -15.04954         5.83427
| 94>    H       -2.34384       -12.35225         4.92500
| 95>    H       -7.80786       -13.29695         4.89251
| 96>    H       -3.75995       -10.53837         3.95676
| 97>    H       -9.55776        -8.59063         2.46331
| 98>    H      -13.20011        -5.18217         1.55723
| 99>    H      -12.79058        -6.89977         1.37463
|100>    H      -12.96088        -5.85586        -0.05200
|101>    H      -10.94497        -2.36169        -0.06051
|102>    H      -12.34158        -3.06329         0.78172
|103>    H      -11.95553        -3.58222        -0.85320
|104>    H       -5.18476        -4.25237         1.02195
|105>    H       -4.43638        -2.06846         0.10577
|106>    H       -5.31876         0.22203        -0.69549
|107>    H       -6.98211         2.19089        -1.37818
|108>    H       -9.11971         3.63042        -1.54193
|109>    H      -11.71397         3.51913        -0.91445
|110>    H      -15.93456         6.13388         1.04988
|111>    H      -16.78700         5.42426        -0.31847
|112>    H      -15.09196         5.91971        -0.49670
|113>    H      -17.85521         3.04047         2.67924
|114>    H      -18.13667         4.00792         1.21761
|115>    H      -17.30055         4.72405         2.59291
|116>    H      -15.45355        -0.39684         2.87553
|117>    H      -14.70330        -5.39666         4.60037
|118>    H       -9.16526        -5.79675         4.50499
|119>    H      -13.71731        -7.56278         5.35374
|120>    H      -10.10580        -3.68433         3.71394
|121> *
|122>
|123>                          ****END OF INPUT****

CARTESIAN COORDINATES (ANGSTROEM)
---------------------------------
  C     -5.527420  -14.450030    5.628910
  C     -4.288390  -14.925680    5.956600
  F     -4.158910  -16.131450    6.528240
  C     -3.135200  -14.159540    5.698320
  F     -1.931600  -14.650830    6.028860
  C     -3.236550  -12.927060    5.115840
  C     -4.498680  -12.410430    4.765850
  C     -5.666060  -13.184230    5.026000
  C     -6.944940  -12.686840    4.680760
  C     -7.051750  -11.456020    4.091450
  C     -5.878660  -10.689870    3.836460
  C     -4.632410  -11.140620    4.160050
  C     -6.267580   -9.418300    3.201620
  O     -5.517480   -8.523990    2.841720
  C     -7.723450   -9.455420    3.078760
  C     -8.213180  -10.695280    3.630380
  C     -9.521780  -11.100390    3.733160
  C     -9.921930  -12.334500    4.284750
  N    -10.307610  -13.329830    4.707830
  C    -10.644450  -10.357490    3.317000
  N    -11.607570   -9.808090    3.014060
  C     -8.485870   -8.448180    2.529660
  C     -8.096720   -7.207920    2.040570
  C     -9.072070   -6.287670    1.571150
  C     -8.540580   -5.049090    1.144250
  N     -9.346850   -4.091830    0.681130
  C    -10.638150   -4.339710    0.632210
  C    -11.165480   -5.592940    1.058370
  N    -10.383240   -6.542270    1.522550
  C    -12.620350   -5.901460    0.981520
  C    -11.522580   -3.267430    0.095590
  C     -7.126830   -4.999980    1.251450
  S     -6.513980   -6.503200    1.912070
  C     -6.231940   -4.003260    0.893690
  C     -6.488530   -2.732240    0.402150
  C     -5.478930   -1.810470    0.038760
  C     -5.944520   -0.596600   -0.387300
  C     -7.345350   -0.515610   -0.350470
  S     -8.058000   -2.019390    0.179150
  C     -8.199010    0.549880   -0.630330
  C     -7.965230    1.844730   -1.113730
  C     -9.102280    2.610070   -1.202120
  C    -10.269990    1.960900   -0.758250
  S     -9.896680    0.324800   -0.297740
  C    -11.537420    2.504910   -0.583350
  C    -12.575120    1.895200    0.093520
  C    -13.802790    2.498350    0.485640
  C    -14.569270    1.697400    1.370380
  N    -15.735140    2.131280    1.863200
  C    -16.134570    3.326460    1.486140
  C    -15.361410    4.131540    0.600220
  N    -14.211040    3.713850    0.112960
  C    -15.821480    5.486630    0.181430
  C    -17.438650    3.803330    2.028160
  C    -13.948540    0.467940    1.700910
  S    -12.485270    0.293270    0.765720
  C    -14.404580   -0.478880    2.607260
  C    -13.730370   -1.553380    3.159280
  C    -14.505880   -2.702900    3.670610
  O    -15.709610   -2.779610    3.796150
  C    -13.508060   -3.763110    3.947590
  C    -13.705930   -5.033500    4.404410
  C    -12.585310   -5.862900    4.644500
  C    -11.278660   -5.354680    4.394500
  C    -10.163910   -6.169630    4.672060
  C    -10.341770   -7.424650    5.179590
  C    -11.632370   -7.927250    5.427390
  C    -12.734170   -7.164530    5.159300
  F    -11.763580   -9.150450    5.958630
  F     -9.275060   -8.196510    5.459130
  C    -11.106590   -4.040270    3.901550
  C    -12.204840   -3.251430    3.689650
  C    -12.330600   -1.844710    3.302490
  C    -11.288680   -0.941980    3.353510
  C    -11.468890    0.452060    3.423170
  N    -11.569140    1.588660    3.563080
  C     -9.933020   -1.302800    3.432320
  N     -8.806500   -1.532700    3.446620
  H     -6.400510  -15.049540    5.834270
  H     -2.343840  -12.352250    4.925000
  H     -7.807860  -13.296950    4.892510
  H     -3.759950  -10.538370    3.956760
  H     -9.557760   -8.590630    2.463310
  H    -13.200110   -5.182170    1.557230
  H    -12.790580   -6.899770    1.374630
  H    -12.960880   -5.855860   -0.052000
  H    -10.944970   -2.361690   -0.060510
  H    -12.341580   -3.063290    0.781720
  H    -11.955530   -3.582220   -0.853200
  H     -5.184760   -4.252370    1.021950
  H     -4.436380   -2.068460    0.105770
  H     -5.318760    0.222030   -0.695490
  H     -6.982110    2.190890   -1.378180
  H     -9.119710    3.630420   -1.541930
  H    -11.713970    3.519130   -0.914450
  H    -15.934560    6.133880    1.049880
  H    -16.787000    5.424260   -0.318470
  H    -15.091960    5.919710   -0.496700
  H    -17.855210    3.040470    2.679240
  H    -18.136670    4.007920    1.217610
  H    -17.300550    4.724050    2.592910
  H    -15.453550   -0.396840    2.875530
  H    -14.703300   -5.396660    4.600370
  H     -9.165260   -5.796750    4.504990
  H    -13.717310   -7.562780    5.353740
  H    -10.105800   -3.684330    3.713940

 Total Charge           Charge          ....    0
 Multiplicity           Mult            ....    1
 Number of Electrons    NEL             ....  560
 Basis Dimension        Dim             .... 1248

ORBITAL ENERGIES
----------------

  NO   OCC          E(Eh)            E(eV)
   0   2.0000     -88.983452     -2421.3628
   1   2.0000     -88.973284     -2421.0862
   2   2.0000     -88.971178     -2421.0288
   3   2.0000     -88.962402     -2420.7900
   4   2.0000     -24.793584      -674.6677
   5   2.0000     -24.792605      -674.6411
   6   2.0000     -24.792442      -674.6367
   7   2.0000     -24.784552      -674.4220
   8   2.0000     -19.218407      -522.9594
   9   2.0000     -19.193205      -522.2736
  10   2.0000     -14.435258      -392.8033
  11   2.0000     -14.428599      -392.6221
  12   2.0000     -14.424763      -392.5178
  13   2.0000     -14.419645      -392.3785
  14   2.0000     -14.410172      -392.1207
  15   2.0000     -14.406083      -392.0094
  16   2.0000     -14.398749      -391.8099
  17   2.0000     -14.393577      -391.6691
  18   2.0000     -10.376291      -282.3532
  19   2.0000     -10.375483      -282.3312
  20   2.0000     -10.366894      -282.0975
  21   2.0000     -10.365757      -282.0666
  22   2.0000     -10.364956      -282.0448
  23   2.0000     -10.345612      -281.5184
  24   2.0000     -10.334702      -281.2215
  25   2.0000     -10.334322      -281.2112
  26   2.0000     -10.332843      -281.1709
  27   2.0000     -10.332265      -281.1552
  28   2.0000     -10.332251      -281.1548
  29   2.0000     -10.330889      -281.1178
  30   2.0000     -10.328012      -281.0395
  31   2.0000     -10.327903      -281.0365
  32   2.0000     -10.327699      -281.0310
  33   2.0000     -10.327472      -281.0248
  34   2.0000     -10.327177      -281.0168
  35   2.0000     -10.326705      -281.0039
  36   2.0000     -10.325846      -280.9806
  37   2.0000     -10.322873      -280.8997
  38   2.0000     -10.321589      -280.8647
  39   2.0000     -10.319857      -280.8176
  40   2.0000     -10.319274      -280.8017
  41   2.0000     -10.317963      -280.7661
  42   2.0000     -10.315930      -280.7107
  43   2.0000     -10.314285      -280.6660
  44   2.0000     -10.312950      -280.6296
  45   2.0000     -10.312397      -280.6146
  46   2.0000     -10.309681      -280.5407
  47   2.0000     -10.308158      -280.4992
  48   2.0000     -10.306238      -280.4470
  49   2.0000     -10.304829      -280.4087
  50   2.0000     -10.304742      -280.4063
  51   2.0000     -10.304364      -280.3960
  52   2.0000     -10.303964      -280.3851
  53   2.0000     -10.302762      -280.3524
  54   2.0000     -10.300908      -280.3020
  55   2.0000     -10.300673      -280.2956
  56   2.0000     -10.300414      -280.2885
  57   2.0000     -10.299354      -280.2597
  58   2.0000     -10.298477      -280.2358
  59   2.0000     -10.297232      -280.2019
  60   2.0000     -10.296395      -280.1792
  61   2.0000     -10.295886      -280.1653
  62   2.0000     -10.295148      -280.1452
  63   2.0000     -10.295047      -280.1425
  64   2.0000     -10.295020      -280.1417
  65   2.0000     -10.292994      -280.0866
  66   2.0000     -10.289626      -279.9950
  67   2.0000     -10.287860      -279.9469
  68   2.0000     -10.287759      -279.9441
  69   2.0000     -10.287520      -279.9377
  70   2.0000     -10.287395      -279.9342
  71   2.0000     -10.284929      -279.8671
  72   2.0000     -10.277954      -279.6773
  73   2.0000     -10.275216      -279.6029
  74   2.0000     -10.272934      -279.5407
  75   2.0000     -10.271068      -279.4900
  76   2.0000     -10.270171      -279.4655
  77   2.0000     -10.268581      -279.4223
  78   2.0000      -8.075673      -219.7502
  79   2.0000      -8.067231      -219.5205
  80   2.0000      -8.066607      -219.5035
  81   2.0000      -8.056402      -219.2259
  82   2.0000      -6.044960      -164.4917
  83   2.0000      -6.040419      -164.3682
  84   2.0000      -6.038351      -164.3119
  85   2.0000      -6.036406      -164.2590
  86   2.0000      -6.036147      -164.2519
  87   2.0000      -6.032275      -164.1465
  88   2.0000      -6.031755      -164.1324
  89   2.0000      -6.029617      -164.0742
  90   2.0000      -6.028297      -164.0383
  91   2.0000      -6.026222      -163.9818
  92   2.0000      -6.021738      -163.8598
  93   2.0000      -6.017528      -163.7453
  94   2.0000      -1.315511       -35.7969
  95   2.0000      -1.309761       -35.6404
  96   2.0000      -1.300700       -35.3938
  97   2.0000      -1.293796       -35.2060
  98   2.0000      -1.132343       -30.8126
  99   2.0000      -1.108134       -30.1538
 100   2.0000      -1.095532       -29.8109
 101   2.0000      -1.082850       -29.4659
 102   2.0000      -1.020827       -27.7781
 103   2.0000      -1.016204       -27.6523
 104   2.0000      -1.012395       -27.5487
 105   2.0000      -1.005869       -27.3711
 106   2.0000      -1.003373       -27.3032
 107   2.0000      -0.998840       -27.1798
 108   2.0000      -0.998313       -27.1655
 109   2.0000      -0.992021       -26.9943
 110   2.0000      -0.987961       -26.8838
 111   2.0000      -0.986654       -26.8482
 112   2.0000      -0.983426       -26.7604
 113   2.0000      -0.975103       -26.5339
 114   2.0000      -0.974096       -26.5065
 115   2.0000      -0.963702       -26.2237
 116   2.0000      -0.927736       -25.2450
 117   2.0000      -0.920053       -25.0359
 118   2.0000      -0.914362       -24.8811
 119   2.0000      -0.905559       -24.6415
 120   2.0000      -0.898144       -24.4397
 121   2.0000      -0.892740       -24.2927
 122   2.0000      -0.890009       -24.2184
 123   2.0000      -0.886488       -24.1226
 124   2.0000      -0.882642       -24.0179
 125   2.0000      -0.879185       -23.9239
 126   2.0000      -0.873487       -23.7688
 127   2.0000      -0.866724       -23.5848
 128   2.0000      -0.858692       -23.3662
 129   2.0000      -0.842534       -22.9265
 130   2.0000      -0.840867       -22.8812
 131   2.0000      -0.834912       -22.7191
 132   2.0000      -0.832324       -22.6487
 133   2.0000      -0.825721       -22.4690
 134   2.0000      -0.820481       -22.3264
 135   2.0000      -0.811217       -22.0743
 136   2.0000      -0.808642       -22.0043
 137   2.0000      -0.802586       -21.8395
 138   2.0000      -0.800142       -21.7730
 139   2.0000      -0.785593       -21.3771
 140   2.0000      -0.763270       -20.7696
 141   2.0000      -0.761944       -20.7335
 142   2.0000      -0.750197       -20.4139
 143   2.0000      -0.747063       -20.3286
 144   2.0000      -0.734066       -19.9750
 145   2.0000      -0.727991       -19.8096
 146   2.0000      -0.724272       -19.7084
 147   2.0000      -0.719461       -19.5775
 148   2.0000      -0.713661       -19.4197
 149   2.0000      -0.710858       -19.3434
 150   2.0000      -0.702104       -19.1052
 151   2.0000      -0.700650       -19.0657
 152   2.0000      -0.698245       -19.0002
 153   2.0000      -0.688521       -18.7356
 154   2.0000      -0.680300       -18.5119
 155   2.0000      -0.675045       -18.3689
 156   2.0000      -0.665348       -18.1051
 157   2.0000      -0.663630       -18.0583
 158   2.0000      -0.661971       -18.0131
 159   2.0000      -0.652503       -17.7555
 160   2.0000      -0.651824       -17.7370
 161   2.0000      -0.649040       -17.6613
 162   2.0000      -0.641851       -17.4657
 163   2.0000      -0.640570       -17.4308
 164   2.0000      -0.636304       -17.3147
 165   2.0000      -0.633815       -17.2470
 166   2.0000      -0.628532       -17.1032
 167   2.0000      -0.623884       -16.9768
 168   2.0000      -0.621812       -16.9204
 169   2.0000      -0.620077       -16.8732
 170   2.0000      -0.607451       -16.5296
 171   2.0000      -0.603573       -16.4240
 172   2.0000      -0.596214       -16.2238
 173   2.0000      -0.593084       -16.1386
 174   2.0000      -0.581928       -15.8351
 175   2.0000      -0.580325       -15.7915
 176   2.0000      -0.578617       -15.7450
 177   2.0000      -0.577230       -15.7072
 178   2.0000      -0.575503       -15.6602
 179   2.0000      -0.573559       -15.6073
 180   2.0000      -0.566249       -15.4084
 181   2.0000      -0.565133       -15.3780
 182   2.0000      -0.564645       -15.3648
 183   2.0000      -0.561786       -15.2870
 184   2.0000      -0.554550       -15.0901
 185   2.0000      -0.552120       -15.0240
 186   2.0000      -0.548479       -14.9249
 187   2.0000      -0.545081       -14.8324
 188   2.0000      -0.542062       -14.7503
 189   2.0000      -0.540543       -14.7089
 190   2.0000      -0.539394       -14.6777
 191   2.0000      -0.538799       -14.6615
 192   2.0000      -0.534223       -14.5369
 193   2.0000      -0.533036       -14.5046
 194   2.0000      -0.530189       -14.4272
 195   2.0000      -0.525687       -14.3047
 196   2.0000      -0.523960       -14.2577
 197   2.0000      -0.521616       -14.1939
 198   2.0000      -0.520663       -14.1680
 199   2.0000      -0.519897       -14.1471
 200   2.0000      -0.514956       -14.0127
 201   2.0000      -0.514839       -14.0095
 202   2.0000      -0.511435       -13.9169
 203   2.0000      -0.510520       -13.8920
 204   2.0000      -0.509647       -13.8682
 205   2.0000      -0.508336       -13.8325
 206   2.0000      -0.505519       -13.7559
 207   2.0000      -0.504103       -13.7173
 208   2.0000      -0.502445       -13.6722
 209   2.0000      -0.499900       -13.6030
 210   2.0000      -0.496816       -13.5190
 211   2.0000      -0.494384       -13.4529
 212   2.0000      -0.493599       -13.4315
 213   2.0000      -0.492603       -13.4044
 214   2.0000      -0.490446       -13.3457
 215   2.0000      -0.488200       -13.2846
 216   2.0000      -0.487287       -13.2597
 217   2.0000      -0.485837       -13.2203
 218   2.0000      -0.484069       -13.1722
 219   2.0000      -0.481700       -13.1077
 220   2.0000      -0.481524       -13.1029
 221   2.0000      -0.479363       -13.0441
 222   2.0000      -0.476300       -12.9608
 223   2.0000      -0.475819       -12.9477
 224   2.0000      -0.472343       -12.8531
 225   2.0000      -0.467865       -12.7313
 226   2.0000      -0.467365       -12.7176
 227   2.0000      -0.464465       -12.6387
 228   2.0000      -0.461528       -12.5588
 229   2.0000      -0.459010       -12.4903
 230   2.0000      -0.455392       -12.3919
 231   2.0000      -0.454062       -12.3557
 232   2.0000      -0.450775       -12.2662
 233   2.0000      -0.447846       -12.1865
 234   2.0000      -0.446704       -12.1554
 235   2.0000      -0.443794       -12.0762
 236   2.0000      -0.442581       -12.0432
 237   2.0000      -0.441247       -12.0069
 238   2.0000      -0.439036       -11.9468
 239   2.0000      -0.437128       -11.8948
 240   2.0000      -0.436581       -11.8800
 241   2.0000      -0.433838       -11.8053
 242   2.0000      -0.431847       -11.7511
 243   2.0000      -0.427612       -11.6359
 244   2.0000      -0.426833       -11.6147
 245   2.0000      -0.426486       -11.6053
 246   2.0000      -0.425028       -11.5656
 247   2.0000      -0.419076       -11.4036
 248   2.0000      -0.412088       -11.2135
 249   2.0000      -0.410990       -11.1836
 250   2.0000      -0.409717       -11.1490
 251   2.0000      -0.404458       -11.0059
 252   2.0000      -0.403744       -10.9864
 253   2.0000      -0.400042       -10.8857
 254   2.0000      -0.398655       -10.8480
 255   2.0000      -0.395116       -10.7516
 256   2.0000      -0.389462       -10.5978
 257   2.0000      -0.385448       -10.4886
 258   2.0000      -0.381274       -10.3750
 259   2.0000      -0.378832       -10.3085
 260   2.0000      -0.373662       -10.1679
 261   2.0000      -0.369710       -10.0603
 262   2.0000      -0.360077        -9.7982
 263   2.0000      -0.355331        -9.6691
 264   2.0000      -0.346313        -9.4237
 265   2.0000      -0.338840        -9.2203
 266   2.0000      -0.335264        -9.1230
 267   2.0000      -0.330034        -8.9807
 268   2.0000      -0.326963        -8.8971
 269   2.0000      -0.326100        -8.8736
 270   2.0000      -0.321193        -8.7401
 271   2.0000      -0.316298        -8.6069
 272   2.0000      -0.315001        -8.5716
 273   2.0000      -0.312319        -8.4986
 274   2.0000      -0.301976        -8.2172
 275   2.0000      -0.299534        -8.1507
 276   2.0000      -0.292101        -7.9485
 277   2.0000      -0.281284        -7.6541
 278   2.0000      -0.258937        -7.0460
 279   2.0000      -0.218577        -5.9478
 280   0.0000      -0.134446        -3.6585
 281   0.0000      -0.087281        -2.3750
 282   0.0000      -0.063307        -1.7227
 283   0.0000      -0.055506        -1.5104
 284   0.0000      -0.050064        -1.3623

MULLIKEN ATOMIC CHARGES
-----------------------
   0 C :   -0.109607
   1 C :    0.243136
   2 F :   -0.172556
   3 C :    0.237872
   4 F :   -0.174933
   5 C :   -0.109194
   6 C :    0.117819
   7 C :    0.115047
   8 C :   -0.088548
   9 C :    0.047920
  10 C :    0.000015
  11 C :   -0.087389
  12 C :    0.170924
  13 O :   -0.193814
  14 C :   -0.083379
  15 C :    0.350091
  16 C :   -0.363000
  17 C :   -0.182637
  18 N :    0.145072
  19 C :   -0.189014
  20 N :    0.140129
  21 C :   -0.075251
  22 C :   -0.121842
  23 C :   -0.008863
  24 C :    0.103598
  25 N :   -0.025337
  26 C :   -0.155705
  27 C :   -0.165566
  28 N :    0.026261
  29 C :    0.133870
  30 C :    0.134798
  31 C :   -0.153734
  32 S :    0.240049
  33 C :    0.009327
  34 C :    0.009864
  35 C :    0.033646
  36 C :    0.036159
  37 C :    0.003088
  38 S :    0.145112
  39 C :   -0.032908
  40 C :    0.035665
  41 C :    0.032634
  42 C :   -0.012748
  43 S :    0.064926
  44 C :    0.005020
  45 C :   -0.080926
  46 C :    0.016798
  47 C :    0.082190
  48 N :    0.022298
  49 C :   -0.165698
  50 C :   -0.178853
  51 N :    0.020363
  52 C :    0.132437
  53 C :    0.130537
  54 C :   -0.158976
  55 S :    0.110892
  56 C :    0.026214
  57 C :   -0.157918
  58 C :    0.129362
  59 O :   -0.153260
  60 C :    0.015028
  61 C :   -0.110384
  62 C :    0.123565
  63 C :    0.113907
  64 C :   -0.093111
  65 C :    0.227331
  66 C :    0.273998
  67 C :   -0.107449
  68 F :   -0.173729
  69 F :   -0.182876
  70 C :   -0.101166
  71 C :    0.018928
  72 C :    0.271032
  73 C :   -0.366296
  74 C :   -0.217527
  75 N :    0.149419
  76 C :   -0.153603
  77 N :    0.111033
  78 H :    0.006355
  79 H :   -0.003206
  80 H :   -0.007953
  81 H :   -0.014591
  82 H :    0.028753
  83 H :    0.036771
  84 H :    0.046203
  85 H :    0.026438
  86 H :    0.030287
  87 H :    0.033946
  88 H :    0.031196
  89 H :   -0.008633
  90 H :    0.000204
  91 H :   -0.007230
  92 H :   -0.006603
  93 H :   -0.002962
  94 H :    0.003781
  95 H :    0.027839
  96 H :    0.023875
  97 H :    0.024993
  98 H :    0.033864
  99 H :    0.026460
 100 H :    0.028602
 101 H :    0.027228
 102 H :   -0.013581
 103 H :   -0.003397
 104 H :   -0.004793
 105 H :   -0.013427
Sum of atomic charges:   -0.0000000

LOEWDIN ATOMIC CHARGES
----------------------
   0 C :   -0.029330
   1 C :    0.065428
   2 F :   -0.050972
   3 C :    0.066211
   4 F :   -0.052256
   5 C :   -0.034431
   6 C :   -0.010212
   7 C :   -0.006711
   8 C :    0.015699
   9 C :   -0.018099
  10 C :   -0.050306
  11 C :    0.026321
  12 C :    0.084946
  13 O :   -0.179676
  14 C :   -0.106511
  15 C :    0.075419
  16 C :   -0.143766
  17 C :   -0.016216
  18 N :   -0.060635
  19 C :   -0.018049
  20 N :   -0.057919
  21 C :    0.051452
  22 C :   -0.199225
  23 C :   -0.024699
  24 C :   -0.051624
  25 N :   -0.056018
  26 C :    0.009307
  27 C :    0.020910
  28 N :   -0.037644
  29 C :   -0.051500
  30 C :   -0.054653
  31 C :   -0.165156
  32 S :    0.549794
  33 C :   -0.046423
  34 C :   -0.133754
  35 C :   -0.009475
  36 C :   -0.031584
  37 C :   -0.155148
  38 S :    0.485120
  39 C :   -0.183445
  40 C :   -0.023039
  41 C :   -0.034856
  42 C :   -0.133659
  43 S :    0.424452
  44 C :   -0.061899
  45 C :   -0.135485
  46 C :   -0.049791
  47 C :   -0.013645
  48 N :   -0.048488
  49 C :    0.011736
  50 C :   -0.008380
  51 N :   -0.042370
  52 C :   -0.052319
  53 C :   -0.051270
  54 C :   -0.207912
  55 S :    0.497722
  56 C :    0.053126
  57 C :   -0.133591
  58 C :    0.073316
  59 O :   -0.159557
  60 C :   -0.056323
  61 C :    0.023368
  62 C :   -0.010012
  63 C :   -0.009064
  64 C :   -0.031565
  65 C :    0.062574
  66 C :    0.069963
  67 C :   -0.025971
  68 F :   -0.046983
  69 F :   -0.054472
  70 C :   -0.001954
  71 C :   -0.023978
  72 C :    0.052059
  73 C :   -0.175446
  74 C :   -0.041076
  75 N :   -0.074077
  76 C :   -0.020743
  77 N :   -0.087327
  78 H :    0.047455
  79 H :    0.043648
  80 H :    0.039817
  81 H :    0.038567
  82 H :    0.050107
  83 H :    0.040828
  84 H :    0.047089
  85 H :    0.040818
  86 H :    0.025251
  87 H :    0.036501
  88 H :    0.043760
  89 H :    0.039919
  90 H :    0.037633
  91 H :    0.034150
  92 H :    0.035870
  93 H :    0.037502
  94 H :    0.047017
  95 H :    0.038525
  96 H :    0.036936
  97 H :    0.037888
  98 H :    0.041509
  99 H :    0.038660
 100 H :    0.040041
 101 H :    0.052655
 102 H :    0.038840
 103 H :    0.041444
 104 H :    0.044538
 105 H :    0.034803

  Mayer bond orders larger than 0.100000
B(  0-C ,  1-C ) :   1.4348 B(  0-C ,  5-C ) :   0.1093 B(  0-C ,  7-C ) :   1.1916
B(  0-C , 78-H ) :   1.0073 B(  1-C ,  2-F ) :   1.1340 B(  1-C ,  3-C ) :   1.1968
B(  3-C ,  4-F ) :   1.1299 B(  3-C ,  5-C ) :   1.4391 B(  5-C ,  6-C ) :   1.1920
B(  5-C , 79-H ) :   1.0075 B(  6-C ,  7-C ) :   1.2628 B(  6-C , 11-C ) :   1.1812
B(  7-C ,  8-C ) :   1.2046 B(  8-C ,  9-C ) :   1.4608 B(  8-C , 80-H ) :   0.9895
B(  9-C , 10-C ) :   1.2238 B(  9-C , 15-C ) :   0.9727 B( 10-C , 11-C ) :   1.4709
B( 10-C , 12-C ) :   0.9523 B( 11-C , 81-H ) :   1.0167 B( 12-C , 13-O ) :   2.1083
B( 12-C , 14-C ) :   1.0008 B( 14-C , 15-C ) :   1.1026 B( 14-C , 21-C ) :   1.3969
B( 15-C , 16-C ) :   1.6063 B( 16-C , 17-C ) :   1.1518 B( 16-C , 19-C ) :   1.1633
B( 17-C , 18-N ) :   2.9577 B( 19-C , 20-N ) :   2.9052 B( 21-C , 22-C ) :   1.3644
B( 21-C , 82-H ) :   0.9281 B( 22-C , 23-C ) :   1.2278 B( 22-C , 31-C ) :   0.1022
B( 22-C , 32-S ) :   1.0967 B( 23-C , 24-C ) :   1.2796 B( 23-C , 28-N ) :   1.4325
B( 24-C , 25-N ) :   1.3990 B( 24-C , 31-C ) :   1.1817 B( 25-N , 26-C ) :   1.6329
B( 26-C , 27-C ) :   1.1515 B( 26-C , 30-C ) :   1.1037 B( 27-C , 28-N ) :   1.6771
B( 27-C , 29-C ) :   1.1082 B( 29-C , 83-H ) :   0.9322 B( 29-C , 84-H ) :   0.9345
B( 29-C , 85-H ) :   0.9319 B( 30-C , 86-H ) :   0.9432 B( 30-C , 87-H ) :   0.9335
B( 30-C , 88-H ) :   0.9278 B( 31-C , 32-S ) :   1.1333 B( 31-C , 33-C ) :   1.2764
B( 33-C , 34-C ) :   1.4800 B( 33-C , 89-H ) :   0.9433 B( 34-C , 35-C ) :   1.1787
B( 34-C , 38-S ) :   1.0943 B( 35-C , 36-C ) :   1.5374 B( 35-C , 90-H ) :   1.0008
B( 36-C , 37-C ) :   1.2239 B( 36-C , 91-H ) :   0.9953 B( 37-C , 38-S ) :   1.0534
B( 37-C , 39-C ) :   1.4073 B( 39-C , 40-C ) :   1.2535 B( 39-C , 43-S ) :   1.0509
B( 40-C , 41-C ) :   1.5097 B( 40-C , 92-H ) :   0.9948 B( 41-C , 42-C ) :   1.2192
B( 41-C , 93-H ) :   0.9985 B( 42-C , 43-S ) :   1.0961 B( 42-C , 44-C ) :   1.3619
B( 44-C , 45-C ) :   1.3801 B( 44-C , 94-H ) :   0.9741 B( 45-C , 46-C ) :   1.1841
B( 45-C , 55-S ) :   1.1393 B( 46-C , 47-C ) :   1.2868 B( 46-C , 51-N ) :   1.4816
B( 47-C , 48-N ) :   1.4775 B( 47-C , 54-C ) :   1.1907 B( 48-N , 49-C ) :   1.6749
B( 49-C , 50-C ) :   1.1766 B( 49-C , 53-C ) :   1.0989 B( 50-C , 51-N ) :   1.6698
B( 50-C , 52-C ) :   1.0988 B( 52-C , 95-H ) :   0.9403 B( 52-C , 96-H ) :   0.9408
B( 52-C , 97-H ) :   0.9414 B( 53-C , 98-H ) :   0.9412 B( 53-C , 99-H ) :   0.9400
B( 53-C ,100-H ) :   0.9387 B( 54-C , 55-S ) :   1.0669 B( 54-C , 56-C ) :   1.3551
B( 56-C , 57-C ) :   1.3922 B( 56-C ,101-H ) :   0.9518 B( 57-C , 58-C ) :   0.9803
B( 57-C , 72-C ) :   1.1174 B( 58-C , 59-O ) :   2.2665 B( 58-C , 60-C ) :   0.9035
B( 60-C , 61-C ) :   1.4631 B( 60-C , 71-C ) :   1.2319 B( 61-C , 62-C ) :   1.1717
B( 61-C ,102-H ) :   1.0192 B( 62-C , 63-C ) :   1.2765 B( 62-C , 67-C ) :   1.1950
B( 63-C , 64-C ) :   1.1934 B( 63-C , 70-C ) :   1.1930 B( 64-C , 65-C ) :   1.4452
B( 64-C , 67-C ) :   0.1095 B( 64-C ,103-H ) :   0.9964 B( 65-C , 66-C ) :   1.2053
B( 65-C , 69-F ) :   1.0892 B( 66-C , 67-C ) :   1.4381 B( 66-C , 68-F ) :   1.1175
B( 67-C ,104-H ) :   1.0088 B( 70-C , 71-C ) :   1.4642 B( 70-C ,105-H ) :   0.9877
B( 71-C , 72-C ) :   0.9913 B( 72-C , 73-C ) :   1.5574 B( 73-C , 74-C ) :   1.1703
B( 73-C , 76-C ) :   1.1531 B( 74-C , 75-N ) :   3.0114 B( 76-C , 77-N ) :   2.9217

-----------------------------------------------------------------------------
         ABSORPTION SPECTRUM VIA TRANSITION ELECTRIC DIPOLE MOMENTS
-----------------------------------------------------------------------------
State   Energy  Wavelength   fosc         T2         TX        TY        TZ
        (cm-1)    (nm)                  (au**2)     (au)      (au)      (au)
-----------------------------------------------------------------------------
   0    4154.4   2407.1   0.183776423  14.56308  -2.21537   3.09680   0.25500
   1   12429.4    804.5   0.053208353   1.40930  -0.05762   1.11965  -0.39035
   2   14547.9    687.4   1.220194867  27.61244   0.29742   4.48727  -2.71815
   3   16721.6    598.0   0.150923079   2.97135  -0.17786  -1.53359   0.76669
   4   19519.4    512.3   0.049920657   0.84195  -0.79724   0.35314  -0.28577
   5   20893.7    478.6   0.132942117   2.09471  -1.43319   0.18714   0.07523
   6   20981.4    476.6   0.017144003   0.26900   0.33973   0.32394  -0.22056
   7   21265.1    470.3   0.072991835   1.13001   0.56545   0.85485  -0.28196
   8   21564.1    463.7   0.015070960   0.23008   0.47232   0.05465  -0.06335
   9   22452.1    445.4   0.001946106   0.02854   0.10497   0.13216  -0.00711
  10   22809.5    438.4   0.226772629   3.27303  -0.98288   1.38823  -0.61628
  11   23307.3    429.1   0.114802798   1.62157   1.05271   0.63042  -0.34053
  12   23493.9    425.6   0.087122703   1.22082   1.07697  -0.00350  -0.24685
  13   24253.2    412.3   0.136951800   1.85897   0.86029  -1.04171   0.18364
  14   24511.8    408.0   0.021847866   0.29343  -0.20657   0.47137  -0.16903
  15   24822.1    402.9   0.074912857   0.99356  -0.59999   0.76099  -0.23337
  16   25244.9    396.1   0.002202409   0.02872   0.12584   0.04321   0.10497
  17   25769.3    388.1   0.013518594   0.17270   0.26052  -0.27897   0.16436
  18   25963.6    385.2   0.015161424   0.19224   0.38597  -0.20516   0.03430
  19   26181.1    382.0   0.003078553   0.03871   0.09667  -0.15842   0.06535
  20   26801.7    373.1   0.164300723   2.01815  -0.50504   1.23122  -0.49716
  21   27111.4    368.8   0.132890792   1.61368   1.17362  -0.43660   0.21372
  22   27924.4    358.1   0.156752501   1.84802  -1.08421  -0.75608   0.31758
  23   28484.0    351.1   0.078079112   0.90242  -0.78723   0.51816  -0.11913
  24   29454.6    339.5   0.049974904   0.55857  -0.53149   0.52139  -0.06507
  25   29565.1    338.2   0.056913928   0.63374   0.78761  -0.01227  -0.11516
  26   29995.1    333.4   0.024443529   0.26828   0.44556  -0.24430   0.10037
  27   30607.3    326.7   0.039846857   0.42859  -0.32530  -0.51692   0.23571
  28   30748.0    325.2   0.029421310   0.31501   0.39441  -0.38507  -0.10569
  29   30849.6    324.2   0.178029898   1.89985   0.12652  -1.21175   0.64459
  30   31034.4    322.2   0.288690477   3.06242  -1.69879   0.39511  -0.14295
  31   31242.0    320.1   0.005620122   0.05922  -0.14628   0.13627   0.13876
  32   31794.8    314.5   0.376833405   3.90184   1.66293  -1.00454   0.35694
  33   31906.2    313.4   0.254139140   2.62224  -0.96463   1.25351  -0.34705
  34   32098.1    311.5   0.353568937   3.62636   0.25164  -1.82672   0.47554
  35   32260.4    310.0   0.051364877   0.52417   0.68382  -0.16465  -0.17161
  36   32450.6    308.2   0.042455243   0.43071   0.62648  -0.17573   0.08571
  37   32762.3    305.2   0.040557153   0.40754   0.41406  -0.44347   0.19856
  38   33026.3    302.8   0.028236924   0.28147  -0.38025   0.36480   0.06164
  39   33139.6    301.8   0.146911019   1.45943   0.83558  -0.86921   0.07562
  40   33262.9    300.6   0.004645277   0.04598  -0.00285  -0.18643  -0.10588
  41   33597.0    297.6   0.016302234   0.15974   0.28410  -0.15535   0.23430
  42   33696.2    296.8   0.001628570   0.01591  -0.06182   0.06139  -0.09122
  43   33798.0    295.9   0.019182315   0.18685   0.39426   0.14653  -0.09966
  44   33941.6    294.6   0.041926378   0.40666  -0.55943   0.28871  -0.10169
  45   34079.2    293.4   0.034461025   0.33290  -0.51578  -0.01886  -0.25792
  46   34182.4    292.5   0.013268918   0.12779   0.12990  -0.33181   0.02867
  47   34612.7    288.9   0.029490528   0.28049  -0.01164   0.40693  -0.33877
  48   35058.7    285.2   0.005802640   0.05449  -0.04537   0.15132  -0.17185
  49   35438.5    282.2   0.002483736   0.02307   0.04308   0.13419   0.05665
  50   35571.6    281.1   0.004500750   0.04165  -0.03238   0.16578  -0.11456
  51   36042.2    277.5   0.051407193   0.46956  -0.56296  -0.32783   0.21252
  52   36151.2    276.6   0.113372392   1.03243  -0.75862   0.65165  -0.17965
  53   36341.9    275.2   0.106636990   0.96600   0.00187   0.86606  -0.46470
  54   36562.8    273.5   0.065200408   0.58707   0.65017  -0.32335   0.24452
  55   36934.5    270.7   0.011816583   0.10533  -0.30361  -0.09144   0.06916
  56   37004.7    270.2   0.249987281   2.22401   0.93632   1.15883  -0.06657
  57   37172.6    269.0   0.129348958   1.14555  -0.98305   0.26294  -0.33169
  58   37285.3    268.2   0.054148366   0.47811   0.63651  -0.26119   0.06889
  59   37488.0    266.8   0.061293259   0.53826   0.72421   0.11594   0.01871
  60   37601.1    265.9   0.261579255   2.29023   1.41519   0.52980  -0.08233
  61   37993.7    263.2   0.129285967   1.12025  -0.41941  -0.87448   0.42384
  62   38261.5    261.4   0.008514894   0.07326  -0.20067  -0.16928   0.06587
  63   38508.8    259.7   0.025381500   0.21699  -0.22126  -0.39543   0.10802
  64   38560.6    259.3   0.064665800   0.55209   0.48683  -0.37916   0.41391
  65   38899.3    257.1   0.011480546   0.09716   0.28995   0.02911   0.11065
  66   39139.0    255.5   0.258891391   2.17763  -0.75209   1.20004  -0.41461
  67   39168.8    255.3   0.004385968   0.03686   0.06988  -0.16457  -0.06998
  68   39396.2    253.8   0.007315652   0.06113  -0.02124  -0.24465  -0.02876
  69   39475.2    253.3   0.034179488   0.28505  -0.26126  -0.37699   0.27326
  70   39746.2    251.6   0.108463272   0.89839  -0.17849   0.88195  -0.29781
  71   39801.1    251.2   0.016107904   0.13324  -0.32290   0.03179  -0.16721
  72   39843.8    251.0   0.027004327   0.22313  -0.28924   0.25479  -0.27303
  73   40069.5    249.6   0.057191821   0.46989  -0.08129  -0.61636   0.28875
  74   40233.3    248.6   0.019206679   0.15716  -0.34529  -0.00723   0.19463

FINAL SINGLE POINT ENERGY     -4879.178859689721

DIPOLE MOMENT
-------------
                                X             Y             Z
Electronic contribution:     46.57662     -76.12214      30.29907
Nuclear contribution   :    -44.87885      79.39280     -33.60447
                        -----------------------------------------
Total Dipole Moment    :      1.69777       3.27066      -3.30541
                        -----------------------------------------
Magnitude (a.u.)       :      4.95029
Magnitude (Debye)      :     12.58264

Rotational constants in cm-1:     0.001910     0.000380     0.000332
Rotational constants in MHz :    57.255192    11.402624     9.965715

                             ****ORCA TERMINATED NORMALLY****
TOTAL RUN TIME: 0 days 0 hours 17 minutes 41 seconds 414 msec
