                         Program Version 4.2.0 -  RELEASE  -
|  1> # ORCA input file
|  2> # SCF done       -199.812116092831          0.000728190033
|  3> ! CAM-B3LYP def2-SVP def2/J RIJCOSX Grid4 TightSCF
|  4> %maxcore 5000
|  5> %tddft
|  6>     Mode sTDDFT
|  7>     Ethresh 5.0
|  8>     maxcore 5000
|  9> end
| 10>
| 11> %pal
| 12>   nprocs 6
| 13>   end
| 14> * xyz 0 1
| 15>    C       -0.32113        -1.60823         8.81972
| 16>    C        0.13844        -2.04967        10.02899
| 17>    F        0.69561        -1.19063        10.89168
| 18>    C        0.03321        -3.40973        10.38343
| 19>    F        0.49259        -3.81439        11.57472
| 20>    C       -0.53050        -4.31005         9.52314
| 21>    C       -1.01267        -3.88588         8.26983
| 22>    C       -0.90738        -2.51100         7.91022
| 23>    C       -1.38453        -2.06118         6.65722
| 24>    C       -1.94782        -2.95884         5.78943
| 25>    C       -2.04369        -4.33050         6.15655
| 26>    C       -1.59573        -4.79498         7.35940
| 27>    C       -2.66652        -5.07976         5.05392
| 28>    O       -2.91167        -6.27461         5.03996
| 29>    C       -2.91759        -4.10840         3.98527
| 30>    C       -2.51621        -2.79429         4.45263
| 31>    C       -2.66258        -1.59805         3.80045
| 32>    C       -3.25354        -1.41804         2.53178
| 33>    N       -3.72512        -1.18700         1.51046
| 34>    C       -2.25576        -0.35550         4.33192
| 35>    N       -1.94271         0.68395         4.70485
| 36>    C       -3.39646        -4.40929         2.73447
| 37>    C       -3.80321        -5.63539         2.18944
| 38>    C       -4.21633        -5.74568         0.85459
| 39>    C       -4.57990        -7.03378         0.51722
| 40>    C       -4.45823        -7.92778         1.61009
| 41>    S       -3.88071        -7.18592         3.02927
| 42>    C       -4.85032        -9.21233         1.16573
| 43>    C       -5.21706        -9.13958        -0.19112
| 44>    C       -5.05646        -7.76730        -0.64487
| 45>    C       -5.29091        -7.28295        -1.89760
| 46>    C       -5.75023        -8.11162        -2.94328
| 47>    N       -6.12142        -8.78953        -3.79020
| 48>    C       -5.08320        -5.92815        -2.23444
| 49>    N       -4.91074        -4.83089        -2.51688
| 50>    C       -5.61138       -10.36833        -0.71512
| 51>    C       -5.54821       -11.37683         0.23181
| 52>    S       -4.99616       -10.79498         1.79470
| 53>    C       -5.85437       -12.74786         0.04870
| 54>    C       -5.78662       -13.76101         0.98902
| 55>    C       -6.13590       -14.99698         0.44912
| 56>    C       -6.47402       -14.92332        -0.91533
| 57>    S       -6.36608       -13.33374        -1.52894
| 58>    C       -6.79036       -16.22387        -1.37510
| 59>    C       -6.65159       -17.12518        -0.30072
| 60>    C       -6.24169       -16.38131         0.88083
| 61>    C       -6.00310       -16.87889         2.12790
| 62>    C       -6.13496       -18.25272         2.42110
| 63>    N       -6.24003       -19.36972         2.65698
| 64>    C       -5.60847       -16.05161         3.20065
| 65>    N       -5.28684       -15.37677         4.06984
| 66>    C       -6.92373       -18.44006        -0.66089
| 67>    C       -7.27066       -18.56418        -1.99949
| 68>    S       -7.26014       -16.99812        -2.81927
| 69>    C       -7.58089       -19.76122        -2.67926
| 70>    C       -7.94376       -19.81443        -4.00742
| 71>    C       -8.16796       -21.10523        -4.54903
| 72>    C       -7.96900       -22.16820        -3.68956
| 73>   Si       -7.55814       -21.50727        -1.98627
| 74>    C       -8.11547       -23.53687        -4.01254
| 75>    C       -7.96133       -24.17460        -5.21598
| 76>    C       -8.18242       -25.59338        -5.42591
| 77>    C       -8.90250       -26.43371        -4.61502
| 78>    C       -9.10298       -27.80418        -4.87955
| 79>    N       -9.29059       -28.92565        -5.03847
| 80>    C       -9.57240       -26.04677        -3.43557
| 81>    N      -10.16551       -25.80716        -2.48148
| 82>    C       -7.58035       -25.95868        -6.70186
| 83>    C       -7.06639       -24.78716        -7.30787
| 84>    C       -7.31647       -23.62390        -6.43204
| 85>    O       -7.00175       -22.47721        -6.67215
| 86>    C       -6.44078       -24.79829        -8.53065
| 87>    C       -6.31339       -26.02708        -9.18674
| 88>    C       -6.82378       -27.19439        -8.57015
| 89>    C       -7.45876       -27.18197        -7.33433
| 90>    S       -6.55247       -28.60446        -9.54853
| 91>    C       -5.77127       -27.62002       -10.75731
| 92>    C       -5.71429       -26.30325       -10.44613
| 93>   Br       -5.10300       -28.42354       -12.31450
| 94>    H       -0.23326        -0.56371         8.56454
| 95>    H       -0.60350        -5.34764         9.80912
| 96>    H       -1.28702        -1.01518         6.41666
| 97>    H       -1.68316        -5.84089         7.61140
| 98>    H       -3.46941        -3.59065         2.02857
| 99>    H       -4.23507        -4.89966         0.19031
|100>    H       -5.92827       -10.53966        -1.72826
|101>    H       -5.49228       -13.58934         2.00889
|102>    H       -6.87728       -19.28857        -0.00325
|103>    H       -8.05249       -18.93154        -4.62125
|104>    H       -8.50723       -21.21808        -5.56470
|105>    H       -6.24256       -21.90258        -1.48587
|106>    H       -8.62454       -21.72792        -1.01310
|107>    H       -8.31069       -24.17180        -3.15556
|108>    H       -6.06228       -23.88760        -8.96781
|109>    H       -7.82651       -28.09839        -6.90409
|110>    H       -5.26812       -25.55638       -11.07707
|111> *
|112>
|113>                          ****END OF INPUT****

CARTESIAN COORDINATES (ANGSTROEM)
---------------------------------
  C     -0.321130   -1.608230    8.819720
  C      0.138440   -2.049670   10.028990
  F      0.695610   -1.190630   10.891680
  C      0.033210   -3.409730   10.383430
  F      0.492590   -3.814390   11.574720
  C     -0.530500   -4.310050    9.523140
  C     -1.012670   -3.885880    8.269830
  C     -0.907380   -2.511000    7.910220
  C     -1.384530   -2.061180    6.657220
  C     -1.947820   -2.958840    5.789430
  C     -2.043690   -4.330500    6.156550
  C     -1.595730   -4.794980    7.359400
  C     -2.666520   -5.079760    5.053920
  O     -2.911670   -6.274610    5.039960
  C     -2.917590   -4.108400    3.985270
  C     -2.516210   -2.794290    4.452630
  C     -2.662580   -1.598050    3.800450
  C     -3.253540   -1.418040    2.531780
  N     -3.725120   -1.187000    1.510460
  C     -2.255760   -0.355500    4.331920
  N     -1.942710    0.683950    4.704850
  C     -3.396460   -4.409290    2.734470
  C     -3.803210   -5.635390    2.189440
  C     -4.216330   -5.745680    0.854590
  C     -4.579900   -7.033780    0.517220
  C     -4.458230   -7.927780    1.610090
  S     -3.880710   -7.185920    3.029270
  C     -4.850320   -9.212330    1.165730
  C     -5.217060   -9.139580   -0.191120
  C     -5.056460   -7.767300   -0.644870
  C     -5.290910   -7.282950   -1.897600
  C     -5.750230   -8.111620   -2.943280
  N     -6.121420   -8.789530   -3.790200
  C     -5.083200   -5.928150   -2.234440
  N     -4.910740   -4.830890   -2.516880
  C     -5.611380  -10.368330   -0.715120
  C     -5.548210  -11.376830    0.231810
  S     -4.996160  -10.794980    1.794700
  C     -5.854370  -12.747860    0.048700
  C     -5.786620  -13.761010    0.989020
  C     -6.135900  -14.996980    0.449120
  C     -6.474020  -14.923320   -0.915330
  S     -6.366080  -13.333740   -1.528940
  C     -6.790360  -16.223870   -1.375100
  C     -6.651590  -17.125180   -0.300720
  C     -6.241690  -16.381310    0.880830
  C     -6.003100  -16.878890    2.127900
  C     -6.134960  -18.252720    2.421100
  N     -6.240030  -19.369720    2.656980
  C     -5.608470  -16.051610    3.200650
  N     -5.286840  -15.376770    4.069840
  C     -6.923730  -18.440060   -0.660890
  C     -7.270660  -18.564180   -1.999490
  S     -7.260140  -16.998120   -2.819270
  C     -7.580890  -19.761220   -2.679260
  C     -7.943760  -19.814430   -4.007420
  C     -8.167960  -21.105230   -4.549030
  C     -7.969000  -22.168200   -3.689560
  Si    -7.558140  -21.507270   -1.986270
  C     -8.115470  -23.536870   -4.012540
  C     -7.961330  -24.174600   -5.215980
  C     -8.182420  -25.593380   -5.425910
  C     -8.902500  -26.433710   -4.615020
  C     -9.102980  -27.804180   -4.879550
  N     -9.290590  -28.925650   -5.038470
  C     -9.572400  -26.046770   -3.435570
  N    -10.165510  -25.807160   -2.481480
  C     -7.580350  -25.958680   -6.701860
  C     -7.066390  -24.787160   -7.307870
  C     -7.316470  -23.623900   -6.432040
  O     -7.001750  -22.477210   -6.672150
  C     -6.440780  -24.798290   -8.530650
  C     -6.313390  -26.027080   -9.186740
  C     -6.823780  -27.194390   -8.570150
  C     -7.458760  -27.181970   -7.334330
  S     -6.552470  -28.604460   -9.548530
  C     -5.771270  -27.620020  -10.757310
  C     -5.714290  -26.303250  -10.446130
  Br    -5.103000  -28.423540  -12.314500
  H     -0.233260   -0.563710    8.564540
  H     -0.603500   -5.347640    9.809120
  H     -1.287020   -1.015180    6.416660
  H     -1.683160   -5.840890    7.611400
  H     -3.469410   -3.590650    2.028570
  H     -4.235070   -4.899660    0.190310
  H     -5.928270  -10.539660   -1.728260
  H     -5.492280  -13.589340    2.008890
  H     -6.877280  -19.288570   -0.003250
  H     -8.052490  -18.931540   -4.621250
  H     -8.507230  -21.218080   -5.564700
  H     -6.242560  -21.902580   -1.485870
  H     -8.624540  -21.727920   -1.013100
  H     -8.310690  -24.171800   -3.155560
  H     -6.062280  -23.887600   -8.967810
  H     -7.826510  -28.098390   -6.904090
  H     -5.268120  -25.556380  -11.077070

 Total Charge           Charge          ....    0
 Multiplicity           Mult            ....    1
 Number of Electrons    NEL             ....  596
 Basis Dimension        Dim             .... 1233

ORBITAL ENERGIES
----------------

  NO   OCC          E(Eh)            E(eV)
   0   2.0000    -482.886205    -13140.0016
   1   2.0000     -89.007380     -2422.0139
   2   2.0000     -89.006281     -2421.9840
   3   2.0000     -89.000613     -2421.8298
   4   2.0000     -88.998841     -2421.7816
   5   2.0000     -88.975760     -2421.1535
   6   2.0000     -66.214100     -1801.7773
   7   2.0000     -62.563918     -1702.4508
   8   2.0000     -56.397868     -1534.6640
   9   2.0000     -56.395153     -1534.5901
  10   2.0000     -56.395120     -1534.5892
  11   2.0000     -24.802692      -674.9156
  12   2.0000     -24.801855      -674.8928
  13   2.0000     -19.232781      -523.3506
  14   2.0000     -19.217056      -522.9227
  15   2.0000     -14.443513      -393.0280
  16   2.0000     -14.442740      -393.0069
  17   2.0000     -14.441579      -392.9753
  18   2.0000     -14.438867      -392.9016
  19   2.0000     -14.423018      -392.4703
  20   2.0000     -14.420134      -392.3918
  21   2.0000     -14.413199      -392.2031
  22   2.0000     -14.412984      -392.1972
  23   2.0000     -10.386355      -282.6271
  24   2.0000     -10.385599      -282.6065
  25   2.0000     -10.380538      -282.4688
  26   2.0000     -10.378916      -282.4246
  27   2.0000     -10.376359      -282.3551
  28   2.0000     -10.368563      -282.1429
  29   2.0000     -10.365716      -282.0655
  30   2.0000     -10.364068      -282.0206
  31   2.0000     -10.359390      -281.8933
  32   2.0000     -10.349492      -281.6240
  33   2.0000     -10.349053      -281.6120
  34   2.0000     -10.348673      -281.6017
  35   2.0000     -10.348441      -281.5954
  36   2.0000     -10.348435      -281.5952
  37   2.0000     -10.346681      -281.5475
  38   2.0000     -10.345254      -281.5087
  39   2.0000     -10.343994      -281.4744
  40   2.0000     -10.343548      -281.4622
  41   2.0000     -10.342659      -281.4381
  42   2.0000     -10.341780      -281.4141
  43   2.0000     -10.339408      -281.3496
  44   2.0000     -10.338769      -281.3322
  45   2.0000     -10.338344      -281.3206
  46   2.0000     -10.335603      -281.2461
  47   2.0000     -10.335516      -281.2437
  48   2.0000     -10.335218      -281.2356
  49   2.0000     -10.325665      -280.9756
  50   2.0000     -10.325407      -280.9686
  51   2.0000     -10.323054      -280.9046
  52   2.0000     -10.323015      -280.9035
  53   2.0000     -10.322209      -280.8816
  54   2.0000     -10.320615      -280.8382
  55   2.0000     -10.319651      -280.8120
  56   2.0000     -10.318189      -280.7722
  57   2.0000     -10.317260      -280.7469
  58   2.0000     -10.317242      -280.7464
  59   2.0000     -10.316518      -280.7267
  60   2.0000     -10.316282      -280.7203
  61   2.0000     -10.316147      -280.7166
  62   2.0000     -10.315953      -280.7114
  63   2.0000     -10.315636      -280.7027
  64   2.0000     -10.314793      -280.6798
  65   2.0000     -10.313417      -280.6423
  66   2.0000     -10.310543      -280.5641
  67   2.0000     -10.309393      -280.5329
  68   2.0000     -10.307809      -280.4897
  69   2.0000     -10.307769      -280.4886
  70   2.0000     -10.307396      -280.4785
  71   2.0000     -10.307316      -280.4763
  72   2.0000     -10.306172      -280.4452
  73   2.0000     -10.305407      -280.4244
  74   2.0000     -10.305043      -280.4145
  75   2.0000     -10.302180      -280.3366
  76   2.0000     -10.301659      -280.3224
  77   2.0000     -10.301233      -280.3108
  78   2.0000     -10.300195      -280.2825
  79   2.0000     -10.297207      -280.2012
  80   2.0000     -10.295259      -280.1482
  81   2.0000     -10.292129      -280.0631
  82   2.0000     -10.279520      -279.7199
  83   2.0000      -8.793350      -239.2792
  84   2.0000      -8.101773      -220.4604
  85   2.0000      -8.100702      -220.4313
  86   2.0000      -8.095223      -220.2822
  87   2.0000      -8.091073      -220.1693
  88   2.0000      -8.071780      -219.6443
  89   2.0000      -6.629644      -180.4018
  90   2.0000      -6.615088      -180.0057
  91   2.0000      -6.614885      -180.0002
  92   2.0000      -6.071068      -165.2022
  93   2.0000      -6.069990      -165.1728
  94   2.0000      -6.066887      -165.0884
  95   2.0000      -6.065806      -165.0590
  96   2.0000      -6.064460      -165.0223
  97   2.0000      -6.064052      -165.0112
  98   2.0000      -6.062985      -164.9822
  99   2.0000      -6.060483      -164.9141
 100   2.0000      -6.060216      -164.9069
 101   2.0000      -6.057661      -164.8373
 102   2.0000      -6.055738      -164.7850
 103   2.0000      -6.053639      -164.7279
 104   2.0000      -6.041473      -164.3968
 105   2.0000      -6.037198      -164.2805
 106   2.0000      -6.032985      -164.1659
 107   2.0000      -5.384626      -146.5231
 108   2.0000      -3.747759      -101.9817
 109   2.0000      -3.746246      -101.9405
 110   2.0000      -3.745603      -101.9231
 111   2.0000      -2.745525       -74.7095
 112   2.0000      -2.741435       -74.5982
 113   2.0000      -2.741277       -74.5939
 114   2.0000      -2.729714       -74.2793
 115   2.0000      -2.729690       -74.2787
 116   2.0000      -1.325342       -36.0644
 117   2.0000      -1.310458       -35.6594
 118   2.0000      -1.148359       -31.2484
 119   2.0000      -1.132039       -30.8044
 120   2.0000      -1.060741       -28.8642
 121   2.0000      -1.056929       -28.7605
 122   2.0000      -1.035273       -28.1712
 123   2.0000      -1.032529       -28.0966
 124   2.0000      -1.026500       -27.9325
 125   2.0000      -1.022377       -27.8203
 126   2.0000      -1.021035       -27.7838
 127   2.0000      -1.019073       -27.7304
 128   2.0000      -1.016975       -27.6733
 129   2.0000      -1.012088       -27.5403
 130   2.0000      -1.010619       -27.5003
 131   2.0000      -1.005077       -27.3495
 132   2.0000      -1.000099       -27.2141
 133   2.0000      -0.991927       -26.9917
 134   2.0000      -0.988635       -26.9021
 135   2.0000      -0.988066       -26.8867
 136   2.0000      -0.976863       -26.5818
 137   2.0000      -0.968189       -26.3458
 138   2.0000      -0.952613       -25.9219
 139   2.0000      -0.941382       -25.6163
 140   2.0000      -0.940212       -25.5845
 141   2.0000      -0.931868       -25.3574
 142   2.0000      -0.921442       -25.0737
 143   2.0000      -0.908145       -24.7119
 144   2.0000      -0.907801       -24.7025
 145   2.0000      -0.898404       -24.4468
 146   2.0000      -0.897653       -24.4264
 147   2.0000      -0.889787       -24.2123
 148   2.0000      -0.885750       -24.1025
 149   2.0000      -0.884765       -24.0757
 150   2.0000      -0.880341       -23.9553
 151   2.0000      -0.872457       -23.7407
 152   2.0000      -0.867651       -23.6100
 153   2.0000      -0.865415       -23.5491
 154   2.0000      -0.848146       -23.0792
 155   2.0000      -0.846282       -23.0285
 156   2.0000      -0.830119       -22.5887
 157   2.0000      -0.828455       -22.5434
 158   2.0000      -0.812321       -22.1044
 159   2.0000      -0.793165       -21.5831
 160   2.0000      -0.791291       -21.5321
 161   2.0000      -0.785985       -21.3877
 162   2.0000      -0.775359       -21.0986
 163   2.0000      -0.771524       -20.9942
 164   2.0000      -0.758992       -20.6532
 165   2.0000      -0.751854       -20.4590
 166   2.0000      -0.739511       -20.1231
 167   2.0000      -0.731017       -19.8920
 168   2.0000      -0.723249       -19.6806
 169   2.0000      -0.715622       -19.4731
 170   2.0000      -0.714069       -19.4308
 171   2.0000      -0.706488       -19.2245
 172   2.0000      -0.703474       -19.1425
 173   2.0000      -0.699781       -19.0420
 174   2.0000      -0.694100       -18.8874
 175   2.0000      -0.691516       -18.8171
 176   2.0000      -0.689671       -18.7669
 177   2.0000      -0.680718       -18.5233
 178   2.0000      -0.674536       -18.3550
 179   2.0000      -0.670097       -18.2343
 180   2.0000      -0.662314       -18.0225
 181   2.0000      -0.657629       -17.8950
 182   2.0000      -0.650486       -17.7006
 183   2.0000      -0.646508       -17.5924
 184   2.0000      -0.643595       -17.5131
 185   2.0000      -0.640062       -17.4170
 186   2.0000      -0.636580       -17.3222
 187   2.0000      -0.633199       -17.2302
 188   2.0000      -0.628908       -17.1135
 189   2.0000      -0.625972       -17.0336
 190   2.0000      -0.620353       -16.8807
 191   2.0000      -0.616552       -16.7772
 192   2.0000      -0.613271       -16.6880
 193   2.0000      -0.605057       -16.4644
 194   2.0000      -0.596906       -16.2426
 195   2.0000      -0.595471       -16.2036
 196   2.0000      -0.590041       -16.0558
 197   2.0000      -0.589873       -16.0513
 198   2.0000      -0.583818       -15.8865
 199   2.0000      -0.582009       -15.8373
 200   2.0000      -0.569243       -15.4899
 201   2.0000      -0.566522       -15.4158
 202   2.0000      -0.563782       -15.3413
 203   2.0000      -0.559384       -15.2216
 204   2.0000      -0.559019       -15.2117
 205   2.0000      -0.556671       -15.1478
 206   2.0000      -0.551356       -15.0032
 207   2.0000      -0.549566       -14.9545
 208   2.0000      -0.548950       -14.9377
 209   2.0000      -0.543972       -14.8022
 210   2.0000      -0.541281       -14.7290
 211   2.0000      -0.538931       -14.6651
 212   2.0000      -0.537716       -14.6320
 213   2.0000      -0.536342       -14.5946
 214   2.0000      -0.531118       -14.4525
 215   2.0000      -0.529758       -14.4154
 216   2.0000      -0.527818       -14.3627
 217   2.0000      -0.522294       -14.2124
 218   2.0000      -0.521997       -14.2043
 219   2.0000      -0.521093       -14.1797
 220   2.0000      -0.517152       -14.0724
 221   2.0000      -0.516245       -14.0477
 222   2.0000      -0.514194       -13.9919
 223   2.0000      -0.511394       -13.9157
 224   2.0000      -0.510874       -13.9016
 225   2.0000      -0.508495       -13.8368
 226   2.0000      -0.507201       -13.8016
 227   2.0000      -0.504632       -13.7317
 228   2.0000      -0.501958       -13.6590
 229   2.0000      -0.499018       -13.5790
 230   2.0000      -0.498032       -13.5521
 231   2.0000      -0.497214       -13.5299
 232   2.0000      -0.494184       -13.4474
 233   2.0000      -0.490521       -13.3478
 234   2.0000      -0.488999       -13.3063
 235   2.0000      -0.488356       -13.2888
 236   2.0000      -0.482999       -13.1431
 237   2.0000      -0.476130       -12.9562
 238   2.0000      -0.474527       -12.9125
 239   2.0000      -0.473566       -12.8864
 240   2.0000      -0.472346       -12.8532
 241   2.0000      -0.471986       -12.8434
 242   2.0000      -0.471175       -12.8213
 243   2.0000      -0.470151       -12.7935
 244   2.0000      -0.469462       -12.7747
 245   2.0000      -0.465856       -12.6766
 246   2.0000      -0.459821       -12.5124
 247   2.0000      -0.457429       -12.4473
 248   2.0000      -0.455421       -12.3926
 249   2.0000      -0.454328       -12.3629
 250   2.0000      -0.452981       -12.3262
 251   2.0000      -0.452338       -12.3087
 252   2.0000      -0.450862       -12.2686
 253   2.0000      -0.450057       -12.2467
 254   2.0000      -0.449205       -12.2235
 255   2.0000      -0.448451       -12.2030
 256   2.0000      -0.447655       -12.1813
 257   2.0000      -0.446883       -12.1603
 258   2.0000      -0.445059       -12.1107
 259   2.0000      -0.442409       -12.0386
 260   2.0000      -0.442203       -12.0330
 261   2.0000      -0.439717       -11.9653
 262   2.0000      -0.439267       -11.9531
 263   2.0000      -0.438689       -11.9373
 264   2.0000      -0.435890       -11.8612
 265   2.0000      -0.433165       -11.7870
 266   2.0000      -0.429747       -11.6940
 267   2.0000      -0.425886       -11.5889
 268   2.0000      -0.424887       -11.5618
 269   2.0000      -0.423857       -11.5337
 270   2.0000      -0.420237       -11.4352
 271   2.0000      -0.418265       -11.3816
 272   2.0000      -0.413505       -11.2520
 273   2.0000      -0.413216       -11.2442
 274   2.0000      -0.411267       -11.1912
 275   2.0000      -0.406875       -11.0716
 276   2.0000      -0.402864       -10.9625
 277   2.0000      -0.398796       -10.8518
 278   2.0000      -0.394212       -10.7271
 279   2.0000      -0.388798       -10.5797
 280   2.0000      -0.383859       -10.4453
 281   2.0000      -0.375554       -10.2193
 282   2.0000      -0.372355       -10.1323
 283   2.0000      -0.365853        -9.9554
 284   2.0000      -0.361803        -9.8452
 285   2.0000      -0.356787        -9.7087
 286   2.0000      -0.349200        -9.5022
 287   2.0000      -0.342050        -9.3076
 288   2.0000      -0.339545        -9.2395
 289   2.0000      -0.334534        -9.1031
 290   2.0000      -0.332159        -9.0385
 291   2.0000      -0.323838        -8.8121
 292   2.0000      -0.315848        -8.5947
 293   2.0000      -0.313040        -8.5183
 294   2.0000      -0.303749        -8.2654
 295   2.0000      -0.293742        -7.9931
 296   2.0000      -0.278432        -7.5765
 297   2.0000      -0.252575        -6.8729
 298   0.0000      -0.127031        -3.4567
 299   0.0000      -0.117005        -3.1839
 300   0.0000      -0.098735        -2.6867
 301   0.0000      -0.097281        -2.6471
 302   0.0000      -0.070104        -1.9076

MULLIKEN ATOMIC CHARGES
-----------------------
   0 C :   -0.111941
   1 C :    0.246554
   2 F :   -0.169088
   3 C :    0.239547
   4 F :   -0.170536
   5 C :   -0.108108
   6 C :    0.119334
   7 C :    0.117359
   8 C :   -0.088932
   9 C :    0.048141
  10 C :    0.002191
  11 C :   -0.085383
  12 C :    0.170509
  13 O :   -0.189510
  14 C :   -0.097333
  15 C :    0.329881
  16 C :   -0.355130
  17 C :   -0.197443
  18 N :    0.159726
  19 C :   -0.181545
  20 N :    0.151612
  21 C :   -0.029538
  22 C :   -0.052304
  23 C :   -0.060237
  24 C :    0.045962
  25 C :   -0.065652
  26 S :    0.247395
  27 C :   -0.104482
  28 C :    0.024324
  29 C :    0.304239
  30 C :   -0.294592
  31 C :   -0.187638
  32 N :    0.172054
  33 C :   -0.191959
  34 N :    0.189479
  35 C :   -0.068269
  36 C :   -0.043363
  37 S :    0.208397
  38 C :   -0.053710
  39 C :   -0.061371
  40 C :    0.017181
  41 C :   -0.096922
  42 S :    0.204117
  43 C :   -0.092322
  44 C :    0.021098
  45 C :    0.299579
  46 C :   -0.290898
  47 C :   -0.184282
  48 N :    0.176610
  49 C :   -0.187989
  50 N :    0.175888
  51 C :   -0.053830
  52 C :   -0.033589
  53 S :    0.189895
  54 C :   -0.139204
  55 C :   -0.053634
  56 C :    0.094146
  57 C :   -0.194512
  58 Si:    0.506939
  59 C :    0.010913
  60 C :   -0.086288
  61 C :    0.297034
  62 C :   -0.345152
  63 C :   -0.183686
  64 N :    0.145032
  65 C :   -0.203305
  66 N :    0.154358
  67 C :    0.014653
  68 C :   -0.013693
  69 C :    0.142008
  70 O :   -0.159903
  71 C :   -0.074946
  72 C :    0.117283
  73 C :   -0.088182
  74 C :   -0.021945
  75 S :    0.186395
  76 C :   -0.125017
  77 C :    0.040630
  78 Br:    0.023119
  79 H :    0.009160
  80 H :    0.000303
  81 H :   -0.005128
  82 H :   -0.009752
  83 H :    0.018490
  84 H :    0.030066
  85 H :    0.014676
  86 H :    0.015208
  87 H :    0.018092
  88 H :    0.000159
  89 H :    0.014117
  90 H :   -0.056409
  91 H :   -0.041377
  92 H :    0.020162
  93 H :   -0.013553
  94 H :   -0.006225
  95 H :   -0.004208
Sum of atomic charges:   -0.0000000

LOEWDIN ATOMIC CHARGES
----------------------
   0 C :   -0.028663
   1 C :    0.067672
   2 F :   -0.047302
   3 C :    0.068302
   4 F :   -0.048188
   5 C :   -0.032995
   6 C :   -0.009141
   7 C :   -0.005889
   8 C :    0.018642
   9 C :   -0.021808
  10 C :   -0.053004
  11 C :    0.030746
  12 C :    0.085876
  13 O :   -0.175539
  14 C :   -0.111591
  15 C :    0.075622
  16 C :   -0.139583
  17 C :   -0.023861
  18 N :   -0.046289
  19 C :   -0.017276
  20 N :   -0.051911
  21 C :    0.057745
  22 C :   -0.183387
  23 C :    0.014353
  24 C :   -0.078468
  25 C :   -0.165712
  26 S :    0.551204
  27 C :   -0.186876
  28 C :   -0.051275
  29 C :    0.077511
  30 C :   -0.097612
  31 C :   -0.015587
  32 N :   -0.031425
  33 C :   -0.020570
  34 N :   -0.019974
  35 C :   -0.041012
  36 C :   -0.168627
  37 S :    0.492969
  38 C :   -0.179730
  39 C :   -0.032958
  40 C :   -0.063300
  41 C :   -0.178298
  42 S :    0.491429
  43 C :   -0.172594
  44 C :   -0.070573
  45 C :    0.080268
  46 C :   -0.096769
  47 C :   -0.016644
  48 N :   -0.026820
  49 C :   -0.016486
  50 N :   -0.028652
  51 C :   -0.019675
  52 C :   -0.166796
  53 S :    0.479544
  54 C :   -0.154452
  55 C :   -0.039058
  56 C :    0.066124
  57 C :   -0.205164
  58 Si:    0.568442
  59 C :    0.059680
  60 C :   -0.103191
  61 C :    0.075579
  62 C :   -0.145035
  63 C :   -0.018427
  64 N :   -0.056473
  65 C :   -0.025283
  66 N :   -0.055414
  67 C :   -0.021258
  68 C :   -0.050276
  69 C :    0.082658
  70 O :   -0.147818
  71 C :    0.020331
  72 C :   -0.033348
  73 C :   -0.144188
  74 C :   -0.009873
  75 S :    0.432605
  76 C :   -0.271928
  77 C :   -0.070753
  78 Br:    0.136520
  79 H :    0.048388
  80 H :    0.045065
  81 H :    0.040538
  82 H :    0.040420
  83 H :    0.054118
  84 H :    0.048785
  85 H :    0.036524
  86 H :    0.037253
  87 H :    0.041585
  88 H :    0.023077
  89 H :    0.035362
  90 H :   -0.079277
  91 H :   -0.071764
  92 H :    0.041693
  93 H :    0.039708
  94 H :    0.040994
  95 H :    0.038515

  Mayer bond orders larger than 0.100000
B(  0-C ,  1-C ) :   1.4377 B(  0-C ,  5-C ) :   0.1087 B(  0-C ,  7-C ) :   1.1892
B(  0-C , 79-H ) :   1.0076 B(  1-C ,  2-F ) :   1.1371 B(  1-C ,  3-C ) :   1.1925
B(  3-C ,  4-F ) :   1.1348 B(  3-C ,  5-C ) :   1.4409 B(  5-C ,  6-C ) :   1.1901
B(  5-C , 80-H ) :   1.0080 B(  6-C ,  7-C ) :   1.2597 B(  6-C , 11-C ) :   1.1853
B(  7-C ,  8-C ) :   1.2111 B(  8-C ,  9-C ) :   1.4529 B(  8-C , 81-H ) :   0.9905
B(  9-C , 10-C ) :   1.2235 B(  9-C , 15-C ) :   0.9798 B( 10-C , 11-C ) :   1.4644
B( 10-C , 12-C ) :   0.9609 B( 11-C , 82-H ) :   1.0181 B( 12-C , 13-O ) :   2.1119
B( 12-C , 14-C ) :   0.9868 B( 14-C , 15-C ) :   1.0785 B( 14-C , 21-C ) :   1.4812
B( 15-C , 16-C ) :   1.6289 B( 16-C , 17-C ) :   1.1443 B( 16-C , 19-C ) :   1.1494
B( 17-C , 18-N ) :   2.9654 B( 19-C , 20-N ) :   2.9608 B( 21-C , 22-C ) :   1.2748
B( 21-C , 83-H ) :   0.9411 B( 22-C , 23-C ) :   1.3208 B( 22-C , 26-S ) :   1.0674
B( 23-C , 24-C ) :   1.3364 B( 23-C , 84-H ) :   1.0096 B( 24-C , 25-C ) :   1.3485
B( 24-C , 29-C ) :   0.9869 B( 25-C , 26-S ) :   1.1292 B( 25-C , 27-C ) :   1.2077
B( 27-C , 28-C ) :   1.4313 B( 27-C , 37-S ) :   1.1106 B( 28-C , 29-C ) :   0.9965
B( 28-C , 35-C ) :   1.3097 B( 29-C , 30-C ) :   1.7185 B( 30-C , 31-C ) :   1.1336
B( 30-C , 33-C ) :   1.1344 B( 31-C , 32-N ) :   2.9878 B( 33-C , 34-N ) :   2.9962
B( 35-C , 36-C ) :   1.4446 B( 35-C , 85-H ) :   0.9857 B( 36-C , 37-S ) :   1.1215
B( 36-C , 38-C ) :   1.1745 B( 38-C , 39-C ) :   1.4497 B( 38-C , 42-S ) :   1.1103
B( 39-C , 40-C ) :   1.3099 B( 39-C , 86-H ) :   0.9862 B( 40-C , 41-C ) :   1.4338
B( 40-C , 45-C ) :   0.9955 B( 41-C , 42-S ) :   1.1222 B( 41-C , 43-C ) :   1.1984
B( 43-C , 44-C ) :   1.4209 B( 43-C , 53-S ) :   1.1371 B( 44-C , 45-C ) :   0.9938
B( 44-C , 51-C ) :   1.2991 B( 45-C , 46-C ) :   1.7176 B( 46-C , 47-C ) :   1.1328
B( 46-C , 49-C ) :   1.1328 B( 47-C , 48-N ) :   2.9887 B( 49-C , 50-N ) :   2.9905
B( 51-C , 52-C ) :   1.4255 B( 51-C , 87-H ) :   0.9926 B( 52-C , 53-S ) :   1.0791
B( 52-C , 54-C ) :   1.1972 B( 54-C , 55-C ) :   1.5898 B( 54-C , 58-Si) :   0.8855
B( 55-C , 56-C ) :   1.1600 B( 55-C , 88-H ) :   0.9952 B( 56-C , 57-C ) :   1.5881
B( 56-C , 89-H ) :   0.9829 B( 57-C , 58-Si) :   0.9193 B( 57-C , 59-C ) :   1.2034
B( 58-Si, 90-H ) :   0.9605 B( 58-Si, 91-H ) :   0.9626 B( 59-C , 60-C ) :   1.5594
B( 59-C , 92-H ) :   0.9425 B( 60-C , 61-C ) :   1.0764 B( 60-C , 69-C ) :   0.9516
B( 61-C , 62-C ) :   1.6291 B( 61-C , 67-C ) :   1.0009 B( 62-C , 63-C ) :   1.1414
B( 62-C , 65-C ) :   1.1393 B( 63-C , 64-N ) :   2.9708 B( 65-C , 66-N ) :   2.9975
B( 67-C , 68-C ) :   1.2733 B( 67-C , 74-C ) :   1.4114 B( 68-C , 69-C ) :   0.9444
B( 68-C , 71-C ) :   1.4219 B( 69-C , 70-O ) :   2.1993 B( 71-C , 72-C ) :   1.2447
B( 71-C , 93-H ) :   1.0174 B( 72-C , 73-C ) :   1.3077 B( 72-C , 77-C ) :   1.1620
B( 73-C , 74-C ) :   1.3269 B( 73-C , 75-S ) :   1.0850 B( 74-C , 94-H ) :   0.9813
B( 75-S , 76-C ) :   1.0875 B( 76-C , 77-C ) :   1.6185 B( 76-C , 78-Br) :   1.0189
B( 77-C , 95-H ) :   1.0002

-----------------------------------------------------------------------------
         ABSORPTION SPECTRUM VIA TRANSITION ELECTRIC DIPOLE MOMENTS
-----------------------------------------------------------------------------
State   Energy  Wavelength   fosc         T2         TX        TY        TZ
        (cm-1)    (nm)                  (au**2)     (au)      (au)      (au)
-----------------------------------------------------------------------------
   0   11153.0    896.6   0.635045059  18.74517  -0.93735  -3.88873  -1.65659
   1   13250.8    754.7   0.262363153   6.51833   0.70352   2.23229   1.01995
   2   17899.3    558.7   1.874176448  34.47076   1.03622   5.12227   2.67570
   3   19979.3    500.5   0.137521970   2.26604  -0.62464  -1.16302  -0.72337
   4   20456.8    488.8   0.216366958   3.48200  -0.83882  -1.44735  -0.82678
   5   22366.8    447.1   0.124420901   1.83133  -0.41867  -1.00995  -0.79752
   6   25043.6    399.3   0.022653028   0.29779  -0.15302   0.29465   0.43308
   7   26075.2    383.5   0.009162275   0.11568   0.10723  -0.06204   0.31675
   8   26185.8    381.9   0.019124789   0.24044   0.15054  -0.40434  -0.23300
   9   26588.8    376.1   0.106564839   1.31944  -0.58524   0.06186   0.98647
  10   26831.3    372.7   0.068681494   0.84270   0.22250   0.79895   0.39354
  11   27248.8    367.0   0.030878383   0.37306  -0.38146   0.17556  -0.44354
  12   27579.7    362.6   0.029743100   0.35504   0.16317   0.11456   0.56151
  13   28241.6    354.1   0.001188033   0.01385  -0.08682   0.05691   0.05544
  14   28747.6    347.9   0.087693138   1.00424  -0.42916  -0.26164  -0.86695
  15   29173.1    342.8   0.002004576   0.02262   0.05319  -0.13942   0.01879
  16   29359.2    340.6   0.090570925   1.01559  -0.24454   0.55792   0.80282
  17   29440.2    339.7   0.275873083   3.08492  -0.43603  -0.50230  -1.62557
  18   30280.4    330.2   0.487706979   5.30240  -0.30429  -1.37870   1.81907
  19   30565.5    327.2   0.176555866   1.90163   0.20786  -1.36290   0.03061
  20   30578.5    327.0   0.050729377   0.54616  -0.62457  -0.15466   0.36352
  21   31276.2    319.7   0.597293378   6.28709  -0.59931   0.28757  -2.41769
  22   31460.5    317.9   0.100883929   1.05568  -0.20494  -0.59439  -0.81264
  23   31933.4    313.2   0.018459390   0.19030   0.18440  -0.23758  -0.31600
  24   32272.3    309.9   0.128141461   1.30718   0.05339  -0.02696   1.14175
  25   32407.4    308.6   0.377120072   3.83099  -0.80485  -0.28774   1.76080
  26   32607.8    306.7   0.373090824   3.76677  -0.78049   1.42707  -1.05881
  27   32742.2    305.4   0.143013800   1.43796   0.08365   0.50783  -1.08308
  28   33097.3    302.1   0.299909703   2.98314  -0.76794  -0.39273  -1.49639
  29   33199.5    301.2   0.114706904   1.13746  -0.35744  -0.83977  -0.55180
  30   33545.6    298.1   0.006776279   0.06650   0.09565   0.20906   0.11681
  31   33632.4    297.3   0.084519810   0.82733   0.11042  -0.54853   0.71711
  32   33950.8    294.5   0.130245944   1.26296   0.63020   0.48067   0.79672
  33   34042.0    293.8   0.067216476   0.65003   0.17823  -0.59934  -0.50897
  34   34452.5    290.3   0.298860771   2.85577  -0.32198   0.62466  -1.53685
  35   34708.0    288.1   0.069459564   0.65884  -0.62652  -0.13443  -0.49823
  36   34843.5    287.0   0.054637305   0.51623   0.21675  -0.63372   0.26009
  37   34969.4    286.0   0.309585913   2.91453  -0.00355   0.08501   1.70508
  38   35015.8    285.6   0.124091923   1.16669  -0.69092  -0.44160   0.70307
  39   35513.0    281.6   0.047754704   0.44269   0.10897  -0.28072   0.59331
  40   35682.7    280.2   0.059606932   0.54994   0.18393  -0.70022   0.16061
  41   35821.6    279.2   0.036928886   0.33939   0.01469  -0.29936   0.49956
  42   36274.2    275.7   0.083505577   0.75787   0.39993  -0.14650   0.75925
  43   36675.6    272.7   0.032154182   0.28863  -0.20203   0.20456  -0.45383
  44   36963.4    270.5   0.040813283   0.36350   0.05140  -0.41935   0.43012
  45   37070.7    269.8   0.055881217   0.49626   0.01194   0.68258   0.17380
  46   37130.5    269.3   0.033353234   0.29572  -0.26765  -0.00682  -0.47333
  47   37297.2    268.1   0.081413287   0.71861   0.10229  -0.70198   0.46409
  48   37436.0    267.1   0.023015497   0.20240  -0.06980  -0.36117   0.25900
  49   37971.5    263.4   0.058261125   0.50512  -0.12665  -0.57487   0.39826
  50   38178.4    261.9   0.068357578   0.58945  -0.00513  -0.76754   0.01732
  51   38289.4    261.2   0.013714544   0.11792  -0.07938  -0.11093   0.31514
  52   38677.6    258.5   0.079684242   0.67825   0.35300   0.73483   0.11688
  53   38843.1    257.4   0.098274836   0.83292  -0.32869  -0.78762  -0.32333
  54   39075.6    255.9   0.025223590   0.21251   0.11796   0.20489  -0.39574
  55   39413.2    253.7   0.009018274   0.07533  -0.12021  -0.20733  -0.13375
  56   39766.1    251.5   0.009654291   0.07992   0.28254  -0.00464   0.00854

FINAL SINGLE POINT ENERGY     -7934.403746575993

DIPOLE MOMENT
-------------
                                X             Y             Z
Electronic contribution:     13.02392    -104.99314     -91.07172
Nuclear contribution   :    -11.83329     104.67087      90.55261
                        -----------------------------------------
Total Dipole Moment    :      1.19063      -0.32227      -0.51911
                        -----------------------------------------
Magnitude (a.u.)       :      1.33826
Magnitude (Debye)      :      3.40159

Rotational constants in cm-1:     0.001510     0.000113     0.000109
Rotational constants in MHz :    45.279086     3.390611     3.263952

                             ****ORCA TERMINATED NORMALLY****
TOTAL RUN TIME: 0 days 0 hours 10 minutes 37 seconds 843 msec
