                         Program Version 4.2.0 -  RELEASE  -
|  1> # ORCA input file
|  2> # SCF done       -187.592921302872          0.000370374043
|  3> ! CAM-B3LYP def2-SVP def2/J RIJCOSX Grid4 TightSCF
|  4> %maxcore 5000
|  5> %tddft
|  6>     Mode sTDDFT
|  7>     Ethresh 5.0
|  8>     maxcore 5000
|  9> end
| 10>
| 11> %pal
| 12>   nprocs 6
| 13>   end
| 14> * xyz 0 1
| 15>    C      -10.04404        -0.26521        -3.23840
| 16>    C      -11.23459        -0.48260        -3.87346
| 17>    F      -11.95791         0.55287        -4.32189
| 18>    C      -11.71664        -1.79253        -4.06438
| 19>    F      -12.88834        -1.97671        -4.68970
| 20>    C      -11.00072        -2.86792        -3.61814
| 21>    C       -9.77075        -2.67643        -2.95986
| 22>    C       -9.28241        -1.35241        -2.76518
| 23>    C       -8.05185        -1.13473        -2.10283
| 24>    C       -7.33350        -2.20817        -1.64718
| 25>    C       -7.83018        -3.52570        -1.84663
| 26>    C       -9.01143        -3.76890        -2.48409
| 27>    C       -6.88575        -4.49293        -1.25457
| 28>    O       -7.00219        -5.70508        -1.26795
| 29>    C       -5.80948        -3.69664        -0.65707
| 30>    C       -6.06183        -2.29683        -0.93027
| 31>    C       -5.26845        -1.22351        -0.60774
| 32>    C       -4.02703        -1.28045         0.05769
| 33>    N       -3.00846        -1.23879         0.58890
| 34>    C       -5.58697         0.11469        -0.91860
| 35>    N       -5.78525         1.22390        -1.13978
| 36>    C       -4.75682        -4.17717         0.08752
| 37>    C       -4.40545        -5.48036         0.45042
| 38>    C       -3.30163        -5.78224         1.27534
| 39>    C       -2.32351        -4.77779         1.79470
| 40>    C       -1.27627        -4.43890         0.72960
| 41>    C       -3.17949        -7.14018         1.51658
| 42>    C       -4.14887        -7.91322         0.88857
| 43>    S       -5.25278        -6.93843        -0.01575
| 44>    C       -4.25864        -9.32826         0.96960
| 45>    C       -5.13154       -10.04502         0.22666
| 46>    C       -5.32102       -11.46468         0.24269
| 47>    C       -4.83764       -12.37250         1.17661
| 48>    F       -4.10897       -11.94508         2.22602
| 49>    C       -5.09215       -13.75362         1.13578
| 50>    F       -4.62797       -14.46047         2.18665
| 51>    C       -5.81311       -14.38086         0.13082
| 52>    C       -6.33956       -13.47395        -0.82241
| 53>    C       -6.11031       -12.07077        -0.76529
| 54>    N       -6.75856       -11.51980        -1.80040
| 55>    N       -7.31857       -12.52868        -2.40739
| 56>    N       -7.11083       -13.70709        -1.89311
| 57>    C       -8.11491       -12.35451        -3.58246
| 58>    C       -6.12933       -15.78386         0.01203
| 59>    S       -7.68656       -16.15053        -0.67323
| 60>    C       -7.38905       -17.85711        -0.55576
| 61>    C       -6.13070       -18.11133        -0.04143
| 62>    C       -5.41709       -16.93673         0.28356
| 63>    C       -3.99359       -17.00442         0.74724
| 64>    C       -3.66325       -18.38003         1.31843
| 65>    C       -4.05646       -19.47045         0.31852
| 66>    C       -3.55000       -20.80920         0.78518
| 67>    O       -4.22447       -21.77415         1.00391
| 68>    C       -5.57171       -19.48574         0.13262
| 69>    C       -8.40415       -18.74632        -1.00851
| 70>    C       -9.51805       -18.37531        -1.74018
| 71>    C      -10.34315       -19.46044        -2.03223
| 72>    C       -9.86366       -20.66678        -1.50839
| 73>    S       -8.39040       -20.46929        -0.66921
| 74>    C      -10.77522       -21.70384        -1.86346
| 75>    C      -11.82128       -21.14519        -2.60753
| 76>    C      -11.58618       -19.72151        -2.74897
| 77>    C      -12.34587       -18.81120        -3.42484
| 78>    C      -11.98697       -17.45022        -3.51205
| 79>    N      -11.69848       -16.34309        -3.59674
| 80>    C      -13.53295       -19.17172        -4.09574
| 81>    N      -14.49873       -19.45789        -4.64399
| 82>    C      -12.77424       -22.10561        -3.00035
| 83>    C      -12.43899       -23.34704        -2.55487
| 84>    S      -10.96034       -23.38598        -1.64913
| 85>    H       -9.68942         0.74429        -3.10028
| 86>    H      -11.38361        -3.86472        -3.77154
| 87>    H       -7.71400        -0.11999        -1.97013
| 88>    H       -9.36361        -4.78017        -2.61973
| 89>    H       -4.08673        -3.42682         0.48485
| 90>    H       -1.82118        -5.19908         2.66713
| 91>    H       -2.82664        -3.86158         2.10738
| 92>    H       -0.74002        -5.33523         0.42600
| 93>    H       -0.56421        -3.72124         1.12692
| 94>    H       -1.74640        -4.00303        -0.14838
| 95>    H       -2.40365        -7.56790         2.12794
| 96>    H       -3.58091        -9.81133         1.65867
| 97>    H       -5.75691        -9.52858        -0.49050
| 98>    H       -8.48879       -11.33336        -3.59676
| 99>    H       -8.93556       -13.06949        -3.56238
|100>    H       -7.51201       -12.53168        -4.47508
|101>    H       -3.78830       -16.25459         1.50537
|102>    H       -3.34106       -16.79433        -0.10769
|103>    H       -4.21462       -18.53167         2.24823
|104>    H       -2.59643       -18.43441         1.54225
|105>    H       -3.56036       -19.25428        -0.63596
|106>    H       -2.45076       -20.83198         0.92896
|107>    H       -6.02808       -19.96179         1.00743
|108>    H       -5.82589       -20.10690        -0.73045
|109>    H       -9.69602       -17.35956        -2.04341
|110>    H      -13.65627       -21.89559        -3.57723
|111>    H      -12.97282       -24.26460        -2.70038
|112> *
|113>
|114>                          ****END OF INPUT****

CARTESIAN COORDINATES (ANGSTROEM)
---------------------------------
  C    -10.044040   -0.265210   -3.238400
  C    -11.234590   -0.482600   -3.873460
  F    -11.957910    0.552870   -4.321890
  C    -11.716640   -1.792530   -4.064380
  F    -12.888340   -1.976710   -4.689700
  C    -11.000720   -2.867920   -3.618140
  C     -9.770750   -2.676430   -2.959860
  C     -9.282410   -1.352410   -2.765180
  C     -8.051850   -1.134730   -2.102830
  C     -7.333500   -2.208170   -1.647180
  C     -7.830180   -3.525700   -1.846630
  C     -9.011430   -3.768900   -2.484090
  C     -6.885750   -4.492930   -1.254570
  O     -7.002190   -5.705080   -1.267950
  C     -5.809480   -3.696640   -0.657070
  C     -6.061830   -2.296830   -0.930270
  C     -5.268450   -1.223510   -0.607740
  C     -4.027030   -1.280450    0.057690
  N     -3.008460   -1.238790    0.588900
  C     -5.586970    0.114690   -0.918600
  N     -5.785250    1.223900   -1.139780
  C     -4.756820   -4.177170    0.087520
  C     -4.405450   -5.480360    0.450420
  C     -3.301630   -5.782240    1.275340
  C     -2.323510   -4.777790    1.794700
  C     -1.276270   -4.438900    0.729600
  C     -3.179490   -7.140180    1.516580
  C     -4.148870   -7.913220    0.888570
  S     -5.252780   -6.938430   -0.015750
  C     -4.258640   -9.328260    0.969600
  C     -5.131540  -10.045020    0.226660
  C     -5.321020  -11.464680    0.242690
  C     -4.837640  -12.372500    1.176610
  F     -4.108970  -11.945080    2.226020
  C     -5.092150  -13.753620    1.135780
  F     -4.627970  -14.460470    2.186650
  C     -5.813110  -14.380860    0.130820
  C     -6.339560  -13.473950   -0.822410
  C     -6.110310  -12.070770   -0.765290
  N     -6.758560  -11.519800   -1.800400
  N     -7.318570  -12.528680   -2.407390
  N     -7.110830  -13.707090   -1.893110
  C     -8.114910  -12.354510   -3.582460
  C     -6.129330  -15.783860    0.012030
  S     -7.686560  -16.150530   -0.673230
  C     -7.389050  -17.857110   -0.555760
  C     -6.130700  -18.111330   -0.041430
  C     -5.417090  -16.936730    0.283560
  C     -3.993590  -17.004420    0.747240
  C     -3.663250  -18.380030    1.318430
  C     -4.056460  -19.470450    0.318520
  C     -3.550000  -20.809200    0.785180
  O     -4.224470  -21.774150    1.003910
  C     -5.571710  -19.485740    0.132620
  C     -8.404150  -18.746320   -1.008510
  C     -9.518050  -18.375310   -1.740180
  C    -10.343150  -19.460440   -2.032230
  C     -9.863660  -20.666780   -1.508390
  S     -8.390400  -20.469290   -0.669210
  C    -10.775220  -21.703840   -1.863460
  C    -11.821280  -21.145190   -2.607530
  C    -11.586180  -19.721510   -2.748970
  C    -12.345870  -18.811200   -3.424840
  C    -11.986970  -17.450220   -3.512050
  N    -11.698480  -16.343090   -3.596740
  C    -13.532950  -19.171720   -4.095740
  N    -14.498730  -19.457890   -4.643990
  C    -12.774240  -22.105610   -3.000350
  C    -12.438990  -23.347040   -2.554870
  S    -10.960340  -23.385980   -1.649130
  H     -9.689420    0.744290   -3.100280
  H    -11.383610   -3.864720   -3.771540
  H     -7.714000   -0.119990   -1.970130
  H     -9.363610   -4.780170   -2.619730
  H     -4.086730   -3.426820    0.484850
  H     -1.821180   -5.199080    2.667130
  H     -2.826640   -3.861580    2.107380
  H     -0.740020   -5.335230    0.426000
  H     -0.564210   -3.721240    1.126920
  H     -1.746400   -4.003030   -0.148380
  H     -2.403650   -7.567900    2.127940
  H     -3.580910   -9.811330    1.658670
  H     -5.756910   -9.528580   -0.490500
  H     -8.488790  -11.333360   -3.596760
  H     -8.935560  -13.069490   -3.562380
  H     -7.512010  -12.531680   -4.475080
  H     -3.788300  -16.254590    1.505370
  H     -3.341060  -16.794330   -0.107690
  H     -4.214620  -18.531670    2.248230
  H     -2.596430  -18.434410    1.542250
  H     -3.560360  -19.254280   -0.635960
  H     -2.450760  -20.831980    0.928960
  H     -6.028080  -19.961790    1.007430
  H     -5.825890  -20.106900   -0.730450
  H     -9.696020  -17.359560   -2.043410
  H    -13.656270  -21.895590   -3.577230
  H    -12.972820  -24.264600   -2.700380

 Total Charge           Charge          ....    0
 Multiplicity           Mult            ....    1
 Number of Electrons    NEL             ....  510
 Basis Dimension        Dim             .... 1131

ORBITAL ENERGIES
----------------

  NO   OCC          E(Eh)            E(eV)
   0   2.0000     -88.986067     -2421.4340
   1   2.0000     -88.982837     -2421.3461
   2   2.0000     -88.957946     -2420.6688
   3   2.0000     -88.954717     -2420.5809
   4   2.0000     -24.801480      -674.8826
   5   2.0000     -24.800926      -674.8675
   6   2.0000     -24.795436      -674.7181
   7   2.0000     -24.794212      -674.6848
   8   2.0000     -19.222981      -523.0839
   9   2.0000     -19.215528      -522.8811
  10   2.0000     -14.550205      -395.9312
  11   2.0000     -14.451114      -393.2348
  12   2.0000     -14.450240      -393.2110
  13   2.0000     -14.427416      -392.5899
  14   2.0000     -14.425473      -392.5371
  15   2.0000     -14.415965      -392.2783
  16   2.0000     -14.409895      -392.1132
  17   2.0000     -10.379895      -282.4513
  18   2.0000     -10.378894      -282.4241
  19   2.0000     -10.378255      -282.4067
  20   2.0000     -10.377296      -282.3806
  21   2.0000     -10.364875      -282.0426
  22   2.0000     -10.360995      -281.9370
  23   2.0000     -10.358477      -281.8685
  24   2.0000     -10.346860      -281.5524
  25   2.0000     -10.338101      -281.3140
  26   2.0000     -10.335979      -281.2563
  27   2.0000     -10.328408      -281.0503
  28   2.0000     -10.326141      -280.9886
  29   2.0000     -10.325631      -280.9747
  30   2.0000     -10.325449      -280.9698
  31   2.0000     -10.322063      -280.8776
  32   2.0000     -10.321951      -280.8746
  33   2.0000     -10.319512      -280.8082
  34   2.0000     -10.318897      -280.7915
  35   2.0000     -10.317676      -280.7582
  36   2.0000     -10.316693      -280.7315
  37   2.0000     -10.315913      -280.7103
  38   2.0000     -10.313731      -280.6509
  39   2.0000     -10.311254      -280.5835
  40   2.0000     -10.308776      -280.5160
  41   2.0000     -10.308640      -280.5123
  42   2.0000     -10.308526      -280.5093
  43   2.0000     -10.307536      -280.4823
  44   2.0000     -10.306752      -280.4610
  45   2.0000     -10.306395      -280.4513
  46   2.0000     -10.306319      -280.4492
  47   2.0000     -10.302829      -280.3542
  48   2.0000     -10.298374      -280.2330
  49   2.0000     -10.298088      -280.2252
  50   2.0000     -10.298052      -280.2242
  51   2.0000     -10.297952      -280.2215
  52   2.0000     -10.297123      -280.1990
  53   2.0000     -10.296243      -280.1750
  54   2.0000     -10.295143      -280.1451
  55   2.0000     -10.293590      -280.1028
  56   2.0000     -10.293042      -280.0879
  57   2.0000     -10.292853      -280.0828
  58   2.0000     -10.291846      -280.0554
  59   2.0000     -10.291324      -280.0412
  60   2.0000     -10.288768      -279.9716
  61   2.0000     -10.287131      -279.9271
  62   2.0000     -10.286012      -279.8966
  63   2.0000     -10.282401      -279.7984
  64   2.0000     -10.282015      -279.7879
  65   2.0000     -10.279195      -279.7111
  66   2.0000     -10.278363      -279.6885
  67   2.0000     -10.276378      -279.6345
  68   2.0000     -10.276186      -279.6292
  69   2.0000     -10.258461      -279.1469
  70   2.0000      -8.079820      -219.8631
  71   2.0000      -8.077913      -219.8112
  72   2.0000      -8.051701      -219.0979
  73   2.0000      -8.049765      -219.0453
  74   2.0000      -6.049130      -164.6052
  75   2.0000      -6.047156      -164.5515
  76   2.0000      -6.044799      -164.4873
  77   2.0000      -6.042721      -164.4308
  78   2.0000      -6.042315      -164.4198
  79   2.0000      -6.040518      -164.3709
  80   2.0000      -6.021013      -163.8401
  81   2.0000      -6.019152      -163.7895
  82   2.0000      -6.016628      -163.7208
  83   2.0000      -6.014884      -163.6733
  84   2.0000      -6.013933      -163.6474
  85   2.0000      -6.011715      -163.5871
  86   2.0000      -1.323715       -36.0201
  87   2.0000      -1.317441       -35.8494
  88   2.0000      -1.304738       -35.5037
  89   2.0000      -1.302601       -35.4456
  90   2.0000      -1.229200       -33.4482
  91   2.0000      -1.137479       -30.9524
  92   2.0000      -1.131127       -30.7795
  93   2.0000      -1.037823       -28.2406
  94   2.0000      -1.017743       -27.6942
  95   2.0000      -1.016728       -27.6666
  96   2.0000      -1.008423       -27.4406
  97   2.0000      -1.003943       -27.3187
  98   2.0000      -1.001608       -27.2551
  99   2.0000      -1.000871       -27.2351
 100   2.0000      -0.995022       -27.0759
 101   2.0000      -0.993414       -27.0322
 102   2.0000      -0.991253       -26.9734
 103   2.0000      -0.980541       -26.6819
 104   2.0000      -0.977335       -26.5946
 105   2.0000      -0.951217       -25.8839
 106   2.0000      -0.935816       -25.4648
 107   2.0000      -0.932394       -25.3717
 108   2.0000      -0.928891       -25.2764
 109   2.0000      -0.919294       -25.0153
 110   2.0000      -0.907019       -24.6812
 111   2.0000      -0.899379       -24.4733
 112   2.0000      -0.891244       -24.2520
 113   2.0000      -0.888162       -24.1681
 114   2.0000      -0.878222       -23.8976
 115   2.0000      -0.871582       -23.7170
 116   2.0000      -0.861237       -23.4354
 117   2.0000      -0.854429       -23.2502
 118   2.0000      -0.848460       -23.0878
 119   2.0000      -0.839250       -22.8371
 120   2.0000      -0.836836       -22.7715
 121   2.0000      -0.828921       -22.5561
 122   2.0000      -0.822474       -22.3806
 123   2.0000      -0.816994       -22.2315
 124   2.0000      -0.808712       -22.0062
 125   2.0000      -0.787566       -21.4307
 126   2.0000      -0.772611       -21.0238
 127   2.0000      -0.769682       -20.9441
 128   2.0000      -0.764287       -20.7973
 129   2.0000      -0.753282       -20.4978
 130   2.0000      -0.750207       -20.4142
 131   2.0000      -0.739473       -20.1221
 132   2.0000      -0.736310       -20.0360
 133   2.0000      -0.720164       -19.5966
 134   2.0000      -0.717405       -19.5216
 135   2.0000      -0.714162       -19.4333
 136   2.0000      -0.709216       -19.2987
 137   2.0000      -0.702199       -19.1078
 138   2.0000      -0.698195       -18.9988
 139   2.0000      -0.690478       -18.7888
 140   2.0000      -0.676962       -18.4211
 141   2.0000      -0.673813       -18.3354
 142   2.0000      -0.672720       -18.3056
 143   2.0000      -0.664126       -18.0718
 144   2.0000      -0.661316       -17.9953
 145   2.0000      -0.652752       -17.7623
 146   2.0000      -0.647999       -17.6329
 147   2.0000      -0.644920       -17.5492
 148   2.0000      -0.639942       -17.4137
 149   2.0000      -0.636779       -17.3276
 150   2.0000      -0.635477       -17.2922
 151   2.0000      -0.628418       -17.1001
 152   2.0000      -0.624483       -16.9931
 153   2.0000      -0.619756       -16.8644
 154   2.0000      -0.613998       -16.7077
 155   2.0000      -0.611320       -16.6349
 156   2.0000      -0.609101       -16.5745
 157   2.0000      -0.607712       -16.5367
 158   2.0000      -0.601567       -16.3695
 159   2.0000      -0.595378       -16.2011
 160   2.0000      -0.590597       -16.0710
 161   2.0000      -0.586692       -15.9647
 162   2.0000      -0.586267       -15.9531
 163   2.0000      -0.582190       -15.8422
 164   2.0000      -0.575537       -15.6612
 165   2.0000      -0.572549       -15.5799
 166   2.0000      -0.568603       -15.4725
 167   2.0000      -0.560593       -15.2545
 168   2.0000      -0.552111       -15.0237
 169   2.0000      -0.550149       -14.9703
 170   2.0000      -0.549167       -14.9436
 171   2.0000      -0.546216       -14.8633
 172   2.0000      -0.543902       -14.8003
 173   2.0000      -0.543674       -14.7941
 174   2.0000      -0.540728       -14.7140
 175   2.0000      -0.537201       -14.6180
 176   2.0000      -0.535721       -14.5777
 177   2.0000      -0.533051       -14.5051
 178   2.0000      -0.532019       -14.4770
 179   2.0000      -0.530119       -14.4253
 180   2.0000      -0.527842       -14.3633
 181   2.0000      -0.526026       -14.3139
 182   2.0000      -0.519303       -14.1310
 183   2.0000      -0.514718       -14.0062
 184   2.0000      -0.513438       -13.9714
 185   2.0000      -0.512591       -13.9483
 186   2.0000      -0.511040       -13.9061
 187   2.0000      -0.509655       -13.8684
 188   2.0000      -0.507701       -13.8153
 189   2.0000      -0.505285       -13.7495
 190   2.0000      -0.502173       -13.6648
 191   2.0000      -0.500725       -13.6254
 192   2.0000      -0.498450       -13.5635
 193   2.0000      -0.495017       -13.4701
 194   2.0000      -0.494491       -13.4558
 195   2.0000      -0.492080       -13.3902
 196   2.0000      -0.489898       -13.3308
 197   2.0000      -0.486587       -13.2407
 198   2.0000      -0.482764       -13.1367
 199   2.0000      -0.481821       -13.1110
 200   2.0000      -0.476303       -12.9609
 201   2.0000      -0.474418       -12.9096
 202   2.0000      -0.471589       -12.8326
 203   2.0000      -0.469504       -12.7759
 204   2.0000      -0.469169       -12.7667
 205   2.0000      -0.465599       -12.6696
 206   2.0000      -0.464794       -12.6477
 207   2.0000      -0.461287       -12.5523
 208   2.0000      -0.459028       -12.4908
 209   2.0000      -0.454938       -12.3795
 210   2.0000      -0.454096       -12.3566
 211   2.0000      -0.453792       -12.3483
 212   2.0000      -0.447788       -12.1849
 213   2.0000      -0.447455       -12.1759
 214   2.0000      -0.446105       -12.1391
 215   2.0000      -0.443166       -12.0592
 216   2.0000      -0.440282       -11.9807
 217   2.0000      -0.440137       -11.9767
 218   2.0000      -0.437005       -11.8915
 219   2.0000      -0.436931       -11.8895
 220   2.0000      -0.435125       -11.8404
 221   2.0000      -0.432310       -11.7638
 222   2.0000      -0.430455       -11.7133
 223   2.0000      -0.428938       -11.6720
 224   2.0000      -0.426106       -11.5949
 225   2.0000      -0.424907       -11.5623
 226   2.0000      -0.423541       -11.5251
 227   2.0000      -0.423138       -11.5142
 228   2.0000      -0.419565       -11.4169
 229   2.0000      -0.416978       -11.3465
 230   2.0000      -0.412609       -11.2277
 231   2.0000      -0.408004       -11.1024
 232   2.0000      -0.405634       -11.0379
 233   2.0000      -0.404315       -11.0020
 234   2.0000      -0.402109       -10.9419
 235   2.0000      -0.397898       -10.8274
 236   2.0000      -0.396913       -10.8005
 237   2.0000      -0.385579       -10.4921
 238   2.0000      -0.378930       -10.3112
 239   2.0000      -0.375314       -10.2128
 240   2.0000      -0.370787       -10.0896
 241   2.0000      -0.348607        -9.4861
 242   2.0000      -0.341364        -9.2890
 243   2.0000      -0.333535        -9.0760
 244   2.0000      -0.329888        -8.9767
 245   2.0000      -0.328217        -8.9312
 246   2.0000      -0.324868        -8.8401
 247   2.0000      -0.322913        -8.7869
 248   2.0000      -0.316489        -8.6121
 249   2.0000      -0.314134        -8.5480
 250   2.0000      -0.307991        -8.3809
 251   2.0000      -0.301804        -8.2125
 252   2.0000      -0.293825        -7.9954
 253   2.0000      -0.264208        -7.1895
 254   2.0000      -0.242346        -6.5946
 255   0.0000      -0.099295        -2.7020
 256   0.0000      -0.095582        -2.6009
 257   0.0000      -0.062403        -1.6981
 258   0.0000      -0.053043        -1.4434
 259   0.0000      -0.029477        -0.8021

MULLIKEN ATOMIC CHARGES
-----------------------
   0 C :   -0.114823
   1 C :    0.244591
   2 F :   -0.172293
   3 C :    0.240441
   4 F :   -0.173410
   5 C :   -0.110265
   6 C :    0.122280
   7 C :    0.118136
   8 C :   -0.090645
   9 C :    0.047647
  10 C :    0.003661
  11 C :   -0.092000
  12 C :    0.158401
  13 O :   -0.173422
  14 C :   -0.106323
  15 C :    0.331532
  16 C :   -0.365016
  17 C :   -0.185896
  18 N :    0.141029
  19 C :   -0.181570
  20 N :    0.139577
  21 C :   -0.020768
  22 C :   -0.090048
  23 C :   -0.001437
  24 C :    0.076158
  25 C :    0.028999
  26 C :   -0.037485
  27 C :   -0.007790
  28 S :    0.177371
  29 C :    0.018975
  30 C :   -0.031156
  31 C :    0.018761
  32 C :    0.161655
  33 F :   -0.178449
  34 C :    0.137541
  35 F :   -0.176641
  36 C :    0.043516
  37 C :   -0.053900
  38 C :   -0.032235
  39 N :   -0.053829
  40 N :   -0.072612
  41 N :   -0.060771
  42 C :    0.143218
  43 C :   -0.176830
  44 S :    0.166047
  45 C :   -0.081230
  46 C :   -0.103741
  47 C :   -0.072531
  48 C :    0.170605
  49 C :   -0.001282
  50 C :   -0.125096
  51 C :    0.156039
  52 O :   -0.171475
  53 C :    0.162257
  54 C :   -0.081169
  55 C :   -0.069248
  56 C :    0.028510
  57 C :   -0.098663
  58 S :    0.172581
  59 C :   -0.113054
  60 C :   -0.038127
  61 C :    0.304004
  62 C :   -0.302774
  63 C :   -0.184064
  64 N :    0.160018
  65 C :   -0.192979
  66 N :    0.172900
  67 C :    0.037524
  68 C :   -0.084908
  69 S :    0.181223
  70 H :    0.006708
  71 H :   -0.003281
  72 H :   -0.007687
  73 H :   -0.013679
  74 H :   -0.013964
  75 H :    0.003805
  76 H :    0.029477
  77 H :    0.007715
  78 H :    0.031031
  79 H :    0.016073
  80 H :   -0.021479
  81 H :    0.002148
  82 H :    0.018087
  83 H :    0.054543
  84 H :    0.067246
  85 H :    0.055827
  86 H :    0.020311
  87 H :    0.012037
  88 H :    0.019108
  89 H :    0.007225
  90 H :    0.020343
  91 H :   -0.006417
  92 H :    0.029390
  93 H :    0.022400
  94 H :    0.013412
  95 H :    0.010154
  96 H :    0.034221
Sum of atomic charges:   -0.0000000

LOEWDIN ATOMIC CHARGES
----------------------
   0 C :   -0.029322
   1 C :    0.065376
   2 F :   -0.050547
   3 C :    0.066778
   4 F :   -0.051216
   5 C :   -0.034294
   6 C :   -0.009178
   7 C :   -0.007544
   8 C :    0.016615
   9 C :   -0.022154
  10 C :   -0.049748
  11 C :    0.026307
  12 C :    0.080540
  13 O :   -0.166658
  14 C :   -0.117785
  15 C :    0.079170
  16 C :   -0.151957
  17 C :   -0.019177
  18 N :   -0.061259
  19 C :   -0.017677
  20 N :   -0.061247
  21 C :    0.058533
  22 C :   -0.193449
  23 C :    0.000816
  24 C :   -0.029114
  25 C :   -0.042420
  26 C :   -0.065324
  27 C :   -0.144057
  28 S :    0.504182
  29 C :   -0.031219
  30 C :   -0.000198
  31 C :   -0.059542
  32 C :    0.071514
  33 F :   -0.050038
  34 C :    0.058506
  35 F :   -0.048592
  36 C :   -0.063277
  37 C :   -0.058544
  38 C :   -0.048251
  39 N :   -0.088689
  40 N :    0.158267
  41 N :   -0.098191
  42 C :    0.034847
  43 C :   -0.173856
  44 S :    0.483547
  45 C :   -0.188293
  46 C :   -0.064468
  47 C :   -0.045484
  48 C :   -0.026903
  49 C :   -0.016303
  50 C :   -0.071303
  51 C :    0.118886
  52 O :   -0.121494
  53 C :   -0.032172
  54 C :   -0.177414
  55 C :   -0.040426
  56 C :   -0.068457
  57 C :   -0.192536
  58 S :    0.499426
  59 C :   -0.179324
  60 C :   -0.082443
  61 C :    0.086532
  62 C :   -0.108823
  63 C :   -0.013330
  64 N :   -0.043805
  65 C :   -0.017296
  66 N :   -0.036358
  67 C :   -0.034139
  68 C :   -0.181573
  69 S :    0.476754
  70 H :    0.047446
  71 H :    0.043833
  72 H :    0.039649
  73 H :    0.038864
  74 H :    0.046784
  75 H :    0.032762
  76 H :    0.034134
  77 H :    0.022955
  78 H :    0.031782
  79 H :    0.023923
  80 H :    0.028904
  81 H :    0.032951
  82 H :    0.034269
  83 H :    0.043487
  84 H :    0.047628
  85 H :    0.041803
  86 H :    0.029189
  87 H :    0.033947
  88 H :    0.028527
  89 H :    0.025132
  90 H :    0.038577
  91 H :   -0.006483
  92 H :    0.033284
  93 H :    0.025084
  94 H :    0.033253
  95 H :    0.041914
  96 H :    0.026676

  Mayer bond orders larger than 0.100000
B(  0-C ,  1-C ) :   1.4379 B(  0-C ,  5-C ) :   0.1094 B(  0-C ,  7-C ) :   1.1869
B(  0-C , 70-H ) :   1.0083 B(  1-C ,  2-F ) :   1.1341 B(  1-C ,  3-C ) :   1.1936
B(  3-C ,  4-F ) :   1.1323 B(  3-C ,  5-C ) :   1.4397 B(  5-C ,  6-C ) :   1.1916
B(  5-C , 71-H ) :   1.0083 B(  6-C ,  7-C ) :   1.2609 B(  6-C , 11-C ) :   1.1795
B(  7-C ,  8-C ) :   1.2105 B(  8-C ,  9-C ) :   1.4524 B(  8-C , 72-H ) :   0.9904
B(  9-C , 10-C ) :   1.2254 B(  9-C , 15-C ) :   0.9756 B( 10-C , 11-C ) :   1.4726
B( 10-C , 12-C ) :   0.9496 B( 11-C , 73-H ) :   1.0180 B( 12-C , 13-O ) :   2.1563
B( 12-C , 14-C ) :   0.9705 B( 14-C , 15-C ) :   1.0999 B( 14-C , 21-C ) :   1.4835
B( 15-C , 16-C ) :   1.6024 B( 16-C , 17-C ) :   1.1528 B( 16-C , 19-C ) :   1.1498
B( 17-C , 18-N ) :   2.9580 B( 19-C , 20-N ) :   2.9571 B( 21-C , 22-C ) :   1.3108
B( 21-C , 74-H ) :   0.9277 B( 22-C , 23-C ) :   1.3361 B( 22-C , 28-S ) :   1.0729
B( 23-C , 24-C ) :   1.0741 B( 23-C , 26-C ) :   1.3557 B( 24-C , 25-C ) :   1.1003
B( 24-C , 75-H ) :   0.9228 B( 24-C , 76-H ) :   0.9097 B( 25-C , 77-H ) :   0.9667
B( 25-C , 78-H ) :   0.9668 B( 25-C , 79-H ) :   0.9703 B( 26-C , 27-C ) :   1.3654
B( 26-C , 80-H ) :   1.0078 B( 27-C , 28-S ) :   1.1392 B( 27-C , 29-C ) :   1.1526
B( 29-C , 30-C ) :   1.6193 B( 29-C , 81-H ) :   0.9823 B( 30-C , 31-C ) :   1.1478
B( 30-C , 82-H ) :   0.9726 B( 31-C , 32-C ) :   1.3545 B( 31-C , 36-C ) :   0.1217
B( 31-C , 38-C ) :   1.1546 B( 32-C , 33-F ) :   1.1229 B( 32-C , 34-C ) :   1.1708
B( 34-C , 35-F ) :   1.1275 B( 34-C , 36-C ) :   1.4037 B( 36-C , 37-C ) :   1.1895
B( 36-C , 43-C ) :   1.0208 B( 37-C , 38-C ) :   1.2222 B( 37-C , 41-N ) :   1.4646
B( 38-C , 39-N ) :   1.4991 B( 39-N , 40-N ) :   1.2290 B( 39-N , 41-N ) :   0.1589
B( 40-N , 41-N ) :   1.2342 B( 40-N , 42-C ) :   0.9495 B( 42-C , 83-H ) :   0.9672
B( 42-C , 84-H ) :   0.9674 B( 42-C , 85-H ) :   0.9698 B( 43-C , 44-S ) :   1.1393
B( 43-C , 45-C ) :   0.1154 B( 43-C , 47-C ) :   1.5489 B( 44-S , 45-C ) :   1.1424
B( 45-C , 46-C ) :   1.5140 B( 45-C , 54-C ) :   1.1310 B( 46-C , 47-C ) :   1.3031
B( 46-C , 53-C ) :   1.0447 B( 47-C , 48-C ) :   1.0632 B( 48-C , 49-C ) :   1.0983
B( 48-C , 86-H ) :   0.8968 B( 48-C , 87-H ) :   0.9030 B( 49-C , 50-C ) :   1.0345
B( 49-C , 88-H ) :   0.9444 B( 49-C , 89-H ) :   0.9352 B( 50-C , 51-C ) :   0.9216
B( 50-C , 53-C ) :   1.0304 B( 50-C , 90-H ) :   0.9016 B( 51-C , 52-O ) :   2.2112
B( 51-C , 91-H ) :   0.9533 B( 53-C , 92-H ) :   0.9027 B( 53-C , 93-H ) :   0.9047
B( 54-C , 55-C ) :   1.4544 B( 54-C , 58-S ) :   1.1125 B( 55-C , 56-C ) :   1.2940
B( 55-C , 94-H ) :   0.9889 B( 56-C , 57-C ) :   1.4528 B( 56-C , 61-C ) :   0.9891
B( 57-C , 58-S ) :   1.1175 B( 57-C , 59-C ) :   1.1736 B( 59-C , 60-C ) :   1.4546
B( 59-C , 69-S ) :   1.1417 B( 60-C , 61-C ) :   1.0206 B( 60-C , 67-C ) :   1.2734
B( 61-C , 62-C ) :   1.7046 B( 62-C , 63-C ) :   1.1361 B( 62-C , 65-C ) :   1.1296
B( 63-C , 64-N ) :   2.9878 B( 65-C , 66-N ) :   3.0050 B( 67-C , 68-C ) :   1.5535
B( 67-C , 95-H ) :   0.9961 B( 68-C , 69-S ) :   1.1439 B( 68-C , 96-H ) :   0.9645

-----------------------------------------------------------------------------
         ABSORPTION SPECTRUM VIA TRANSITION ELECTRIC DIPOLE MOMENTS
-----------------------------------------------------------------------------
State   Energy  Wavelength   fosc         T2         TX        TY        TZ
        (cm-1)    (nm)                  (au**2)     (au)      (au)      (au)
-----------------------------------------------------------------------------
   0   13631.1    733.6   0.132456453   3.19902  -0.91382  -1.49606  -0.35460
   1   18019.5    555.0   1.637597720  29.91855  -0.00969   5.45355  -0.42104
   2   23507.6    425.4   0.267000781   3.73920   1.64839   0.02916   1.01053
   3   24401.2    409.8   0.079197168   1.06850   0.70307   0.66569   0.36201
   4   26051.4    383.9   0.032656022   0.41268  -0.03356   0.64007  -0.04309
   5   27186.4    367.8   0.454033512   5.49809   1.29042   1.85466   0.62702
   6   27629.6    361.9   0.015288429   0.18216  -0.40631  -0.07244  -0.10878
   7   28151.9    355.2   0.158412866   1.85250  -1.16718   0.32205  -0.62168
   8   29614.2    337.7   0.005470266   0.06081   0.09265  -0.22657   0.02989
   9   29889.9    334.6   0.062153267   0.68457  -0.73399  -0.12703  -0.36013
  10   30114.0    332.1   0.030079973   0.32884   0.44159   0.19168   0.31161
  11   30955.6    323.0   0.027189570   0.28916   0.30481   0.34304   0.28032
  12   31270.2    319.8   0.085430142   0.89941  -0.62478  -0.62903  -0.33672
  13   31536.5    317.1   0.214532044   2.23951  -1.30086   0.23155  -0.70261
  14   32193.4    310.6   0.552960319   5.65461   1.25312  -1.70611   1.08328
  15   32621.9    306.5   0.007205765   0.07272  -0.24847   0.00553  -0.10464
  16   32957.9    303.4   0.279719517   2.79408  -0.16212  -1.63372   0.31426
  17   33440.8    299.0   0.030978099   0.30497  -0.51987  -0.14791  -0.11325
  18   33973.8    294.3   0.717114700   6.94897  -2.28544  -0.50142  -1.21421
  19   34308.5    291.5   0.024295335   0.23313  -0.38136   0.26866  -0.12457
  20   34415.7    290.6   0.221891395   2.12256   1.01459   0.01243   1.04547
  21   34788.7    287.4   0.131859295   1.24781  -0.83662  -0.57465  -0.46655
  22   35410.8    282.4   0.175782636   1.63424   0.93757   0.81261   0.30801
  23   36146.0    276.7   0.031562186   0.28746   0.14589  -0.46508   0.22333
  24   37629.8    265.7   0.162198948   1.41903  -0.99536  -0.21702  -0.61740
  25   37838.2    264.3   0.090285556   0.78553  -0.52819  -0.67229  -0.23360
  26   38002.2    263.1   0.030617547   0.26524   0.10608   0.49960   0.06621
  27   38326.0    260.9   0.002443120   0.02099   0.03482  -0.13080   0.05161
  28   38553.6    259.4   0.006141078   0.05244  -0.11025  -0.19746  -0.03598
  29   38790.3    257.8   0.073582189   0.62449   0.33890   0.70711   0.09816
  30   39190.3    255.2   0.063706729   0.53516   0.51975  -0.38458   0.34221
  31   39327.5    254.3   0.096729187   0.80972  -0.35821  -0.82459  -0.03831
  32   39585.1    252.6   0.057712098   0.47997   0.56826  -0.13703   0.37185
  33   40149.6    249.1   0.032934210   0.27005   0.14399   0.49489   0.06630

FINAL SINGLE POINT ENERGY     -4557.476142349992

DIPOLE MOMENT
-------------
                                X             Y             Z
Electronic contribution:    -45.55161      13.10617     -12.51140
Nuclear contribution   :     46.70738     -16.28791      12.61532
                        -----------------------------------------
Total Dipole Moment    :      1.15577      -3.18174       0.10392
                        -----------------------------------------
Magnitude (a.u.)       :      3.38675
Magnitude (Debye)      :      8.60844

Rotational constants in cm-1:     0.001325     0.000283     0.000235
Rotational constants in MHz :    39.708238     8.487762     7.045902

                             ****ORCA TERMINATED NORMALLY****
TOTAL RUN TIME: 0 days 0 hours 8 minutes 48 seconds 58 msec
