                         Program Version 4.2.0 -  RELEASE  -
|  1> # ORCA input file
|  2> # SCF done       -159.946510132828          0.000304408631
|  3> ! CAM-B3LYP def2-SVP def2/J RIJCOSX Grid4 TightSCF
|  4> %maxcore 5000
|  5> %tddft
|  6>     Mode sTDDFT
|  7>     Ethresh 5.0
|  8>     maxcore 5000
|  9> end
| 10>
| 11> %pal
| 12>   nprocs 6
| 13>   end
| 14> * xyz 0 1
| 15>    C        3.87862         0.99310        -0.51054
| 16>    C        3.11547         0.55394         0.53663
| 17>    C        2.72731        -0.78881         0.66795
| 18>    C        3.08867        -1.75682        -0.25159
| 19>    C        3.88390        -1.32738        -1.35344
| 20>    C        4.27935         0.05415        -1.47922
| 21>    N        5.01975         0.31430        -2.55251
| 22>   Se        5.26105        -1.15830        -3.45923
| 23>    N        4.32077        -2.11242        -2.32712
| 24>    C        2.70012        -3.13466        -0.13622
| 25>    C        1.93809        -3.71822         0.85863
| 26>    C        1.75074        -5.08468         0.64672
| 27>    C        2.38152        -5.53879        -0.52515
| 28>    S        3.19923        -4.29170        -1.35606
| 29>    C        2.12794        -6.92753        -0.65454
| 30>    C        1.34048        -7.35053         0.42802
| 31>    C        1.07955        -6.20144         1.28526
| 32>    C        0.35530        -6.18522         2.44210
| 33>    C       -0.25394        -7.34499         2.96337
| 34>    N       -0.75236        -8.28626         3.38906
| 35>    C        0.16897        -5.00553         3.19164
| 36>    N        0.01476        -4.04749         3.80332
| 37>    C        1.03097        -8.70882         0.38127
| 38>    C        1.57371        -9.32955        -0.73029
| 39>    S        2.49002        -8.20204        -1.72990
| 40>    C        1.46806       -10.69814        -1.10981
| 41>    C        2.03946       -11.18817        -2.25963
| 42>    C        1.97454       -12.51064        -2.69230
| 43>    C        1.16241       -13.49230        -1.95776
| 44>    C        0.52680       -13.23420        -0.79465
| 45>    S        0.55767       -11.71474         0.00168
| 46>    C        1.21252       -14.68299        -2.73328
| 47>    C        2.00080       -14.47110        -3.86360
| 48>    C        2.09166       -15.62444        -4.67353
| 49>    C        1.38249       -16.65800        -4.14934
| 50>    S        0.58351       -16.28073        -2.65949
| 51>    C        2.50995       -13.12350        -3.84273
| 52>    C        3.38563       -12.62309        -4.83474
| 53>    C        4.17220       -11.51678        -4.76651
| 54>    C        5.01080       -11.06651        -5.81154
| 55>    C        5.84743        -9.95966        -5.77104
| 56>    C        6.53880        -9.77637        -6.96492
| 57>    C        6.23229       -10.74775        -7.93297
| 58>    S        5.08928       -11.88631        -7.36835
| 59>    C        6.98105       -10.47742        -9.10487
| 60>    C        7.76476        -9.33134        -8.87407
| 61>    C        7.51325        -8.85127        -7.52968
| 62>    C        8.06210        -7.75991        -6.91949
| 63>    C        9.00206        -6.93352        -7.56821
| 64>    N        9.76633        -6.25774        -8.09291
| 65>    C        7.72265        -7.38214        -5.60464
| 66>    N        7.44703        -7.06674        -4.53659
| 67>    C        8.54017        -8.98079        -9.97965
| 68>    C        8.35420        -9.84105       -11.04497
| 69>    S        7.19753       -11.10997       -10.67607
| 70>    C        8.97830        -9.78762       -12.33619
| 71>    C        9.92729        -8.84014       -12.67714
| 72>    C       10.52533        -8.79791       -13.94606
| 73>    C       10.20810        -9.69216       -14.93182
| 74>    C        9.24937       -10.68156       -14.64586
| 75>    C        8.63034       -10.73477       -13.34315
| 76>    N        7.74633       -11.71020       -13.19657
| 77>   Se        7.64078       -12.62101       -14.69296
| 78>    N        8.83132       -11.62084       -15.48860
| 79>    H        4.17876         2.02276        -0.61458
| 80>    H        2.79511         1.25392         1.29366
| 81>    H        2.12602        -1.06452         1.51959
| 82>    H        1.53758        -3.17779         1.69609
| 83>    H        0.43948        -9.23158         1.11127
| 84>    H        2.54920       -10.46539        -2.88034
| 85>    H       -0.05009       -13.98042        -0.27145
| 86>    H        2.64605       -15.69216        -5.59197
| 87>    H        1.27114       -17.64741        -4.54804
| 88>    H        3.45291       -13.22639        -5.73335
| 89>    H        4.22241       -10.92715        -3.86355
| 90>    H        5.93301        -9.32993        -4.90399
| 91>    H        9.20452        -8.13706       -10.00554
| 92>    H       10.22633        -8.10392       -11.94819
| 93>    H       11.25888        -8.02946       -14.13900
| 94>    H       10.66439        -9.66266       -15.90751
| 95> *
| 96>
| 97>                          ****END OF INPUT****

CARTESIAN COORDINATES (ANGSTROEM)
---------------------------------
  C      3.878620    0.993100   -0.510540
  C      3.115470    0.553940    0.536630
  C      2.727310   -0.788810    0.667950
  C      3.088670   -1.756820   -0.251590
  C      3.883900   -1.327380   -1.353440
  C      4.279350    0.054150   -1.479220
  N      5.019750    0.314300   -2.552510
  Se     5.261050   -1.158300   -3.459230
  N      4.320770   -2.112420   -2.327120
  C      2.700120   -3.134660   -0.136220
  C      1.938090   -3.718220    0.858630
  C      1.750740   -5.084680    0.646720
  C      2.381520   -5.538790   -0.525150
  S      3.199230   -4.291700   -1.356060
  C      2.127940   -6.927530   -0.654540
  C      1.340480   -7.350530    0.428020
  C      1.079550   -6.201440    1.285260
  C      0.355300   -6.185220    2.442100
  C     -0.253940   -7.344990    2.963370
  N     -0.752360   -8.286260    3.389060
  C      0.168970   -5.005530    3.191640
  N      0.014760   -4.047490    3.803320
  C      1.030970   -8.708820    0.381270
  C      1.573710   -9.329550   -0.730290
  S      2.490020   -8.202040   -1.729900
  C      1.468060  -10.698140   -1.109810
  C      2.039460  -11.188170   -2.259630
  C      1.974540  -12.510640   -2.692300
  C      1.162410  -13.492300   -1.957760
  C      0.526800  -13.234200   -0.794650
  S      0.557670  -11.714740    0.001680
  C      1.212520  -14.682990   -2.733280
  C      2.000800  -14.471100   -3.863600
  C      2.091660  -15.624440   -4.673530
  C      1.382490  -16.658000   -4.149340
  S      0.583510  -16.280730   -2.659490
  C      2.509950  -13.123500   -3.842730
  C      3.385630  -12.623090   -4.834740
  C      4.172200  -11.516780   -4.766510
  C      5.010800  -11.066510   -5.811540
  C      5.847430   -9.959660   -5.771040
  C      6.538800   -9.776370   -6.964920
  C      6.232290  -10.747750   -7.932970
  S      5.089280  -11.886310   -7.368350
  C      6.981050  -10.477420   -9.104870
  C      7.764760   -9.331340   -8.874070
  C      7.513250   -8.851270   -7.529680
  C      8.062100   -7.759910   -6.919490
  C      9.002060   -6.933520   -7.568210
  N      9.766330   -6.257740   -8.092910
  C      7.722650   -7.382140   -5.604640
  N      7.447030   -7.066740   -4.536590
  C      8.540170   -8.980790   -9.979650
  C      8.354200   -9.841050  -11.044970
  S      7.197530  -11.109970  -10.676070
  C      8.978300   -9.787620  -12.336190
  C      9.927290   -8.840140  -12.677140
  C     10.525330   -8.797910  -13.946060
  C     10.208100   -9.692160  -14.931820
  C      9.249370  -10.681560  -14.645860
  C      8.630340  -10.734770  -13.343150
  N      7.746330  -11.710200  -13.196570
  Se     7.640780  -12.621010  -14.692960
  N      8.831320  -11.620840  -15.488600
  H      4.178760    2.022760   -0.614580
  H      2.795110    1.253920    1.293660
  H      2.126020   -1.064520    1.519590
  H      1.537580   -3.177790    1.696090
  H      0.439480   -9.231580    1.111270
  H      2.549200  -10.465390   -2.880340
  H     -0.050090  -13.980420   -0.271450
  H      2.646050  -15.692160   -5.591970
  H      1.271140  -17.647410   -4.548040
  H      3.452910  -13.226390   -5.733350
  H      4.222410  -10.927150   -3.863550
  H      5.933010   -9.329930   -4.903990
  H      9.204520   -8.137060  -10.005540
  H     10.226330   -8.103920  -11.948190
  H     11.258880   -8.029460  -14.139000
  H     10.664390   -9.662660  -15.907510

 Total Charge           Charge          ....    0
 Multiplicity           Mult            ....    1
 Number of Electrons    NEL             ....  524
 Basis Dimension        Dim             .... 1036

ORBITAL ENERGIES
----------------

  NO   OCC          E(Eh)            E(eV)
   0   2.0000    -453.979618    -12353.4134
   1   2.0000    -453.978251    -12353.3762
   2   2.0000     -88.984123     -2421.3811
   3   2.0000     -88.975453     -2421.1452
   4   2.0000     -88.974845     -2421.1286
   5   2.0000     -88.974591     -2421.1217
   6   2.0000     -88.973443     -2421.0905
   7   2.0000     -88.954541     -2420.5761
   8   2.0000     -58.193511     -1583.5259
   9   2.0000     -58.192072     -1583.4868
  10   2.0000     -52.264178     -1422.1806
  11   2.0000     -52.262739     -1422.1414
  12   2.0000     -52.261895     -1422.1185
  13   2.0000     -52.261355     -1422.1038
  14   2.0000     -52.260454     -1422.0793
  15   2.0000     -52.259921     -1422.0647
  16   2.0000     -14.438003      -392.8780
  17   2.0000     -14.436054      -392.8250
  18   2.0000     -14.434753      -392.7896
  19   2.0000     -14.433458      -392.7544
  20   2.0000     -14.423741      -392.4900
  21   2.0000     -14.423505      -392.4835
  22   2.0000     -14.423007      -392.4700
  23   2.0000     -14.422844      -392.4655
  24   2.0000     -10.355664      -281.7919
  25   2.0000     -10.353426      -281.7311
  26   2.0000     -10.344371      -281.4846
  27   2.0000     -10.342536      -281.4347
  28   2.0000     -10.327291      -281.0199
  29   2.0000     -10.325924      -280.9827
  30   2.0000     -10.324889      -280.9545
  31   2.0000     -10.324635      -280.9476
  32   2.0000     -10.324546      -280.9452
  33   2.0000     -10.324316      -280.9389
  34   2.0000     -10.324197      -280.9357
  35   2.0000     -10.324163      -280.9348
  36   2.0000     -10.323117      -280.9063
  37   2.0000     -10.321871      -280.8724
  38   2.0000     -10.320872      -280.8452
  39   2.0000     -10.319630      -280.8114
  40   2.0000     -10.317660      -280.7578
  41   2.0000     -10.314071      -280.6601
  42   2.0000     -10.313757      -280.6516
  43   2.0000     -10.312362      -280.6136
  44   2.0000     -10.310480      -280.5624
  45   2.0000     -10.310285      -280.5571
  46   2.0000     -10.302690      -280.3505
  47   2.0000     -10.302223      -280.3377
  48   2.0000     -10.296547      -280.1833
  49   2.0000     -10.295939      -280.1668
  50   2.0000     -10.295372      -280.1513
  51   2.0000     -10.295250      -280.1480
  52   2.0000     -10.295073      -280.1432
  53   2.0000     -10.290678      -280.0236
  54   2.0000     -10.290633      -280.0224
  55   2.0000     -10.290106      -280.0080
  56   2.0000     -10.289671      -279.9962
  57   2.0000     -10.287997      -279.9506
  58   2.0000     -10.287520      -279.9376
  59   2.0000     -10.287276      -279.9310
  60   2.0000     -10.287128      -279.9270
  61   2.0000     -10.286994      -279.9233
  62   2.0000     -10.286495      -279.9098
  63   2.0000     -10.284763      -279.8626
  64   2.0000     -10.283898      -279.8391
  65   2.0000     -10.282100      -279.7902
  66   2.0000     -10.281897      -279.7846
  67   2.0000     -10.280974      -279.7595
  68   2.0000     -10.280210      -279.7387
  69   2.0000     -10.273920      -279.5676
  70   2.0000     -10.273550      -279.5575
  71   2.0000     -10.270841      -279.4838
  72   2.0000      -8.078354      -219.8232
  73   2.0000      -8.070027      -219.5966
  74   2.0000      -8.070014      -219.5962
  75   2.0000      -8.067572      -219.5298
  76   2.0000      -8.066517      -219.5011
  77   2.0000      -8.049957      -219.0505
  78   2.0000      -7.969291      -216.8554
  79   2.0000      -7.967833      -216.8158
  80   2.0000      -6.047631      -164.5644
  81   2.0000      -6.043542      -164.4531
  82   2.0000      -6.040650      -164.3744
  83   2.0000      -6.039651      -164.3473
  84   2.0000      -6.039213      -164.3353
  85   2.0000      -6.036977      -164.2745
  86   2.0000      -6.035942      -164.2463
  87   2.0000      -6.035171      -164.2254
  88   2.0000      -6.035071      -164.2226
  89   2.0000      -6.032415      -164.1504
  90   2.0000      -6.032300      -164.1472
  91   2.0000      -6.031798      -164.1336
  92   2.0000      -6.031264      -164.1190
  93   2.0000      -6.030168      -164.0892
  94   2.0000      -6.029092      -164.0599
  95   2.0000      -6.019425      -163.7969
  96   2.0000      -6.015171      -163.6811
  97   2.0000      -6.011941      -163.5932
  98   2.0000      -5.919530      -161.0786
  99   2.0000      -5.918047      -161.0382
 100   2.0000      -5.912891      -160.8979
 101   2.0000      -5.911396      -160.8573
 102   2.0000      -5.908949      -160.7907
 103   2.0000      -5.907550      -160.7526
 104   2.0000      -2.273668       -61.8697
 105   2.0000      -2.272981       -61.8509
 106   2.0000      -2.272146       -61.8282
 107   2.0000      -2.271496       -61.8105
 108   2.0000      -2.268412       -61.7266
 109   2.0000      -2.266981       -61.6877
 110   2.0000      -2.263274       -61.5868
 111   2.0000      -2.263128       -61.5828
 112   2.0000      -2.261834       -61.5476
 113   2.0000      -2.261676       -61.5433
 114   2.0000      -1.090169       -29.6650
 115   2.0000      -1.088900       -29.6305
 116   2.0000      -1.035400       -28.1747
 117   2.0000      -1.031514       -28.0689
 118   2.0000      -1.015185       -27.6246
 119   2.0000      -1.013410       -27.5763
 120   2.0000      -1.004936       -27.3457
 121   2.0000      -1.001364       -27.2485
 122   2.0000      -1.000844       -27.2343
 123   2.0000      -0.992648       -27.0113
 124   2.0000      -0.987233       -26.8640
 125   2.0000      -0.973532       -26.4912
 126   2.0000      -0.967389       -26.3240
 127   2.0000      -0.963033       -26.2054
 128   2.0000      -0.955147       -25.9909
 129   2.0000      -0.953921       -25.9575
 130   2.0000      -0.943243       -25.6669
 131   2.0000      -0.942452       -25.6454
 132   2.0000      -0.926522       -25.2119
 133   2.0000      -0.909431       -24.7469
 134   2.0000      -0.903035       -24.5728
 135   2.0000      -0.885049       -24.0834
 136   2.0000      -0.873680       -23.7740
 137   2.0000      -0.864133       -23.5142
 138   2.0000      -0.861322       -23.4378
 139   2.0000      -0.852212       -23.1899
 140   2.0000      -0.847941       -23.0736
 141   2.0000      -0.847214       -23.0539
 142   2.0000      -0.846647       -23.0384
 143   2.0000      -0.839300       -22.8385
 144   2.0000      -0.838483       -22.8163
 145   2.0000      -0.833804       -22.6890
 146   2.0000      -0.812648       -22.1133
 147   2.0000      -0.797286       -21.6953
 148   2.0000      -0.779497       -21.2112
 149   2.0000      -0.772552       -21.0222
 150   2.0000      -0.767663       -20.8892
 151   2.0000      -0.758958       -20.6523
 152   2.0000      -0.745319       -20.2812
 153   2.0000      -0.739342       -20.1185
 154   2.0000      -0.729845       -19.8601
 155   2.0000      -0.724327       -19.7099
 156   2.0000      -0.707451       -19.2507
 157   2.0000      -0.703987       -19.1565
 158   2.0000      -0.693629       -18.8746
 159   2.0000      -0.690059       -18.7775
 160   2.0000      -0.689523       -18.7629
 161   2.0000      -0.684415       -18.6239
 162   2.0000      -0.674627       -18.3575
 163   2.0000      -0.668238       -18.1837
 164   2.0000      -0.664027       -18.0691
 165   2.0000      -0.652683       -17.7604
 166   2.0000      -0.651837       -17.7374
 167   2.0000      -0.634283       -17.2597
 168   2.0000      -0.631184       -17.1754
 169   2.0000      -0.624787       -17.0013
 170   2.0000      -0.618022       -16.8172
 171   2.0000      -0.611848       -16.6492
 172   2.0000      -0.608573       -16.5601
 173   2.0000      -0.605259       -16.4699
 174   2.0000      -0.603119       -16.4117
 175   2.0000      -0.593253       -16.1432
 176   2.0000      -0.587380       -15.9834
 177   2.0000      -0.580887       -15.8067
 178   2.0000      -0.576952       -15.6996
 179   2.0000      -0.576239       -15.6803
 180   2.0000      -0.572374       -15.5751
 181   2.0000      -0.569173       -15.4880
 182   2.0000      -0.565921       -15.3995
 183   2.0000      -0.557085       -15.1591
 184   2.0000      -0.550635       -14.9835
 185   2.0000      -0.543610       -14.7924
 186   2.0000      -0.539788       -14.6884
 187   2.0000      -0.537445       -14.6246
 188   2.0000      -0.535392       -14.5688
 189   2.0000      -0.530539       -14.4367
 190   2.0000      -0.530362       -14.4319
 191   2.0000      -0.527965       -14.3667
 192   2.0000      -0.517521       -14.0825
 193   2.0000      -0.514524       -14.0009
 194   2.0000      -0.511403       -13.9160
 195   2.0000      -0.507041       -13.7973
 196   2.0000      -0.503946       -13.7131
 197   2.0000      -0.497065       -13.5258
 198   2.0000      -0.495105       -13.4725
 199   2.0000      -0.491131       -13.3643
 200   2.0000      -0.488859       -13.3025
 201   2.0000      -0.487043       -13.2531
 202   2.0000      -0.483888       -13.1673
 203   2.0000      -0.482806       -13.1378
 204   2.0000      -0.479947       -13.0600
 205   2.0000      -0.476851       -12.9758
 206   2.0000      -0.475936       -12.9509
 207   2.0000      -0.475496       -12.9389
 208   2.0000      -0.470729       -12.8092
 209   2.0000      -0.466037       -12.6815
 210   2.0000      -0.462654       -12.5895
 211   2.0000      -0.461424       -12.5560
 212   2.0000      -0.458774       -12.4839
 213   2.0000      -0.457056       -12.4371
 214   2.0000      -0.455671       -12.3994
 215   2.0000      -0.455641       -12.3986
 216   2.0000      -0.455151       -12.3853
 217   2.0000      -0.451977       -12.2989
 218   2.0000      -0.451213       -12.2781
 219   2.0000      -0.449398       -12.2287
 220   2.0000      -0.447444       -12.1756
 221   2.0000      -0.444030       -12.0827
 222   2.0000      -0.439294       -11.9538
 223   2.0000      -0.435612       -11.8536
 224   2.0000      -0.434200       -11.8152
 225   2.0000      -0.434116       -11.8129
 226   2.0000      -0.433612       -11.7992
 227   2.0000      -0.433365       -11.7925
 228   2.0000      -0.432664       -11.7734
 229   2.0000      -0.430732       -11.7208
 230   2.0000      -0.429567       -11.6891
 231   2.0000      -0.425536       -11.5794
 232   2.0000      -0.422930       -11.5085
 233   2.0000      -0.420867       -11.4524
 234   2.0000      -0.418512       -11.3883
 235   2.0000      -0.417882       -11.3711
 236   2.0000      -0.416857       -11.3433
 237   2.0000      -0.411158       -11.1882
 238   2.0000      -0.404823       -11.0158
 239   2.0000      -0.398910       -10.8549
 240   2.0000      -0.394957       -10.7473
 241   2.0000      -0.389998       -10.6124
 242   2.0000      -0.382334       -10.4038
 243   2.0000      -0.381015       -10.3679
 244   2.0000      -0.379571       -10.3286
 245   2.0000      -0.356571        -9.7028
 246   2.0000      -0.354155        -9.6370
 247   2.0000      -0.352450        -9.5907
 248   2.0000      -0.350709        -9.5433
 249   2.0000      -0.339587        -9.2406
 250   2.0000      -0.336419        -9.1544
 251   2.0000      -0.330288        -8.9876
 252   2.0000      -0.325430        -8.8554
 253   2.0000      -0.324234        -8.8228
 254   2.0000      -0.312949        -8.5158
 255   2.0000      -0.311791        -8.4843
 256   2.0000      -0.311011        -8.4630
 257   2.0000      -0.303248        -8.2518
 258   2.0000      -0.280525        -7.6335
 259   2.0000      -0.265198        -7.2164
 260   2.0000      -0.246898        -6.7184
 261   2.0000      -0.215767        -5.8713
 262   0.0000      -0.098939        -2.6923
 263   0.0000      -0.094910        -2.5826
 264   0.0000      -0.071198        -1.9374
 265   0.0000      -0.069473        -1.8905
 266   0.0000      -0.058853        -1.6015

MULLIKEN ATOMIC CHARGES
-----------------------
   0 C :   -0.020794
   1 C :    0.050232
   2 C :   -0.065629
   3 C :    0.156608
   4 C :   -0.018614
   5 C :    0.055626
   6 N :   -0.269545
   7 Se:    0.536993
   8 N :   -0.335005
   9 C :   -0.095264
  10 C :   -0.054787
  11 C :    0.017162
  12 C :   -0.080588
  13 S :    0.222259
  14 C :   -0.096299
  15 C :    0.010831
  16 C :    0.308130
  17 C :   -0.304363
  18 C :   -0.187537
  19 N :    0.169574
  20 C :   -0.186195
  21 N :    0.161475
  22 C :   -0.058358
  23 C :   -0.062167
  24 S :    0.166103
  25 C :   -0.019201
  26 C :   -0.105224
  27 C :    0.054001
  28 C :    0.058146
  29 C :   -0.125528
  30 S :    0.133679
  31 C :   -0.108717
  32 C :    0.050104
  33 C :    0.007089
  34 C :   -0.068973
  35 S :    0.127258
  36 C :    0.085099
  37 C :   -0.035898
  38 C :   -0.011094
  39 C :   -0.038210
  40 C :   -0.053688
  41 C :    0.016471
  42 C :   -0.106039
  43 S :    0.158836
  44 C :   -0.079640
  45 C :    0.010445
  46 C :    0.310199
  47 C :   -0.307374
  48 C :   -0.188310
  49 N :    0.158962
  50 C :   -0.189232
  51 N :    0.165053
  52 C :   -0.053358
  53 C :   -0.101563
  54 S :    0.208936
  55 C :    0.159182
  56 C :   -0.067449
  57 C :    0.050914
  58 C :   -0.019329
  59 C :    0.054163
  60 C :   -0.023324
  61 N :   -0.332159
  62 Se:    0.526398
  63 N :   -0.269848
  64 H :   -0.017191
  65 H :   -0.001951
  66 H :   -0.013021
  67 H :   -0.000409
  68 H :    0.018132
  69 H :   -0.009693
  70 H :    0.037799
  71 H :   -0.019033
  72 H :    0.024982
  73 H :   -0.021905
  74 H :   -0.012704
  75 H :   -0.000398
  76 H :   -0.000625
  77 H :   -0.013175
  78 H :   -0.002259
  79 H :   -0.019177
Sum of atomic charges:   -0.0000000

LOEWDIN ATOMIC CHARGES
----------------------
   0 C :   -0.021270
   1 C :   -0.012119
   2 C :   -0.009399
   3 C :   -0.040831
   4 C :   -0.042686
   5 C :   -0.043671
   6 N :   -0.246490
   7 Se:    0.578137
   8 N :   -0.276596
   9 C :   -0.162231
  10 C :   -0.026121
  11 C :   -0.075338
  12 C :   -0.191023
  13 S :    0.524612
  14 C :   -0.172501
  15 C :   -0.071364
  16 C :    0.086111
  17 C :   -0.109397
  18 C :   -0.016623
  19 N :   -0.038617
  20 C :   -0.014880
  21 N :   -0.040380
  22 C :   -0.040189
  23 C :   -0.181999
  24 S :    0.476016
  25 C :   -0.178671
  26 C :   -0.036580
  27 C :   -0.020086
  28 C :   -0.046610
  29 C :   -0.140499
  30 S :    0.460938
  31 C :   -0.205120
  32 C :   -0.039514
  33 C :   -0.065558
  34 C :   -0.165502
  35 S :    0.420365
  36 C :   -0.054263
  37 C :   -0.022167
  38 C :   -0.056338
  39 C :   -0.155039
  40 C :   -0.038724
  41 C :   -0.071495
  42 C :   -0.184278
  43 S :    0.462178
  44 C :   -0.184381
  45 C :   -0.081023
  46 C :    0.088661
  47 C :   -0.114281
  48 C :   -0.015154
  49 N :   -0.044444
  50 C :   -0.015591
  51 N :   -0.044806
  52 C :   -0.024859
  53 C :   -0.167564
  54 S :    0.513423
  55 C :   -0.039329
  56 C :   -0.012497
  57 C :   -0.010923
  58 C :   -0.024905
  59 C :   -0.043091
  60 C :   -0.042529
  61 N :   -0.276745
  62 Se:    0.568154
  63 N :   -0.247168
  64 H :    0.037686
  65 H :    0.035568
  66 H :    0.033901
  67 H :    0.036503
  68 H :    0.034507
  69 H :    0.024342
  70 H :    0.037305
  71 H :    0.029303
  72 H :    0.022851
  73 H :    0.020476
  74 H :    0.032023
  75 H :    0.037991
  76 H :    0.036190
  77 H :    0.033748
  78 H :    0.035389
  79 H :    0.037079

  Mayer bond orders larger than 0.100000
B(  0-C ,  1-C ) :   1.5018 B(  0-C ,  3-C ) :   0.1007 B(  0-C ,  5-C ) :   1.1875
B(  0-C , 64-H ) :   1.0191 B(  1-C ,  2-C ) :   1.1969 B(  1-C , 65-H ) :   0.9821
B(  2-C ,  3-C ) :   1.5126 B(  2-C , 66-H ) :   0.9951 B(  3-C ,  4-C ) :   1.1415
B(  3-C ,  9-C ) :   1.0860 B(  4-C ,  5-C ) :   1.1294 B(  4-C ,  8-N ) :   1.5521
B(  5-C ,  6-N ) :   1.5615 B(  6-N ,  7-Se) :   1.2607 B(  6-N ,  8-N ) :   0.1311
B(  7-Se,  8-N ) :   1.2137 B(  9-C , 10-C ) :   1.4646 B(  9-C , 13-S ) :   1.1186
B( 10-C , 11-C ) :   1.2973 B( 10-C , 67-H ) :   0.9881 B( 11-C , 12-C ) :   1.4217
B( 11-C , 16-C ) :   1.0011 B( 12-C , 13-S ) :   1.0984 B( 12-C , 14-C ) :   1.1804
B( 14-C , 15-C ) :   1.4516 B( 14-C , 24-S ) :   1.1264 B( 15-C , 16-C ) :   0.9941
B( 15-C , 22-C ) :   1.2971 B( 16-C , 17-C ) :   1.7025 B( 17-C , 18-C ) :   1.1302
B( 17-C , 20-C ) :   1.1379 B( 18-C , 19-N ) :   2.9924 B( 20-C , 21-N ) :   2.9867
B( 22-C , 23-C ) :   1.4591 B( 22-C , 68-H ) :   0.9807 B( 23-C , 24-S ) :   1.1001
B( 23-C , 25-C ) :   1.1678 B( 25-C , 26-C ) :   1.5206 B( 25-C , 30-S ) :   1.0590
B( 26-C , 27-C ) :   1.2430 B( 26-C , 69-H ) :   0.9592 B( 27-C , 28-C ) :   1.0545
B( 27-C , 36-C ) :   1.3847 B( 28-C , 29-C ) :   1.6109 B( 28-C , 31-C ) :   1.1744
B( 29-C , 30-S ) :   1.1340 B( 29-C , 70-H ) :   0.9413 B( 31-C , 32-C ) :   1.4463
B( 31-C , 35-S ) :   1.0730 B( 32-C , 33-C ) :   1.2202 B( 32-C , 36-C ) :   1.0972
B( 33-C , 34-C ) :   1.5839 B( 33-C , 71-H ) :   0.9971 B( 34-C , 35-S ) :   1.1565
B( 34-C , 72-H ) :   0.9664 B( 36-C , 37-C ) :   1.1759 B( 37-C , 38-C ) :   1.5967
B( 37-C , 73-H ) :   0.9542 B( 38-C , 39-C ) :   1.1745 B( 38-C , 74-H ) :   0.9719
B( 39-C , 40-C ) :   1.4260 B( 39-C , 43-S ) :   1.0911 B( 40-C , 41-C ) :   1.2772
B( 40-C , 75-H ) :   1.0036 B( 41-C , 42-C ) :   1.4436 B( 41-C , 46-C ) :   0.9908
B( 42-C , 43-S ) :   1.1117 B( 42-C , 44-C ) :   1.1916 B( 44-C , 45-C ) :   1.4188
B( 44-C , 54-S ) :   1.1002 B( 45-C , 46-C ) :   1.0036 B( 45-C , 52-C ) :   1.2945
B( 46-C , 47-C ) :   1.6997 B( 47-C , 48-C ) :   1.1354 B( 47-C , 50-C ) :   1.1329
B( 48-C , 49-N ) :   2.9885 B( 50-C , 51-N ) :   2.9948 B( 52-C , 53-C ) :   1.4668
B( 52-C , 76-H ) :   0.9883 B( 53-C , 54-S ) :   1.1091 B( 53-C , 55-C ) :   1.0894
B( 55-C , 56-C ) :   1.5092 B( 55-C , 58-C ) :   0.1008 B( 55-C , 60-C ) :   1.1400
B( 56-C , 57-C ) :   1.1975 B( 56-C , 77-H ) :   0.9953 B( 57-C , 58-C ) :   1.5002
B( 57-C , 78-H ) :   0.9828 B( 58-C , 59-C ) :   1.1882 B( 58-C , 79-H ) :   1.0186
B( 59-C , 60-C ) :   1.1277 B( 59-C , 63-N ) :   1.5637 B( 60-C , 61-N ) :   1.5577
B( 61-N , 62-Se) :   1.2112 B( 61-N , 63-N ) :   0.1318 B( 62-Se, 63-N ) :   1.2569

-----------------------------------------------------------------------------
         ABSORPTION SPECTRUM VIA TRANSITION ELECTRIC DIPOLE MOMENTS
-----------------------------------------------------------------------------
State   Energy  Wavelength   fosc         T2         TX        TY        TZ
        (cm-1)    (nm)                  (au**2)     (au)      (au)      (au)
-----------------------------------------------------------------------------
   0    9777.7   1022.7   0.200295179   6.74390   1.28016  -0.58693  -2.18188
   1   10706.8    934.0   0.093358958   2.87059  -0.30885  -1.66406  -0.07814
   2   16436.4    608.4   0.189522358   3.79602  -1.03910   0.31523   1.61769
   3   17106.0    584.6   0.430504743   8.28524   1.11755  -1.48891  -2.19533
   4   18842.8    530.7   0.200695590   3.50645  -0.70653   0.86846   1.50101
   5   19581.0    510.7   0.278674972   4.68531   0.84816   1.44783  -1.36738
   6   20445.3    489.1   0.218964032   3.52578   0.80619   1.62137  -0.49698
   7   23104.1    432.8   0.196754892   2.80358   1.01859  -0.13077  -1.32248
   8   23747.1    421.1   0.175112538   2.42763   0.78258   1.24951  -0.50391
   9   24043.1    415.9   0.069328591   0.94929  -0.32880  -0.89109   0.21710
  10   25180.9    397.1   0.145571960   1.90319  -0.52302  -1.18298   0.47978
  11   25971.2    385.0   0.150709413   1.91040   0.69666   0.26191  -1.16467
  12   26833.1    372.7   0.014900246   0.18281   0.28268   0.19197  -0.25700
  13   26986.7    370.6   0.267611414   3.26461   0.82778   1.59715  -0.16882
  14   28069.8    356.3   0.036696664   0.43039  -0.19993  -0.45351   0.42982
  15   28779.1    347.5   0.308325028   3.52701  -1.01330  -0.67561   1.42961
  16   29560.5    338.3   0.062975476   0.70135   0.21720   0.80486  -0.07985
  17   29805.5    335.5   0.460401617   5.08530  -1.06856  -1.97921   0.16191
  18   30369.2    329.3   0.095181290   1.03180  -0.10114  -0.87710  -0.50226
  19   31598.6    316.5   0.567205657   5.90946   0.17509  -1.01145  -2.20358
  20   31791.2    314.6   0.356206662   3.68867   1.43223   0.75013  -1.03668
  21   32045.5    312.1   0.010432144   0.10717   0.00247   0.32077   0.06535
  22   32199.6    310.6   0.117727355   1.20366  -0.42679  -0.83623   0.56765
  23   32608.5    306.7   0.274800915   2.77436  -0.55069   0.70637   1.40433
  24   32983.9    303.2   0.206214765   2.05823  -0.94358  -0.75061   0.77748
  25   33584.4    297.8   0.001661030   0.01628  -0.10208  -0.07550  -0.01273
  26   33601.8    297.6   0.186483341   1.82706   0.69375   1.09976  -0.36919
  27   34340.7    291.2   0.469575583   4.50166   0.10319  -1.96098  -0.80348
  28   34603.1    289.0   0.195671967   1.86161   0.61267   1.07955  -0.56642
  29   34720.1    288.0   0.556975041   5.28117   0.40554   1.89574   1.23405
  30   34828.6    287.1   0.095236321   0.90021  -0.26106  -0.84243  -0.34981
  31   35572.7    281.1   0.001594315   0.01475   0.02852  -0.07729  -0.08927
  32   35605.8    280.9   0.090555844   0.83728  -0.36757   0.18572   0.81712
  33   35786.2    279.4   0.017174231   0.15799  -0.03846  -0.11898   0.37730
  34   36013.0    277.7   0.040842017   0.37336   0.42066   0.35060  -0.27107
  35   36124.1    276.8   0.046366925   0.42256  -0.37742  -0.18205   0.49696
  36   36224.9    276.1   0.000181258   0.00165   0.00943   0.03911  -0.00539
  37   36527.8    273.8   0.013416298   0.12092   0.02503   0.33326   0.09606
  38   36870.6    271.2   0.006951207   0.06207  -0.07241   0.01470   0.23792
  39   37197.3    268.8   0.004731627   0.04188   0.00617  -0.12245  -0.16384
  40   37471.8    266.9   0.083747566   0.73577  -0.10277  -0.61206  -0.59210
  41   37752.9    264.9   0.023455692   0.20454  -0.15567  -0.39806   0.14784
  42   38038.4    262.9   0.004326372   0.03744  -0.10769   0.06620   0.14651
  43   38661.5    258.7   0.005666342   0.04825   0.09513   0.01185  -0.19764
  44   38767.6    257.9   0.059756864   0.50745   0.03055  -0.57972  -0.41285
  45   38891.9    257.1   0.057996651   0.49093   0.25301  -0.23091  -0.61123
  46   39086.0    255.8   0.005723289   0.04821  -0.16727  -0.04866   0.13364
  47   39271.6    254.6   0.268482707   2.25068  -0.45961   0.77200   1.20144
  48   39499.4    253.2   0.016418776   0.13684  -0.26143  -0.14219   0.21972
  49   39614.5    252.4   0.000940316   0.00781   0.06703   0.00144   0.05762
  50   39778.6    251.4   0.139169501   1.15178   0.69284   0.81840   0.04455
  51   39891.4    250.7   0.011263178   0.09295   0.24263   0.07909  -0.16681
  52   39966.6    250.2   0.021433991   0.17656  -0.34867  -0.22961   0.04761

FINAL SINGLE POINT ENERGY     -9464.839831066674

DIPOLE MOMENT
-------------
                                X             Y             Z
Electronic contribution:     39.39036      30.35420     -90.91764
Nuclear contribution   :    -39.30046     -31.48358      88.56076
                        -----------------------------------------
Total Dipole Moment    :      0.08990      -1.12938      -2.35689
                        -----------------------------------------
Magnitude (a.u.)       :      2.61505
Magnitude (Debye)      :      6.64694

Rotational constants in cm-1:     0.000874     0.000385     0.000273
Rotational constants in MHz :    26.192596    11.556264     8.172019

                             ****ORCA TERMINATED NORMALLY****
TOTAL RUN TIME: 0 days 0 hours 7 minutes 54 seconds 514 msec
