                         Program Version 4.2.0 -  RELEASE  -
|  1> # ORCA input file
|  2> # SCF done       -201.921206593175          0.000671540049
|  3> ! CAM-B3LYP def2-SVP def2/J RIJCOSX Grid4 TightSCF
|  4> %maxcore 5000
|  5> %tddft
|  6>     Mode sTDDFT
|  7>     Ethresh 5.0
|  8>     maxcore 5000
|  9> end
| 10>
| 11> %pal
| 12>   nprocs 6
| 13>   end
| 14> * xyz 0 1
| 15>    C        2.29225        -0.93954        -3.41661
| 16>    O        1.75498        -2.10882        -3.10806
| 17>    C        1.12696        -1.97980        -1.91168
| 18>    C        1.27338        -0.67301        -1.44551
| 19>    C        2.04139        -0.00049        -2.44281
| 20>    C        2.53791         1.39852        -2.53587
| 21>    F        3.23515         1.58967        -3.66484
| 22>    F        1.55582         2.31967        -2.54457
| 23>    F        3.36039         1.74508        -1.52752
| 24>    O        0.73902        -0.29289        -0.27813
| 25>    C        0.89928         1.03745         0.17758
| 26>    C        0.45866        -3.07021        -1.28922
| 27>    C        0.39752        -4.31264        -1.81929
| 28>    C       -0.23584        -5.42826        -1.20831
| 29>    C       -0.91792        -5.50619        -0.00589
| 30>    C       -1.36944        -6.79859         0.25978
| 31>    C       -1.03125        -7.71735        -0.74869
| 32>    S       -0.16438        -6.98480        -2.02241
| 33>    C       -1.50824        -8.99824        -0.37220
| 34>    C       -2.14974        -8.89064         0.87326
| 35>    C       -2.08858        -7.50479         1.30971
| 36>    C       -2.59021        -6.98088         2.46485
| 37>    C       -3.26611        -7.77383         3.41590
| 38>    N       -3.81560        -8.41684         4.19016
| 39>    C       -2.46379        -5.61340         2.78687
| 40>    N       -2.36169        -4.50255         3.05212
| 41>    C       -2.63259       -10.11234         1.34314
| 42>    C       -2.36064       -11.14709         0.46797
| 43>    S       -1.50246       -10.59859        -0.96724
| 44>    C       -2.66055       -12.52285         0.63024
| 45>    C       -2.34863       -13.56073        -0.22873
| 46>    C       -2.75771       -14.79540         0.27461
| 47>    C       -3.39000       -14.69454         1.52468
| 48>    S       -3.48518       -13.08089         2.07953
| 49>    C       -3.73796       -15.99693         1.96095
| 50>    C       -3.32405       -16.92386         0.98905
| 51>    C       -2.70303       -16.19835        -0.10844
| 52>    C       -2.17809       -16.71798        -1.25444
| 53>    C       -2.18342       -18.10293        -1.52537
| 54>    N       -2.18806       -19.22675        -1.75125
| 55>    C       -1.59593       -15.90304        -2.24830
| 56>    N       -1.12524       -15.23724        -3.05443
| 57>    C       -3.59694       -18.24537         1.34376
| 58>    C       -4.21698       -18.33141         2.57805
| 59>    S       -4.47175       -16.75082         3.30467
| 60>    C       -4.61410       -19.50622         3.26918
| 61>    C       -4.39433       -20.82080         2.89458
| 62>    C       -4.89940       -21.72039         3.83373
| 63>    C       -5.51350       -21.08789         4.92589
| 64>    S       -5.46595       -19.38612         4.80080
| 65>    C       -5.98014       -22.08179         5.82411
| 66>    C       -5.65732       -23.34438         5.30062
| 67>    C       -4.97366       -23.16254         4.03091
| 68>    C       -4.50077       -24.13202         3.19782
| 69>    C       -4.64269       -25.50850         3.47715
| 70>    N       -4.75971       -26.62981         3.68415
| 71>    C       -3.84150       -23.82553         1.98799
| 72>    N       -3.30533       -23.58291         1.00415
| 73>    C       -6.06661       -24.39676         6.12375
| 74>    C       -6.68868       -23.93678         7.26514
| 75>    S       -6.79725       -22.18418         7.31735
| 76>    C       -7.29176       -24.65782         8.34031
| 77>    O       -8.27888       -24.04448         9.00875
| 78>    C       -8.77163       -24.89778         9.93426
| 79>    C       -8.07394       -26.09952         9.87835
| 80>    C       -7.09164       -25.93458         8.85900
| 81>    C       -5.96693       -26.83532         8.49512
| 82>    F       -4.91837       -26.16583         7.98982
| 83>    F       -5.47708       -27.51142         9.54695
| 84>    F       -6.29726       -27.76570         7.57457
| 85>    O       -8.38874       -27.12448        10.68588
| 86>    C       -8.06778       -28.45262        10.30531
| 87>    C       -9.85178       -24.52462        10.80127
| 88>    C      -10.44784       -23.33407        10.78750
| 89>    H        2.83428        -0.85193        -4.33767
| 90>    H        0.37273         1.07627         1.12935
| 91>    H        0.44933         1.75507        -0.51175
| 92>    H        1.95130         1.28264         0.33841
| 93>    H        0.00399        -2.83274        -0.34043
| 94>    H        0.87233        -4.49522        -2.77353
| 95>    H       -1.07015        -4.66074         0.63857
| 96>    H       -3.15021       -10.25850         2.27431
| 97>    H       -1.84209       -13.40870        -1.16492
| 98>    H       -3.35948       -19.10357         0.74304
| 99>    H       -3.88522       -21.09777         1.99032
|100>    H       -5.93549       -25.43697         5.89191
|101>    H       -8.83099       -29.08135        10.76323
|102>    H       -7.08811       -28.74495        10.68810
|103>    H       -8.09692       -28.58223         9.22187
|104>    H      -10.15298       -25.30659        11.48256
|105>    H      -10.13652       -22.55998        10.10724
|106>    H      -11.25793       -23.10441        11.45554
|107> *
|108>
|109>                          ****END OF INPUT****

CARTESIAN COORDINATES (ANGSTROEM)
---------------------------------
  C      2.292250   -0.939540   -3.416610
  O      1.754980   -2.108820   -3.108060
  C      1.126960   -1.979800   -1.911680
  C      1.273380   -0.673010   -1.445510
  C      2.041390   -0.000490   -2.442810
  C      2.537910    1.398520   -2.535870
  F      3.235150    1.589670   -3.664840
  F      1.555820    2.319670   -2.544570
  F      3.360390    1.745080   -1.527520
  O      0.739020   -0.292890   -0.278130
  C      0.899280    1.037450    0.177580
  C      0.458660   -3.070210   -1.289220
  C      0.397520   -4.312640   -1.819290
  C     -0.235840   -5.428260   -1.208310
  C     -0.917920   -5.506190   -0.005890
  C     -1.369440   -6.798590    0.259780
  C     -1.031250   -7.717350   -0.748690
  S     -0.164380   -6.984800   -2.022410
  C     -1.508240   -8.998240   -0.372200
  C     -2.149740   -8.890640    0.873260
  C     -2.088580   -7.504790    1.309710
  C     -2.590210   -6.980880    2.464850
  C     -3.266110   -7.773830    3.415900
  N     -3.815600   -8.416840    4.190160
  C     -2.463790   -5.613400    2.786870
  N     -2.361690   -4.502550    3.052120
  C     -2.632590  -10.112340    1.343140
  C     -2.360640  -11.147090    0.467970
  S     -1.502460  -10.598590   -0.967240
  C     -2.660550  -12.522850    0.630240
  C     -2.348630  -13.560730   -0.228730
  C     -2.757710  -14.795400    0.274610
  C     -3.390000  -14.694540    1.524680
  S     -3.485180  -13.080890    2.079530
  C     -3.737960  -15.996930    1.960950
  C     -3.324050  -16.923860    0.989050
  C     -2.703030  -16.198350   -0.108440
  C     -2.178090  -16.717980   -1.254440
  C     -2.183420  -18.102930   -1.525370
  N     -2.188060  -19.226750   -1.751250
  C     -1.595930  -15.903040   -2.248300
  N     -1.125240  -15.237240   -3.054430
  C     -3.596940  -18.245370    1.343760
  C     -4.216980  -18.331410    2.578050
  S     -4.471750  -16.750820    3.304670
  C     -4.614100  -19.506220    3.269180
  C     -4.394330  -20.820800    2.894580
  C     -4.899400  -21.720390    3.833730
  C     -5.513500  -21.087890    4.925890
  S     -5.465950  -19.386120    4.800800
  C     -5.980140  -22.081790    5.824110
  C     -5.657320  -23.344380    5.300620
  C     -4.973660  -23.162540    4.030910
  C     -4.500770  -24.132020    3.197820
  C     -4.642690  -25.508500    3.477150
  N     -4.759710  -26.629810    3.684150
  C     -3.841500  -23.825530    1.987990
  N     -3.305330  -23.582910    1.004150
  C     -6.066610  -24.396760    6.123750
  C     -6.688680  -23.936780    7.265140
  S     -6.797250  -22.184180    7.317350
  C     -7.291760  -24.657820    8.340310
  O     -8.278880  -24.044480    9.008750
  C     -8.771630  -24.897780    9.934260
  C     -8.073940  -26.099520    9.878350
  C     -7.091640  -25.934580    8.859000
  C     -5.966930  -26.835320    8.495120
  F     -4.918370  -26.165830    7.989820
  F     -5.477080  -27.511420    9.546950
  F     -6.297260  -27.765700    7.574570
  O     -8.388740  -27.124480   10.685880
  C     -8.067780  -28.452620   10.305310
  C     -9.851780  -24.524620   10.801270
  C    -10.447840  -23.334070   10.787500
  H      2.834280   -0.851930   -4.337670
  H      0.372730    1.076270    1.129350
  H      0.449330    1.755070   -0.511750
  H      1.951300    1.282640    0.338410
  H      0.003990   -2.832740   -0.340430
  H      0.872330   -4.495220   -2.773530
  H     -1.070150   -4.660740    0.638570
  H     -3.150210  -10.258500    2.274310
  H     -1.842090  -13.408700   -1.164920
  H     -3.359480  -19.103570    0.743040
  H     -3.885220  -21.097770    1.990320
  H     -5.935490  -25.436970    5.891910
  H     -8.830990  -29.081350   10.763230
  H     -7.088110  -28.744950   10.688100
  H     -8.096920  -28.582230    9.221870
  H    -10.152980  -25.306590   11.482560
  H    -10.136520  -22.559980   10.107240
  H    -11.257930  -23.104410   11.455540

 Total Charge           Charge          ....    0
 Multiplicity           Mult            ....    1
 Number of Electrons    NEL             ....  554
 Basis Dimension        Dim             .... 1150

ORBITAL ENERGIES
----------------

  NO   OCC          E(Eh)            E(eV)
   0   2.0000     -88.993806     -2421.6446
   1   2.0000     -88.993115     -2421.6258
   2   2.0000     -88.991902     -2421.5928
   3   2.0000     -88.990417     -2421.5523
   4   2.0000     -88.990075     -2421.5431
   5   2.0000     -88.984129     -2421.3812
   6   2.0000     -24.808371      -675.0701
   7   2.0000     -24.805617      -674.9951
   8   2.0000     -24.805260      -674.9854
   9   2.0000     -24.805163      -674.9828
  10   2.0000     -24.803564      -674.9393
  11   2.0000     -24.801500      -674.8831
  12   2.0000     -19.312127      -525.5097
  13   2.0000     -19.309267      -525.4319
  14   2.0000     -19.264841      -524.2230
  15   2.0000     -19.257925      -524.0348
  16   2.0000     -14.432403      -392.7257
  17   2.0000     -14.430556      -392.6754
  18   2.0000     -14.430388      -392.6708
  19   2.0000     -14.429537      -392.6477
  20   2.0000     -14.428705      -392.6250
  21   2.0000     -14.428553      -392.6209
  22   2.0000     -10.530786      -286.5572
  23   2.0000     -10.528001      -286.4815
  24   2.0000     -10.366788      -282.0946
  25   2.0000     -10.364613      -282.0355
  26   2.0000     -10.364569      -282.0343
  27   2.0000     -10.363189      -281.9967
  28   2.0000     -10.354961      -281.7728
  29   2.0000     -10.354754      -281.7672
  30   2.0000     -10.353523      -281.7337
  31   2.0000     -10.351345      -281.6744
  32   2.0000     -10.350978      -281.6644
  33   2.0000     -10.349416      -281.6219
  34   2.0000     -10.334374      -281.2126
  35   2.0000     -10.333042      -281.1764
  36   2.0000     -10.332992      -281.1750
  37   2.0000     -10.332693      -281.1669
  38   2.0000     -10.332635      -281.1653
  39   2.0000     -10.332530      -281.1624
  40   2.0000     -10.332305      -281.1563
  41   2.0000     -10.332078      -281.1501
  42   2.0000     -10.331769      -281.1417
  43   2.0000     -10.331039      -281.1219
  44   2.0000     -10.331020      -281.1213
  45   2.0000     -10.330389      -281.1042
  46   2.0000     -10.330113      -281.0967
  47   2.0000     -10.329205      -281.0720
  48   2.0000     -10.329107      -281.0693
  49   2.0000     -10.328625      -281.0562
  50   2.0000     -10.328380      -281.0495
  51   2.0000     -10.327932      -281.0373
  52   2.0000     -10.327090      -281.0144
  53   2.0000     -10.326046      -280.9860
  54   2.0000     -10.325123      -280.9609
  55   2.0000     -10.318890      -280.7913
  56   2.0000     -10.305328      -280.4222
  57   2.0000     -10.305128      -280.4168
  58   2.0000     -10.304852      -280.4093
  59   2.0000     -10.304689      -280.4048
  60   2.0000     -10.303754      -280.3794
  61   2.0000     -10.303442      -280.3709
  62   2.0000     -10.303309      -280.3673
  63   2.0000     -10.302912      -280.3565
  64   2.0000     -10.302595      -280.3479
  65   2.0000     -10.302189      -280.3368
  66   2.0000     -10.302132      -280.3353
  67   2.0000     -10.300951      -280.3031
  68   2.0000     -10.300235      -280.2836
  69   2.0000     -10.293737      -280.1068
  70   2.0000     -10.291898      -280.0568
  71   2.0000     -10.288359      -279.9605
  72   2.0000     -10.280093      -279.7356
  73   2.0000     -10.264737      -279.3177
  74   2.0000      -8.088562      -220.1010
  75   2.0000      -8.087970      -220.0848
  76   2.0000      -8.086356      -220.0409
  77   2.0000      -8.085014      -220.0044
  78   2.0000      -8.084581      -219.9926
  79   2.0000      -8.078944      -219.8393
  80   2.0000      -6.057877      -164.8432
  81   2.0000      -6.057271      -164.8267
  82   2.0000      -6.055681      -164.7835
  83   2.0000      -6.054291      -164.7456
  84   2.0000      -6.053892      -164.7348
  85   2.0000      -6.053680      -164.7290
  86   2.0000      -6.053095      -164.7131
  87   2.0000      -6.051523      -164.6703
  88   2.0000      -6.050801      -164.6507
  89   2.0000      -6.050214      -164.6347
  90   2.0000      -6.050029      -164.6297
  91   2.0000      -6.049732      -164.6216
  92   2.0000      -6.048553      -164.5895
  93   2.0000      -6.048108      -164.5774
  94   2.0000      -6.047365      -164.5572
  95   2.0000      -6.046794      -164.5416
  96   2.0000      -6.043993      -164.4654
  97   2.0000      -6.041405      -164.3950
  98   2.0000      -1.396797       -38.0088
  99   2.0000      -1.394114       -37.9358
 100   2.0000      -1.299780       -35.3688
 101   2.0000      -1.296358       -35.2757
 102   2.0000      -1.296294       -35.2740
 103   2.0000      -1.293254       -35.1912
 104   2.0000      -1.234214       -33.5847
 105   2.0000      -1.231475       -33.5101
 106   2.0000      -1.167995       -31.7828
 107   2.0000      -1.160409       -31.5763
 108   2.0000      -1.047970       -28.5167
 109   2.0000      -1.044584       -28.4246
 110   2.0000      -1.041743       -28.3473
 111   2.0000      -1.023732       -27.8572
 112   2.0000      -1.021541       -27.7975
 113   2.0000      -1.020721       -27.7752
 114   2.0000      -1.009724       -27.4760
 115   2.0000      -1.008248       -27.4358
 116   2.0000      -1.007533       -27.4164
 117   2.0000      -1.005871       -27.3711
 118   2.0000      -0.998300       -27.1651
 119   2.0000      -0.988437       -26.8967
 120   2.0000      -0.965531       -26.2734
 121   2.0000      -0.957455       -26.0537
 122   2.0000      -0.953680       -25.9509
 123   2.0000      -0.929560       -25.2946
 124   2.0000      -0.929442       -25.2914
 125   2.0000      -0.924236       -25.1497
 126   2.0000      -0.920199       -25.0399
 127   2.0000      -0.913179       -24.8489
 128   2.0000      -0.902393       -24.5554
 129   2.0000      -0.896074       -24.3834
 130   2.0000      -0.876214       -23.8430
 131   2.0000      -0.870404       -23.6849
 132   2.0000      -0.867791       -23.6138
 133   2.0000      -0.861427       -23.4406
 134   2.0000      -0.857562       -23.3354
 135   2.0000      -0.854423       -23.2500
 136   2.0000      -0.849499       -23.1161
 137   2.0000      -0.846253       -23.0277
 138   2.0000      -0.833570       -22.6826
 139   2.0000      -0.821322       -22.3493
 140   2.0000      -0.811978       -22.0950
 141   2.0000      -0.798124       -21.7181
 142   2.0000      -0.794820       -21.6281
 143   2.0000      -0.791786       -21.5456
 144   2.0000      -0.780268       -21.2322
 145   2.0000      -0.777797       -21.1649
 146   2.0000      -0.773544       -21.0492
 147   2.0000      -0.766607       -20.8604
 148   2.0000      -0.751174       -20.4405
 149   2.0000      -0.732697       -19.9377
 150   2.0000      -0.722888       -19.6708
 151   2.0000      -0.720832       -19.6148
 152   2.0000      -0.711427       -19.3589
 153   2.0000      -0.708378       -19.2760
 154   2.0000      -0.698904       -19.0182
 155   2.0000      -0.696905       -18.9637
 156   2.0000      -0.693561       -18.8728
 157   2.0000      -0.689818       -18.7709
 158   2.0000      -0.687809       -18.7162
 159   2.0000      -0.682929       -18.5834
 160   2.0000      -0.681232       -18.5373
 161   2.0000      -0.680009       -18.5040
 162   2.0000      -0.677595       -18.4383
 163   2.0000      -0.674414       -18.3517
 164   2.0000      -0.664622       -18.0853
 165   2.0000      -0.661612       -18.0034
 166   2.0000      -0.657523       -17.8921
 167   2.0000      -0.652030       -17.7426
 168   2.0000      -0.636655       -17.3243
 169   2.0000      -0.633588       -17.2408
 170   2.0000      -0.631267       -17.1777
 171   2.0000      -0.626953       -17.0603
 172   2.0000      -0.620875       -16.8949
 173   2.0000      -0.618786       -16.8380
 174   2.0000      -0.617400       -16.8003
 175   2.0000      -0.613118       -16.6838
 176   2.0000      -0.611664       -16.6442
 177   2.0000      -0.610516       -16.6130
 178   2.0000      -0.604321       -16.4444
 179   2.0000      -0.599307       -16.3080
 180   2.0000      -0.585927       -15.9439
 181   2.0000      -0.584889       -15.9156
 182   2.0000      -0.584614       -15.9082
 183   2.0000      -0.576002       -15.6738
 184   2.0000      -0.568910       -15.4808
 185   2.0000      -0.565530       -15.3889
 186   2.0000      -0.558546       -15.1988
 187   2.0000      -0.556837       -15.1523
 188   2.0000      -0.554707       -15.0943
 189   2.0000      -0.553047       -15.0492
 190   2.0000      -0.551119       -14.9967
 191   2.0000      -0.550778       -14.9874
 192   2.0000      -0.549022       -14.9397
 193   2.0000      -0.548562       -14.9271
 194   2.0000      -0.545203       -14.8357
 195   2.0000      -0.544994       -14.8300
 196   2.0000      -0.543781       -14.7970
 197   2.0000      -0.543206       -14.7814
 198   2.0000      -0.539974       -14.6934
 199   2.0000      -0.538581       -14.6555
 200   2.0000      -0.528363       -14.3775
 201   2.0000      -0.523183       -14.2365
 202   2.0000      -0.517081       -14.0705
 203   2.0000      -0.515158       -14.0182
 204   2.0000      -0.513231       -13.9657
 205   2.0000      -0.511369       -13.9151
 206   2.0000      -0.511293       -13.9130
 207   2.0000      -0.509968       -13.8769
 208   2.0000      -0.509202       -13.8561
 209   2.0000      -0.508454       -13.8357
 210   2.0000      -0.506143       -13.7728
 211   2.0000      -0.503037       -13.6883
 212   2.0000      -0.501914       -13.6578
 213   2.0000      -0.499646       -13.5961
 214   2.0000      -0.497083       -13.5263
 215   2.0000      -0.494773       -13.4635
 216   2.0000      -0.492851       -13.4112
 217   2.0000      -0.492608       -13.4046
 218   2.0000      -0.489175       -13.3111
 219   2.0000      -0.488720       -13.2987
 220   2.0000      -0.484119       -13.1735
 221   2.0000      -0.483439       -13.1550
 222   2.0000      -0.479776       -13.0554
 223   2.0000      -0.478365       -13.0170
 224   2.0000      -0.473656       -12.8888
 225   2.0000      -0.471239       -12.8231
 226   2.0000      -0.468951       -12.7608
 227   2.0000      -0.468101       -12.7377
 228   2.0000      -0.466962       -12.7067
 229   2.0000      -0.464801       -12.6479
 230   2.0000      -0.462181       -12.5766
 231   2.0000      -0.461715       -12.5639
 232   2.0000      -0.460353       -12.5268
 233   2.0000      -0.458979       -12.4894
 234   2.0000      -0.457563       -12.4509
 235   2.0000      -0.455923       -12.4063
 236   2.0000      -0.454207       -12.3596
 237   2.0000      -0.448930       -12.2160
 238   2.0000      -0.446221       -12.1423
 239   2.0000      -0.444001       -12.0819
 240   2.0000      -0.443609       -12.0712
 241   2.0000      -0.441601       -12.0166
 242   2.0000      -0.441488       -12.0135
 243   2.0000      -0.440930       -11.9983
 244   2.0000      -0.440509       -11.9868
 245   2.0000      -0.440110       -11.9760
 246   2.0000      -0.438522       -11.9328
 247   2.0000      -0.438131       -11.9221
 248   2.0000      -0.437607       -11.9079
 249   2.0000      -0.436584       -11.8801
 250   2.0000      -0.436028       -11.8649
 251   2.0000      -0.433958       -11.8086
 252   2.0000      -0.427247       -11.6260
 253   2.0000      -0.424792       -11.5592
 254   2.0000      -0.424068       -11.5395
 255   2.0000      -0.421419       -11.4674
 256   2.0000      -0.418826       -11.3968
 257   2.0000      -0.409305       -11.1378
 258   2.0000      -0.408009       -11.1025
 259   2.0000      -0.399115       -10.8605
 260   2.0000      -0.395303       -10.7567
 261   2.0000      -0.388330       -10.5670
 262   2.0000      -0.373810       -10.1719
 263   2.0000      -0.359708        -9.7882
 264   2.0000      -0.355376        -9.6703
 265   2.0000      -0.352885        -9.6025
 266   2.0000      -0.348290        -9.4775
 267   2.0000      -0.345984        -9.4147
 268   2.0000      -0.343272        -9.3409
 269   2.0000      -0.325616        -8.8605
 270   2.0000      -0.321827        -8.7574
 271   2.0000      -0.321243        -8.7415
 272   2.0000      -0.318202        -8.6587
 273   2.0000      -0.292263        -7.9529
 274   2.0000      -0.267609        -7.2820
 275   2.0000      -0.246935        -6.7194
 276   2.0000      -0.230551        -6.2736
 277   0.0000      -0.110752        -3.0137
 278   0.0000      -0.102237        -2.7820
 279   0.0000      -0.100176        -2.7259
 280   0.0000      -0.053412        -1.4534
 281   0.0000      -0.042360        -1.1527

MULLIKEN ATOMIC CHARGES
-----------------------
   0 C :    0.114246
   1 O :   -0.172778
   2 C :    0.071270
   3 C :    0.157101
   4 C :   -0.185968
   5 C :    0.526968
   6 F :   -0.156117
   7 F :   -0.162331
   8 F :   -0.162393
   9 O :   -0.294946
  10 C :    0.176183
  11 C :   -0.019919
  12 C :    0.042013
  13 C :   -0.069810
  14 C :   -0.041446
  15 C :    0.011607
  16 C :   -0.109723
  17 S :    0.187335
  18 C :   -0.095346
  19 C :    0.008949
  20 C :    0.302170
  21 C :   -0.301718
  22 C :   -0.189229
  23 N :    0.170379
  24 C :   -0.185342
  25 N :    0.169577
  26 C :   -0.063773
  27 C :   -0.054629
  28 S :    0.190358
  29 C :   -0.047542
  30 C :   -0.068132
  31 C :    0.016114
  32 C :   -0.101485
  33 S :    0.192010
  34 C :   -0.098618
  35 C :    0.014853
  36 C :    0.299339
  37 C :   -0.295033
  38 C :   -0.189750
  39 N :    0.181022
  40 C :   -0.188130
  41 N :    0.173070
  42 C :   -0.051139
  43 C :   -0.054996
  44 S :    0.182348
  45 C :   -0.050193
  46 C :   -0.055993
  47 C :    0.017370
  48 C :   -0.101439
  49 S :    0.179802
  50 C :   -0.093545
  51 C :   -0.012029
  52 C :    0.306671
  53 C :   -0.296013
  54 C :   -0.189084
  55 N :    0.179380
  56 C :   -0.190467
  57 N :    0.179620
  58 C :   -0.009127
  59 C :   -0.135924
  60 S :    0.214943
  61 C :    0.152442
  62 O :   -0.196190
  63 C :    0.072668
  64 C :    0.134294
  65 C :   -0.180719
  66 C :    0.522084
  67 F :   -0.155540
  68 F :   -0.158438
  69 F :   -0.163576
  70 O :   -0.303608
  71 C :    0.174325
  72 C :   -0.024213
  73 C :   -0.003846
  74 H :    0.026733
  75 H :    0.042328
  76 H :    0.034217
  77 H :    0.034127
  78 H :    0.012973
  79 H :   -0.010913
  80 H :    0.005587
  81 H :    0.009226
  82 H :    0.010476
  83 H :    0.013190
  84 H :    0.012494
  85 H :    0.013549
  86 H :    0.037073
  87 H :    0.042369
  88 H :    0.029679
  89 H :    0.005446
  90 H :    0.018582
  91 H :    0.022592
Sum of atomic charges:   -0.0000000

LOEWDIN ATOMIC CHARGES
----------------------
   0 C :    0.069964
   1 O :    0.039668
   2 C :   -0.015334
   3 C :    0.027940
   4 C :   -0.166089
   5 C :    0.170167
   6 F :   -0.054134
   7 F :   -0.062499
   8 F :   -0.062456
   9 O :   -0.089556
  10 C :    0.076927
  11 C :   -0.016300
  12 C :   -0.056755
  13 C :   -0.155794
  14 C :   -0.034341
  15 C :   -0.065573
  16 C :   -0.194932
  17 S :    0.475501
  18 C :   -0.172459
  19 C :   -0.074998
  20 C :    0.084973
  21 C :   -0.104948
  22 C :   -0.015743
  23 N :   -0.036858
  24 C :   -0.015792
  25 N :   -0.035312
  26 C :   -0.038048
  27 C :   -0.185169
  28 S :    0.481075
  29 C :   -0.176582
  30 C :   -0.042317
  31 C :   -0.067528
  32 C :   -0.183323
  33 S :    0.480825
  34 C :   -0.180078
  35 C :   -0.068931
  36 C :    0.081985
  37 C :   -0.098612
  38 C :   -0.019318
  39 N :   -0.024745
  40 C :   -0.015303
  41 N :   -0.032530
  42 C :   -0.024752
  43 C :   -0.183221
  44 S :    0.464604
  45 C :   -0.180313
  46 C :   -0.026990
  47 C :   -0.063750
  48 C :   -0.184797
  49 S :    0.463395
  50 C :   -0.178396
  51 C :   -0.073332
  52 C :    0.080581
  53 C :   -0.097337
  54 C :   -0.018202
  55 N :   -0.026127
  56 C :   -0.018293
  57 N :   -0.026705
  58 C :   -0.015492
  59 C :   -0.188911
  60 S :    0.492444
  61 C :    0.033764
  62 O :    0.026719
  63 C :   -0.007511
  64 C :    0.024958
  65 C :   -0.160350
  66 C :    0.170804
  67 F :   -0.048642
  68 F :   -0.052139
  69 F :   -0.066171
  70 O :   -0.097784
  71 C :    0.078887
  72 C :   -0.034603
  73 C :   -0.044752
  74 H :    0.032270
  75 H :    0.032602
  76 H :    0.017152
  77 H :    0.017046
  78 H :    0.042509
  79 H :    0.028733
  80 H :    0.038416
  81 H :    0.034869
  82 H :    0.035010
  83 H :    0.042778
  84 H :    0.042373
  85 H :    0.038490
  86 H :    0.028092
  87 H :    0.018585
  88 H :    0.016983
  89 H :    0.041056
  90 H :    0.022607
  91 H :    0.026176

  Mayer bond orders larger than 0.100000
B(  0-C ,  1-O ) :   1.2018 B(  0-C ,  2-C ) :   0.1002 B(  0-C ,  4-C ) :   1.4912
B(  0-C , 74-H ) :   1.0122 B(  1-O ,  2-C ) :   1.1181 B(  2-C ,  3-C ) :   1.4225
B(  2-C , 11-C ) :   1.1647 B(  3-C ,  4-C ) :   1.2174 B(  3-C ,  9-O ) :   1.2328
B(  4-C ,  5-C ) :   0.9553 B(  5-C ,  6-F ) :   1.1716 B(  5-C ,  7-F ) :   1.1545
B(  5-C ,  8-F ) :   1.1552 B(  9-O , 10-C ) :   0.9258 B( 10-C , 75-H ) :   0.9774
B( 10-C , 76-H ) :   0.9652 B( 10-C , 77-H ) :   0.9653 B( 11-C , 12-C ) :   1.6652
B( 11-C , 78-H ) :   0.9618 B( 12-C , 13-C ) :   1.1015 B( 12-C , 79-H ) :   0.9676
B( 13-C , 14-C ) :   1.4629 B( 13-C , 17-S ) :   1.1092 B( 14-C , 15-C ) :   1.2960
B( 14-C , 80-H ) :   0.9903 B( 15-C , 16-C ) :   1.4388 B( 15-C , 20-C ) :   0.9969
B( 16-C , 17-S ) :   1.1158 B( 16-C , 18-C ) :   1.1888 B( 18-C , 19-C ) :   1.4469
B( 18-C , 28-S ) :   1.1241 B( 19-C , 20-C ) :   0.9981 B( 19-C , 26-C ) :   1.2949
B( 20-C , 21-C ) :   1.7083 B( 21-C , 22-C ) :   1.1333 B( 21-C , 24-C ) :   1.1352
B( 22-C , 23-N ) :   2.9925 B( 24-C , 25-N ) :   2.9904 B( 26-C , 27-C ) :   1.4661
B( 26-C , 81-H ) :   0.9858 B( 27-C , 28-S ) :   1.1001 B( 27-C , 29-C ) :   1.1684
B( 29-C , 30-C ) :   1.4617 B( 29-C , 33-S ) :   1.1086 B( 30-C , 31-C ) :   1.2969
B( 30-C , 82-H ) :   0.9858 B( 31-C , 32-C ) :   1.4496 B( 31-C , 36-C ) :   0.9951
B( 32-C , 33-S ) :   1.1137 B( 32-C , 34-C ) :   1.1888 B( 34-C , 35-C ) :   1.4447
B( 34-C , 44-S ) :   1.1222 B( 35-C , 36-C ) :   0.9930 B( 35-C , 42-C ) :   1.2855
B( 36-C , 37-C ) :   1.7150 B( 37-C , 38-C ) :   1.1317 B( 37-C , 40-C ) :   1.1342
B( 38-C , 39-N ) :   2.9930 B( 40-C , 41-N ) :   2.9909 B( 42-C , 43-C ) :   1.4914
B( 42-C , 83-H ) :   0.9932 B( 43-C , 44-S ) :   1.0946 B( 43-C , 45-C ) :   1.1215
B( 45-C , 46-C ) :   1.4881 B( 45-C , 49-S ) :   1.0992 B( 46-C , 47-C ) :   1.2892
B( 46-C , 84-H ) :   0.9925 B( 47-C , 48-C ) :   1.4504 B( 47-C , 52-C ) :   0.9898
B( 48-C , 49-S ) :   1.1164 B( 48-C , 50-C ) :   1.1871 B( 50-C , 51-C ) :   1.4404
B( 50-C , 60-S ) :   1.1259 B( 51-C , 52-C ) :   0.9928 B( 51-C , 58-C ) :   1.3010
B( 52-C , 53-C ) :   1.7177 B( 53-C , 54-C ) :   1.1338 B( 53-C , 56-C ) :   1.1336
B( 54-C , 55-N ) :   2.9909 B( 56-C , 57-N ) :   2.9906 B( 58-C , 59-C ) :   1.4988
B( 58-C , 85-H ) :   0.9812 B( 59-C , 60-S ) :   1.0937 B( 59-C , 61-C ) :   1.0743
B( 61-C , 62-O ) :   1.2138 B( 61-C , 63-C ) :   0.1232 B( 61-C , 65-C ) :   1.4846
B( 62-O , 63-C ) :   1.0964 B( 63-C , 64-C ) :   1.4454 B( 63-C , 72-C ) :   1.1388
B( 64-C , 65-C ) :   1.2001 B( 64-C , 70-O ) :   1.2257 B( 65-C , 66-C ) :   0.9485
B( 66-C , 67-F ) :   1.1587 B( 66-C , 68-F ) :   1.1560 B( 66-C , 69-F ) :   1.1468
B( 70-O , 71-C ) :   0.9254 B( 71-C , 86-H ) :   0.9781 B( 71-C , 87-H ) :   0.9734
B( 71-C , 88-H ) :   0.9633 B( 72-C , 73-C ) :   1.9009 B( 72-C , 89-H ) :   0.9565
B( 73-C , 90-H ) :   0.9585 B( 73-C , 91-H ) :   0.9467

-----------------------------------------------------------------------------
         ABSORPTION SPECTRUM VIA TRANSITION ELECTRIC DIPOLE MOMENTS
-----------------------------------------------------------------------------
State   Energy  Wavelength   fosc         T2         TX        TY        TZ
        (cm-1)    (nm)                  (au**2)     (au)      (au)      (au)
-----------------------------------------------------------------------------
   0   10132.9    986.9   0.456868823  14.84344   1.16779   3.43225  -1.30361
   1   10741.5    931.0   0.003519018   0.10785   0.02540   0.09007  -0.31479
   2   12141.6    823.6   0.051202019   1.38831  -0.47195  -0.62082   0.88327
   3   18121.8    551.8   0.032280023   0.58642  -0.12144  -0.74458  -0.13144
   4   19745.7    506.4   0.049283868   0.82169   0.12788   0.84613  -0.29899
   5   20221.3    494.5   0.020405816   0.33222  -0.22876  -0.47740   0.22799
   6   22098.3    452.5   1.299768388  19.36341  -1.48014  -3.79609   1.66203
   7   24001.8    416.6   0.443703266   6.08590   0.63106   2.32877  -0.51429
   8   24336.0    410.9   1.103357978  14.92599   1.26110   3.41887  -1.28334
   9   25200.6    396.8   0.246473954   3.21985  -0.58583  -1.51621   0.76010
  10   26441.4    378.2   0.229683893   2.85971  -0.32994   0.90507   1.38986
  11   27912.9    358.3   0.028863448   0.34042   0.05676  -0.25948  -0.51949
  12   28907.7    345.9   0.029918740   0.34073  -0.34457  -0.04744   0.46877
  13   29409.0    340.0   0.010600090   0.11866  -0.19898   0.07157   0.27193
  14   29950.0    333.9   0.771111438   8.47610   1.70345  -0.22842  -2.34993
  15   31126.3    321.3   0.163846677   1.73295  -0.34853  -0.84555   0.94685
  16   31555.4    316.9   0.071076119   0.74152   0.24582  -0.38593  -0.72949
  17   31819.3    314.3   0.055620409   0.57546  -0.17337  -0.24377   0.69712
  18   32005.6    312.4   0.404097957   4.15658  -0.45721   1.51577   1.28452
  19   32170.7    310.8   0.524667328   5.36907  -1.03419   0.77438   1.92350
  20   32716.8    305.7   0.588321057   5.91996   0.85480  -1.38990  -1.80484
  21   33252.5    300.7   0.312447988   3.09335   0.56542   1.57873  -0.53034
  22   33796.5    295.9   0.006372320   0.06207   0.04873   0.01531  -0.24385
  23   33968.7    294.4   0.041739748   0.40453  -0.13804  -0.43466   0.44333
  24   34015.4    294.0   0.075934225   0.73492  -0.34512  -0.07707   0.78094
  25   34276.3    291.7   0.090815495   0.87225   0.11825  -0.88164  -0.28458
  26   34486.0    290.0   0.042205219   0.40290  -0.30621   0.08127   0.55003
  27   35003.1    285.7   0.178484254   1.67869  -0.05111  -1.21612  -0.44398
  28   35350.5    282.9   0.003381471   0.03149   0.03442  -0.17397  -0.00627
  29   35444.5    282.1   0.028761843   0.26714  -0.07448   0.51146  -0.00208
  30   35856.9    278.9   0.001772742   0.01628   0.11848   0.00597  -0.04693
  31   36171.4    276.5   0.082657727   0.75230  -0.14199  -0.80792   0.28181
  32   36427.5    274.5   0.026802376   0.24223  -0.00487  -0.45934   0.17667
  33   37239.6    268.5   0.028639393   0.25318   0.20584   0.41517  -0.19608
  34   38142.0    262.2   0.015874771   0.13702   0.04245  -0.32408  -0.17376
  35   38822.9    257.6   0.002793719   0.02369  -0.11516   0.04067   0.09367
  36   39023.8    256.3   0.074144039   0.62549  -0.43830   0.14283   0.64264
  37   39658.3    252.2   0.004173153   0.03464  -0.11578  -0.13405  -0.05717
  38   39915.0    250.5   0.007560268   0.06236   0.08532   0.01579  -0.23415
  39   40098.9    249.4   0.011829755   0.09712  -0.11468   0.12115   0.26324
  40   40190.4    248.8   0.011787700   0.09656  -0.02651   0.05464   0.30474
  41   40321.7    248.0   0.005628403   0.04595  -0.05971  -0.20513  -0.01762

FINAL SINGLE POINT ENERGY     -5605.144213950370

DIPOLE MOMENT
-------------
                                X             Y             Z
Electronic contribution:     19.40578       5.70067     -17.67448
Nuclear contribution   :    -20.07255      -3.74827      18.70106
                        -----------------------------------------
Total Dipole Moment    :     -0.66677       1.95240       1.02659
                        -----------------------------------------
Magnitude (a.u.)       :      2.30442
Magnitude (Debye)      :      5.85737

Rotational constants in cm-1:     0.002280     0.000143     0.000136
Rotational constants in MHz :    68.366627     4.285836     4.075129

                             ****ORCA TERMINATED NORMALLY****
TOTAL RUN TIME: 0 days 0 hours 8 minutes 24 seconds 250 msec
