                         Program Version 4.2.0 -  RELEASE  -
|  1> # ORCA input file
|  2> # SCF done       -202.453975067930          0.000943224256
|  3> ! CAM-B3LYP def2-SVP def2/J RIJCOSX Grid4 TightSCF
|  4> %maxcore 5000
|  5> %tddft
|  6>     Mode sTDDFT
|  7>     Ethresh 5.0
|  8>     maxcore 5000
|  9> end
| 10>
| 11> %pal
| 12>   nprocs 6
| 13>   end
| 14> * xyz 0 1
| 15>    C       -1.28902         1.46519        -0.54547
| 16>    S       -2.17224         0.01287        -0.40835
| 17>    C       -0.72139        -0.92821        -0.33727
| 18>    C        0.39385        -0.12777        -0.44701
| 19>    C        0.05820         1.25081        -0.55520
| 20>    C        1.02942         2.38306        -0.69574
| 21>    F        0.46808         3.54643        -0.31805
| 22>    F        2.13168         2.23851         0.04176
| 23>    F        1.42466         2.56660        -1.96748
| 24>    C        1.79966        -0.62745        -0.58170
| 25>    F        1.86054        -1.91724        -0.96157
| 26>    F        2.46985         0.04819        -1.52929
| 27>    F        2.52579        -0.52855         0.53828
| 28>    C       -0.81288        -2.35962        -0.16903
| 29>    C       -0.01979        -3.05658         0.75382
| 30>    C       -0.06182        -4.49622         0.85486
| 31>    N        0.84586        -5.11502         1.62482
| 32>    C        1.66777        -4.40640         2.35892
| 33>    C        1.55484        -2.97659         2.41213
| 34>    N        0.74780        -2.34580         1.60036
| 35>    C        2.30584        -2.24508         3.36571
| 36>    N        2.91280        -1.70427         4.17256
| 37>    C        2.64944        -5.07487         3.12942
| 38>    N        3.44434        -5.59083         3.77370
| 39>    C       -0.98443        -5.27338         0.11680
| 40>    C       -1.82507        -4.55474        -0.75637
| 41>    C       -1.74425        -3.11636        -0.89178
| 42>    N       -2.63528        -2.64003        -1.76414
| 43>    S       -3.49888        -3.86651        -2.34069
| 44>    N       -2.79130        -5.05687        -1.53288
| 45>    C       -1.06021        -6.71586         0.23461
| 46>    C       -1.41569        -7.48918        -0.88340
| 47>    C       -1.49015        -8.85194        -0.76590
| 48>    C       -1.21975        -9.48765         0.46150
| 49>    C       -0.87675        -8.73037         1.57537
| 50>    C       -0.79977        -7.35978         1.45431
| 51>    C       -1.38338       -10.90881         0.28898
| 52>    C       -1.76807       -11.15844        -1.04391
| 53>    C       -1.84381        -9.86802        -1.82562
| 54>    C       -3.25463        -9.62212        -2.39016
| 55>    C       -4.32770        -9.60101        -1.30858
| 56>    C       -0.81820        -9.85434        -2.97539
| 57>    C        0.61068       -10.08600        -2.49905
| 58>    C       -2.01191       -12.43648        -1.46956
| 59>    C       -1.85975       -13.51885        -0.57848
| 60>    C       -1.46186       -13.25045         0.74487
| 61>    C       -1.23039       -11.96562         1.18122
| 62>    C       -2.12560       -14.83741        -1.06112
| 63>    C       -1.90710       -16.01847        -0.41427
| 64>    C       -2.21897       -17.25925        -0.98641
| 65>    C       -1.97358       -18.48531        -0.41228
| 66>    C       -2.28566       -19.74836        -0.96392
| 67>    C       -1.90751       -20.80710        -0.19140
| 68>    C       -1.27086       -20.43878         1.01061
| 69>    S       -1.18385       -18.69653         1.14191
| 70>    C       -0.74389       -21.28442         1.97514
| 71>    C       -0.73083       -22.69539         1.95525
| 72>    C       -0.11057       -23.26497         3.02735
| 73>    C        0.40676       -22.34058         3.96338
| 74>    S        0.05729       -20.69987         3.40834
| 75>    C        1.12535       -22.50915         5.12202
| 76>    C        1.50405       -23.69435         5.78658
| 77>    C        2.41500       -23.71592         6.85219
| 78>    C        2.59307       -25.05039         7.28065
| 79>    C        3.38767       -25.60700         8.26117
| 80>    C        3.33454       -26.99785         8.43305
| 81>    C        4.00213       -27.84504         9.30735
| 82>    C        3.58097       -29.19051         9.06704
| 83>    C        2.65095       -29.17231         8.04288
| 84>    C        2.46342       -27.82255         7.61199
| 85>    C        1.66969       -27.27636         6.64064
| 86>    C        1.72961       -25.87736         6.45558
| 87>    C        1.07953       -25.04945         5.56239
| 88>    C        4.03203       -30.37602         9.75511
| 89>    C        4.92994       -30.40781        10.73621
| 90>    H       -1.79157         2.40962        -0.61213
| 91>    H       -1.60857        -7.00307        -1.82578
| 92>    H       -0.68282        -9.20402         2.52572
| 93>    H       -0.55971        -6.76586         2.32086
| 94>    H       -3.48315       -10.40668        -3.11483
| 95>    H       -3.25694        -8.66641        -2.91772
| 96>    H       -4.34642       -10.54369        -0.76556
| 97>    H       -5.30602        -9.44153        -1.75596
| 98>    H       -4.13899        -8.79829        -0.59955
| 99>    H       -0.87856        -8.88947        -3.48275
|100>    H       -1.09060       -10.62894        -3.69556
|101>    H        0.91196        -9.31307        -1.79574
|102>    H        1.29399       -10.06581        -3.34479
|103>    H        0.70161       -11.05178        -2.00668
|104>    H       -2.31283       -12.63285        -2.48906
|105>    H       -1.34938       -14.06975         1.43778
|106>    H       -0.93452       -11.78030         2.20298
|107>    H       -2.53348       -14.89129        -2.06410
|108>    H       -1.46643       -16.03278         0.57322
|109>    H       -2.68831       -17.26597        -1.96220
|110>    H       -2.77807       -19.83637        -1.91623
|111>    H       -2.06609       -21.83578        -0.46039
|112>    H       -1.16863       -23.25634         1.14908
|113>    H        0.01107       -24.32537         3.13891
|114>    H        1.47824       -21.59771         5.59013
|115>    H        2.91260       -22.85693         7.26281
|116>    H        4.03309       -24.99857         8.87819
|117>    H        4.72065       -27.54142        10.04614
|118>    H        2.14621       -30.02702         7.63069
|119>    H        1.02093       -27.88350         6.02445
|120>    H        0.34451       -25.37049         4.84920
|121>    H        3.58006       -31.29933         9.41380
|122>    H        5.41037       -29.51814        11.10597
|123>    H        5.22177       -31.33332        11.20136
|124> *
|125>
|126>                          ****END OF INPUT****

CARTESIAN COORDINATES (ANGSTROEM)
---------------------------------
  C     -1.289020    1.465190   -0.545470
  S     -2.172240    0.012870   -0.408350
  C     -0.721390   -0.928210   -0.337270
  C      0.393850   -0.127770   -0.447010
  C      0.058200    1.250810   -0.555200
  C      1.029420    2.383060   -0.695740
  F      0.468080    3.546430   -0.318050
  F      2.131680    2.238510    0.041760
  F      1.424660    2.566600   -1.967480
  C      1.799660   -0.627450   -0.581700
  F      1.860540   -1.917240   -0.961570
  F      2.469850    0.048190   -1.529290
  F      2.525790   -0.528550    0.538280
  C     -0.812880   -2.359620   -0.169030
  C     -0.019790   -3.056580    0.753820
  C     -0.061820   -4.496220    0.854860
  N      0.845860   -5.115020    1.624820
  C      1.667770   -4.406400    2.358920
  C      1.554840   -2.976590    2.412130
  N      0.747800   -2.345800    1.600360
  C      2.305840   -2.245080    3.365710
  N      2.912800   -1.704270    4.172560
  C      2.649440   -5.074870    3.129420
  N      3.444340   -5.590830    3.773700
  C     -0.984430   -5.273380    0.116800
  C     -1.825070   -4.554740   -0.756370
  C     -1.744250   -3.116360   -0.891780
  N     -2.635280   -2.640030   -1.764140
  S     -3.498880   -3.866510   -2.340690
  N     -2.791300   -5.056870   -1.532880
  C     -1.060210   -6.715860    0.234610
  C     -1.415690   -7.489180   -0.883400
  C     -1.490150   -8.851940   -0.765900
  C     -1.219750   -9.487650    0.461500
  C     -0.876750   -8.730370    1.575370
  C     -0.799770   -7.359780    1.454310
  C     -1.383380  -10.908810    0.288980
  C     -1.768070  -11.158440   -1.043910
  C     -1.843810   -9.868020   -1.825620
  C     -3.254630   -9.622120   -2.390160
  C     -4.327700   -9.601010   -1.308580
  C     -0.818200   -9.854340   -2.975390
  C      0.610680  -10.086000   -2.499050
  C     -2.011910  -12.436480   -1.469560
  C     -1.859750  -13.518850   -0.578480
  C     -1.461860  -13.250450    0.744870
  C     -1.230390  -11.965620    1.181220
  C     -2.125600  -14.837410   -1.061120
  C     -1.907100  -16.018470   -0.414270
  C     -2.218970  -17.259250   -0.986410
  C     -1.973580  -18.485310   -0.412280
  C     -2.285660  -19.748360   -0.963920
  C     -1.907510  -20.807100   -0.191400
  C     -1.270860  -20.438780    1.010610
  S     -1.183850  -18.696530    1.141910
  C     -0.743890  -21.284420    1.975140
  C     -0.730830  -22.695390    1.955250
  C     -0.110570  -23.264970    3.027350
  C      0.406760  -22.340580    3.963380
  S      0.057290  -20.699870    3.408340
  C      1.125350  -22.509150    5.122020
  C      1.504050  -23.694350    5.786580
  C      2.415000  -23.715920    6.852190
  C      2.593070  -25.050390    7.280650
  C      3.387670  -25.607000    8.261170
  C      3.334540  -26.997850    8.433050
  C      4.002130  -27.845040    9.307350
  C      3.580970  -29.190510    9.067040
  C      2.650950  -29.172310    8.042880
  C      2.463420  -27.822550    7.611990
  C      1.669690  -27.276360    6.640640
  C      1.729610  -25.877360    6.455580
  C      1.079530  -25.049450    5.562390
  C      4.032030  -30.376020    9.755110
  C      4.929940  -30.407810   10.736210
  H     -1.791570    2.409620   -0.612130
  H     -1.608570   -7.003070   -1.825780
  H     -0.682820   -9.204020    2.525720
  H     -0.559710   -6.765860    2.320860
  H     -3.483150  -10.406680   -3.114830
  H     -3.256940   -8.666410   -2.917720
  H     -4.346420  -10.543690   -0.765560
  H     -5.306020   -9.441530   -1.755960
  H     -4.138990   -8.798290   -0.599550
  H     -0.878560   -8.889470   -3.482750
  H     -1.090600  -10.628940   -3.695560
  H      0.911960   -9.313070   -1.795740
  H      1.293990  -10.065810   -3.344790
  H      0.701610  -11.051780   -2.006680
  H     -2.312830  -12.632850   -2.489060
  H     -1.349380  -14.069750    1.437780
  H     -0.934520  -11.780300    2.202980
  H     -2.533480  -14.891290   -2.064100
  H     -1.466430  -16.032780    0.573220
  H     -2.688310  -17.265970   -1.962200
  H     -2.778070  -19.836370   -1.916230
  H     -2.066090  -21.835780   -0.460390
  H     -1.168630  -23.256340    1.149080
  H      0.011070  -24.325370    3.138910
  H      1.478240  -21.597710    5.590130
  H      2.912600  -22.856930    7.262810
  H      4.033090  -24.998570    8.878190
  H      4.720650  -27.541420   10.046140
  H      2.146210  -30.027020    7.630690
  H      1.020930  -27.883500    6.024450
  H      0.344510  -25.370490    4.849200
  H      3.580060  -31.299330    9.413800
  H      5.410370  -29.518140   11.105970
  H      5.221770  -31.333320   11.201360

 Total Charge           Charge          ....    0
 Multiplicity           Mult            ....    1
 Number of Electrons    NEL             ....  548
 Basis Dimension        Dim             .... 1236

ORBITAL ENERGIES
----------------

  NO   OCC          E(Eh)            E(eV)
   0   2.0000     -89.052370     -2423.2382
   1   2.0000     -88.981736     -2421.3161
   2   2.0000     -88.937763     -2420.1196
   3   2.0000     -88.936188     -2420.0767
   4   2.0000     -24.801371      -674.8796
   5   2.0000     -24.794870      -674.7027
   6   2.0000     -24.794540      -674.6937
   7   2.0000     -24.793213      -674.6576
   8   2.0000     -24.793136      -674.6555
   9   2.0000     -24.787031      -674.4894
  10   2.0000     -14.461022      -393.5044
  11   2.0000     -14.460988      -393.5035
  12   2.0000     -14.458645      -393.4397
  13   2.0000     -14.457594      -393.4111
  14   2.0000     -14.426624      -392.5684
  15   2.0000     -14.425864      -392.5477
  16   2.0000     -10.521463      -286.3036
  17   2.0000     -10.516579      -286.1707
  18   2.0000     -10.381151      -282.4855
  19   2.0000     -10.377906      -282.3972
  20   2.0000     -10.350503      -281.6515
  21   2.0000     -10.348837      -281.6062
  22   2.0000     -10.347911      -281.5810
  23   2.0000     -10.347638      -281.5735
  24   2.0000     -10.334384      -281.2129
  25   2.0000     -10.324899      -280.9548
  26   2.0000     -10.320420      -280.8329
  27   2.0000     -10.319952      -280.8202
  28   2.0000     -10.319381      -280.8046
  29   2.0000     -10.319266      -280.8015
  30   2.0000     -10.314004      -280.6583
  31   2.0000     -10.309396      -280.5329
  32   2.0000     -10.305518      -280.4274
  33   2.0000     -10.302183      -280.3367
  34   2.0000     -10.300560      -280.2925
  35   2.0000     -10.300426      -280.2888
  36   2.0000     -10.300296      -280.2853
  37   2.0000     -10.300047      -280.2785
  38   2.0000     -10.289654      -279.9957
  39   2.0000     -10.286962      -279.9225
  40   2.0000     -10.284942      -279.8675
  41   2.0000     -10.283749      -279.8350
  42   2.0000     -10.282043      -279.7886
  43   2.0000     -10.280916      -279.7580
  44   2.0000     -10.277995      -279.6785
  45   2.0000     -10.277728      -279.6712
  46   2.0000     -10.277607      -279.6679
  47   2.0000     -10.277564      -279.6667
  48   2.0000     -10.276527      -279.6385
  49   2.0000     -10.276326      -279.6330
  50   2.0000     -10.274924      -279.5949
  51   2.0000     -10.274414      -279.5810
  52   2.0000     -10.272474      -279.5282
  53   2.0000     -10.272080      -279.5175
  54   2.0000     -10.271703      -279.5073
  55   2.0000     -10.271573      -279.5037
  56   2.0000     -10.271313      -279.4966
  57   2.0000     -10.269960      -279.4598
  58   2.0000     -10.269841      -279.4566
  59   2.0000     -10.269517      -279.4478
  60   2.0000     -10.269036      -279.4347
  61   2.0000     -10.268705      -279.4257
  62   2.0000     -10.268023      -279.4071
  63   2.0000     -10.267953      -279.4052
  64   2.0000     -10.267377      -279.3895
  65   2.0000     -10.266999      -279.3793
  66   2.0000     -10.266874      -279.3758
  67   2.0000     -10.266653      -279.3698
  68   2.0000     -10.266615      -279.3688
  69   2.0000     -10.265428      -279.3365
  70   2.0000     -10.263039      -279.2715
  71   2.0000     -10.262908      -279.2679
  72   2.0000     -10.258716      -279.1539
  73   2.0000     -10.246300      -278.8160
  74   2.0000     -10.244830      -278.7760
  75   2.0000      -8.143561      -221.5976
  76   2.0000      -8.077401      -219.7973
  77   2.0000      -8.034056      -218.6178
  78   2.0000      -8.032717      -218.5813
  79   2.0000      -6.114503      -166.3841
  80   2.0000      -6.106756      -166.1733
  81   2.0000      -6.106600      -166.1690
  82   2.0000      -6.046595      -164.5362
  83   2.0000      -6.042121      -164.4145
  84   2.0000      -6.039875      -164.3534
  85   2.0000      -6.003771      -163.3709
  86   2.0000      -6.002495      -163.3362
  87   2.0000      -5.999840      -163.2639
  88   2.0000      -5.998497      -163.2274
  89   2.0000      -5.994936      -163.1305
  90   2.0000      -5.993488      -163.0911
  91   2.0000      -1.389157       -37.8009
  92   2.0000      -1.382886       -37.6303
  93   2.0000      -1.291323       -35.1387
  94   2.0000      -1.287332       -35.0301
  95   2.0000      -1.286742       -35.0140
  96   2.0000      -1.280853       -34.8538
  97   2.0000      -1.147439       -31.2234
  98   2.0000      -1.119854       -30.4728
  99   2.0000      -1.046464       -28.4757
 100   2.0000      -1.019376       -27.7386
 101   2.0000      -1.010197       -27.4888
 102   2.0000      -1.001582       -27.2544
 103   2.0000      -0.999215       -27.1900
 104   2.0000      -0.989368       -26.9221
 105   2.0000      -0.988987       -26.9117
 106   2.0000      -0.986790       -26.8519
 107   2.0000      -0.978893       -26.6370
 108   2.0000      -0.967689       -26.3322
 109   2.0000      -0.960083       -26.1252
 110   2.0000      -0.945240       -25.7213
 111   2.0000      -0.922330       -25.0979
 112   2.0000      -0.909362       -24.7450
 113   2.0000      -0.901918       -24.5424
 114   2.0000      -0.901164       -24.5219
 115   2.0000      -0.895925       -24.3794
 116   2.0000      -0.887809       -24.1585
 117   2.0000      -0.878507       -23.9054
 118   2.0000      -0.869149       -23.6507
 119   2.0000      -0.864649       -23.5283
 120   2.0000      -0.857813       -23.3423
 121   2.0000      -0.848220       -23.0812
 122   2.0000      -0.839583       -22.8462
 123   2.0000      -0.837122       -22.7792
 124   2.0000      -0.836742       -22.7689
 125   2.0000      -0.835472       -22.7343
 126   2.0000      -0.832991       -22.6668
 127   2.0000      -0.828384       -22.5415
 128   2.0000      -0.815227       -22.1835
 129   2.0000      -0.808305       -21.9951
 130   2.0000      -0.802500       -21.8371
 131   2.0000      -0.799084       -21.7442
 132   2.0000      -0.787248       -21.4221
 133   2.0000      -0.775716       -21.1083
 134   2.0000      -0.769191       -20.9308
 135   2.0000      -0.761012       -20.7082
 136   2.0000      -0.758666       -20.6443
 137   2.0000      -0.747175       -20.3317
 138   2.0000      -0.743549       -20.2330
 139   2.0000      -0.736356       -20.0373
 140   2.0000      -0.723194       -19.6791
 141   2.0000      -0.722265       -19.6538
 142   2.0000      -0.709549       -19.3078
 143   2.0000      -0.704056       -19.1583
 144   2.0000      -0.700379       -19.0583
 145   2.0000      -0.698122       -18.9969
 146   2.0000      -0.691559       -18.8183
 147   2.0000      -0.688600       -18.7378
 148   2.0000      -0.680630       -18.5209
 149   2.0000      -0.674148       -18.3445
 150   2.0000      -0.673756       -18.3338
 151   2.0000      -0.670301       -18.2398
 152   2.0000      -0.669634       -18.2217
 153   2.0000      -0.669350       -18.2139
 154   2.0000      -0.665276       -18.1031
 155   2.0000      -0.663882       -18.0651
 156   2.0000      -0.662870       -18.0376
 157   2.0000      -0.654619       -17.8131
 158   2.0000      -0.648661       -17.6510
 159   2.0000      -0.643881       -17.5209
 160   2.0000      -0.641066       -17.4443
 161   2.0000      -0.636377       -17.3167
 162   2.0000      -0.627236       -17.0679
 163   2.0000      -0.626966       -17.0606
 164   2.0000      -0.623516       -16.9667
 165   2.0000      -0.619691       -16.8627
 166   2.0000      -0.611238       -16.6326
 167   2.0000      -0.607187       -16.5224
 168   2.0000      -0.600733       -16.3468
 169   2.0000      -0.593934       -16.1618
 170   2.0000      -0.590727       -16.0745
 171   2.0000      -0.587321       -15.9818
 172   2.0000      -0.580518       -15.7967
 173   2.0000      -0.580024       -15.7833
 174   2.0000      -0.573007       -15.5923
 175   2.0000      -0.565907       -15.3991
 176   2.0000      -0.564778       -15.3684
 177   2.0000      -0.562076       -15.2949
 178   2.0000      -0.554538       -15.0897
 179   2.0000      -0.552151       -15.0248
 180   2.0000      -0.548298       -14.9199
 181   2.0000      -0.546051       -14.8588
 182   2.0000      -0.542937       -14.7741
 183   2.0000      -0.542679       -14.7671
 184   2.0000      -0.541151       -14.7255
 185   2.0000      -0.538584       -14.6556
 186   2.0000      -0.536818       -14.6076
 187   2.0000      -0.536635       -14.6026
 188   2.0000      -0.533281       -14.5113
 189   2.0000      -0.530666       -14.4402
 190   2.0000      -0.521652       -14.1949
 191   2.0000      -0.518944       -14.1212
 192   2.0000      -0.517031       -14.0691
 193   2.0000      -0.516735       -14.0611
 194   2.0000      -0.515384       -14.0243
 195   2.0000      -0.514838       -14.0095
 196   2.0000      -0.510626       -13.8948
 197   2.0000      -0.508042       -13.8245
 198   2.0000      -0.501277       -13.6404
 199   2.0000      -0.498746       -13.5716
 200   2.0000      -0.497514       -13.5380
 201   2.0000      -0.496601       -13.5132
 202   2.0000      -0.495937       -13.4951
 203   2.0000      -0.492414       -13.3993
 204   2.0000      -0.491094       -13.3634
 205   2.0000      -0.490056       -13.3351
 206   2.0000      -0.488400       -13.2900
 207   2.0000      -0.486687       -13.2434
 208   2.0000      -0.484780       -13.1915
 209   2.0000      -0.483248       -13.1498
 210   2.0000      -0.482754       -13.1364
 211   2.0000      -0.482246       -13.1226
 212   2.0000      -0.479808       -13.0562
 213   2.0000      -0.477702       -12.9989
 214   2.0000      -0.476344       -12.9620
 215   2.0000      -0.472546       -12.8586
 216   2.0000      -0.471573       -12.8321
 217   2.0000      -0.469945       -12.7878
 218   2.0000      -0.468420       -12.7463
 219   2.0000      -0.466618       -12.6973
 220   2.0000      -0.464934       -12.6515
 221   2.0000      -0.462365       -12.5816
 222   2.0000      -0.461752       -12.5649
 223   2.0000      -0.456148       -12.4124
 224   2.0000      -0.452280       -12.3072
 225   2.0000      -0.451489       -12.2857
 226   2.0000      -0.450523       -12.2594
 227   2.0000      -0.450116       -12.2483
 228   2.0000      -0.449033       -12.2188
 229   2.0000      -0.447399       -12.1743
 230   2.0000      -0.445768       -12.1300
 231   2.0000      -0.441150       -12.0043
 232   2.0000      -0.440706       -11.9922
 233   2.0000      -0.439199       -11.9512
 234   2.0000      -0.434968       -11.8361
 235   2.0000      -0.434232       -11.8161
 236   2.0000      -0.432293       -11.7633
 237   2.0000      -0.429921       -11.6988
 238   2.0000      -0.424194       -11.5429
 239   2.0000      -0.423564       -11.5258
 240   2.0000      -0.421698       -11.4750
 241   2.0000      -0.420569       -11.4443
 242   2.0000      -0.417279       -11.3547
 243   2.0000      -0.415233       -11.2991
 244   2.0000      -0.413409       -11.2494
 245   2.0000      -0.411604       -11.2003
 246   2.0000      -0.408743       -11.1225
 247   2.0000      -0.407403       -11.0860
 248   2.0000      -0.405343       -11.0299
 249   2.0000      -0.404972       -11.0199
 250   2.0000      -0.395060       -10.7501
 251   2.0000      -0.393051       -10.6955
 252   2.0000      -0.391992       -10.6666
 253   2.0000      -0.389409       -10.5964
 254   2.0000      -0.385953       -10.5023
 255   2.0000      -0.381298       -10.3756
 256   2.0000      -0.373143       -10.1537
 257   2.0000      -0.367653       -10.0044
 258   2.0000      -0.359953        -9.7948
 259   2.0000      -0.355201        -9.6655
 260   2.0000      -0.348634        -9.4868
 261   2.0000      -0.343721        -9.3531
 262   2.0000      -0.342869        -9.3299
 263   2.0000      -0.332548        -9.0491
 264   2.0000      -0.326510        -8.8848
 265   2.0000      -0.320245        -8.7143
 266   2.0000      -0.319051        -8.6818
 267   2.0000      -0.314261        -8.5515
 268   2.0000      -0.304471        -8.2851
 269   2.0000      -0.284602        -7.7444
 270   2.0000      -0.270018        -7.3476
 271   2.0000      -0.264160        -7.1881
 272   2.0000      -0.243644        -6.6299
 273   2.0000      -0.194860        -5.3024
 274   0.0000      -0.121659        -3.3105
 275   0.0000      -0.097717        -2.6590
 276   0.0000      -0.073126        -1.9899
 277   0.0000      -0.049841        -1.3562
 278   0.0000      -0.039155        -1.0655

MULLIKEN ATOMIC CHARGES
-----------------------
   0 C :   -0.090272
   1 S :    0.216292
   2 C :   -0.229038
   3 C :    0.023705
   4 C :   -0.113569
   5 C :    0.525279
   6 F :   -0.164995
   7 F :   -0.148132
   8 F :   -0.158559
   9 C :    0.525069
  10 F :   -0.166192
  11 F :   -0.157485
  12 F :   -0.147218
  13 C :    0.052742
  14 C :   -0.059676
  15 C :   -0.066237
  16 N :    0.049165
  17 C :   -0.142822
  18 C :   -0.117764
  19 N :    0.053047
  20 C :   -0.197137
  21 N :    0.237302
  22 C :   -0.197767
  23 N :    0.228422
  24 C :    0.128967
  25 C :   -0.015984
  26 C :    0.000395
  27 N :   -0.275176
  28 S :    0.549188
  29 N :   -0.276852
  30 C :   -0.006357
  31 C :   -0.054431
  32 C :   -0.002007
  33 C :    0.125108
  34 C :   -0.062132
  35 C :    0.038274
  36 C :    0.095757
  37 C :    0.027065
  38 C :   -0.138235
  39 C :    0.066377
  40 C :    0.027325
  41 C :    0.070364
  42 C :    0.023750
  43 C :   -0.112459
  44 C :    0.136000
  45 C :   -0.015344
  46 C :   -0.034125
  47 C :   -0.024363
  48 C :    0.029748
  49 C :   -0.023311
  50 C :   -0.017261
  51 C :    0.034712
  52 C :    0.021542
  53 C :   -0.047256
  54 S :    0.069346
  55 C :   -0.041847
  56 C :    0.010824
  57 C :    0.026314
  58 C :   -0.063509
  59 S :    0.082489
  60 C :    0.039986
  61 C :    0.063970
  62 C :   -0.038630
  63 C :    0.067964
  64 C :    0.001826
  65 C :    0.044599
  66 C :   -0.018286
  67 C :    0.060041
  68 C :   -0.026159
  69 C :    0.059915
  70 C :   -0.001076
  71 C :    0.043715
  72 C :   -0.035337
  73 C :    0.013211
  74 C :   -0.026278
  75 H :    0.045550
  76 H :   -0.029699
  77 H :   -0.031404
  78 H :   -0.020938
  79 H :   -0.002540
  80 H :   -0.003324
  81 H :    0.021889
  82 H :    0.005481
  83 H :    0.022133
  84 H :   -0.004789
  85 H :   -0.002266
  86 H :    0.022272
  87 H :    0.010160
  88 H :    0.023867
  89 H :   -0.043770
  90 H :   -0.028133
  91 H :   -0.034179
  92 H :   -0.030213
  93 H :   -0.001862
  94 H :   -0.023183
  95 H :   -0.018425
  96 H :   -0.017240
  97 H :   -0.018543
  98 H :   -0.025211
  99 H :   -0.021868
 100 H :   -0.029227
 101 H :   -0.024597
 102 H :   -0.022413
 103 H :   -0.028487
 104 H :   -0.026030
 105 H :   -0.028201
 106 H :   -0.019589
 107 H :    0.007765
 108 H :    0.020498
Sum of atomic charges:   -0.0000000

LOEWDIN ATOMIC CHARGES
----------------------
   0 C :   -0.156702
   1 S :    0.513617
   2 C :   -0.142654
   3 C :   -0.095073
   4 C :   -0.111280
   5 C :    0.160005
   6 F :   -0.063493
   7 F :   -0.046070
   8 F :   -0.062720
   9 C :    0.163443
  10 F :   -0.061007
  11 F :   -0.053548
  12 F :   -0.047983
  13 C :   -0.063000
  14 C :    0.000615
  15 C :   -0.013924
  16 N :    0.013811
  17 C :   -0.033200
  18 C :   -0.017383
  19 N :   -0.002854
  20 C :   -0.033955
  21 N :    0.001232
  22 C :   -0.036715
  23 N :   -0.006823
  24 C :    0.014382
  25 C :   -0.043629
  26 C :   -0.043004
  27 N :   -0.298255
  28 S :    0.684201
  29 N :   -0.272008
  30 C :   -0.030411
  31 C :    0.000969
  32 C :   -0.002783
  33 C :    0.004314
  34 C :   -0.025016
  35 C :    0.009058
  36 C :   -0.027070
  37 C :    0.006838
  38 C :   -0.035382
  39 C :   -0.012139
  40 C :   -0.057616
  41 C :   -0.011115
  42 C :   -0.057610
  43 C :   -0.024570
  44 C :   -0.016547
  45 C :   -0.015333
  46 C :   -0.010981
  47 C :   -0.027060
  48 C :   -0.022571
  49 C :   -0.063762
  50 C :   -0.143085
  51 C :   -0.042218
  52 C :   -0.031500
  53 C :   -0.187211
  54 S :    0.365202
  55 C :   -0.178143
  56 C :   -0.031726
  57 C :   -0.041403
  58 C :   -0.153908
  59 S :    0.368638
  60 C :   -0.043565
  61 C :   -0.058946
  62 C :    0.008065
  63 C :   -0.059453
  64 C :    0.070306
  65 C :   -0.062791
  66 C :    0.048864
  67 C :   -0.058877
  68 C :    0.014273
  69 C :   -0.057448
  70 C :    0.067685
  71 C :   -0.059318
  72 C :    0.031171
  73 C :   -0.021067
  74 C :   -0.054187
  75 H :    0.035024
  76 H :    0.023412
  77 H :    0.029170
  78 H :    0.026490
  79 H :    0.019558
  80 H :    0.019827
  81 H :    0.025834
  82 H :    0.022830
  83 H :    0.025521
  84 H :    0.018861
  85 H :    0.019946
  86 H :    0.025480
  87 H :    0.024501
  88 H :    0.026598
  89 H :    0.022936
  90 H :    0.026887
  91 H :    0.028053
  92 H :    0.024952
  93 H :    0.021407
  94 H :    0.030426
  95 H :    0.031357
  96 H :    0.030184
  97 H :    0.030307
  98 H :    0.028118
  99 H :    0.030800
 100 H :    0.023429
 101 H :    0.034815
 102 H :    0.025516
 103 H :    0.023858
 104 H :    0.034139
 105 H :    0.021708
 106 H :    0.029207
 107 H :    0.017741
 108 H :    0.024511

  Mayer bond orders larger than 0.100000
B(  0-C ,  1-S ) :   1.1912 B(  0-C ,  4-C ) :   1.5768 B(  0-C , 75-H ) :   0.9710
B(  1-S ,  2-C ) :   1.1909 B(  2-C ,  3-C ) :   1.5712 B(  2-C , 13-C ) :   1.0335
B(  3-C ,  4-C ) :   1.2795 B(  3-C ,  9-C ) :   0.9471 B(  4-C ,  5-C ) :   0.9414
B(  5-C ,  6-F ) :   1.1589 B(  5-C ,  7-F ) :   1.1655 B(  5-C ,  8-F ) :   1.1855
B(  9-C , 10-F ) :   1.1262 B(  9-C , 11-F ) :   1.1517 B(  9-C , 12-F ) :   1.1786
B( 13-C , 14-C ) :   1.3420 B( 13-C , 24-C ) :   0.1331 B( 13-C , 26-C ) :   1.2658
B( 14-C , 15-C ) :   1.0884 B( 14-C , 19-N ) :   1.4372 B( 15-C , 16-N ) :   1.4257
B( 15-C , 24-C ) :   1.2778 B( 16-N , 17-C ) :   1.7404 B( 17-C , 18-C ) :   1.1849
B( 17-C , 22-C ) :   1.1444 B( 18-C , 19-N ) :   1.7359 B( 18-C , 20-C ) :   1.1459
B( 20-C , 21-N ) :   3.0484 B( 22-C , 23-N ) :   3.0512 B( 24-C , 25-C ) :   1.2341
B( 24-C , 30-C ) :   1.0458 B( 25-C , 26-C ) :   1.0994 B( 25-C , 29-N ) :   1.4877
B( 26-C , 27-N ) :   1.5166 B( 27-N , 28-S ) :   1.2771 B( 27-N , 29-N ) :   0.1564
B( 28-S , 29-N ) :   1.3013 B( 30-C , 31-C ) :   1.2921 B( 30-C , 35-C ) :   1.3351
B( 31-C , 32-C ) :   1.4171 B( 31-C , 76-H ) :   0.9935 B( 32-C , 33-C ) :   1.3467
B( 32-C , 38-C ) :   0.9104 B( 33-C , 34-C ) :   1.3241 B( 33-C , 36-C ) :   1.0097
B( 34-C , 35-C ) :   1.4039 B( 34-C , 77-H ) :   0.9926 B( 35-C , 78-H ) :   0.9774
B( 36-C , 37-C ) :   1.3538 B( 36-C , 46-C ) :   1.3173 B( 37-C , 38-C ) :   0.9163
B( 37-C , 43-C ) :   1.3876 B( 38-C , 39-C ) :   1.0403 B( 38-C , 41-C ) :   1.0374
B( 39-C , 40-C ) :   1.1017 B( 39-C , 79-H ) :   0.9395 B( 39-C , 80-H ) :   0.9380
B( 40-C , 81-H ) :   0.9649 B( 40-C , 82-H ) :   0.9637 B( 40-C , 83-H ) :   0.9635
B( 41-C , 42-C ) :   1.1009 B( 41-C , 84-H ) :   0.9391 B( 41-C , 85-H ) :   0.9391
B( 42-C , 86-H ) :   0.9644 B( 42-C , 87-H ) :   0.9635 B( 42-C , 88-H ) :   0.9648
B( 43-C , 44-C ) :   1.2713 B( 43-C , 89-H ) :   1.0138 B( 44-C , 45-C ) :   1.3240
B( 44-C , 47-C ) :   1.0834 B( 45-C , 46-C ) :   1.4145 B( 45-C , 90-H ) :   0.9852
B( 46-C , 91-H ) :   0.9892 B( 47-C , 48-C ) :   1.6282 B( 47-C , 92-H ) :   0.9865
B( 48-C , 49-C ) :   1.1684 B( 48-C , 93-H ) :   0.9636 B( 49-C , 50-C ) :   1.5422
B( 49-C , 94-H ) :   0.9830 B( 50-C , 51-C ) :   1.1523 B( 50-C , 54-S ) :   1.0339
B( 51-C , 52-C ) :   1.5728 B( 51-C , 95-H ) :   0.9992 B( 52-C , 53-C ) :   1.2058
B( 52-C , 96-H ) :   0.9937 B( 53-C , 54-S ) :   1.0401 B( 53-C , 55-C ) :   1.4795
B( 55-C , 56-C ) :   1.1995 B( 55-C , 59-S ) :   1.0602 B( 56-C , 57-C ) :   1.5949
B( 56-C , 97-H ) :   0.9925 B( 57-C , 58-C ) :   1.1503 B( 57-C , 98-H ) :   0.9929
B( 58-C , 59-S ) :   1.0256 B( 58-C , 60-C ) :   1.5616 B( 60-C , 61-C ) :   1.1742
B( 60-C , 99-H ) :   0.9504 B( 61-C , 62-C ) :   1.4352 B( 61-C , 72-C ) :   1.1230
B( 62-C , 63-C ) :   1.1171 B( 62-C ,100-H ) :   1.0202 B( 63-C , 64-C ) :   1.4276
B( 63-C , 71-C ) :   1.1281 B( 64-C , 65-C ) :   1.1437 B( 64-C ,101-H ) :   1.0049
B( 65-C , 66-C ) :   1.4283 B( 65-C , 69-C ) :   1.1255 B( 66-C , 67-C ) :   1.1483
B( 66-C ,102-H ) :   1.0084 B( 67-C , 68-C ) :   1.5040 B( 67-C , 73-C ) :   1.0848
B( 68-C , 69-C ) :   1.0848 B( 68-C ,103-H ) :   1.0171 B( 69-C , 70-C ) :   1.4707
B( 70-C , 71-C ) :   1.1204 B( 70-C ,104-H ) :   1.0039 B( 71-C , 72-C ) :   1.4536
B( 72-C ,105-H ) :   1.0063 B( 73-C , 74-C ) :   1.9308 B( 73-C ,106-H ) :   0.9668
B( 74-C ,107-H ) :   0.9536 B( 74-C ,108-H ) :   0.9501

-----------------------------------------------------------------------------
         ABSORPTION SPECTRUM VIA TRANSITION ELECTRIC DIPOLE MOMENTS
-----------------------------------------------------------------------------
State   Energy  Wavelength   fosc         T2         TX        TY        TZ
        (cm-1)    (nm)                  (au**2)     (au)      (au)      (au)
-----------------------------------------------------------------------------
   0    5855.2   1707.9   0.037663755   2.11768   0.47928  -1.10550   0.81599
   1    7983.7   1252.6   0.539137771  22.23166  -0.26272   4.60924  -0.95789
   2   13896.2    719.6   2.014911888  47.73493   1.89583  -5.61923   3.54471
   3   14756.2    677.7   0.000905080   0.02019  -0.04346  -0.03405  -0.13094
   4   15186.3    658.5   0.145513134   3.15446  -0.98542  -0.90601  -1.16728
   5   20594.0    485.6   0.019519451   0.31203  -0.20466   0.28507  -0.43461
   6   22368.4    447.1   0.231877661   3.41270   0.47743  -1.60791   0.77419
   7   22695.0    440.6   0.017960681   0.26054   0.27859   0.06598   0.42257
   8   23341.9    428.4   0.007884772   0.11121   0.01194   0.00610   0.33321
   9   24051.9    415.8   0.051037016   0.69857  -0.51417  -0.23644  -0.61506
  10   24169.7    413.7   0.022655773   0.30859   0.22992   0.26693   0.42951
  11   25061.9    399.0   0.174912841   2.29765  -0.73836  -0.67244  -1.14030
  12   25676.7    389.5   0.257456115   3.30096   0.88236   1.07338   1.17059
  13   26157.8    382.3   0.155650096   1.95895  -0.81264  -0.25545  -1.11055
  14   26523.4    377.0   0.004301668   0.05339  -0.23070  -0.01107   0.00675
  15   27217.4    367.4   0.015298929   0.18505  -0.24197  -0.16552  -0.31481
  16   28158.5    355.1   0.011516142   0.13464   0.19406  -0.29741   0.09235
  17   28484.4    351.1   0.008468071   0.09787   0.24630   0.10174   0.16387
  18   28690.6    348.5   0.062024928   0.71171   0.52459  -0.21515   0.62468
  19   29160.7    342.9   0.018639650   0.21043   0.24834   0.20369   0.32752
  20   29391.3    340.2   0.002979856   0.03338   0.08211  -0.14795  -0.06890
  21   29792.6    335.7   0.002936336   0.03245   0.09770  -0.14972   0.02205
  22   30158.5    331.6   0.319447261   3.48711  -0.05931   1.85927  -0.16336
  23   30605.7    326.7   0.151592771   1.63062   0.03122   1.26740  -0.15280
  24   30873.7    323.9   0.157175189   1.67599  -0.62720  -0.83404  -0.76616
  25   31522.4    317.2   0.014677868   0.15329  -0.20137  -0.25570  -0.21763
  26   32038.9    312.1   0.204135471   2.09757   0.12845  -1.42231   0.24106
  27   32386.3    308.8   0.001741616   0.01770  -0.05330  -0.11811  -0.03021
  28   32749.8    305.3   0.183972131   1.84935  -0.36886   1.20323  -0.51529
  29   33037.6    302.7   0.753150726   7.50497  -1.97162   0.22372  -1.88882
  30   33266.3    300.6   0.013522412   0.13382   0.33621   0.04596   0.13664
  31   33835.4    295.5   0.010130232   0.09857  -0.13343  -0.06956  -0.27554
  32   33967.2    294.4   0.005168016   0.05009   0.03835   0.11675   0.18705
  33   34208.9    292.3   0.006569291   0.06322  -0.07798   0.03149  -0.23696
  34   34900.1    286.5   0.272815583   2.57346  -0.17273   1.57164  -0.27123
  35   35178.5    284.3   0.008416627   0.07877  -0.06287  -0.27057  -0.04004
  36   35300.3    283.3   0.155038408   1.44589   0.35721  -1.06644   0.42545
  37   36339.8    275.2   0.491261453   4.45047   1.09689  -1.30185   1.24598
  38   36753.7    272.1   0.006252722   0.05601  -0.02473  -0.23099  -0.04518
  39   37030.5    270.0   0.008653206   0.07693  -0.15029  -0.23202  -0.02255
  40   37147.2    269.2   0.292576697   2.59292   1.13533   0.61321   0.96329
  41   37776.2    264.7   0.009293220   0.08099  -0.12109  -0.22105   0.13215
  42   37824.1    264.4   0.020030542   0.17434   0.03485   0.41533  -0.02509
  43   38048.5    262.8   0.027157275   0.23498  -0.27113   0.19552  -0.35105
  44   38127.3    262.3   0.091784526   0.79252  -0.49295  -0.60033  -0.43488
  45   38367.1    260.6   0.012477897   0.10707   0.07593   0.08164   0.30763
  46   38574.8    259.2   0.007547727   0.06442   0.17085   0.01490   0.18709
  47   38744.9    258.1   0.005515757   0.04687   0.14099   0.15812   0.04457
  48   39344.2    254.2   0.023174006   0.19391  -0.10586   0.21999  -0.36648
  49   39631.1    252.3   0.014128260   0.11736   0.03586   0.27779  -0.19725
  50   40066.7    249.6   0.168163425   1.38173  -0.55884   0.74788  -0.71421
  51   40304.5    248.1   0.043271467   0.35345  -0.38100  -0.17159  -0.42290

FINAL SINGLE POINT ENERGY     -4784.535970602242

DIPOLE MOMENT
-------------
                                X             Y             Z
Electronic contribution:     18.01272     236.48990     -22.77359
Nuclear contribution   :    -21.20331    -240.35562      21.31286
                        -----------------------------------------
Total Dipole Moment    :     -3.19059      -3.86572      -1.46073
                        -----------------------------------------
Magnitude (a.u.)       :      5.22086
Magnitude (Debye)      :     13.27037

Rotational constants in cm-1:     0.001719     0.000144     0.000135
Rotational constants in MHz :    51.533457     4.318552     4.040734

                             ****ORCA TERMINATED NORMALLY****
TOTAL RUN TIME: 0 days 0 hours 13 minutes 34 seconds 465 msec
