                         Program Version 4.2.0 -  RELEASE  -
|  1> # ORCA input file
|  2> # SCF done       -182.862580140656          0.000285604379
|  3> ! CAM-B3LYP def2-SVP def2/J RIJCOSX Grid4 TightSCF
|  4> %maxcore 5000
|  5> %tddft
|  6>     Mode sTDDFT
|  7>     Ethresh 5.0
|  8>     maxcore 5000
|  9> end
| 10>
| 11> %pal
| 12>   nprocs 6
| 13>   end
| 14> * xyz 0 1
| 15>    C       -9.79965         2.24826        -6.53078
| 16>    C      -11.11671         2.40109        -6.89755
| 17>    C      -11.54455         2.50598        -8.23298
| 18>    N      -11.97829         2.62702        -9.29095
| 19>    C      -12.22465         2.46364        -6.03284
| 20>    N      -13.19861         2.45268        -5.42063
| 21>    C       -8.71724         1.94364        -7.45149
| 22>    C       -7.51155         1.83403        -6.71671
| 23>    C       -6.32712         1.44415        -7.29026
| 24>    C       -6.33312         1.14332        -8.65698
| 25>    C       -7.53419         1.29002        -9.39088
| 26>    C       -8.72793         1.69568        -8.81188
| 27>    S       -7.32584         0.85415       -11.05440
| 28>    C       -5.65351         0.48096       -10.75196
| 29>    C       -5.26521         0.67703        -9.46864
| 30>   Br       -4.57306        -0.12494       -12.15654
| 31>    C       -7.76884         2.18572        -5.31017
| 32>    O       -6.92763         2.36870        -4.45321
| 33>    C       -9.23511         2.35442        -5.20006
| 34>    C       -9.97767         2.68630        -4.10147
| 35>    N       -9.59994         2.90090        -2.82993
| 36>    C       -8.35660         2.73516        -2.23616
| 37>    S       -7.65614         1.16347        -2.07952
| 38>    C       -6.35668         1.85572        -1.17857
| 39>    N       -5.32683         1.00558        -0.73661
| 40>    O       -4.41753         1.50525        -0.10462
| 41>    O       -5.43018        -0.17362        -1.01487
| 42>    C       -6.47105         3.20506        -0.99180
| 43>    C       -7.62990         3.74094        -1.59772
| 44>    C       -7.94475         5.13998        -1.56719
| 45>    C       -8.88035         5.76965        -2.32375
| 46>    C       -9.19392         7.14056        -2.24350
| 47>    C      -10.20751         7.71618        -2.96519
| 48>    C      -10.63529         9.06677        -2.92503
| 49>    C      -11.72276         9.33542        -3.69823
| 50>    C      -12.22293         8.21664        -4.40254
| 51>    S      -11.23794         6.80693        -4.06971
| 52>    C      -13.34410         8.15277        -5.20602
| 53>    C      -14.27996         9.18083        -5.46451
| 54>    C      -15.33936         8.78279        -6.21963
| 55>    C      -15.30268         7.41982        -6.60791
| 56>    S      -13.83247         6.67149        -6.00757
| 57>    C      -16.29542         6.75144        -7.27968
| 58>    C      -16.30634         5.39824        -7.64156
| 59>    S      -14.91022         4.34165        -7.53269
| 60>    C      -15.79466         2.93724        -8.04051
| 61>    C      -17.12281         3.27466        -8.31458
| 62>    C      -17.38603         4.65800        -8.10435
| 63>    S      -19.02495         5.09171        -8.46057
| 64>    C      -19.32768         3.43027        -8.91150
| 65>    N      -20.62053         3.10503        -9.35425
| 66>    O      -20.83598         1.94732        -9.66128
| 67>    O      -21.43277         4.00999        -9.39581
| 68>    C      -18.25745         2.58849        -8.79172
| 69>    C      -15.11050         1.69950        -8.06592
| 70>    C      -15.64556         0.47739        -7.87613
| 71>    N      -14.88891        -0.67564        -7.85848
| 72>    C      -13.57562        -0.72672        -8.24963
| 73>    S      -12.37813        -1.32911        -7.13406
| 74>    C      -11.13863        -1.02462        -8.30882
| 75>    N       -9.81766        -1.29481        -7.96348
| 76>    O       -8.96029        -1.13780        -8.82099
| 77>    O       -9.59891        -1.63662        -6.81080
| 78>    C      -11.62869        -0.48652        -9.47218
| 79>    C      -13.02189        -0.30812        -9.45860
| 80>    C      -13.72414         0.23279       -10.61182
| 81>    C      -15.00265         0.05326       -10.91564
| 82>    H       -5.42916         1.35069        -6.70005
| 83>    H       -9.61700         1.78450        -9.41276
| 84>    H       -4.27022         0.49125        -9.10721
| 85>    H      -11.03898         2.84466        -4.24796
| 86>    H      -10.29639         3.33681        -2.23520
| 87>    H       -5.73677         3.78459        -0.46200
| 88>    H       -7.34994         5.72946        -0.88262
| 89>    H       -9.43925         5.21946        -3.06674
| 90>    H       -8.63657         7.76831        -1.56228
| 91>    H      -10.12817         9.79304        -2.31489
| 92>    H      -12.18194        10.30427        -3.77789
| 93>    H      -14.15821        10.17345        -5.07030
| 94>    H      -16.15896         9.41933        -6.50240
| 95>    H      -17.19247         7.30855        -7.51948
| 96>    H      -18.30222         1.54771        -9.05313
| 97>    H      -14.03686         1.77633        -8.14951
| 98>    H      -16.69556         0.32802        -7.67650
| 99>    H      -15.18842        -1.39342        -7.21147
|100>    H      -10.99945        -0.24772       -10.31062
|101>    H      -13.09242         0.81411       -11.26862
|102>    H      -15.66642        -0.54596       -10.31766
|103>    H      -15.42347         0.48511       -11.80645
|104> *
|105>
|106>                          ****END OF INPUT****

CARTESIAN COORDINATES (ANGSTROEM)
---------------------------------
  C     -9.799650    2.248260   -6.530780
  C    -11.116710    2.401090   -6.897550
  C    -11.544550    2.505980   -8.232980
  N    -11.978290    2.627020   -9.290950
  C    -12.224650    2.463640   -6.032840
  N    -13.198610    2.452680   -5.420630
  C     -8.717240    1.943640   -7.451490
  C     -7.511550    1.834030   -6.716710
  C     -6.327120    1.444150   -7.290260
  C     -6.333120    1.143320   -8.656980
  C     -7.534190    1.290020   -9.390880
  C     -8.727930    1.695680   -8.811880
  S     -7.325840    0.854150  -11.054400
  C     -5.653510    0.480960  -10.751960
  C     -5.265210    0.677030   -9.468640
  Br    -4.573060   -0.124940  -12.156540
  C     -7.768840    2.185720   -5.310170
  O     -6.927630    2.368700   -4.453210
  C     -9.235110    2.354420   -5.200060
  C     -9.977670    2.686300   -4.101470
  N     -9.599940    2.900900   -2.829930
  C     -8.356600    2.735160   -2.236160
  S     -7.656140    1.163470   -2.079520
  C     -6.356680    1.855720   -1.178570
  N     -5.326830    1.005580   -0.736610
  O     -4.417530    1.505250   -0.104620
  O     -5.430180   -0.173620   -1.014870
  C     -6.471050    3.205060   -0.991800
  C     -7.629900    3.740940   -1.597720
  C     -7.944750    5.139980   -1.567190
  C     -8.880350    5.769650   -2.323750
  C     -9.193920    7.140560   -2.243500
  C    -10.207510    7.716180   -2.965190
  C    -10.635290    9.066770   -2.925030
  C    -11.722760    9.335420   -3.698230
  C    -12.222930    8.216640   -4.402540
  S    -11.237940    6.806930   -4.069710
  C    -13.344100    8.152770   -5.206020
  C    -14.279960    9.180830   -5.464510
  C    -15.339360    8.782790   -6.219630
  C    -15.302680    7.419820   -6.607910
  S    -13.832470    6.671490   -6.007570
  C    -16.295420    6.751440   -7.279680
  C    -16.306340    5.398240   -7.641560
  S    -14.910220    4.341650   -7.532690
  C    -15.794660    2.937240   -8.040510
  C    -17.122810    3.274660   -8.314580
  C    -17.386030    4.658000   -8.104350
  S    -19.024950    5.091710   -8.460570
  C    -19.327680    3.430270   -8.911500
  N    -20.620530    3.105030   -9.354250
  O    -20.835980    1.947320   -9.661280
  O    -21.432770    4.009990   -9.395810
  C    -18.257450    2.588490   -8.791720
  C    -15.110500    1.699500   -8.065920
  C    -15.645560    0.477390   -7.876130
  N    -14.888910   -0.675640   -7.858480
  C    -13.575620   -0.726720   -8.249630
  S    -12.378130   -1.329110   -7.134060
  C    -11.138630   -1.024620   -8.308820
  N     -9.817660   -1.294810   -7.963480
  O     -8.960290   -1.137800   -8.820990
  O     -9.598910   -1.636620   -6.810800
  C    -11.628690   -0.486520   -9.472180
  C    -13.021890   -0.308120   -9.458600
  C    -13.724140    0.232790  -10.611820
  C    -15.002650    0.053260  -10.915640
  H     -5.429160    1.350690   -6.700050
  H     -9.617000    1.784500   -9.412760
  H     -4.270220    0.491250   -9.107210
  H    -11.038980    2.844660   -4.247960
  H    -10.296390    3.336810   -2.235200
  H     -5.736770    3.784590   -0.462000
  H     -7.349940    5.729460   -0.882620
  H     -9.439250    5.219460   -3.066740
  H     -8.636570    7.768310   -1.562280
  H    -10.128170    9.793040   -2.314890
  H    -12.181940   10.304270   -3.777890
  H    -14.158210   10.173450   -5.070300
  H    -16.158960    9.419330   -6.502400
  H    -17.192470    7.308550   -7.519480
  H    -18.302220    1.547710   -9.053130
  H    -14.036860    1.776330   -8.149510
  H    -16.695560    0.328020   -7.676500
  H    -15.188420   -1.393420   -7.211470
  H    -10.999450   -0.247720  -10.310620
  H    -13.092420    0.814110  -11.268620
  H    -15.666420   -0.545960  -10.317660
  H    -15.423470    0.485110  -11.806450

 Total Charge           Charge          ....    0
 Multiplicity           Mult            ....    1
 Number of Electrons    NEL             ....  544
 Basis Dimension        Dim             .... 1094

ORBITAL ENERGIES
----------------

  NO   OCC          E(Eh)            E(eV)
   0   2.0000    -482.881353    -13139.8696
   1   2.0000     -88.983211     -2421.3563
   2   2.0000     -88.979620     -2421.2585
   3   2.0000     -88.970694     -2421.0157
   4   2.0000     -88.968225     -2420.9485
   5   2.0000     -88.967808     -2420.9371
   6   2.0000     -88.951849     -2420.5029
   7   2.0000     -88.951469     -2420.4925
   8   2.0000     -62.559107     -1702.3198
   9   2.0000     -56.393038     -1534.5326
  10   2.0000     -56.390348     -1534.4594
  11   2.0000     -56.390311     -1534.4584
  12   2.0000     -19.241123      -523.5776
  13   2.0000     -19.240992      -523.5740
  14   2.0000     -19.239078      -523.5219
  15   2.0000     -19.237715      -523.4848
  16   2.0000     -19.237131      -523.4689
  17   2.0000     -19.236991      -523.4651
  18   2.0000     -19.214549      -522.8545
  19   2.0000     -14.651217      -398.6799
  20   2.0000     -14.648525      -398.6066
  21   2.0000     -14.648203      -398.5979
  22   2.0000     -14.500368      -394.5751
  23   2.0000     -14.472896      -393.8275
  24   2.0000     -14.424096      -392.4996
  25   2.0000     -14.422384      -392.4530
  26   2.0000     -10.369600      -282.1712
  27   2.0000     -10.367924      -282.1255
  28   2.0000     -10.361869      -281.9608
  29   2.0000     -10.356483      -281.8142
  30   2.0000     -10.354026      -281.7474
  31   2.0000     -10.347774      -281.5772
  32   2.0000     -10.344840      -281.4974
  33   2.0000     -10.343333      -281.4564
  34   2.0000     -10.343009      -281.4476
  35   2.0000     -10.339417      -281.3499
  36   2.0000     -10.331088      -281.1232
  37   2.0000     -10.328002      -281.0392
  38   2.0000     -10.327777      -281.0331
  39   2.0000     -10.321268      -280.8560
  40   2.0000     -10.319122      -280.7976
  41   2.0000     -10.317726      -280.7596
  42   2.0000     -10.315285      -280.6932
  43   2.0000     -10.314600      -280.6745
  44   2.0000     -10.311882      -280.6006
  45   2.0000     -10.311834      -280.5993
  46   2.0000     -10.311333      -280.5856
  47   2.0000     -10.310532      -280.5638
  48   2.0000     -10.308434      -280.5068
  49   2.0000     -10.304139      -280.3899
  50   2.0000     -10.303485      -280.3721
  51   2.0000     -10.303063      -280.3606
  52   2.0000     -10.302184      -280.3367
  53   2.0000     -10.302089      -280.3341
  54   2.0000     -10.297028      -280.1964
  55   2.0000     -10.296597      -280.1846
  56   2.0000     -10.296307      -280.1768
  57   2.0000     -10.296143      -280.1723
  58   2.0000     -10.294891      -280.1382
  59   2.0000     -10.294724      -280.1337
  60   2.0000     -10.291281      -280.0400
  61   2.0000     -10.291250      -280.0392
  62   2.0000     -10.290146      -280.0091
  63   2.0000     -10.289790      -279.9994
  64   2.0000     -10.288747      -279.9710
  65   2.0000     -10.288538      -279.9654
  66   2.0000     -10.288359      -279.9605
  67   2.0000     -10.283008      -279.8149
  68   2.0000     -10.282418      -279.7988
  69   2.0000     -10.279036      -279.7068
  70   2.0000     -10.269199      -279.4391
  71   2.0000      -8.788581      -239.1494
  72   2.0000      -8.078782      -219.8348
  73   2.0000      -8.074875      -219.7285
  74   2.0000      -8.066683      -219.5056
  75   2.0000      -8.063091      -219.4079
  76   2.0000      -8.062788      -219.3996
  77   2.0000      -8.047873      -218.9938
  78   2.0000      -8.047532      -218.9845
  79   2.0000      -6.624866      -180.2718
  80   2.0000      -6.610324      -179.8761
  81   2.0000      -6.610130      -179.8708
  82   2.0000      -6.048318      -164.5831
  83   2.0000      -6.044251      -164.4724
  84   2.0000      -6.044027      -164.4663
  85   2.0000      -6.040385      -164.3672
  86   2.0000      -6.039965      -164.3558
  87   2.0000      -6.036759      -164.2686
  88   2.0000      -6.036360      -164.2577
  89   2.0000      -6.032993      -164.1661
  90   2.0000      -6.032121      -164.1423
  91   2.0000      -6.032097      -164.1417
  92   2.0000      -6.028705      -164.0494
  93   2.0000      -6.027917      -164.0280
  94   2.0000      -6.027795      -164.0246
  95   2.0000      -6.025056      -163.9501
  96   2.0000      -6.023982      -163.9209
  97   2.0000      -6.017683      -163.7495
  98   2.0000      -6.017250      -163.7377
  99   2.0000      -6.013525      -163.6363
 100   2.0000      -6.013397      -163.6328
 101   2.0000      -6.008734      -163.5060
 102   2.0000      -6.008404      -163.4970
 103   2.0000      -2.740709       -74.5785
 104   2.0000      -2.736688       -74.4691
 105   2.0000      -2.736527       -74.4647
 106   2.0000      -2.724968       -74.1501
 107   2.0000      -2.724955       -74.1498
 108   2.0000      -1.319671       -35.9101
 109   2.0000      -1.319200       -35.8973
 110   2.0000      -1.319182       -35.8968
 111   2.0000      -1.138619       -30.9834
 112   2.0000      -1.138191       -30.9717
 113   2.0000      -1.137637       -30.9567
 114   2.0000      -1.132018       -30.8038
 115   2.0000      -1.095713       -29.8159
 116   2.0000      -1.078820       -29.3562
 117   2.0000      -1.026630       -27.9360
 118   2.0000      -1.020513       -27.7696
 119   2.0000      -1.014361       -27.6022
 120   2.0000      -1.005167       -27.3520
 121   2.0000      -1.003760       -27.3137
 122   2.0000      -1.000820       -27.2337
 123   2.0000      -1.000310       -27.2198
 124   2.0000      -0.989491       -26.9254
 125   2.0000      -0.980017       -26.6676
 126   2.0000      -0.966316       -26.2948
 127   2.0000      -0.940420       -25.5901
 128   2.0000      -0.924191       -25.1485
 129   2.0000      -0.913372       -24.8541
 130   2.0000      -0.908841       -24.7308
 131   2.0000      -0.908262       -24.7151
 132   2.0000      -0.900709       -24.5095
 133   2.0000      -0.890128       -24.2216
 134   2.0000      -0.884630       -24.0720
 135   2.0000      -0.882625       -24.0175
 136   2.0000      -0.879852       -23.9420
 137   2.0000      -0.873584       -23.7714
 138   2.0000      -0.862471       -23.4690
 139   2.0000      -0.851990       -23.1838
 140   2.0000      -0.849011       -23.1028
 141   2.0000      -0.846828       -23.0434
 142   2.0000      -0.835692       -22.7403
 143   2.0000      -0.834362       -22.7042
 144   2.0000      -0.828187       -22.5361
 145   2.0000      -0.826049       -22.4779
 146   2.0000      -0.807989       -21.9865
 147   2.0000      -0.794153       -21.6100
 148   2.0000      -0.784331       -21.3427
 149   2.0000      -0.778715       -21.1899
 150   2.0000      -0.768092       -20.9009
 151   2.0000      -0.763108       -20.7652
 152   2.0000      -0.751808       -20.4577
 153   2.0000      -0.740245       -20.1431
 154   2.0000      -0.721750       -19.6398
 155   2.0000      -0.709214       -19.2987
 156   2.0000      -0.706134       -19.2149
 157   2.0000      -0.701157       -19.0794
 158   2.0000      -0.694343       -18.8940
 159   2.0000      -0.688874       -18.7452
 160   2.0000      -0.677537       -18.4367
 161   2.0000      -0.672449       -18.2983
 162   2.0000      -0.669394       -18.2151
 163   2.0000      -0.657373       -17.8880
 164   2.0000      -0.653214       -17.7749
 165   2.0000      -0.650122       -17.6907
 166   2.0000      -0.644148       -17.5282
 167   2.0000      -0.641036       -17.4435
 168   2.0000      -0.638583       -17.3767
 169   2.0000      -0.634590       -17.2681
 170   2.0000      -0.633690       -17.2436
 171   2.0000      -0.633197       -17.2302
 172   2.0000      -0.629973       -17.1424
 173   2.0000      -0.629940       -17.1415
 174   2.0000      -0.627018       -17.0620
 175   2.0000      -0.622634       -16.9427
 176   2.0000      -0.620464       -16.8837
 177   2.0000      -0.612936       -16.6788
 178   2.0000      -0.610237       -16.6054
 179   2.0000      -0.606542       -16.5049
 180   2.0000      -0.604687       -16.4544
 181   2.0000      -0.600690       -16.3456
 182   2.0000      -0.595887       -16.2149
 183   2.0000      -0.593109       -16.1393
 184   2.0000      -0.588931       -16.0256
 185   2.0000      -0.581453       -15.8221
 186   2.0000      -0.580746       -15.8029
 187   2.0000      -0.578457       -15.7406
 188   2.0000      -0.575209       -15.6522
 189   2.0000      -0.568080       -15.4582
 190   2.0000      -0.561747       -15.2859
 191   2.0000      -0.555473       -15.1152
 192   2.0000      -0.552450       -15.0329
 193   2.0000      -0.544762       -14.8237
 194   2.0000      -0.542208       -14.7542
 195   2.0000      -0.539375       -14.6771
 196   2.0000      -0.534170       -14.5355
 197   2.0000      -0.529276       -14.4023
 198   2.0000      -0.527755       -14.3610
 199   2.0000      -0.521861       -14.2006
 200   2.0000      -0.517904       -14.0929
 201   2.0000      -0.517413       -14.0795
 202   2.0000      -0.514864       -14.0102
 203   2.0000      -0.513274       -13.9669
 204   2.0000      -0.511522       -13.9192
 205   2.0000      -0.508516       -13.8374
 206   2.0000      -0.502946       -13.6859
 207   2.0000      -0.501177       -13.6377
 208   2.0000      -0.500175       -13.6105
 209   2.0000      -0.496877       -13.5207
 210   2.0000      -0.493674       -13.4336
 211   2.0000      -0.492016       -13.3884
 212   2.0000      -0.489031       -13.3072
 213   2.0000      -0.487486       -13.2652
 214   2.0000      -0.479212       -13.0400
 215   2.0000      -0.477869       -13.0035
 216   2.0000      -0.476938       -12.9782
 217   2.0000      -0.474089       -12.9006
 218   2.0000      -0.472114       -12.8469
 219   2.0000      -0.470411       -12.8005
 220   2.0000      -0.468857       -12.7582
 221   2.0000      -0.463672       -12.6172
 222   2.0000      -0.461514       -12.5584
 223   2.0000      -0.458771       -12.4838
 224   2.0000      -0.458317       -12.4714
 225   2.0000      -0.455487       -12.3944
 226   2.0000      -0.452086       -12.3019
 227   2.0000      -0.447985       -12.1903
 228   2.0000      -0.446280       -12.1439
 229   2.0000      -0.441870       -12.0239
 230   2.0000      -0.439238       -11.9523
 231   2.0000      -0.437008       -11.8916
 232   2.0000      -0.436222       -11.8702
 233   2.0000      -0.432860       -11.7787
 234   2.0000      -0.429160       -11.6780
 235   2.0000      -0.424618       -11.5544
 236   2.0000      -0.423515       -11.5244
 237   2.0000      -0.418386       -11.3849
 238   2.0000      -0.416341       -11.3292
 239   2.0000      -0.414834       -11.2882
 240   2.0000      -0.406504       -11.0615
 241   2.0000      -0.400264       -10.8917
 242   2.0000      -0.394982       -10.7480
 243   2.0000      -0.390976       -10.6390
 244   2.0000      -0.389122       -10.5886
 245   2.0000      -0.385561       -10.4916
 246   2.0000      -0.384173       -10.4539
 247   2.0000      -0.383481       -10.4350
 248   2.0000      -0.378653       -10.3037
 249   2.0000      -0.377343       -10.2680
 250   2.0000      -0.376483       -10.2446
 251   2.0000      -0.372285       -10.1304
 252   2.0000      -0.371042       -10.0966
 253   2.0000      -0.368701       -10.0329
 254   2.0000      -0.365422        -9.9436
 255   2.0000      -0.365395        -9.9429
 256   2.0000      -0.360076        -9.7982
 257   2.0000      -0.351911        -9.5760
 258   2.0000      -0.346059        -9.4167
 259   2.0000      -0.344849        -9.3838
 260   2.0000      -0.341546        -9.2939
 261   2.0000      -0.330335        -8.9889
 262   2.0000      -0.321293        -8.7428
 263   2.0000      -0.319398        -8.6913
 264   2.0000      -0.314294        -8.5524
 265   2.0000      -0.310847        -8.4586
 266   2.0000      -0.304954        -8.2982
 267   2.0000      -0.298327        -8.1179
 268   2.0000      -0.291104        -7.9213
 269   2.0000      -0.284352        -7.7376
 270   2.0000      -0.255870        -6.9626
 271   2.0000      -0.209472        -5.7000
 272   0.0000      -0.089692        -2.4406
 273   0.0000      -0.081578        -2.2199
 274   0.0000      -0.066735        -1.8159
 275   0.0000      -0.056448        -1.5360
 276   0.0000      -0.053670        -1.4604

MULLIKEN ATOMIC CHARGES
-----------------------
   0 C :    0.313200
   1 C :   -0.352412
   2 C :   -0.166692
   3 N :    0.112370
   4 C :   -0.213633
   5 N :    0.137892
   6 C :    0.017214
   7 C :    0.011931
   8 C :   -0.068525
   9 C :    0.122830
  10 C :   -0.045433
  11 C :   -0.049157
  12 S :    0.181862
  13 C :   -0.118638
  14 C :    0.038012
  15 Br:    0.020880
  16 C :    0.147146
  17 O :   -0.160763
  18 C :   -0.105727
  19 C :    0.018924
  20 N :   -0.055203
  21 C :   -0.114520
  22 S :    0.230797
  23 C :    0.008173
  24 N :    0.273162
  25 O :   -0.245139
  26 O :   -0.254287
  27 C :   -0.007896
  28 C :    0.182062
  29 C :   -0.031571
  30 C :   -0.003846
  31 C :   -0.014715
  32 C :   -0.015684
  33 C :    0.032830
  34 C :    0.032068
  35 C :   -0.046885
  36 S :    0.041361
  37 C :   -0.031890
  38 C :    0.024572
  39 C :    0.037927
  40 C :   -0.043242
  41 S :    0.071544
  42 C :   -0.016093
  43 C :   -0.137089
  44 S :    0.159466
  45 C :   -0.098324
  46 C :    0.121457
  47 C :   -0.031014
  48 S :    0.168274
  49 C :   -0.009281
  50 N :    0.267282
  51 O :   -0.250212
  52 O :   -0.251340
  53 C :   -0.002226
  54 C :    0.077246
  55 C :    0.008757
  56 N :   -0.056686
  57 C :   -0.159901
  58 S :    0.175934
  59 C :   -0.032020
  60 N :    0.284257
  61 O :   -0.254662
  62 O :   -0.266411
  63 C :    0.006544
  64 C :    0.121196
  65 C :   -0.034034
  66 C :    0.009499
  67 H :   -0.010459
  68 H :   -0.026902
  69 H :   -0.003792
  70 H :    0.032553
  71 H :    0.163640
  72 H :    0.008918
  73 H :   -0.016114
  74 H :   -0.014749
  75 H :   -0.016392
  76 H :   -0.011588
  77 H :   -0.011063
  78 H :   -0.014048
  79 H :   -0.008738
  80 H :   -0.006067
  81 H :    0.003405
  82 H :    0.005555
  83 H :    0.009422
  84 H :    0.143904
  85 H :    0.007275
  86 H :    0.006191
  87 H :    0.019845
  88 H :    0.027685
Sum of atomic charges:   -0.0000000

LOEWDIN ATOMIC CHARGES
----------------------
   0 C :    0.095578
   1 C :   -0.173142
   2 C :   -0.009817
   3 N :   -0.073845
   4 C :   -0.033013
   5 N :   -0.069876
   6 C :   -0.031377
   7 C :   -0.044912
   8 C :    0.025690
   9 C :   -0.024803
  10 C :   -0.138056
  11 C :   -0.009824
  12 S :    0.435734
  13 C :   -0.269932
  14 C :   -0.067510
  15 Br:    0.136002
  16 C :    0.079951
  17 O :   -0.155015
  18 C :   -0.150308
  19 C :    0.107404
  20 N :    0.061569
  21 C :   -0.133644
  22 S :    0.508203
  23 C :   -0.191183
  24 N :    0.274257
  25 O :   -0.210151
  26 O :   -0.219895
  27 C :   -0.006396
  28 C :   -0.064390
  29 C :   -0.032228
  30 C :   -0.033208
  31 C :   -0.068234
  32 C :   -0.133208
  33 C :   -0.040696
  34 C :   -0.023898
  35 C :   -0.185401
  36 S :    0.352264
  37 C :   -0.168620
  38 C :   -0.041363
  39 C :   -0.024596
  40 C :   -0.159720
  41 S :    0.368511
  42 C :   -0.062696
  43 C :   -0.208563
  44 S :    0.486446
  45 C :   -0.138459
  46 C :   -0.090885
  47 C :   -0.178257
  48 S :    0.426473
  49 C :   -0.184479
  50 N :    0.272100
  51 O :   -0.216545
  52 O :   -0.218219
  53 C :   -0.003366
  54 C :   -0.076164
  55 C :    0.033214
  56 N :    0.010917
  57 C :   -0.114489
  58 S :    0.450481
  59 C :   -0.219953
  60 N :    0.276686
  61 O :   -0.216881
  62 O :   -0.232720
  63 C :    0.005685
  64 C :   -0.080025
  65 C :   -0.022804
  66 C :   -0.029881
  67 H :    0.041472
  68 H :    0.033618
  69 H :    0.039022
  70 H :    0.045753
  71 H :    0.104102
  72 H :    0.044382
  73 H :    0.031723
  74 H :    0.013031
  75 H :    0.032225
  76 H :    0.033966
  77 H :    0.033104
  78 H :    0.031710
  79 H :    0.035095
  80 H :    0.039446
  81 H :    0.040814
  82 H :    0.033197
  83 H :    0.026985
  84 H :    0.091721
  85 H :    0.041969
  86 H :    0.034344
  87 H :    0.019196
  88 H :    0.028607

  Mayer bond orders larger than 0.100000
B(  0-C ,  1-C ) :   1.5589 B(  0-C ,  6-C ) :   1.0213 B(  0-C , 18-C ) :   1.1275
B(  1-C ,  2-C ) :   1.1764 B(  1-C ,  4-C ) :   1.1525 B(  2-C ,  3-N ) :   2.8618
B(  4-C ,  5-N ) :   2.9037 B(  6-C ,  7-C ) :   1.2712 B(  6-C , 11-C ) :   1.4004
B(  7-C ,  8-C ) :   1.4339 B(  7-C , 16-C ) :   0.9503 B(  8-C ,  9-C ) :   1.2337
B(  8-C , 67-H ) :   1.0163 B(  9-C , 10-C ) :   1.3138 B(  9-C , 14-C ) :   1.1679
B( 10-C , 11-C ) :   1.3189 B( 10-C , 12-S ) :   1.0850 B( 11-C , 68-H ) :   0.9834
B( 12-S , 13-C ) :   1.0931 B( 13-C , 14-C ) :   1.6149 B( 13-C , 15-Br) :   1.0167
B( 14-C , 69-H ) :   0.9992 B( 16-C , 17-O ) :   2.1934 B( 16-C , 18-C ) :   0.9223
B( 18-C , 19-C ) :   1.5275 B( 19-C , 20-N ) :   1.3241 B( 19-C , 70-H ) :   0.9205
B( 20-N , 21-C ) :   1.0308 B( 20-N , 71-H ) :   0.9094 B( 21-C , 22-S ) :   1.1591
B( 21-C , 28-C ) :   1.4274 B( 22-S , 23-C ) :   1.1367 B( 23-C , 24-N ) :   0.9480
B( 23-C , 27-C ) :   1.4966 B( 24-N , 25-O ) :   1.5457 B( 24-N , 26-O ) :   1.5265
B( 25-O , 26-O ) :   0.2664 B( 27-C , 28-C ) :   1.1950 B( 27-C , 72-H ) :   1.0038
B( 28-C , 29-C ) :   1.0947 B( 29-C , 30-C ) :   1.6419 B( 29-C , 73-H ) :   0.9791
B( 30-C , 31-C ) :   1.1536 B( 30-C , 74-H ) :   0.9690 B( 31-C , 32-C ) :   1.5614
B( 31-C , 75-H ) :   0.9878 B( 32-C , 33-C ) :   1.1420 B( 32-C , 36-S ) :   1.0324
B( 33-C , 34-C ) :   1.5860 B( 33-C , 76-H ) :   0.9995 B( 34-C , 35-C ) :   1.1931
B( 34-C , 77-H ) :   0.9933 B( 35-C , 36-S ) :   1.0337 B( 35-C , 37-C ) :   1.5121
B( 37-C , 38-C ) :   1.1846 B( 37-C , 41-S ) :   1.0489 B( 38-C , 39-C ) :   1.5904
B( 38-C , 78-H ) :   0.9926 B( 39-C , 40-C ) :   1.1481 B( 39-C , 79-H ) :   0.9996
B( 40-C , 41-S ) :   1.0315 B( 40-C , 42-C ) :   1.5717 B( 42-C , 43-C ) :   1.1953
B( 42-C , 80-H ) :   0.9668 B( 43-C , 44-S ) :   1.0955 B( 43-C , 47-C ) :   1.4670
B( 44-S , 45-C ) :   1.1796 B( 45-C , 46-C ) :   1.3422 B( 45-C , 54-C ) :   1.1758
B( 46-C , 47-C ) :   1.2526 B( 46-C , 53-C ) :   1.1409 B( 47-C , 48-S ) :   1.0325
B( 48-S , 49-C ) :   1.0743 B( 49-C , 50-N ) :   0.9532 B( 49-C , 53-C ) :   1.5564
B( 50-N , 51-O ) :   1.5384 B( 50-N , 52-O ) :   1.5274 B( 51-O , 52-O ) :   0.2652
B( 53-C , 81-H ) :   0.9994 B( 54-C , 55-C ) :   1.7064 B( 54-C , 82-H ) :   0.9136
B( 55-C , 56-N ) :   1.1103 B( 55-C , 83-H ) :   0.9741 B( 56-N , 57-C ) :   1.1602
B( 56-N , 84-H ) :   0.9169 B( 57-C , 58-S ) :   1.1435 B( 57-C , 64-C ) :   1.4141
B( 58-S , 59-C ) :   1.0908 B( 59-C , 60-N ) :   0.9846 B( 59-C , 63-C ) :   1.4519
B( 60-N , 61-O ) :   1.5052 B( 60-N , 62-O ) :   1.5067 B( 61-O , 62-O ) :   0.2472
B( 63-C , 64-C ) :   1.2371 B( 63-C , 85-H ) :   1.0074 B( 64-C , 65-C ) :   1.0717
B( 65-C , 66-C ) :   1.9552 B( 65-C , 86-H ) :   0.9605 B( 66-C , 87-H ) :   0.9456
B( 66-C , 88-H ) :   0.9470

-----------------------------------------------------------------------------
         ABSORPTION SPECTRUM VIA TRANSITION ELECTRIC DIPOLE MOMENTS
-----------------------------------------------------------------------------
State   Energy  Wavelength   fosc         T2         TX        TY        TZ
        (cm-1)    (nm)                  (au**2)     (au)      (au)      (au)
-----------------------------------------------------------------------------
   0   11682.2    856.0   0.286049049   8.06104  -2.24852  -0.72986  -1.57242
   1   13862.2    721.4   0.339074073   8.05263  -1.45717  -1.59073  -1.84360
   2   17033.3    587.1   0.480456683   9.28605   2.69166  -0.85477   1.14472
   3   20143.8    496.4   0.079781592   1.30387  -0.90379  -0.27984  -0.63932
   4   20574.7    486.0   0.097269130   1.55638   0.08729   1.05750   0.65609
   5   21452.2    466.2   0.464738208   7.13202  -1.92536   1.84587  -0.13337
   6   22054.5    453.4   0.035835663   0.53493   0.43966   0.42137   0.40506
   7   22923.5    436.2   0.165430647   2.37581  -1.20791   0.62384  -0.72636
   8   25255.2    396.0   0.542890409   7.07679   1.47314  -2.17928   0.39673
   9   26141.7    382.5   0.492213049   6.19862  -1.42517  -1.18473  -1.66250
  10   26993.1    370.5   0.234028100   2.85424   0.08681   1.57125  -0.61471
  11   27906.6    358.3   0.032777635   0.38667  -0.23784  -0.55884  -0.13343
  12   28070.7    356.2   0.391196228   4.58794   1.57571  -0.73248  -1.25242
  13   29076.4    343.9   0.029061697   0.32905  -0.45772  -0.00930   0.34562
  14   29235.1    342.1   0.027544691   0.31018  -0.53941   0.10793   0.08696
  15   29712.5    336.6   0.105041604   1.16385   0.07561  -0.21927   1.05359
  16   29961.2    333.8   0.038163773   0.41934  -0.32700  -0.55876   0.01413
  17   30231.2    330.8   0.039098011   0.42577   0.34772  -0.22095   0.50601
  18   30464.3    328.3   0.017456500   0.18864  -0.11527  -0.28469  -0.30710
  19   30638.9    326.4   0.031648861   0.34006  -0.47429   0.19099  -0.28043
  20   30846.8    324.2   0.050288909   0.53671  -0.71945   0.12873   0.05030
  21   31154.5    321.0   0.196512962   2.07656   1.39633  -0.31986   0.15661
  22   31486.1    317.6   0.042282209   0.44209   0.57974  -0.09719   0.31073
  23   31717.0    315.3   0.085038415   0.88267  -0.52682  -0.76614   0.13474
  24   32189.2    310.7   0.036278984   0.37104  -0.40162   0.15003  -0.43271
  25   32397.4    308.7   0.027660032   0.28107  -0.52438  -0.05412  -0.05627
  26   32651.1    306.3   0.058081949   0.58562  -0.70581   0.16925  -0.24252
  27   33174.0    301.4   0.029879618   0.29652   0.22829   0.49364   0.02688
  28   33537.8    298.2   0.034770026   0.34131  -0.18661   0.40643  -0.37590
  29   33686.6    296.9   0.099189439   0.96936  -0.75487   0.02763   0.63148
  30   33921.1    294.8   0.064352236   0.62455  -0.62246   0.06923   0.48198
  31   34057.3    293.6   0.056254617   0.54378   0.40185  -0.34473   0.51328
  32   34211.4    292.3   0.026238601   0.25249   0.12854   0.41600  -0.25082
  33   34377.5    290.9   0.068445015   0.65546   0.61096  -0.51436  -0.13276
  34   34628.2    288.8   0.072057054   0.68505   0.76970   0.05041   0.30013
  35   34723.0    288.0   0.226145256   2.14411  -1.41659   0.36995  -0.02241
  36   34990.7    285.8   0.025889652   0.24358  -0.39512   0.27839  -0.09981
  37   35256.3    283.6   0.061772914   0.57682   0.54501  -0.52850   0.02156
  38   35383.1    282.6   0.094920567   0.88316   0.11710   0.88957   0.27948
  39   35490.6    281.8   0.087513158   0.81177  -0.81401  -0.30211   0.24062
  40   35634.0    280.6   0.072438718   0.66924   0.09971  -0.48810  -0.64889
  41   35977.4    278.0   0.076424043   0.69932  -0.56230  -0.26965  -0.55716
  42   36228.3    276.0   0.043258517   0.39310  -0.42572   0.40121   0.22558
  43   36274.9    275.7   0.044537836   0.40420   0.30994   0.46052  -0.30994
  44   36358.9    275.0   0.130206665   1.17896   0.95068   0.22856   0.47216
  45   36795.2    271.8   0.014658240   0.13115  -0.35336   0.00602   0.07907
  46   37134.9    269.3   0.131242783   1.16351  -1.02028   0.02337  -0.34928
  47   37630.4    265.7   0.017042542   0.14910   0.06864  -0.35368   0.13890
  48   37697.6    265.3   0.005195938   0.04538  -0.05722   0.18118   0.09631
  49   37876.6    264.0   0.125871117   1.09403  -0.64273   0.54174   0.62245
  50   38022.1    263.0   0.029931913   0.25916  -0.19327  -0.18889  -0.43143
  51   38248.2    261.5   0.121702648   1.04753  -0.52798   0.53716  -0.69298
  52   38358.3    260.7   0.051487568   0.44189   0.22464  -0.11807  -0.61440
  53   38394.6    260.5   0.088955805   0.76275  -0.06873  -0.05827   0.86869
  54   38790.3    257.8   0.020491806   0.17391  -0.30415  -0.27603   0.07222
  55   38942.6    256.8   0.026512054   0.22413   0.22175   0.20521  -0.36448
  56   39372.3    254.0   0.037423686   0.31292   0.39431   0.06905   0.39073
  57   39791.7    251.3   0.017835920   0.14756   0.19210   0.32548  -0.06871
  58   40060.5    249.6   0.192261705   1.57998   0.00147  -0.71907  -1.03098
  59   40085.9    249.5   0.040235079   0.33044  -0.23290   0.14616  -0.50481
  60   40160.1    249.0   0.068981635   0.56548  -0.00706   0.40393   0.63424
  61   40243.5    248.5   0.011202788   0.09164  -0.03141   0.18970   0.23382

FINAL SINGLE POINT ENERGY     -7994.614260712672

DIPOLE MOMENT
-------------
                                X             Y             Z
Electronic contribution:     75.46094     -45.12501     -59.81408
Nuclear contribution   :    -75.50120      46.92674      60.25577
                        -----------------------------------------
Total Dipole Moment    :     -0.04026       1.80173       0.44170
                        -----------------------------------------
Magnitude (a.u.)       :      1.85552
Magnitude (Debye)      :      4.71635

Rotational constants in cm-1:     0.000923     0.000601     0.000442
Rotational constants in MHz :    27.660539    18.012437    13.265684

                             ****ORCA TERMINATED NORMALLY****
TOTAL RUN TIME: 0 days 0 hours 17 minutes 39 seconds 474 msec
