                         Program Version 4.2.0 -  RELEASE  -
|  1> # ORCA input file
|  2> # SCF done       -177.248602402740          0.000738288379
|  3> ! CAM-B3LYP def2-SVP def2/J RIJCOSX Grid4 TightSCF
|  4> %maxcore 5000
|  5> %tddft
|  6>     Mode sTDDFT
|  7>     Ethresh 5.0
|  8>     maxcore 5000
|  9> end
| 10>
| 11> %pal
| 12>   nprocs 6
| 13>   end
| 14> * xyz 0 1
| 15>    C       -5.97711         1.43572         3.30145
| 16>    C       -5.94136         2.08009         4.50949
| 17>    C       -5.20681         1.62196         5.62067
| 18>    N       -4.61926         1.28740         6.54863
| 19>    C       -6.56976         3.32004         4.74315
| 20>    N       -7.05407         4.33690         4.96396
| 21>    C       -5.25548         0.21719         2.95460
| 22>    C       -5.36477         0.00135         1.55554
| 23>    C       -4.76830        -1.06511         0.92684
| 24>    C       -4.05270        -1.97095         1.71718
| 25>    C       -3.98193        -1.76563         3.11548
| 26>    C       -4.56461        -0.67502         3.74964
| 27>    S       -3.08032        -3.02126         3.90364
| 28>    C       -2.78494        -3.77983         2.36287
| 29>    C       -3.34949        -3.13777         1.31266
| 30>   Br       -1.74870        -5.33808         2.28630
| 31>    C       -6.23139         1.03760         0.98706
| 32>    O       -6.57577         1.17197        -0.18697
| 33>    C       -6.67089         1.86599         2.10933
| 34>    C       -7.68236         2.78117         1.98628
| 35>    N       -8.24059         3.03663         0.79373
| 36>    C       -9.41269         3.69729         0.59025
| 37>    S      -10.48367         4.02757         1.91794
| 38>    C      -11.61187         4.72713         0.80550
| 39>    N      -12.82276         5.21697         1.31628
| 40>    O      -13.60994         5.70337         0.52697
| 41>    O      -12.99436         5.11014         2.51687
| 42>    C      -11.18206         4.71640        -0.49299
| 43>    C       -9.90875         4.13039        -0.64556
| 44>    C       -9.16527         4.05480        -1.87460
| 45>    C       -9.51139         4.67239        -3.02156
| 46>    C       -8.62192         4.72261        -4.14208
| 47>    C       -8.71958         5.53853        -5.20695
| 48>    C       -9.87564         6.44285        -5.49066
| 49>    C       -7.49406         5.73895        -6.07406
| 50>    N       -6.62751         6.70762        -5.41429
| 51>    C       -6.07462         6.36230        -4.22911
| 52>    C       -5.79961         7.20808        -3.20461
| 53>    C       -5.38725         6.77093        -1.91908
| 54>    C       -5.17728         7.72081        -0.88368
| 55>    C       -4.87995         7.33804         0.47229
| 56>    N       -4.68700         8.28063         1.40367
| 57>    C       -4.76257         9.54730         1.06669
| 58>    C       -5.06111         9.92837        -0.28037
| 59>    N       -5.26623         9.02078        -1.20467
| 60>    C       -5.14000        11.29756        -0.63448
| 61>    N       -5.20071        12.41172        -0.89546
| 62>    C       -4.54034        10.54022         2.05121
| 63>    N       -4.36161        11.37286         2.81813
| 64>    C       -4.74748         5.97435         0.86413
| 65>    C       -4.96150         5.03186        -0.16989
| 66>    C       -5.26595         5.41595        -1.52695
| 67>    N       -5.45191         4.34147        -2.30033
| 68>    S       -5.28296         3.00325        -1.42685
| 69>    N       -4.97089         3.70978        -0.01786
| 70>    C       -4.42319         5.67788         2.20077
| 71>    C       -3.92494         4.53268         2.77211
| 72>    C       -3.56205         4.44756         4.14329
| 73>    C       -2.90827         3.30741         4.49193
| 74>    C       -2.70697         2.42410         3.40554
| 75>    S       -3.46029         3.05414         1.95130
| 76>    C       -2.00863         1.23768         3.39638
| 77>    C       -1.43663         0.55655         4.50418
| 78>    C       -0.76647        -0.57201         4.17799
| 79>    C       -0.74753        -0.86577         2.77396
| 80>    S       -1.66473         0.38054         1.90784
| 81>    C       -0.15695        -1.90026         2.15867
| 82>    H       -4.85353        -1.20228        -0.13939
| 83>    H       -4.47768        -0.55605         4.81671
| 84>    H       -3.26847        -3.46880         0.29352
| 85>    H       -8.09475         3.30070         2.84202
| 86>    H       -7.79873         2.53561         0.00870
| 87>    H      -11.78035         5.11414        -1.29143
| 88>    H       -8.22529         3.51993        -1.84170
| 89>    H      -10.43101         5.23383        -3.07607
| 90>    H       -7.73808         4.10625        -4.04388
| 91>    H       -9.68883         7.44173        -5.09230
| 92>    H      -10.79428         6.07016        -5.04830
| 93>    H      -10.02488         6.53685        -6.56506
| 94>    H       -7.75107         6.12071        -7.06286
| 95>    H       -6.93682         4.80577        -6.18286
| 96>    H       -6.92124         7.67293        -5.49742
| 97>    H       -5.85758         5.31173        -4.11280
| 98>    H       -5.95882         8.27205        -3.30930
| 99>    H       -4.50618         6.52618         2.86971
|100>    H       -3.78527         5.25112         4.82267
|101>    H       -2.54663         3.09383         5.48134
|102>    H       -1.55960         0.92463         5.50697
|103>    H       -0.27214        -1.21953         4.87991
|104>    H        0.39535        -2.63178         2.72203
|105>    H       -0.20190        -2.02566         1.09228
|106> *
|107>
|108>                          ****END OF INPUT****

CARTESIAN COORDINATES (ANGSTROEM)
---------------------------------
  C     -5.977110    1.435720    3.301450
  C     -5.941360    2.080090    4.509490
  C     -5.206810    1.621960    5.620670
  N     -4.619260    1.287400    6.548630
  C     -6.569760    3.320040    4.743150
  N     -7.054070    4.336900    4.963960
  C     -5.255480    0.217190    2.954600
  C     -5.364770    0.001350    1.555540
  C     -4.768300   -1.065110    0.926840
  C     -4.052700   -1.970950    1.717180
  C     -3.981930   -1.765630    3.115480
  C     -4.564610   -0.675020    3.749640
  S     -3.080320   -3.021260    3.903640
  C     -2.784940   -3.779830    2.362870
  C     -3.349490   -3.137770    1.312660
  Br    -1.748700   -5.338080    2.286300
  C     -6.231390    1.037600    0.987060
  O     -6.575770    1.171970   -0.186970
  C     -6.670890    1.865990    2.109330
  C     -7.682360    2.781170    1.986280
  N     -8.240590    3.036630    0.793730
  C     -9.412690    3.697290    0.590250
  S    -10.483670    4.027570    1.917940
  C    -11.611870    4.727130    0.805500
  N    -12.822760    5.216970    1.316280
  O    -13.609940    5.703370    0.526970
  O    -12.994360    5.110140    2.516870
  C    -11.182060    4.716400   -0.492990
  C     -9.908750    4.130390   -0.645560
  C     -9.165270    4.054800   -1.874600
  C     -9.511390    4.672390   -3.021560
  C     -8.621920    4.722610   -4.142080
  C     -8.719580    5.538530   -5.206950
  C     -9.875640    6.442850   -5.490660
  C     -7.494060    5.738950   -6.074060
  N     -6.627510    6.707620   -5.414290
  C     -6.074620    6.362300   -4.229110
  C     -5.799610    7.208080   -3.204610
  C     -5.387250    6.770930   -1.919080
  C     -5.177280    7.720810   -0.883680
  C     -4.879950    7.338040    0.472290
  N     -4.687000    8.280630    1.403670
  C     -4.762570    9.547300    1.066690
  C     -5.061110    9.928370   -0.280370
  N     -5.266230    9.020780   -1.204670
  C     -5.140000   11.297560   -0.634480
  N     -5.200710   12.411720   -0.895460
  C     -4.540340   10.540220    2.051210
  N     -4.361610   11.372860    2.818130
  C     -4.747480    5.974350    0.864130
  C     -4.961500    5.031860   -0.169890
  C     -5.265950    5.415950   -1.526950
  N     -5.451910    4.341470   -2.300330
  S     -5.282960    3.003250   -1.426850
  N     -4.970890    3.709780   -0.017860
  C     -4.423190    5.677880    2.200770
  C     -3.924940    4.532680    2.772110
  C     -3.562050    4.447560    4.143290
  C     -2.908270    3.307410    4.491930
  C     -2.706970    2.424100    3.405540
  S     -3.460290    3.054140    1.951300
  C     -2.008630    1.237680    3.396380
  C     -1.436630    0.556550    4.504180
  C     -0.766470   -0.572010    4.177990
  C     -0.747530   -0.865770    2.773960
  S     -1.664730    0.380540    1.907840
  C     -0.156950   -1.900260    2.158670
  H     -4.853530   -1.202280   -0.139390
  H     -4.477680   -0.556050    4.816710
  H     -3.268470   -3.468800    0.293520
  H     -8.094750    3.300700    2.842020
  H     -7.798730    2.535610    0.008700
  H    -11.780350    5.114140   -1.291430
  H     -8.225290    3.519930   -1.841700
  H    -10.431010    5.233830   -3.076070
  H     -7.738080    4.106250   -4.043880
  H     -9.688830    7.441730   -5.092300
  H    -10.794280    6.070160   -5.048300
  H    -10.024880    6.536850   -6.565060
  H     -7.751070    6.120710   -7.062860
  H     -6.936820    4.805770   -6.182860
  H     -6.921240    7.672930   -5.497420
  H     -5.857580    5.311730   -4.112800
  H     -5.958820    8.272050   -3.309300
  H     -4.506180    6.526180    2.869710
  H     -3.785270    5.251120    4.822670
  H     -2.546630    3.093830    5.481340
  H     -1.559600    0.924630    5.506970
  H     -0.272140   -1.219530    4.879910
  H      0.395350   -2.631780    2.722030
  H     -0.201900   -2.025660    1.092280

 Total Charge           Charge          ....    0
 Multiplicity           Mult            ....    1
 Number of Electrons    NEL             ....  522
 Basis Dimension        Dim             .... 1096

ORBITAL ENERGIES
----------------

  NO   OCC          E(Eh)            E(eV)
   0   2.0000    -482.892526    -13140.1737
   1   2.0000     -89.040476     -2422.9145
   2   2.0000     -88.992280     -2421.6031
   3   2.0000     -88.981231     -2421.3024
   4   2.0000     -88.948205     -2420.4037
   5   2.0000     -88.946575     -2420.3594
   6   2.0000     -62.570126     -1702.6197
   7   2.0000     -56.404058     -1534.8324
   8   2.0000     -56.401390     -1534.7598
   9   2.0000     -56.401337     -1534.7584
  10   2.0000     -19.242720      -523.6210
  11   2.0000     -19.241818      -523.5965
  12   2.0000     -19.240459      -523.5595
  13   2.0000     -14.654113      -398.7587
  14   2.0000     -14.498513      -394.5246
  15   2.0000     -14.450308      -393.2129
  16   2.0000     -14.450016      -393.2049
  17   2.0000     -14.449906      -393.2019
  18   2.0000     -14.449039      -393.1783
  19   2.0000     -14.446465      -393.1083
  20   2.0000     -14.420807      -392.4101
  21   2.0000     -14.420527      -392.4025
  22   2.0000     -14.417860      -392.3299
  23   2.0000     -14.417777      -392.3277
  24   2.0000     -10.385302      -282.5984
  25   2.0000     -10.373993      -282.2907
  26   2.0000     -10.370803      -282.2039
  27   2.0000     -10.367615      -282.1171
  28   2.0000     -10.365970      -282.0724
  29   2.0000     -10.363905      -282.0162
  30   2.0000     -10.350784      -281.6591
  31   2.0000     -10.348611      -281.6000
  32   2.0000     -10.344665      -281.4927
  33   2.0000     -10.337964      -281.3103
  34   2.0000     -10.335380      -281.2400
  35   2.0000     -10.334583      -281.2183
  36   2.0000     -10.332477      -281.1610
  37   2.0000     -10.330262      -281.1007
  38   2.0000     -10.325245      -280.9642
  39   2.0000     -10.323330      -280.9121
  40   2.0000     -10.322817      -280.8981
  41   2.0000     -10.318126      -280.7705
  42   2.0000     -10.316075      -280.7147
  43   2.0000     -10.314831      -280.6808
  44   2.0000     -10.313839      -280.6538
  45   2.0000     -10.313097      -280.6336
  46   2.0000     -10.312169      -280.6084
  47   2.0000     -10.311905      -280.6012
  48   2.0000     -10.311705      -280.5958
  49   2.0000     -10.311610      -280.5932
  50   2.0000     -10.310747      -280.5697
  51   2.0000     -10.310206      -280.5550
  52   2.0000     -10.307788      -280.4892
  53   2.0000     -10.307664      -280.4858
  54   2.0000     -10.305049      -280.4146
  55   2.0000     -10.301818      -280.3267
  56   2.0000     -10.301277      -280.3120
  57   2.0000     -10.301048      -280.3058
  58   2.0000     -10.299075      -280.2521
  59   2.0000     -10.295817      -280.1634
  60   2.0000     -10.292733      -280.0795
  61   2.0000     -10.291593      -280.0485
  62   2.0000     -10.291377      -280.0426
  63   2.0000     -10.290658      -280.0230
  64   2.0000     -10.285641      -279.8865
  65   2.0000     -10.282007      -279.7876
  66   2.0000     -10.281978      -279.7868
  67   2.0000     -10.281511      -279.7741
  68   2.0000     -10.278435      -279.6904
  69   2.0000     -10.277883      -279.6754
  70   2.0000     -10.265792      -279.3464
  71   2.0000      -8.799513      -239.4469
  72   2.0000      -8.130358      -221.2383
  73   2.0000      -8.087752      -220.0789
  74   2.0000      -8.076566      -219.7745
  75   2.0000      -8.042479      -218.8470
  76   2.0000      -8.042026      -218.8347
  77   2.0000      -6.635723      -180.5672
  78   2.0000      -6.621299      -180.1747
  79   2.0000      -6.621092      -180.1691
  80   2.0000      -6.101553      -166.0317
  81   2.0000      -6.093744      -165.8192
  82   2.0000      -6.092994      -165.7988
  83   2.0000      -6.057364      -164.8292
  84   2.0000      -6.053011      -164.7108
  85   2.0000      -6.049228      -164.6079
  86   2.0000      -6.046276      -164.5275
  87   2.0000      -6.042011      -164.4115
  88   2.0000      -6.037859      -164.2985
  89   2.0000      -6.012285      -163.6026
  90   2.0000      -6.011893      -163.5919
  91   2.0000      -6.008385      -163.4965
  92   2.0000      -6.007634      -163.4760
  93   2.0000      -6.003171      -163.3546
  94   2.0000      -6.003124      -163.3533
  95   2.0000      -2.751628       -74.8756
  96   2.0000      -2.747573       -74.7653
  97   2.0000      -2.747403       -74.7606
  98   2.0000      -2.735960       -74.4493
  99   2.0000      -2.735932       -74.4485
 100   2.0000      -1.324052       -36.0293
 101   2.0000      -1.155351       -31.4387
 102   2.0000      -1.143316       -31.1112
 103   2.0000      -1.136779       -30.9333
 104   2.0000      -1.107299       -30.1311
 105   2.0000      -1.105970       -30.0950
 106   2.0000      -1.048276       -28.5250
 107   2.0000      -1.033921       -28.1344
 108   2.0000      -1.029407       -28.0116
 109   2.0000      -1.018922       -27.7263
 110   2.0000      -1.013349       -27.5746
 111   2.0000      -1.002330       -27.2748
 112   2.0000      -1.000293       -27.2194
 113   2.0000      -0.997559       -27.1450
 114   2.0000      -0.996059       -27.1041
 115   2.0000      -0.992589       -27.0097
 116   2.0000      -0.990206       -26.9449
 117   2.0000      -0.973294       -26.4847
 118   2.0000      -0.964782       -26.2531
 119   2.0000      -0.947911       -25.7940
 120   2.0000      -0.935095       -25.4452
 121   2.0000      -0.917140       -24.9566
 122   2.0000      -0.915479       -24.9115
 123   2.0000      -0.904344       -24.6085
 124   2.0000      -0.900117       -24.4934
 125   2.0000      -0.897367       -24.4186
 126   2.0000      -0.891480       -24.2584
 127   2.0000      -0.884690       -24.0737
 128   2.0000      -0.881329       -23.9822
 129   2.0000      -0.861420       -23.4404
 130   2.0000      -0.854741       -23.2587
 131   2.0000      -0.851350       -23.1664
 132   2.0000      -0.847678       -23.0665
 133   2.0000      -0.835291       -22.7294
 134   2.0000      -0.832693       -22.6587
 135   2.0000      -0.824543       -22.4370
 136   2.0000      -0.819643       -22.3036
 137   2.0000      -0.802461       -21.8361
 138   2.0000      -0.793649       -21.5963
 139   2.0000      -0.791570       -21.5397
 140   2.0000      -0.786423       -21.3997
 141   2.0000      -0.768585       -20.9143
 142   2.0000      -0.764795       -20.8111
 143   2.0000      -0.754586       -20.5333
 144   2.0000      -0.737412       -20.0660
 145   2.0000      -0.733457       -19.9584
 146   2.0000      -0.723580       -19.6896
 147   2.0000      -0.717761       -19.5313
 148   2.0000      -0.710144       -19.3240
 149   2.0000      -0.696802       -18.9610
 150   2.0000      -0.694447       -18.8969
 151   2.0000      -0.691409       -18.8142
 152   2.0000      -0.684871       -18.6363
 153   2.0000      -0.679020       -18.4771
 154   2.0000      -0.672170       -18.2907
 155   2.0000      -0.664233       -18.0747
 156   2.0000      -0.661582       -18.0026
 157   2.0000      -0.657682       -17.8964
 158   2.0000      -0.647109       -17.6087
 159   2.0000      -0.642271       -17.4771
 160   2.0000      -0.637561       -17.3489
 161   2.0000      -0.635351       -17.2888
 162   2.0000      -0.635120       -17.2825
 163   2.0000      -0.626498       -17.0479
 164   2.0000      -0.624697       -16.9989
 165   2.0000      -0.616402       -16.7732
 166   2.0000      -0.615117       -16.7382
 167   2.0000      -0.611454       -16.6385
 168   2.0000      -0.609043       -16.5729
 169   2.0000      -0.602512       -16.3952
 170   2.0000      -0.600804       -16.3487
 171   2.0000      -0.597865       -16.2687
 172   2.0000      -0.589662       -16.0455
 173   2.0000      -0.583082       -15.8665
 174   2.0000      -0.577528       -15.7153
 175   2.0000      -0.575613       -15.6632
 176   2.0000      -0.569702       -15.5024
 177   2.0000      -0.567782       -15.4501
 178   2.0000      -0.563758       -15.3406
 179   2.0000      -0.562424       -15.3043
 180   2.0000      -0.555688       -15.1210
 181   2.0000      -0.552408       -15.0318
 182   2.0000      -0.549948       -14.9648
 183   2.0000      -0.546333       -14.8665
 184   2.0000      -0.543849       -14.7989
 185   2.0000      -0.541744       -14.7416
 186   2.0000      -0.534036       -14.5319
 187   2.0000      -0.533972       -14.5301
 188   2.0000      -0.528975       -14.3941
 189   2.0000      -0.528105       -14.3705
 190   2.0000      -0.524037       -14.2598
 191   2.0000      -0.522426       -14.2159
 192   2.0000      -0.518712       -14.1149
 193   2.0000      -0.515665       -14.0320
 194   2.0000      -0.509458       -13.8631
 195   2.0000      -0.505146       -13.7457
 196   2.0000      -0.504309       -13.7229
 197   2.0000      -0.500883       -13.6297
 198   2.0000      -0.499020       -13.5790
 199   2.0000      -0.489002       -13.3064
 200   2.0000      -0.485015       -13.1979
 201   2.0000      -0.484357       -13.1800
 202   2.0000      -0.483540       -13.1578
 203   2.0000      -0.482236       -13.1223
 204   2.0000      -0.479069       -13.0361
 205   2.0000      -0.476038       -12.9537
 206   2.0000      -0.473593       -12.8871
 207   2.0000      -0.472157       -12.8481
 208   2.0000      -0.470923       -12.8145
 209   2.0000      -0.469718       -12.7817
 210   2.0000      -0.466895       -12.7049
 211   2.0000      -0.464663       -12.6441
 212   2.0000      -0.463171       -12.6035
 213   2.0000      -0.458049       -12.4641
 214   2.0000      -0.455619       -12.3980
 215   2.0000      -0.454631       -12.3711
 216   2.0000      -0.451645       -12.2899
 217   2.0000      -0.449860       -12.2413
 218   2.0000      -0.445279       -12.1167
 219   2.0000      -0.444928       -12.1071
 220   2.0000      -0.444499       -12.0954
 221   2.0000      -0.443048       -12.0560
 222   2.0000      -0.440936       -11.9985
 223   2.0000      -0.436724       -11.8839
 224   2.0000      -0.434030       -11.8106
 225   2.0000      -0.433013       -11.7829
 226   2.0000      -0.431145       -11.7321
 227   2.0000      -0.430128       -11.7044
 228   2.0000      -0.424314       -11.5462
 229   2.0000      -0.421238       -11.4625
 230   2.0000      -0.420375       -11.4390
 231   2.0000      -0.417610       -11.3638
 232   2.0000      -0.416586       -11.3359
 233   2.0000      -0.413224       -11.2444
 234   2.0000      -0.407035       -11.0760
 235   2.0000      -0.404396       -11.0042
 236   2.0000      -0.398053       -10.8316
 237   2.0000      -0.394274       -10.7287
 238   2.0000      -0.392251       -10.6737
 239   2.0000      -0.389465       -10.5979
 240   2.0000      -0.385727       -10.4962
 241   2.0000      -0.382331       -10.4038
 242   2.0000      -0.381812       -10.3896
 243   2.0000      -0.375365       -10.2142
 244   2.0000      -0.371427       -10.1070
 245   2.0000      -0.364773        -9.9260
 246   2.0000      -0.362005        -9.8506
 247   2.0000      -0.360469        -9.8089
 248   2.0000      -0.349112        -9.4998
 249   2.0000      -0.348435        -9.4814
 250   2.0000      -0.342676        -9.3247
 251   2.0000      -0.340651        -9.2696
 252   2.0000      -0.338132        -9.2010
 253   2.0000      -0.326496        -8.8844
 254   2.0000      -0.322590        -8.7781
 255   2.0000      -0.310659        -8.4535
 256   2.0000      -0.303224        -8.2511
 257   2.0000      -0.299505        -8.1499
 258   2.0000      -0.270789        -7.3685
 259   2.0000      -0.261483        -7.1153
 260   2.0000      -0.211070        -5.7435
 261   0.0000      -0.112393        -3.0584
 262   0.0000      -0.088578        -2.4103
 263   0.0000      -0.074972        -2.0401
 264   0.0000      -0.059974        -1.6320
 265   0.0000      -0.047852        -1.3021

MULLIKEN ATOMIC CHARGES
-----------------------
   0 C :    0.317203
   1 C :   -0.351953
   2 C :   -0.185827
   3 N :    0.148309
   4 C :   -0.213468
   5 N :    0.165570
   6 C :   -0.003544
   7 C :    0.022299
   8 C :   -0.088111
   9 C :    0.156007
  10 C :   -0.118547
  11 C :    0.012427
  12 S :    0.188140
  13 C :   -0.116685
  14 C :    0.025721
  15 Br:    0.020655
  16 C :    0.176269
  17 O :   -0.251795
  18 C :   -0.075613
  19 C :    0.016819
  20 N :   -0.025196
  21 C :   -0.112218
  22 S :    0.176772
  23 C :    0.001850
  24 N :    0.275995
  25 O :   -0.247144
  26 O :   -0.254925
  27 C :   -0.000168
  28 C :    0.138302
  29 C :   -0.025304
  30 C :    0.011546
  31 C :    0.048195
  32 C :   -0.214361
  33 C :    0.093062
  34 C :    0.178172
  35 N :   -0.129363
  36 C :    0.095029
  37 C :   -0.103834
  38 C :    0.091131
  39 C :   -0.075023
  40 C :   -0.045037
  41 N :    0.055385
  42 C :   -0.137776
  43 C :   -0.146355
  44 N :    0.047512
  45 C :   -0.213368
  46 N :    0.227847
  47 C :   -0.210328
  48 N :    0.229601
  49 C :    0.090366
  50 C :    0.036935
  51 C :    0.015376
  52 N :   -0.309345
  53 S :    0.537894
  54 N :   -0.334120
  55 C :   -0.120169
  56 C :    0.006832
  57 C :    0.016985
  58 C :    0.065582
  59 C :   -0.070488
  60 S :    0.086246
  61 C :   -0.061638
  62 C :    0.016397
  63 C :    0.068446
  64 C :   -0.096423
  65 S :    0.075913
  66 C :   -0.001220
  67 H :   -0.018123
  68 H :   -0.005593
  69 H :   -0.007622
  70 H :    0.051110
  71 H :    0.175899
  72 H :    0.011685
  73 H :   -0.039845
  74 H :   -0.018829
  75 H :   -0.024726
  76 H :    0.028026
  77 H :    0.028960
  78 H :    0.019186
  79 H :    0.009954
  80 H :    0.029464
  81 H :    0.117232
  82 H :    0.026416
  83 H :   -0.018778
  84 H :    0.009053
  85 H :    0.002494
  86 H :   -0.003397
  87 H :    0.000653
  88 H :   -0.009001
  89 H :    0.021182
  90 H :    0.017155
Sum of atomic charges:   -0.0000000

LOEWDIN ATOMIC CHARGES
----------------------
   0 C :    0.080942
   1 C :   -0.147429
   2 C :   -0.011413
   3 N :   -0.067144
   4 C :   -0.021013
   5 N :   -0.053735
   6 C :   -0.014683
   7 C :   -0.052509
   8 C :    0.018898
   9 C :   -0.034294
  10 C :   -0.143608
  11 C :   -0.004835
  12 S :    0.447393
  13 C :   -0.269092
  14 C :   -0.070216
  15 Br:    0.137554
  16 C :    0.096984
  17 O :   -0.206725
  18 C :   -0.135053
  19 C :    0.109328
  20 N :    0.071535
  21 C :   -0.113039
  22 S :    0.470250
  23 C :   -0.200524
  24 N :    0.273580
  25 O :   -0.212955
  26 O :   -0.221340
  27 C :    0.002308
  28 C :   -0.084135
  29 C :   -0.034213
  30 C :   -0.008046
  31 C :   -0.042514
  32 C :   -0.041113
  33 C :   -0.050695
  34 C :    0.046933
  35 N :    0.004675
  36 C :    0.067349
  37 C :   -0.102462
  38 C :   -0.009986
  39 C :   -0.021930
  40 C :   -0.003343
  41 N :   -0.000278
  42 C :   -0.033350
  43 C :   -0.040672
  44 N :    0.002043
  45 C :   -0.036660
  46 N :   -0.017638
  47 C :   -0.036196
  48 N :   -0.012823
  49 C :   -0.056756
  50 C :   -0.037465
  51 C :   -0.046752
  52 N :   -0.290601
  53 S :    0.690058
  54 N :   -0.298611
  55 C :   -0.039534
  56 C :   -0.140978
  57 C :   -0.029461
  58 C :   -0.026805
  59 C :   -0.195206
  60 S :    0.414932
  61 C :   -0.172569
  62 C :   -0.026632
  63 C :   -0.034260
  64 C :   -0.147671
  65 S :    0.362771
  66 C :   -0.071902
  67 H :    0.037954
  68 H :    0.040167
  69 H :    0.037187
  70 H :    0.037106
  71 H :    0.080920
  72 H :    0.044138
  73 H :    0.017456
  74 H :    0.024248
  75 H :    0.024249
  76 H :    0.036765
  77 H :    0.033094
  78 H :    0.033655
  79 H :    0.026229
  80 H :    0.033999
  81 H :    0.077212
  82 H :    0.022791
  83 H :    0.027308
  84 H :    0.042876
  85 H :    0.038668
  86 H :    0.034094
  87 H :    0.037662
  88 H :    0.033193
  89 H :    0.027809
  90 H :    0.024551

  Mayer bond orders larger than 0.100000
B(  0-C ,  1-C ) :   1.6517 B(  0-C ,  6-C ) :   1.0010 B(  0-C , 18-C ) :   1.0833
B(  1-C ,  2-C ) :   1.1433 B(  1-C ,  4-C ) :   1.1488 B(  2-C ,  3-N ) :   2.9513
B(  4-C ,  5-N ) :   2.9751 B(  6-C ,  7-C ) :   1.2760 B(  6-C , 11-C ) :   1.4251
B(  7-C ,  8-C ) :   1.4060 B(  7-C , 16-C ) :   0.9877 B(  8-C ,  9-C ) :   1.2373
B(  8-C , 67-H ) :   1.0168 B(  9-C , 10-C ) :   1.3035 B(  9-C , 14-C ) :   1.1626
B( 10-C , 11-C ) :   1.3224 B( 10-C , 12-S ) :   1.0946 B( 11-C , 68-H ) :   0.9812
B( 12-S , 13-C ) :   1.0882 B( 13-C , 14-C ) :   1.6093 B( 13-C , 15-Br) :   1.0157
B( 14-C , 69-H ) :   1.0019 B( 16-C , 17-O ) :   1.9667 B( 16-C , 18-C ) :   1.0099
B( 17-O , 71-H ) :   0.1327 B( 18-C , 19-C ) :   1.4694 B( 19-C , 20-N ) :   1.3177
B( 19-C , 70-H ) :   0.9327 B( 20-N , 21-C ) :   1.1706 B( 20-N , 71-H ) :   0.8403
B( 21-C , 22-S ) :   1.1342 B( 21-C , 28-C ) :   1.3928 B( 22-S , 23-C ) :   1.0897
B( 23-C , 24-N ) :   0.9623 B( 23-C , 27-C ) :   1.5060 B( 24-N , 25-O ) :   1.5344
B( 24-N , 26-O ) :   1.5181 B( 25-O , 26-O ) :   0.2631 B( 27-C , 28-C ) :   1.2138
B( 27-C , 72-H ) :   0.9987 B( 28-C , 29-C ) :   1.0537 B( 29-C , 30-C ) :   1.7456
B( 29-C , 73-H ) :   0.9758 B( 30-C , 31-C ) :   1.1139 B( 30-C , 74-H ) :   0.9679
B( 31-C , 32-C ) :   1.7630 B( 31-C , 75-H ) :   0.9667 B( 32-C , 33-C ) :   1.0829
B( 32-C , 34-C ) :   1.0269 B( 33-C , 76-H ) :   0.9462 B( 33-C , 77-H ) :   0.9534
B( 33-C , 78-H ) :   0.9504 B( 34-C , 35-N ) :   1.0236 B( 34-C , 79-H ) :   0.9455
B( 34-C , 80-H ) :   0.9396 B( 35-N , 36-C ) :   1.2474 B( 35-N , 81-H ) :   0.9384
B( 36-C , 37-C ) :   1.5205 B( 36-C , 82-H ) :   0.9306 B( 37-C , 38-C ) :   1.2856
B( 37-C , 83-H ) :   0.9516 B( 38-C , 39-C ) :   1.2144 B( 38-C , 49-C ) :   0.1134
B( 38-C , 51-C ) :   1.1626 B( 39-C , 40-C ) :   1.1121 B( 39-C , 44-N ) :   1.4637
B( 40-C , 41-N ) :   1.4688 B( 40-C , 49-C ) :   1.2242 B( 41-N , 42-C ) :   1.7257
B( 42-C , 43-C ) :   1.2147 B( 42-C , 47-C ) :   1.1544 B( 43-C , 44-N ) :   1.7265
B( 43-C , 45-C ) :   1.1551 B( 45-C , 46-N ) :   3.0507 B( 47-C , 48-N ) :   3.0452
B( 49-C , 50-C ) :   1.1612 B( 49-C , 55-C ) :   1.2285 B( 50-C , 51-C ) :   1.1201
B( 50-C , 54-N ) :   1.4655 B( 51-C , 52-N ) :   1.4712 B( 52-N , 53-S ) :   1.2676
B( 52-N , 54-N ) :   0.1409 B( 53-S , 54-N ) :   1.2600 B( 55-C , 56-C ) :   1.5166
B( 55-C , 84-H ) :   0.9475 B( 56-C , 57-C ) :   1.1322 B( 56-C , 60-S ) :   1.0393
B( 57-C , 58-C ) :   1.5779 B( 57-C , 85-H ) :   1.0053 B( 58-C , 59-C ) :   1.1612
B( 58-C , 86-H ) :   0.9950 B( 59-C , 60-S ) :   1.0203 B( 59-C , 61-C ) :   1.5342
B( 61-C , 62-C ) :   1.1518 B( 61-C , 65-S ) :   1.0528 B( 62-C , 63-C ) :   1.6406
B( 62-C , 87-H ) :   0.9966 B( 63-C , 64-C ) :   1.0687 B( 63-C , 88-H ) :   0.9963
B( 64-C , 65-S ) :   1.0085 B( 64-C , 66-C ) :   1.8651 B( 66-C , 89-H ) :   0.9477
B( 66-C , 90-H ) :   0.9366

-----------------------------------------------------------------------------
         ABSORPTION SPECTRUM VIA TRANSITION ELECTRIC DIPOLE MOMENTS
-----------------------------------------------------------------------------
State   Energy  Wavelength   fosc         T2         TX        TY        TZ
        (cm-1)    (nm)                  (au**2)     (au)      (au)      (au)
-----------------------------------------------------------------------------
   0    6184.9   1616.8   0.175664074   9.35025  -1.24068   1.90971  -2.04059
   1   10452.3    956.7   0.018273912   0.57556   0.68900  -0.13891   0.28557
   2   13369.2    748.0   0.029562384   0.72796   0.51810   0.62447  -0.26377
   3   16310.6    613.1   0.033530434   0.67677  -0.02077   0.52339   0.63436
   4   18080.0    553.1   0.418166005   7.61424  -1.13200   2.37271  -0.83849
   5   18505.9    540.4   0.209900642   3.73403   0.58994  -1.83602  -0.12257
   6   21075.8    474.5   0.026699036   0.41705   0.31840  -0.09438   0.55386
   7   21551.4    464.0   0.495303093   7.56608   1.66509  -1.97848   0.93765
   8   22435.5    445.7   0.019286805   0.28301  -0.15321  -0.46730  -0.20290
   9   22574.4    443.0   0.196647845   2.86780   1.17672  -0.37573   1.15842
  10   23297.2    429.2   0.340397024   4.81015   1.78292  -0.71854   1.05595
  11   23990.4    416.8   0.003377157   0.04634  -0.16603   0.11297   0.07755
  12   25125.7    398.0   0.036159825   0.47379   0.61599  -0.17591  -0.25180
  13   25506.0    392.1   0.028631128   0.36955   0.04175   0.52228   0.30827
  14   25618.6    390.3   0.003219725   0.04138  -0.19638  -0.01506   0.05082
  15   26253.9    380.9   0.024949400   0.31285   0.23106  -0.50547  -0.06300
  16   27621.1    362.0   0.111620770   1.33039  -0.58668   0.99046  -0.07214
  17   27710.3    360.9   0.020926714   0.24862  -0.37688   0.30528   0.11570
  18   28111.3    355.7   0.114077926   1.33597  -0.75808   0.24663  -0.83693
  19   28779.6    347.5   0.022129308   0.25314  -0.08106   0.27585   0.41289
  20   28900.9    346.0   0.023710529   0.27009   0.19882  -0.06844  -0.47526
  21   29297.0    341.3   0.038702845   0.43491   0.09177   0.30682   0.57649
  22   29864.1    334.9   0.120727618   1.33086  -0.24575   1.08656  -0.29974
  23   30157.3    331.6   0.297373501   3.24628   0.53928  -1.53095   0.78209
  24   30561.0    327.2   0.184455601   1.98701  -0.08083   1.35671   0.37390
  25   30842.7    324.2   0.110212471   1.17640  -0.85754  -0.11227   0.65454
  26   31008.0    322.5   0.022728517   0.24131  -0.45906  -0.10553   0.13941
  27   31642.6    316.0   0.202063054   2.10228   0.78194  -0.21443  -1.20203
  28   31777.6    314.7   0.263716221   2.73207   1.07396  -1.12577   0.55796
  29   31896.4    313.5   0.149645717   1.54453   0.09853  -1.23441   0.10518
  30   32378.7    308.8   0.075173594   0.76433  -0.09254  -0.83712  -0.23452
  31   32662.9    306.2   0.131845505   1.32888   0.64125  -0.79203  -0.53885
  32   32900.6    303.9   0.037028041   0.37051   0.25013   0.32459  -0.45010
  33   33302.4    300.3   0.011753801   0.11619  -0.31937   0.11020   0.04530
  34   33618.4    297.5   0.304438357   2.98125  -0.58247   1.62540  -0.00599
  35   33798.4    295.9   0.109058882   1.06228  -0.51985  -0.88979   0.01748
  36   34015.4    294.0   0.004865012   0.04709  -0.13530  -0.16813   0.02263
  37   34290.8    291.6   0.076847265   0.73778   0.28136   0.77699   0.23433
  38   34404.2    290.7   0.013001343   0.12441  -0.25008  -0.18939  -0.16124
  39   34557.5    289.4   0.036345835   0.34625  -0.21555  -0.44824  -0.31444
  40   34722.6    288.0   0.334526344   3.17171  -0.37183   1.16739   1.29253
  41   34789.7    287.4   0.189921343   1.79721   0.04318   1.12951   0.72081
  42   34931.4    286.3   0.108504971   1.02261   0.34564  -0.89375  -0.32304
  43   35732.4    279.9   0.104426163   0.96210   0.46744  -0.32473  -0.79885
  44   35944.0    278.2   0.063895038   0.58522  -0.14798   0.54963   0.51111
  45   36022.9    277.6   0.041997474   0.38381  -0.44197   0.11720   0.41802
  46   36252.0    275.8   0.073261599   0.66530   0.25003   0.77416   0.05894
  47   36475.1    274.2   0.027669504   0.24974  -0.10789  -0.00288  -0.48794
  48   36584.5    273.3   0.079320823   0.71378  -0.03890   0.24751   0.80685
  49   36640.7    272.9   0.021339012   0.19173   0.26252  -0.10830   0.33329
  50   36764.8    272.0   0.078829219   0.70588  -0.09585   0.56739  -0.61218
  51   36908.3    270.9   0.334836979   2.98665  -0.46611   0.94331   1.37097
  52   37135.5    269.3   0.128401162   1.13830   0.02192  -0.03615  -1.06607
  53   37391.3    267.4   0.074534113   0.65624   0.53916  -0.10292   0.59578
  54   37586.2    266.1   0.223862602   1.96078  -0.31531   0.29883   1.33119
  55   37865.4    264.1   0.023505690   0.20436   0.37218  -0.03258   0.25452
  56   38146.2    262.1   0.158068869   1.36418  -0.00402  -0.60171   1.00105
  57   38158.6    262.1   0.095484763   0.82379  -0.50693   0.60768  -0.44445
  58   38611.1    259.0   0.014105826   0.12027   0.12297  -0.29447   0.13578
  59   38778.8    257.9   0.010771670   0.09145   0.02876   0.21333  -0.21238
  60   38967.1    256.6   0.131448739   1.11054  -0.05372  -0.22199  -1.02877
  61   39136.5    255.5   0.048861135   0.41101   0.09515  -0.15758  -0.61411
  62   39443.5    253.5   0.007568705   0.06317   0.06683   0.24226  -0.00361
  63   39590.7    252.6   0.004490236   0.03734  -0.03948   0.11622  -0.14924
  64   39623.0    252.4   0.009943712   0.08262  -0.03302   0.17615  -0.22472
  65   39662.1    252.1   0.030922919   0.25667  -0.15394   0.38168  -0.29546
  66   40207.1    248.7   0.204822851   1.67707   0.08163   0.84545   0.97756
  67   40316.5    248.0   0.041528206   0.33911   0.04678  -0.57747   0.05869

FINAL SINGLE POINT ENERGY     -7194.128317862376

DIPOLE MOMENT
-------------
                                X             Y             Z
Electronic contribution:     46.87165     -91.84449      48.44691
Nuclear contribution   :    -45.79222      87.10949     -52.01825
                        -----------------------------------------
Total Dipole Moment    :      1.07943      -4.73499      -3.57134
                        -----------------------------------------
Magnitude (a.u.)       :      6.02825
Magnitude (Debye)      :     15.32259

Rotational constants in cm-1:     0.001429     0.000577     0.000548
Rotational constants in MHz :    42.826251    17.304428    16.419647

                             ****ORCA TERMINATED NORMALLY****
TOTAL RUN TIME: 0 days 0 hours 11 minutes 43 seconds 503 msec
