                         Program Version 4.2.0 -  RELEASE  -
|  1> # ORCA input file
|  2> # SCF done       -176.054609105733          0.000515185266
|  3> ! CAM-B3LYP def2-SVP def2/J RIJCOSX Grid4 TightSCF
|  4> %maxcore 5000
|  5> %tddft
|  6>     Mode sTDDFT
|  7>     Ethresh 5.0
|  8>     maxcore 5000
|  9> end
| 10>
| 11> %pal
| 12>   nprocs 6
| 13>   end
| 14> * xyz 0 1
| 15>    C        1.97789         0.38010        -1.23657
| 16>    N        1.50353        -0.82523        -1.17880
| 17>    C        1.90930        -1.32801         0.02739
| 18>    C        2.70293        -0.32932         0.76084
| 19>    C        3.14500        -0.85481         2.06097
| 20>    O        3.80923        -0.30201         2.90743
| 21>    C        2.56962        -2.21745         2.05863
| 22>    C        1.82435        -2.45555         0.79236
| 23>    N        1.29216        -3.70654         0.78563
| 24>    C        1.64627        -4.23772         1.92303
| 25>    C        2.44708        -3.36136         2.76967
| 26>    C        2.75039         0.77342        -0.04726
| 27>    C        3.37749         2.02748         0.16263
| 28>    S        4.27578         2.40080         1.62393
| 29>    C        4.54409         3.97335         0.88255
| 30>    N        3.98666         4.07855        -0.29691
| 31>    N        3.35231         3.01900        -0.68712
| 32>    C        5.29008         4.99328         1.53452
| 33>    C        5.46958         6.21256         0.96913
| 34>    C        6.17032         7.34505         1.45937
| 35>    N        6.95099         7.48823         2.58321
| 36>    C        7.25104         6.52327         3.61421
| 37>    C        6.13234         6.43928         4.65033
| 38>    C        7.47066         8.79367         2.69498
| 39>    O        8.21758         9.14111         3.58623
| 40>    C        6.94333         9.49712         1.54577
| 41>    C        6.17296         8.57665         0.80209
| 42>    C        5.66761         9.25603        -0.37425
| 43>    O        4.98068         8.88961        -1.29908
| 44>    N        6.18316        10.56810        -0.25421
| 45>    C        5.88303        11.58049        -1.23743
| 46>    C        4.75134        12.49688        -0.77896
| 47>    C        6.92548        10.72600         0.88524
| 48>    C        7.54834        11.94551         1.27258
| 49>    C        8.18150        12.05698         2.46011
| 50>    C        8.86344        13.20971         2.98246
| 51>    C        9.73501        14.07840         2.28941
| 52>    C       10.11801        13.91822         0.86849
| 53>    O        9.75495        13.09436         0.08311
| 54>    S       11.29812        15.19297         0.42055
| 55>    C       11.26422        15.93601         2.05006
| 56>    O       11.84874        16.94125         2.31661
| 57>    C       10.40362        15.12069         2.93482
| 58>    C       10.27697        15.40349         4.31027
| 59>    C        9.41205        14.53296         4.99533
| 60>    C        8.75140        13.49409         4.35492
| 61>    C        7.92208        12.79619         5.36789
| 62>    O        7.12200        11.92502         5.24172
| 63>    O        8.19990        13.38283         6.58063
| 64>    C        9.08252        14.42324         6.44476
| 65>    O        9.46646        15.05504         7.37766
| 66>    C       11.03233        16.44991         4.95257
| 67>    C       10.57443        17.25697         5.93109
| 68>    C       11.42702        18.20979         6.56589
| 69>    N       12.71521        18.33010         6.26798
| 70>    C       13.19067        19.27992         7.09040
| 71>    C       12.11250        19.80903         7.97071
| 72>    C       12.64965        20.84813         8.87821
| 73>    O       12.06495        21.49588         9.71201
| 74>    C       14.07641        20.88686         8.50377
| 75>    C       14.35688        19.92032         7.41188
| 76>    N       15.67097        19.95160         7.07592
| 77>    C       16.20620        20.84554         7.86678
| 78>    C       15.26851        21.46685         8.78599
| 79>    C       11.00093        19.12245         7.63240
| 80>    H        1.80913         1.01634        -2.08680
| 81>    H        1.34831        -5.24157         2.17207
| 82>    H        2.83186        -3.61502         3.73770
| 83>    H        5.67978         4.72774         2.50337
| 84>    H        5.00630         6.38017         0.00428
| 85>    H        8.16268         6.88152         4.10228
| 86>    H        7.46054         5.55333         3.15851
| 87>    H        6.02683         7.39822         5.15173
| 88>    H        6.37347         5.68421         5.39346
| 89>    H        5.18059         6.18816         4.18724
| 90>    H        5.57543        11.04427        -2.13949
| 91>    H        6.78827        12.15254        -1.45701
| 92>    H        3.84868        11.91512        -0.60951
| 93>    H        4.54633        13.23905        -1.54524
| 94>    H        5.01182        13.00875         0.14510
| 95>    H        7.47274        12.78385         0.59751
| 96>    H        8.14137        11.21891         3.14735
| 97>    H       12.04373        16.61810         4.60451
| 98>    H        9.55065        17.21861         6.27230
| 99>    H       17.25768        21.06714         7.80280
|100>    H       15.51239        22.21676         9.51199
|101>    H       10.00626        19.18271         8.02754
|102> *
|103>
|104>                          ****END OF INPUT****

CARTESIAN COORDINATES (ANGSTROEM)
---------------------------------
  C      1.977890    0.380100   -1.236570
  N      1.503530   -0.825230   -1.178800
  C      1.909300   -1.328010    0.027390
  C      2.702930   -0.329320    0.760840
  C      3.145000   -0.854810    2.060970
  O      3.809230   -0.302010    2.907430
  C      2.569620   -2.217450    2.058630
  C      1.824350   -2.455550    0.792360
  N      1.292160   -3.706540    0.785630
  C      1.646270   -4.237720    1.923030
  C      2.447080   -3.361360    2.769670
  C      2.750390    0.773420   -0.047260
  C      3.377490    2.027480    0.162630
  S      4.275780    2.400800    1.623930
  C      4.544090    3.973350    0.882550
  N      3.986660    4.078550   -0.296910
  N      3.352310    3.019000   -0.687120
  C      5.290080    4.993280    1.534520
  C      5.469580    6.212560    0.969130
  C      6.170320    7.345050    1.459370
  N      6.950990    7.488230    2.583210
  C      7.251040    6.523270    3.614210
  C      6.132340    6.439280    4.650330
  C      7.470660    8.793670    2.694980
  O      8.217580    9.141110    3.586230
  C      6.943330    9.497120    1.545770
  C      6.172960    8.576650    0.802090
  C      5.667610    9.256030   -0.374250
  O      4.980680    8.889610   -1.299080
  N      6.183160   10.568100   -0.254210
  C      5.883030   11.580490   -1.237430
  C      4.751340   12.496880   -0.778960
  C      6.925480   10.726000    0.885240
  C      7.548340   11.945510    1.272580
  C      8.181500   12.056980    2.460110
  C      8.863440   13.209710    2.982460
  C      9.735010   14.078400    2.289410
  C     10.118010   13.918220    0.868490
  O      9.754950   13.094360    0.083110
  S     11.298120   15.192970    0.420550
  C     11.264220   15.936010    2.050060
  O     11.848740   16.941250    2.316610
  C     10.403620   15.120690    2.934820
  C     10.276970   15.403490    4.310270
  C      9.412050   14.532960    4.995330
  C      8.751400   13.494090    4.354920
  C      7.922080   12.796190    5.367890
  O      7.122000   11.925020    5.241720
  O      8.199900   13.382830    6.580630
  C      9.082520   14.423240    6.444760
  O      9.466460   15.055040    7.377660
  C     11.032330   16.449910    4.952570
  C     10.574430   17.256970    5.931090
  C     11.427020   18.209790    6.565890
  N     12.715210   18.330100    6.267980
  C     13.190670   19.279920    7.090400
  C     12.112500   19.809030    7.970710
  C     12.649650   20.848130    8.878210
  O     12.064950   21.495880    9.712010
  C     14.076410   20.886860    8.503770
  C     14.356880   19.920320    7.411880
  N     15.670970   19.951600    7.075920
  C     16.206200   20.845540    7.866780
  C     15.268510   21.466850    8.785990
  C     11.000930   19.122450    7.632400
  H      1.809130    1.016340   -2.086800
  H      1.348310   -5.241570    2.172070
  H      2.831860   -3.615020    3.737700
  H      5.679780    4.727740    2.503370
  H      5.006300    6.380170    0.004280
  H      8.162680    6.881520    4.102280
  H      7.460540    5.553330    3.158510
  H      6.026830    7.398220    5.151730
  H      6.373470    5.684210    5.393460
  H      5.180590    6.188160    4.187240
  H      5.575430   11.044270   -2.139490
  H      6.788270   12.152540   -1.457010
  H      3.848680   11.915120   -0.609510
  H      4.546330   13.239050   -1.545240
  H      5.011820   13.008750    0.145100
  H      7.472740   12.783850    0.597510
  H      8.141370   11.218910    3.147350
  H     12.043730   16.618100    4.604510
  H      9.550650   17.218610    6.272300
  H     17.257680   21.067140    7.802800
  H     15.512390   22.216760    9.511990
  H     10.006260   19.182710    8.027540

 Total Charge           Charge          ....    0
 Multiplicity           Mult            ....    1
 Number of Electrons    NEL             ....  458
 Basis Dimension        Dim             .... 1028

ORBITAL ENERGIES
----------------

  NO   OCC          E(Eh)            E(eV)
   0   2.0000     -88.978716     -2421.2340
   1   2.0000     -88.965031     -2420.8616
   2   2.0000     -19.303843      -525.2843
   3   2.0000     -19.257429      -524.0213
   4   2.0000     -19.257329      -524.0186
   5   2.0000     -19.251743      -523.8666
   6   2.0000     -19.250477      -523.8321
   7   2.0000     -19.226944      -523.1917
   8   2.0000     -19.209488      -522.7167
   9   2.0000     -19.199079      -522.4335
  10   2.0000     -19.197400      -522.3878
  11   2.0000     -14.460510      -393.4905
  12   2.0000     -14.460445      -393.4887
  13   2.0000     -14.448921      -393.1751
  14   2.0000     -14.441539      -392.9742
  15   2.0000     -14.424627      -392.5141
  16   2.0000     -14.420374      -392.3983
  17   2.0000     -14.410578      -392.1318
  18   2.0000     -14.407540      -392.0491
  19   2.0000     -10.447606      -284.2938
  20   2.0000     -10.443312      -284.1770
  21   2.0000     -10.421903      -283.5944
  22   2.0000     -10.418973      -283.5147
  23   2.0000     -10.386594      -282.6336
  24   2.0000     -10.381326      -282.4902
  25   2.0000     -10.380963      -282.4804
  26   2.0000     -10.371354      -282.2189
  27   2.0000     -10.351638      -281.6824
  28   2.0000     -10.351507      -281.6788
  29   2.0000     -10.351500      -281.6786
  30   2.0000     -10.350471      -281.6506
  31   2.0000     -10.346964      -281.5552
  32   2.0000     -10.346302      -281.5372
  33   2.0000     -10.345544      -281.5166
  34   2.0000     -10.345176      -281.5065
  35   2.0000     -10.345170      -281.5064
  36   2.0000     -10.344996      -281.5017
  37   2.0000     -10.344683      -281.4931
  38   2.0000     -10.343155      -281.4515
  39   2.0000     -10.341285      -281.4007
  40   2.0000     -10.341035      -281.3939
  41   2.0000     -10.340993      -281.3927
  42   2.0000     -10.333015      -281.1756
  43   2.0000     -10.328449      -281.0514
  44   2.0000     -10.328237      -281.0456
  45   2.0000     -10.321078      -280.8508
  46   2.0000     -10.313327      -280.6399
  47   2.0000     -10.312928      -280.6290
  48   2.0000     -10.311849      -280.5997
  49   2.0000     -10.310266      -280.5566
  50   2.0000     -10.306826      -280.4630
  51   2.0000     -10.305883      -280.4373
  52   2.0000     -10.305183      -280.4183
  53   2.0000     -10.304605      -280.4025
  54   2.0000     -10.304258      -280.3931
  55   2.0000     -10.304133      -280.3897
  56   2.0000     -10.302922      -280.3568
  57   2.0000     -10.297468      -280.2084
  58   2.0000     -10.295819      -280.1635
  59   2.0000     -10.291330      -280.0413
  60   2.0000     -10.290620      -280.0220
  61   2.0000     -10.271628      -279.5052
  62   2.0000     -10.269957      -279.4597
  63   2.0000     -10.269194      -279.4390
  64   2.0000     -10.267233      -279.3856
  65   2.0000      -8.074472      -219.7175
  66   2.0000      -8.064325      -219.4415
  67   2.0000      -6.043181      -164.4433
  68   2.0000      -6.039626      -164.3466
  69   2.0000      -6.036876      -164.2718
  70   2.0000      -6.033171      -164.1709
  71   2.0000      -6.029910      -164.0822
  72   2.0000      -6.025373      -163.9587
  73   2.0000      -1.254172       -34.1277
  74   2.0000      -1.183736       -32.2111
  75   2.0000      -1.179903       -32.1068
  76   2.0000      -1.179607       -32.0987
  77   2.0000      -1.150710       -31.3124
  78   2.0000      -1.141839       -31.0710
  79   2.0000      -1.141703       -31.0673
  80   2.0000      -1.141253       -31.0551
  81   2.0000      -1.134684       -30.8763
  82   2.0000      -1.125629       -30.6299
  83   2.0000      -1.090741       -29.6806
  84   2.0000      -1.079339       -29.3703
  85   2.0000      -1.073002       -29.1979
  86   2.0000      -1.071514       -29.1574
  87   2.0000      -1.062260       -28.9056
  88   2.0000      -1.061212       -28.8771
  89   2.0000      -1.032552       -28.0972
  90   2.0000      -0.968105       -26.3435
  91   2.0000      -0.955339       -25.9961
  92   2.0000      -0.953999       -25.9596
  93   2.0000      -0.948657       -25.8143
  94   2.0000      -0.937879       -25.5210
  95   2.0000      -0.934923       -25.4406
  96   2.0000      -0.933229       -25.3944
  97   2.0000      -0.916186       -24.9307
  98   2.0000      -0.894981       -24.3537
  99   2.0000      -0.889749       -24.2113
 100   2.0000      -0.885291       -24.0900
 101   2.0000      -0.875443       -23.8220
 102   2.0000      -0.874991       -23.8097
 103   2.0000      -0.866992       -23.5920
 104   2.0000      -0.864599       -23.5269
 105   2.0000      -0.857280       -23.3278
 106   2.0000      -0.826895       -22.5010
 107   2.0000      -0.823036       -22.3960
 108   2.0000      -0.813684       -22.1415
 109   2.0000      -0.809228       -22.0202
 110   2.0000      -0.788030       -21.4434
 111   2.0000      -0.784030       -21.3345
 112   2.0000      -0.775613       -21.1055
 113   2.0000      -0.773724       -21.0541
 114   2.0000      -0.768028       -20.8991
 115   2.0000      -0.766297       -20.8520
 116   2.0000      -0.756484       -20.5850
 117   2.0000      -0.735543       -20.0152
 118   2.0000      -0.730068       -19.8662
 119   2.0000      -0.722579       -19.6624
 120   2.0000      -0.716874       -19.5071
 121   2.0000      -0.712621       -19.3914
 122   2.0000      -0.706649       -19.2289
 123   2.0000      -0.703458       -19.1421
 124   2.0000      -0.690248       -18.7826
 125   2.0000      -0.673663       -18.3313
 126   2.0000      -0.666345       -18.1322
 127   2.0000      -0.660329       -17.9685
 128   2.0000      -0.658491       -17.9184
 129   2.0000      -0.657069       -17.8798
 130   2.0000      -0.649723       -17.6799
 131   2.0000      -0.642977       -17.4963
 132   2.0000      -0.640359       -17.4251
 133   2.0000      -0.640095       -17.4179
 134   2.0000      -0.632268       -17.2049
 135   2.0000      -0.627950       -17.0874
 136   2.0000      -0.624283       -16.9876
 137   2.0000      -0.615591       -16.7511
 138   2.0000      -0.612417       -16.6647
 139   2.0000      -0.602600       -16.3976
 140   2.0000      -0.598792       -16.2940
 141   2.0000      -0.588255       -16.0072
 142   2.0000      -0.585789       -15.9401
 143   2.0000      -0.584216       -15.8973
 144   2.0000      -0.581086       -15.8122
 145   2.0000      -0.579631       -15.7726
 146   2.0000      -0.578969       -15.7545
 147   2.0000      -0.569097       -15.4859
 148   2.0000      -0.566470       -15.4144
 149   2.0000      -0.562463       -15.3054
 150   2.0000      -0.561787       -15.2870
 151   2.0000      -0.559062       -15.2129
 152   2.0000      -0.555490       -15.1156
 153   2.0000      -0.553563       -15.0632
 154   2.0000      -0.552969       -15.0471
 155   2.0000      -0.551338       -15.0027
 156   2.0000      -0.549011       -14.9394
 157   2.0000      -0.544808       -14.8250
 158   2.0000      -0.544134       -14.8066
 159   2.0000      -0.541323       -14.7301
 160   2.0000      -0.539173       -14.6717
 161   2.0000      -0.534241       -14.5374
 162   2.0000      -0.531414       -14.4605
 163   2.0000      -0.529167       -14.3994
 164   2.0000      -0.525569       -14.3015
 165   2.0000      -0.524442       -14.2708
 166   2.0000      -0.522754       -14.2249
 167   2.0000      -0.520515       -14.1639
 168   2.0000      -0.518198       -14.1009
 169   2.0000      -0.516916       -14.0660
 170   2.0000      -0.516191       -14.0463
 171   2.0000      -0.509294       -13.8586
 172   2.0000      -0.507381       -13.8065
 173   2.0000      -0.506733       -13.7889
 174   2.0000      -0.502039       -13.6612
 175   2.0000      -0.501194       -13.6382
 176   2.0000      -0.496844       -13.5198
 177   2.0000      -0.493542       -13.4300
 178   2.0000      -0.490317       -13.3422
 179   2.0000      -0.487620       -13.2688
 180   2.0000      -0.487562       -13.2672
 181   2.0000      -0.486518       -13.2388
 182   2.0000      -0.482445       -13.1280
 183   2.0000      -0.481809       -13.1107
 184   2.0000      -0.476504       -12.9663
 185   2.0000      -0.475498       -12.9389
 186   2.0000      -0.473491       -12.8844
 187   2.0000      -0.472628       -12.8609
 188   2.0000      -0.469817       -12.7844
 189   2.0000      -0.466355       -12.6902
 190   2.0000      -0.461421       -12.5559
 191   2.0000      -0.460481       -12.5303
 192   2.0000      -0.459719       -12.5096
 193   2.0000      -0.454792       -12.3755
 194   2.0000      -0.448628       -12.2078
 195   2.0000      -0.443856       -12.0779
 196   2.0000      -0.432995       -11.7824
 197   2.0000      -0.428107       -11.6494
 198   2.0000      -0.425772       -11.5858
 199   2.0000      -0.419680       -11.4201
 200   2.0000      -0.412469       -11.2238
 201   2.0000      -0.405397       -11.0314
 202   2.0000      -0.397099       -10.8056
 203   2.0000      -0.394536       -10.7359
 204   2.0000      -0.390350       -10.6220
 205   2.0000      -0.384930       -10.4745
 206   2.0000      -0.382570       -10.4103
 207   2.0000      -0.376411       -10.2427
 208   2.0000      -0.370270       -10.0756
 209   2.0000      -0.367015        -9.9870
 210   2.0000      -0.363021        -9.8783
 211   2.0000      -0.361168        -9.8279
 212   2.0000      -0.360539        -9.8108
 213   2.0000      -0.356234        -9.6936
 214   2.0000      -0.355106        -9.6629
 215   2.0000      -0.354627        -9.6499
 216   2.0000      -0.349430        -9.5085
 217   2.0000      -0.346999        -9.4423
 218   2.0000      -0.343898        -9.3579
 219   2.0000      -0.343521        -9.3477
 220   2.0000      -0.339329        -9.2336
 221   2.0000      -0.335634        -9.1331
 222   2.0000      -0.333474        -9.0743
 223   2.0000      -0.328587        -8.9413
 224   2.0000      -0.328254        -8.9323
 225   2.0000      -0.323238        -8.7958
 226   2.0000      -0.305661        -8.3175
 227   2.0000      -0.303080        -8.2472
 228   2.0000      -0.246995        -6.7211
 229   0.0000      -0.124005        -3.3743
 230   0.0000      -0.118540        -3.2256
 231   0.0000      -0.108363        -2.9487
 232   0.0000      -0.098059        -2.6683
 233   0.0000      -0.069033        -1.8785

MULLIKEN ATOMIC CHARGES
-----------------------
   0 C :    0.077448
   1 N :   -0.020520
   2 C :    0.060465
   3 C :   -0.149498
   4 C :    0.216086
   5 O :   -0.128208
   6 C :   -0.027033
   7 C :   -0.014702
   8 N :   -0.047898
   9 C :    0.094345
  10 C :   -0.088018
  11 C :    0.057186
  12 C :   -0.170292
  13 S :    0.154051
  14 C :   -0.084374
  15 N :   -0.047323
  16 N :   -0.026515
  17 C :    0.049170
  18 C :   -0.022812
  19 C :    0.122452
  20 N :   -0.266683
  21 C :    0.101984
  22 C :    0.001401
  23 C :    0.176058
  24 O :   -0.209014
  25 C :   -0.061741
  26 C :   -0.036222
  27 C :    0.154270
  28 O :   -0.173358
  29 N :   -0.265896
  30 C :    0.097232
  31 C :    0.002512
  32 C :    0.109382
  33 C :    0.063128
  34 C :   -0.073377
  35 C :    0.056419
  36 C :    0.031590
  37 C :    0.035829
  38 O :   -0.121704
  39 S :    0.033888
  40 C :    0.036681
  41 O :   -0.113185
  42 C :    0.037294
  43 C :    0.040574
  44 C :   -0.074712
  45 C :   -0.072119
  46 C :    0.239425
  47 O :   -0.087128
  48 O :   -0.225069
  49 C :    0.232715
  50 O :   -0.093704
  51 C :    0.000197
  52 C :    0.042711
  53 C :    0.020542
  54 N :   -0.046376
  55 C :    0.043166
  56 C :   -0.033953
  57 C :    0.215013
  58 O :   -0.115002
  59 C :   -0.045371
  60 C :   -0.000578
  61 N :   -0.054718
  62 C :    0.091495
  63 C :   -0.092141
  64 C :   -0.083190
  65 H :    0.029983
  66 H :    0.017682
  67 H :    0.001720
  68 H :   -0.012785
  69 H :    0.040258
  70 H :    0.044017
  71 H :    0.023698
  72 H :    0.035149
  73 H :    0.024628
  74 H :    0.019980
  75 H :    0.045683
  76 H :    0.033136
  77 H :    0.032757
  78 H :    0.026343
  79 H :    0.010404
  80 H :   -0.016796
  81 H :    0.060721
  82 H :    0.057433
  83 H :   -0.002902
  84 H :    0.012878
  85 H :   -0.002100
  86 H :   -0.004163
Sum of atomic charges:    0.0000000

LOEWDIN ATOMIC CHARGES
----------------------
   0 C :    0.112182
   1 N :   -0.077366
   2 C :    0.048429
   3 C :   -0.050919
   4 C :    0.064500
   5 O :   -0.136619
   6 C :   -0.036505
   7 C :    0.037920
   8 N :   -0.087700
   9 C :    0.085233
  10 C :   -0.025617
  11 C :   -0.062352
  12 C :   -0.158610
  13 S :    0.436743
  14 C :   -0.146469
  15 N :   -0.072631
  16 N :   -0.063790
  17 C :   -0.047356
  18 C :    0.011772
  19 C :    0.066905
  20 N :   -0.000638
  21 C :    0.035580
  22 C :   -0.062641
  23 C :    0.084748
  24 O :   -0.191610
  25 C :   -0.118100
  26 C :   -0.102309
  27 C :    0.082230
  28 O :   -0.177138
  29 N :   -0.000977
  30 C :    0.037147
  31 C :   -0.060762
  32 C :    0.082403
  33 C :   -0.000496
  34 C :    0.009049
  35 C :    0.030392
  36 C :   -0.052566
  37 C :   -0.043765
  38 O :   -0.108066
  39 S :    0.316929
  40 C :   -0.046752
  41 O :   -0.095145
  42 C :   -0.044925
  43 C :    0.021434
  44 C :   -0.039660
  45 C :   -0.038261
  46 C :    0.107252
  47 O :   -0.079917
  48 O :   -0.052026
  49 C :    0.106471
  50 O :   -0.090653
  51 C :    0.033539
  52 C :   -0.007995
  53 C :    0.063550
  54 N :   -0.102214
  55 C :    0.040491
  56 C :   -0.027842
  57 C :    0.063110
  58 O :   -0.128888
  59 C :   -0.039839
  60 C :    0.032180
  61 N :   -0.095964
  62 C :    0.080374
  63 C :   -0.036522
  64 C :   -0.018120
  65 H :    0.035326
  66 H :    0.027096
  67 H :    0.037306
  68 H :    0.030316
  69 H :    0.056568
  70 H :    0.038144
  71 H :    0.021909
  72 H :    0.035753
  73 H :    0.031474
  74 H :    0.021494
  75 H :    0.039385
  76 H :    0.026766
  77 H :    0.033506
  78 H :    0.031822
  79 H :    0.020140
  80 H :    0.029163
  81 H :    0.045332
  82 H :    0.048949
  83 H :    0.032241
  84 H :    0.024799
  85 H :    0.035158
  86 H :    0.036516

  Mayer bond orders larger than 0.100000
B(  0-C ,  1-N ) :   1.7183 B(  0-C , 11-C ) :   1.0302 B(  0-C , 65-H ) :   0.9942
B(  1-N ,  2-C ) :   1.2767 B(  2-C ,  3-C ) :   1.0482 B(  2-C ,  7-C ) :   1.5011
B(  3-C ,  4-C ) :   0.8898 B(  3-C , 11-C ) :   1.6015 B(  4-C ,  5-O ) :   2.2692
B(  4-C ,  6-C ) :   0.9038 B(  6-C ,  7-C ) :   1.0495 B(  6-C , 10-C ) :   1.6422
B(  7-C ,  8-N ) :   1.2819 B(  8-N ,  9-C ) :   1.6894 B(  9-C , 10-C ) :   1.0459
B(  9-C , 66-H ) :   0.9883 B( 10-C , 67-H ) :   1.0092 B( 11-C , 12-C ) :   1.0792
B( 12-C , 13-S ) :   1.1256 B( 12-C , 16-N ) :   1.6973 B( 13-S , 14-C ) :   1.0927
B( 14-C , 15-N ) :   1.6446 B( 14-C , 17-C ) :   1.1107 B( 15-N , 16-N ) :   1.2489
B( 17-C , 18-C ) :   1.6298 B( 17-C , 68-H ) :   0.9485 B( 18-C , 19-C ) :   1.1550
B( 18-C , 69-H ) :   0.9530 B( 19-C , 20-N ) :   1.1613 B( 19-C , 26-C ) :   1.3509
B( 20-N , 21-C ) :   0.9414 B( 20-N , 23-C ) :   1.0630 B( 21-C , 22-C ) :   1.1180
B( 21-C , 70-H ) :   0.9244 B( 21-C , 71-H ) :   0.9504 B( 22-C , 72-H ) :   0.9605
B( 22-C , 73-H ) :   0.9685 B( 22-C , 74-H ) :   0.9677 B( 23-C , 24-O ) :   2.0192
B( 23-C , 25-C ) :   0.9843 B( 24-O , 81-H ) :   0.1089 B( 25-C , 26-C ) :   1.2546
B( 25-C , 32-C ) :   1.3337 B( 26-C , 27-C ) :   0.9686 B( 27-C , 28-O ) :   2.1516
B( 27-C , 29-N ) :   1.0218 B( 29-N , 30-C ) :   0.9427 B( 29-N , 32-C ) :   1.1767
B( 30-C , 31-C ) :   1.1182 B( 30-C , 75-H ) :   0.9284 B( 30-C , 76-H ) :   0.9508
B( 31-C , 77-H ) :   0.9644 B( 31-C , 78-H ) :   0.9682 B( 31-C , 79-H ) :   0.9690
B( 32-C , 33-C ) :   1.1698 B( 33-C , 34-C ) :   1.6711 B( 33-C , 80-H ) :   0.9496
B( 34-C , 35-C ) :   1.0858 B( 34-C , 81-H ) :   0.9116 B( 35-C , 36-C ) :   1.3519
B( 35-C , 45-C ) :   1.3279 B( 36-C , 37-C ) :   0.8398 B( 36-C , 42-C ) :   1.3179
B( 37-C , 38-O ) :   2.1788 B( 37-C , 39-S ) :   1.0349 B( 38-O , 39-S ) :   0.1065
B( 39-S , 40-C ) :   1.0302 B( 39-S , 41-O ) :   0.1066 B( 40-C , 41-O ) :   2.1735
B( 40-C , 42-C ) :   0.8443 B( 42-C , 43-C ) :   1.3714 B( 43-C , 44-C ) :   1.3279
B( 43-C , 51-C ) :   1.0617 B( 44-C , 45-C ) :   1.3720 B( 44-C , 49-C ) :   0.8929
B( 45-C , 46-C ) :   0.9074 B( 46-C , 47-O ) :   2.2500 B( 46-C , 48-O ) :   1.0459
B( 48-O , 49-C ) :   1.0647 B( 49-C , 50-O ) :   2.2565 B( 51-C , 52-C ) :   1.7205
B( 51-C , 82-H ) :   0.9361 B( 52-C , 53-C ) :   1.1254 B( 52-C , 83-H ) :   0.9549
B( 53-C , 54-N ) :   1.5924 B( 53-C , 55-C ) :   0.1064 B( 53-C , 64-C ) :   1.0369
B( 54-N , 55-C ) :   1.3604 B( 55-C , 56-C ) :   1.0263 B( 55-C , 60-C ) :   1.4240
B( 56-C , 57-C ) :   0.8650 B( 56-C , 64-C ) :   1.6285 B( 57-C , 58-O ) :   2.3290
B( 57-C , 59-C ) :   0.8847 B( 59-C , 60-C ) :   1.0355 B( 59-C , 63-C ) :   1.6233
B( 60-C , 61-N ) :   1.3111 B( 61-N , 62-C ) :   1.6613 B( 62-C , 63-C ) :   1.0691
B( 62-C , 84-H ) :   0.9888 B( 63-C , 85-H ) :   1.0103 B( 64-C , 86-H ) :   1.0161

-----------------------------------------------------------------------------
         ABSORPTION SPECTRUM VIA TRANSITION ELECTRIC DIPOLE MOMENTS
-----------------------------------------------------------------------------
State   Energy  Wavelength   fosc         T2         TX        TY        TZ
        (cm-1)    (nm)                  (au**2)     (au)      (au)      (au)
-----------------------------------------------------------------------------
   0   13659.3    732.1   1.025605822  24.71877  -1.85192  -4.60345  -0.31214
   1   15022.9    665.7   0.032436385   0.71081  -0.11788  -0.75287  -0.36070
   2   17004.9    588.1   0.034393909   0.66586  -0.03435   0.54343  -0.60775
   3   19755.1    506.2   0.054305265   0.90498  -0.33319   0.54863  -0.70212
   4   21334.4    468.7   0.002696913   0.04162  -0.13196  -0.10170  -0.11773
   5   22947.8    435.8   0.000326197   0.00468   0.05697  -0.01578  -0.03442
   6   23228.4    430.5   0.036495438   0.51724   0.43932   0.05569   0.56669
   7   23536.1    424.9   0.575291991   8.04691   1.71284   1.99320   1.06781
   8   24528.0    407.7   0.002471760   0.03318   0.01363  -0.17059   0.06237
   9   24554.7    407.3   0.056843575   0.76212  -0.40765  -0.50844   0.58089
  10   24728.0    404.4   0.123314872   1.64173   0.16820   1.23028  -0.31600
  11   25442.2    393.0   0.227731501   2.94675  -0.94673  -1.04192  -0.98227
  12   25609.9    390.5   0.156039619   2.00587   0.81919   0.86831   0.76212
  13   25879.8    386.4   0.057998821   0.73779   0.22252   0.81529  -0.15354
  14   26603.7    375.9   0.029774933   0.36845  -0.38722  -0.46106   0.07705
  15   26891.3    371.9   0.000389630   0.00477   0.02664  -0.04962  -0.03998
  16   27140.7    368.5   0.247157003   2.99797   0.91341   1.16175   0.90221
  17   27253.9    366.9   0.014808385   0.17888   0.04268  -0.29650   0.29857
  18   27337.0    365.8   0.032490555   0.39127  -0.32329  -0.26567  -0.46495
  19   27433.5    364.5   0.184379844   2.21262   0.76172   1.03144   0.75402
  20   28042.4    356.6   0.434583047   5.10192   1.08462   1.92289   0.47752
  21   28570.6    350.0   0.002534709   0.02921  -0.15458   0.02199   0.06949
  22   28831.7    346.8   0.035257437   0.40258  -0.09150  -0.61188   0.14075
  23   29987.3    333.5   0.034100526   0.37437  -0.24125  -0.30706  -0.47105
  24   30567.5    327.1   0.000488165   0.00526  -0.01414   0.06016   0.03793
  25   30653.9    326.2   0.032775493   0.35200   0.43908   0.38763   0.09460
  26   31144.2    321.1   0.005346505   0.05652  -0.18667   0.14691  -0.00922
  27   31326.1    319.2   0.009883990   0.10387  -0.19079  -0.03236   0.25773
  28   31447.5    318.0   0.000023647   0.00025   0.01390  -0.00597   0.00434
  29   31678.2    315.7   0.000313260   0.00326  -0.04631   0.02529   0.02172
  30   31995.5    312.5   0.001962807   0.02020  -0.01817  -0.14009   0.01550
  31   32368.3    308.9   0.004764457   0.04846   0.07983   0.06879  -0.19327
  32   32893.8    304.0   0.307669160   3.07925  -0.44078  -1.62715   0.48717
  33   33316.6    300.2   0.059482348   0.58776   0.40181   0.30714   0.57618
  34   33504.9    298.5   0.006514283   0.06401  -0.07085  -0.15777  -0.18465
  35   33553.4    298.0   0.007568609   0.07426   0.13815   0.23430   0.01669
  36   33760.9    296.2   0.005444335   0.05309   0.19016   0.08190  -0.10110
  37   33907.2    294.9   0.022142172   0.21498   0.26098   0.35363   0.14770
  38   33976.7    294.3   0.024471274   0.23711   0.29323   0.36323   0.13853
  39   34371.0    290.9   0.070767373   0.67782  -0.54797  -0.46884  -0.39716
  40   34704.0    288.2   0.001005272   0.00954   0.02205   0.07067   0.06369
  41   34810.8    287.3   0.003378261   0.03195  -0.00102  -0.11316  -0.13836
  42   34970.1    286.0   0.028388963   0.26726  -0.19423   0.04056  -0.47737
  43   35286.2    283.4   0.016009495   0.14936   0.05061  -0.29120  -0.24901
  44   35666.4    280.4   0.002287495   0.02111  -0.13182  -0.06046   0.00908
  45   35697.7    280.1   0.001763525   0.01626  -0.05958  -0.04479   0.10348
  46   35849.3    278.9   0.028876720   0.26518   0.51293   0.02108  -0.04048
  47   35912.2    278.5   0.010851381   0.09948  -0.29963  -0.00455  -0.09836
  48   36297.1    275.5   0.093600723   0.84895   0.02140   0.77791  -0.49330
  49   36407.7    274.7   0.074766180   0.67606  -0.35750  -0.19704   0.71375
  50   36875.7    271.2   0.002190561   0.01956   0.11397  -0.03222  -0.07435
  51   37061.3    269.8   0.002243632   0.01993   0.07869  -0.02353  -0.11482
  52   37203.0    268.8   0.051541005   0.45609   0.04808  -0.44192  -0.50842
  53   37627.8    265.8   0.014446244   0.12639   0.17599   0.00696  -0.30882
  54   37674.6    265.4   0.014738011   0.12879   0.28669  -0.01688  -0.21520
  55   38250.8    261.4   0.023411451   0.20149  -0.16233  -0.32402  -0.26486
  56   38640.7    258.8   0.102911755   0.87679  -0.40803  -0.73104  -0.41938
  57   38774.7    257.9   0.003585103   0.03044  -0.10140  -0.14155   0.01099
  58   38968.1    256.6   0.000107736   0.00091  -0.02460  -0.01719  -0.00309
  59   39190.7    255.2   0.002374130   0.01994  -0.06895  -0.08868   0.08558
  60   39380.5    253.9   0.001972857   0.01649  -0.04579   0.08578   0.08390
  61   39415.1    253.7   0.013753715   0.11488  -0.10542  -0.27399  -0.16939
  62   39434.6    253.6   0.003192326   0.02665  -0.14229  -0.07284   0.03316
  63   39585.4    252.6   0.016968510   0.14112   0.31913   0.19679   0.02350
  64   39626.1    252.4   0.014470118   0.12022   0.12762   0.26417   0.18478
  65   39688.1    252.0   0.000040810   0.00034   0.00321   0.01468   0.01062
  66   39798.3    251.3   0.076272432   0.63093  -0.01967  -0.60699  -0.51196
  67   40065.2    249.6   0.019198093   0.15775   0.04560   0.32902   0.21776
  68   40149.3    249.1   0.032057276   0.26286  -0.09546   0.23132   0.44748

FINAL SINGLE POINT ENERGY     -3673.639904718391

DIPOLE MOMENT
-------------
                                X             Y             Z
Electronic contribution:     12.41664       5.27101       3.51975
Nuclear contribution   :    -12.38107      -5.87802      -3.00877
                        -----------------------------------------
Total Dipole Moment    :      0.03556      -0.60701       0.51098
                        -----------------------------------------
Magnitude (a.u.)       :      0.79424
Magnitude (Debye)      :      2.01881

Rotational constants in cm-1:     0.003247     0.000256     0.000243
Rotational constants in MHz :    97.344645     7.666437     7.297302

                             ****ORCA TERMINATED NORMALLY****
TOTAL RUN TIME: 0 days 0 hours 8 minutes 8 seconds 802 msec
