                         Program Version 4.2.0 -  RELEASE  -
|  1> # ORCA input file
|  2> # SCF done       -192.681190327289          0.000946387596
|  3> ! CAM-B3LYP def2-SVP def2/J RIJCOSX Grid4 TightSCF
|  4> %maxcore 5000
|  5> %tddft
|  6>     Mode sTDDFT
|  7>     Ethresh 5.0
|  8>     maxcore 5000
|  9> end
| 10>
| 11> %pal
| 12>   nprocs 6
| 13>   end
| 14> * xyz 0 1
| 15>    C        0.90625        -0.90407        -1.41607
| 16>    O       -0.24698        -1.24862        -1.43290
| 17>    C        1.41411         0.46879        -1.64372
| 18>    C        2.80052         0.51481        -1.41922
| 19>    C        3.47768         1.71615        -1.56354
| 20>    C        2.75849         2.84570        -1.93460
| 21>    C        1.37990         2.78849        -2.15742
| 22>    C        0.69614         1.58945        -2.00655
| 23>   Br        0.43072         4.34008        -2.66420
| 24>   Br        3.68153         4.48276        -2.13285
| 25>    C        3.26946        -0.82035        -1.05938
| 26>    C        4.57450        -1.17026        -0.84051
| 27>    C        5.65558        -0.26222        -0.88890
| 28>    N        6.57271         0.42658        -0.90938
| 29>    C        5.03779        -2.47297        -0.55250
| 30>    N        5.49514        -3.50089        -0.32577
| 31>    C        2.11456        -1.70452        -1.05303
| 32>    C        2.11009        -3.00580        -0.65871
| 33>    C        1.03895        -3.92344        -0.80175
| 34>    S        1.00971        -5.42400         0.13955
| 35>    C       -0.45039        -5.80059        -0.76027
| 36>    N       -0.75374        -4.86557        -1.62860
| 37>    N        0.04871        -3.85969        -1.64567
| 38>    C       -1.18107        -7.00024        -0.55726
| 39>    C       -2.31380        -7.25518        -1.26146
| 40>    C       -3.16342        -8.38920        -1.24750
| 41>    N       -3.07008        -9.57052        -0.54307
| 42>    C       -2.12436        -9.93846         0.48332
| 43>    C       -2.43905        -9.25662         1.81288
| 44>    C       -4.11618       -10.45489        -0.86860
| 45>    O       -4.22458       -11.56859        -0.39336
| 46>    C       -4.91025        -9.74213        -1.84332
| 47>    C       -4.29616        -8.48910        -2.05536
| 48>    C       -5.07913        -7.75782        -3.03169
| 49>    O       -4.95140        -6.66387        -3.52886
| 50>    N       -6.14199        -8.63732        -3.33847
| 51>    C       -7.15791        -8.26989        -4.29385
| 52>    C       -6.93198        -8.93509        -5.64966
| 53>    C       -6.05254        -9.81628        -2.64416
| 54>    C       -7.00212       -10.86293        -2.74704
| 55>    C       -6.86880       -12.02708        -2.06216
| 56>    C       -7.78871       -13.10988        -2.07175
| 57>    S       -7.16133       -14.68545        -1.69444
| 58>    C       -8.70933       -15.43011        -1.97150
| 59>    C       -9.65780       -14.47743        -2.31886
| 60>    C       -9.15221       -13.16951        -2.33806
| 61>    C      -10.06645       -11.98467        -2.51266
| 62>    C       -9.67458       -10.86470        -1.68220
| 63>    N       -9.43398        -9.96351        -1.02298
| 64>    C      -11.50243       -12.38164        -2.12891
| 65>    C      -11.93236       -13.58398        -2.95505
| 66>    C      -11.10410       -14.82012        -2.56440
| 67>    C      -11.20921       -15.79163        -3.63378
| 68>    N      -11.30275       -16.50954        -4.51759
| 69>    C       -8.88325       -16.83800        -1.88869
| 70>    C       -8.19413       -17.70907        -1.10710
| 71>    C       -8.15709       -19.15995        -1.44294
| 72>    O       -8.86971       -19.74890        -2.21663
| 73>    C       -7.02253       -19.69591        -0.65624
| 74>    C       -6.51850       -18.69303         0.19404
| 75>    C       -7.33871       -17.49497         0.04357
| 76>    C       -7.48435       -16.50142         0.97441
| 77>    C       -8.52261       -15.54965         0.89840
| 78>    N       -9.40216       -14.81278         0.86565
| 79>    C       -6.69634       -16.39785         2.13940
| 80>    N       -6.06901       -16.28051         3.09211
| 81>    C       -5.43235       -18.95842         1.00979
| 82>    C       -4.86692       -20.22793         0.96808
| 83>    C       -5.38148       -21.22334         0.13294
| 84>    C       -6.46925       -20.95905        -0.68995
| 85>   Br       -4.60164       -22.94362         0.10856
| 86>   Br       -3.37354       -20.59307         2.06564
| 87>    H        4.53883         1.80214        -1.39535
| 88>    H       -0.36842         1.52936        -2.17192
| 89>    H        2.99580        -3.41985        -0.19486
| 90>    H       -0.77518        -7.67500         0.17824
| 91>    H       -2.63488        -6.49204        -1.96049
| 92>    H       -1.10904        -9.71871         0.14510
| 93>    H       -2.22228       -11.02195         0.60152
| 94>    H       -2.45347        -8.17405         1.70878
| 95>    H       -1.69267        -9.53004         2.55358
| 96>    H       -3.41431        -9.57895         2.16908
| 97>    H       -7.08709        -7.18432        -4.40492
| 98>    H       -8.14379        -8.51718        -3.88929
| 99>    H       -5.96872        -8.63342        -6.05318
|100>    H       -7.70900        -8.62860        -6.34439
|101>    H       -6.94418       -10.01979        -5.56401
|102>    H       -7.84077       -10.70221        -3.40621
|103>    H       -5.96848       -12.18526        -1.48090
|104>    H      -10.05517       -11.65247        -3.56145
|105>    H      -12.17297       -11.53976        -2.30866
|106>    H      -11.53569       -12.62580        -1.06471
|107>    H      -11.79169       -13.36932        -4.01822
|108>    H      -12.99028       -13.79602        -2.79582
|109>    H      -11.51208       -15.26892        -1.64901
|110>    H       -9.58815       -17.28444        -2.58383
|111>    H       -5.01071       -18.20956         1.66124
|112>    H       -6.87257       -21.72089        -1.33885
|113> *
|114>
|115>                          ****END OF INPUT****

CARTESIAN COORDINATES (ANGSTROEM)
---------------------------------
  C      0.906250   -0.904070   -1.416070
  O     -0.246980   -1.248620   -1.432900
  C      1.414110    0.468790   -1.643720
  C      2.800520    0.514810   -1.419220
  C      3.477680    1.716150   -1.563540
  C      2.758490    2.845700   -1.934600
  C      1.379900    2.788490   -2.157420
  C      0.696140    1.589450   -2.006550
  Br     0.430720    4.340080   -2.664200
  Br     3.681530    4.482760   -2.132850
  C      3.269460   -0.820350   -1.059380
  C      4.574500   -1.170260   -0.840510
  C      5.655580   -0.262220   -0.888900
  N      6.572710    0.426580   -0.909380
  C      5.037790   -2.472970   -0.552500
  N      5.495140   -3.500890   -0.325770
  C      2.114560   -1.704520   -1.053030
  C      2.110090   -3.005800   -0.658710
  C      1.038950   -3.923440   -0.801750
  S      1.009710   -5.424000    0.139550
  C     -0.450390   -5.800590   -0.760270
  N     -0.753740   -4.865570   -1.628600
  N      0.048710   -3.859690   -1.645670
  C     -1.181070   -7.000240   -0.557260
  C     -2.313800   -7.255180   -1.261460
  C     -3.163420   -8.389200   -1.247500
  N     -3.070080   -9.570520   -0.543070
  C     -2.124360   -9.938460    0.483320
  C     -2.439050   -9.256620    1.812880
  C     -4.116180  -10.454890   -0.868600
  O     -4.224580  -11.568590   -0.393360
  C     -4.910250   -9.742130   -1.843320
  C     -4.296160   -8.489100   -2.055360
  C     -5.079130   -7.757820   -3.031690
  O     -4.951400   -6.663870   -3.528860
  N     -6.141990   -8.637320   -3.338470
  C     -7.157910   -8.269890   -4.293850
  C     -6.931980   -8.935090   -5.649660
  C     -6.052540   -9.816280   -2.644160
  C     -7.002120  -10.862930   -2.747040
  C     -6.868800  -12.027080   -2.062160
  C     -7.788710  -13.109880   -2.071750
  S     -7.161330  -14.685450   -1.694440
  C     -8.709330  -15.430110   -1.971500
  C     -9.657800  -14.477430   -2.318860
  C     -9.152210  -13.169510   -2.338060
  C    -10.066450  -11.984670   -2.512660
  C     -9.674580  -10.864700   -1.682200
  N     -9.433980   -9.963510   -1.022980
  C    -11.502430  -12.381640   -2.128910
  C    -11.932360  -13.583980   -2.955050
  C    -11.104100  -14.820120   -2.564400
  C    -11.209210  -15.791630   -3.633780
  N    -11.302750  -16.509540   -4.517590
  C     -8.883250  -16.838000   -1.888690
  C     -8.194130  -17.709070   -1.107100
  C     -8.157090  -19.159950   -1.442940
  O     -8.869710  -19.748900   -2.216630
  C     -7.022530  -19.695910   -0.656240
  C     -6.518500  -18.693030    0.194040
  C     -7.338710  -17.494970    0.043570
  C     -7.484350  -16.501420    0.974410
  C     -8.522610  -15.549650    0.898400
  N     -9.402160  -14.812780    0.865650
  C     -6.696340  -16.397850    2.139400
  N     -6.069010  -16.280510    3.092110
  C     -5.432350  -18.958420    1.009790
  C     -4.866920  -20.227930    0.968080
  C     -5.381480  -21.223340    0.132940
  C     -6.469250  -20.959050   -0.689950
  Br    -4.601640  -22.943620    0.108560
  Br    -3.373540  -20.593070    2.065640
  H      4.538830    1.802140   -1.395350
  H     -0.368420    1.529360   -2.171920
  H      2.995800   -3.419850   -0.194860
  H     -0.775180   -7.675000    0.178240
  H     -2.634880   -6.492040   -1.960490
  H     -1.109040   -9.718710    0.145100
  H     -2.222280  -11.021950    0.601520
  H     -2.453470   -8.174050    1.708780
  H     -1.692670   -9.530040    2.553580
  H     -3.414310   -9.578950    2.169080
  H     -7.087090   -7.184320   -4.404920
  H     -8.143790   -8.517180   -3.889290
  H     -5.968720   -8.633420   -6.053180
  H     -7.709000   -8.628600   -6.344390
  H     -6.944180  -10.019790   -5.564010
  H     -7.840770  -10.702210   -3.406210
  H     -5.968480  -12.185260   -1.480900
  H    -10.055170  -11.652470   -3.561450
  H    -12.172970  -11.539760   -2.308660
  H    -11.535690  -12.625800   -1.064710
  H    -11.791690  -13.369320   -4.018220
  H    -12.990280  -13.796020   -2.795820
  H    -11.512080  -15.268920   -1.649010
  H     -9.588150  -17.284440   -2.583830
  H     -5.010710  -18.209560    1.661240
  H     -6.872570  -21.720890   -1.338850

 Total Charge           Charge          ....    0
 Multiplicity           Mult            ....    1
 Number of Electrons    NEL             ....  612
 Basis Dimension        Dim             .... 1218

ORBITAL ENERGIES
----------------

  NO   OCC          E(Eh)            E(eV)
   0   2.0000    -482.882681    -13139.9058
   1   2.0000    -482.882114    -13139.8903
   2   2.0000    -482.878596    -13139.7946
   3   2.0000    -482.877084    -13139.7535
   4   2.0000     -88.989060     -2421.5154
   5   2.0000     -88.984895     -2421.4021
   6   2.0000     -62.560329     -1702.3531
   7   2.0000     -62.559730     -1702.3368
   8   2.0000     -62.556213     -1702.2411
   9   2.0000     -62.554699     -1702.1999
  10   2.0000     -56.394286     -1534.5665
  11   2.0000     -56.393700     -1534.5506
  12   2.0000     -56.391620     -1534.4940
  13   2.0000     -56.391521     -1534.4913
  14   2.0000     -56.391018     -1534.4776
  15   2.0000     -56.390923     -1534.4750
  16   2.0000     -56.390162     -1534.4543
  17   2.0000     -56.388664     -1534.4136
  18   2.0000     -56.387515     -1534.3823
  19   2.0000     -56.387408     -1534.3794
  20   2.0000     -56.385990     -1534.3408
  21   2.0000     -56.385893     -1534.3382
  22   2.0000     -19.231745      -523.3224
  23   2.0000     -19.221891      -523.0542
  24   2.0000     -19.202649      -522.5306
  25   2.0000     -19.199412      -522.4426
  26   2.0000     -14.463713      -393.5777
  27   2.0000     -14.461669      -393.5220
  28   2.0000     -14.452726      -393.2787
  29   2.0000     -14.446855      -393.1189
  30   2.0000     -14.432079      -392.7168
  31   2.0000     -14.428957      -392.6319
  32   2.0000     -14.428361      -392.6157
  33   2.0000     -14.425136      -392.5279
  34   2.0000     -14.421056      -392.4169
  35   2.0000     -14.418693      -392.3526
  36   2.0000     -10.385314      -282.5988
  37   2.0000     -10.383063      -282.5375
  38   2.0000     -10.382392      -282.5193
  39   2.0000     -10.374851      -282.3140
  40   2.0000     -10.361854      -281.9604
  41   2.0000     -10.361461      -281.9497
  42   2.0000     -10.360898      -281.9344
  43   2.0000     -10.358295      -281.8636
  44   2.0000     -10.357243      -281.8349
  45   2.0000     -10.357163      -281.8327
  46   2.0000     -10.356389      -281.8117
  47   2.0000     -10.355865      -281.7974
  48   2.0000     -10.355843      -281.7968
  49   2.0000     -10.354026      -281.7474
  50   2.0000     -10.351927      -281.6903
  51   2.0000     -10.348864      -281.6069
  52   2.0000     -10.347033      -281.5571
  53   2.0000     -10.345151      -281.5059
  54   2.0000     -10.339834      -281.3612
  55   2.0000     -10.336383      -281.2673
  56   2.0000     -10.335123      -281.2330
  57   2.0000     -10.333902      -281.1998
  58   2.0000     -10.333461      -281.1878
  59   2.0000     -10.330250      -281.1004
  60   2.0000     -10.330207      -281.0992
  61   2.0000     -10.327673      -281.0303
  62   2.0000     -10.327324      -281.0208
  63   2.0000     -10.327017      -281.0124
  64   2.0000     -10.323144      -280.9070
  65   2.0000     -10.321318      -280.8574
  66   2.0000     -10.320934      -280.8469
  67   2.0000     -10.320067      -280.8233
  68   2.0000     -10.319664      -280.8123
  69   2.0000     -10.319214      -280.8001
  70   2.0000     -10.316914      -280.7375
  71   2.0000     -10.316664      -280.7307
  72   2.0000     -10.316140      -280.7165
  73   2.0000     -10.314366      -280.6682
  74   2.0000     -10.314210      -280.6639
  75   2.0000     -10.313393      -280.6417
  76   2.0000     -10.313018      -280.6315
  77   2.0000     -10.313015      -280.6314
  78   2.0000     -10.311701      -280.5957
  79   2.0000     -10.311517      -280.5906
  80   2.0000     -10.309988      -280.5490
  81   2.0000     -10.308665      -280.5130
  82   2.0000     -10.307647      -280.4853
  83   2.0000     -10.305876      -280.4371
  84   2.0000     -10.276242      -279.6307
  85   2.0000     -10.273487      -279.5558
  86   2.0000     -10.271771      -279.5091
  87   2.0000     -10.269025      -279.4344
  88   2.0000      -8.789684      -239.1795
  89   2.0000      -8.789053      -239.1623
  90   2.0000      -8.785540      -239.0667
  91   2.0000      -8.784026      -239.0255
  92   2.0000      -8.083975      -219.9761
  93   2.0000      -8.081123      -219.8985
  94   2.0000      -6.625857      -180.2987
  95   2.0000      -6.625255      -180.2824
  96   2.0000      -6.621678      -180.1850
  97   2.0000      -6.620213      -180.1452
  98   2.0000      -6.611797      -179.9161
  99   2.0000      -6.611150      -179.8985
 100   2.0000      -6.610989      -179.8942
 101   2.0000      -6.610337      -179.8764
 102   2.0000      -6.607692      -179.8044
 103   2.0000      -6.606842      -179.7813
 104   2.0000      -6.606120      -179.7617
 105   2.0000      -6.605333      -179.7403
 106   2.0000      -6.053194      -164.7158
 107   2.0000      -6.049640      -164.6191
 108   2.0000      -6.049086      -164.6040
 109   2.0000      -6.046473      -164.5329
 110   2.0000      -6.046185      -164.5251
 111   2.0000      -6.043607      -164.4549
 112   2.0000      -2.741699       -74.6054
 113   2.0000      -2.741131       -74.5900
 114   2.0000      -2.738001       -74.5048
 115   2.0000      -2.737580       -74.4934
 116   2.0000      -2.737388       -74.4881
 117   2.0000      -2.737342       -74.4869
 118   2.0000      -2.736767       -74.4712
 119   2.0000      -2.736080       -74.4525
 120   2.0000      -2.733833       -74.3914
 121   2.0000      -2.733196       -74.3740
 122   2.0000      -2.732295       -74.3495
 123   2.0000      -2.731758       -74.3349
 124   2.0000      -2.726184       -74.1832
 125   2.0000      -2.726159       -74.1826
 126   2.0000      -2.725519       -74.1651
 127   2.0000      -2.725498       -74.1646
 128   2.0000      -2.722068       -74.0712
 129   2.0000      -2.722041       -74.0705
 130   2.0000      -2.720508       -74.0288
 131   2.0000      -2.720488       -74.0282
 132   2.0000      -1.158290       -31.5187
 133   2.0000      -1.147827       -31.2340
 134   2.0000      -1.144214       -31.1356
 135   2.0000      -1.139168       -30.9983
 136   2.0000      -1.136742       -30.9323
 137   2.0000      -1.074591       -29.2411
 138   2.0000      -1.063815       -28.9479
 139   2.0000      -1.040943       -28.3255
 140   2.0000      -1.032804       -28.1040
 141   2.0000      -1.031524       -28.0692
 142   2.0000      -1.018820       -27.7235
 143   2.0000      -1.014700       -27.6114
 144   2.0000      -1.010627       -27.5006
 145   2.0000      -1.009143       -27.4602
 146   2.0000      -1.005066       -27.3492
 147   2.0000      -1.004867       -27.3438
 148   2.0000      -0.987708       -26.8769
 149   2.0000      -0.983660       -26.7668
 150   2.0000      -0.964706       -26.2510
 151   2.0000      -0.958164       -26.0730
 152   2.0000      -0.945196       -25.7201
 153   2.0000      -0.940397       -25.5895
 154   2.0000      -0.937599       -25.5134
 155   2.0000      -0.930271       -25.3140
 156   2.0000      -0.925146       -25.1745
 157   2.0000      -0.920026       -25.0352
 158   2.0000      -0.914732       -24.8911
 159   2.0000      -0.913955       -24.8700
 160   2.0000      -0.910296       -24.7704
 161   2.0000      -0.899635       -24.4803
 162   2.0000      -0.890534       -24.2327
 163   2.0000      -0.879288       -23.9266
 164   2.0000      -0.875547       -23.8248
 165   2.0000      -0.867791       -23.6138
 166   2.0000      -0.861230       -23.4353
 167   2.0000      -0.856620       -23.3098
 168   2.0000      -0.852660       -23.2021
 169   2.0000      -0.840484       -22.8707
 170   2.0000      -0.829433       -22.5700
 171   2.0000      -0.815435       -22.1891
 172   2.0000      -0.804255       -21.8849
 173   2.0000      -0.794392       -21.6165
 174   2.0000      -0.789797       -21.4915
 175   2.0000      -0.780663       -21.2429
 176   2.0000      -0.771677       -20.9984
 177   2.0000      -0.769312       -20.9341
 178   2.0000      -0.767212       -20.8769
 179   2.0000      -0.739161       -20.1136
 180   2.0000      -0.733230       -19.9522
 181   2.0000      -0.729851       -19.8603
 182   2.0000      -0.726584       -19.7714
 183   2.0000      -0.717158       -19.5149
 184   2.0000      -0.710783       -19.3414
 185   2.0000      -0.706312       -19.2197
 186   2.0000      -0.701390       -19.0858
 187   2.0000      -0.698934       -19.0190
 188   2.0000      -0.698597       -19.0098
 189   2.0000      -0.687810       -18.7163
 190   2.0000      -0.681899       -18.5554
 191   2.0000      -0.679609       -18.4931
 192   2.0000      -0.662507       -18.0277
 193   2.0000      -0.658401       -17.9160
 194   2.0000      -0.653250       -17.7758
 195   2.0000      -0.641299       -17.4506
 196   2.0000      -0.635451       -17.2915
 197   2.0000      -0.633690       -17.2436
 198   2.0000      -0.623952       -16.9786
 199   2.0000      -0.621910       -16.9230
 200   2.0000      -0.614759       -16.7284
 201   2.0000      -0.607326       -16.5262
 202   2.0000      -0.602828       -16.4038
 203   2.0000      -0.601665       -16.3721
 204   2.0000      -0.598670       -16.2906
 205   2.0000      -0.591505       -16.0957
 206   2.0000      -0.590348       -16.0642
 207   2.0000      -0.583077       -15.8663
 208   2.0000      -0.580415       -15.7939
 209   2.0000      -0.575040       -15.6476
 210   2.0000      -0.574282       -15.6270
 211   2.0000      -0.562038       -15.2938
 212   2.0000      -0.561243       -15.2722
 213   2.0000      -0.559489       -15.2245
 214   2.0000      -0.556738       -15.1496
 215   2.0000      -0.554555       -15.0902
 216   2.0000      -0.553933       -15.0733
 217   2.0000      -0.552374       -15.0309
 218   2.0000      -0.548848       -14.9349
 219   2.0000      -0.545404       -14.8412
 220   2.0000      -0.542077       -14.7507
 221   2.0000      -0.540694       -14.7130
 222   2.0000      -0.538519       -14.6538
 223   2.0000      -0.537956       -14.6385
 224   2.0000      -0.536279       -14.5929
 225   2.0000      -0.531610       -14.4658
 226   2.0000      -0.527248       -14.3472
 227   2.0000      -0.524848       -14.2818
 228   2.0000      -0.524106       -14.2617
 229   2.0000      -0.521939       -14.2027
 230   2.0000      -0.517658       -14.0862
 231   2.0000      -0.516651       -14.0588
 232   2.0000      -0.515277       -14.0214
 233   2.0000      -0.511902       -13.9296
 234   2.0000      -0.510857       -13.9011
 235   2.0000      -0.507211       -13.8019
 236   2.0000      -0.503583       -13.7032
 237   2.0000      -0.498443       -13.5633
 238   2.0000      -0.496661       -13.5148
 239   2.0000      -0.495440       -13.4816
 240   2.0000      -0.491466       -13.3735
 241   2.0000      -0.485874       -13.2213
 242   2.0000      -0.482275       -13.1234
 243   2.0000      -0.477402       -12.9908
 244   2.0000      -0.476254       -12.9595
 245   2.0000      -0.475468       -12.9381
 246   2.0000      -0.470979       -12.8160
 247   2.0000      -0.469124       -12.7655
 248   2.0000      -0.468102       -12.7377
 249   2.0000      -0.466082       -12.6827
 250   2.0000      -0.465844       -12.6763
 251   2.0000      -0.464864       -12.6496
 252   2.0000      -0.463982       -12.6256
 253   2.0000      -0.463102       -12.6017
 254   2.0000      -0.459051       -12.4914
 255   2.0000      -0.458874       -12.4866
 256   2.0000      -0.458463       -12.4754
 257   2.0000      -0.455986       -12.4080
 258   2.0000      -0.454022       -12.3546
 259   2.0000      -0.452970       -12.3259
 260   2.0000      -0.451326       -12.2812
 261   2.0000      -0.450209       -12.2508
 262   2.0000      -0.448216       -12.1966
 263   2.0000      -0.444422       -12.0933
 264   2.0000      -0.442746       -12.0477
 265   2.0000      -0.439099       -11.9485
 266   2.0000      -0.438208       -11.9243
 267   2.0000      -0.437563       -11.9067
 268   2.0000      -0.437081       -11.8936
 269   2.0000      -0.435021       -11.8375
 270   2.0000      -0.432993       -11.7823
 271   2.0000      -0.430722       -11.7205
 272   2.0000      -0.427983       -11.6460
 273   2.0000      -0.421459       -11.4685
 274   2.0000      -0.420249       -11.4356
 275   2.0000      -0.419542       -11.4163
 276   2.0000      -0.418954       -11.4003
 277   2.0000      -0.414738       -11.2856
 278   2.0000      -0.413193       -11.2435
 279   2.0000      -0.407275       -11.0825
 280   2.0000      -0.403822       -10.9885
 281   2.0000      -0.402991       -10.9659
 282   2.0000      -0.400784       -10.9059
 283   2.0000      -0.396769       -10.7966
 284   2.0000      -0.396276       -10.7832
 285   2.0000      -0.391527       -10.6540
 286   2.0000      -0.381664       -10.3856
 287   2.0000      -0.380363       -10.3502
 288   2.0000      -0.362157        -9.8548
 289   2.0000      -0.358086        -9.7440
 290   2.0000      -0.354568        -9.6483
 291   2.0000      -0.353312        -9.6141
 292   2.0000      -0.350381        -9.5344
 293   2.0000      -0.349971        -9.5232
 294   2.0000      -0.347924        -9.4675
 295   2.0000      -0.344972        -9.3872
 296   2.0000      -0.341680        -9.2976
 297   2.0000      -0.339649        -9.2423
 298   2.0000      -0.337701        -9.1893
 299   2.0000      -0.326047        -8.8722
 300   2.0000      -0.322631        -8.7792
 301   2.0000      -0.319333        -8.6895
 302   2.0000      -0.316750        -8.6192
 303   2.0000      -0.306681        -8.3452
 304   2.0000      -0.300949        -8.1892
 305   2.0000      -0.247536        -6.7358
 306   0.0000      -0.121355        -3.3022
 307   0.0000      -0.106263        -2.8916
 308   0.0000      -0.087292        -2.3753
 309   0.0000      -0.074908        -2.0384
 310   0.0000      -0.067528        -1.8375

MULLIKEN ATOMIC CHARGES
-----------------------
   0 C :    0.148371
   1 O :   -0.090083
   2 C :   -0.024374
   3 C :    0.040923
   4 C :   -0.009584
   5 C :   -0.024789
   6 C :   -0.013753
   7 C :   -0.018196
   8 Br:    0.019059
   9 Br:    0.023766
  10 C :    0.302125
  11 C :   -0.335476
  12 C :   -0.188172
  13 N :    0.166367
  14 C :   -0.192584
  15 N :    0.163797
  16 C :   -0.070868
  17 C :    0.050345
  18 C :   -0.135790
  19 S :    0.114925
  20 C :   -0.091801
  21 N :   -0.045350
  22 N :    0.019884
  23 C :    0.053649
  24 C :   -0.019949
  25 C :    0.119950
  26 N :   -0.267903
  27 C :    0.097900
  28 C :   -0.001329
  29 C :    0.167782
  30 O :   -0.213590
  31 C :   -0.065640
  32 C :   -0.031431
  33 C :    0.157686
  34 O :   -0.165968
  35 N :   -0.268312
  36 C :    0.096078
  37 C :    0.000007
  38 C :    0.138449
  39 C :    0.000133
  40 C :    0.054777
  41 C :   -0.120172
  42 S :    0.201826
  43 C :   -0.198292
  44 C :    0.062593
  45 C :   -0.024959
  46 C :    0.036976
  47 C :   -0.303141
  48 N :    0.142736
  49 C :    0.047316
  50 C :    0.090499
  51 C :    0.051744
  52 C :   -0.292681
  53 N :    0.123638
  54 C :    0.026924
  55 C :   -0.127093
  56 C :    0.147650
  57 O :   -0.120394
  58 C :   -0.003654
  59 C :    0.025819
  60 C :    0.233327
  61 C :   -0.304367
  62 C :   -0.176084
  63 N :    0.157201
  64 C :   -0.175126
  65 N :    0.168407
  66 C :   -0.008273
  67 C :   -0.023804
  68 C :   -0.016911
  69 C :   -0.019149
  70 Br:    0.020548
  71 Br:    0.026319
  72 H :    0.007569
  73 H :    0.010685
  74 H :    0.023701
  75 H :   -0.014422
  76 H :    0.044322
  77 H :    0.023970
  78 H :    0.047491
  79 H :    0.022474
  80 H :    0.024987
  81 H :    0.032574
  82 H :    0.050021
  83 H :    0.028089
  84 H :    0.033114
  85 H :    0.026374
  86 H :    0.012955
  87 H :   -0.024395
  88 H :    0.021960
  89 H :    0.055502
  90 H :    0.034999
  91 H :    0.042355
  92 H :    0.019670
  93 H :    0.035950
  94 H :    0.063700
  95 H :    0.041552
  96 H :    0.013339
  97 H :    0.011008
Sum of atomic charges:    0.0000000

LOEWDIN ATOMIC CHARGES
----------------------
   0 C :    0.076744
   1 O :   -0.094952
   2 C :   -0.038940
   3 C :   -0.015105
   4 C :   -0.006836
   5 C :   -0.119115
   6 C :   -0.120398
   7 C :    0.007924
   8 Br:    0.141907
   9 Br:    0.142701
  10 C :    0.072085
  11 C :   -0.126325
  12 C :   -0.019546
  13 N :   -0.038626
  14 C :   -0.021908
  15 N :   -0.040958
  16 C :   -0.063706
  17 C :    0.034150
  18 C :   -0.165474
  19 S :    0.400184
  20 C :   -0.131538
  21 N :   -0.068216
  22 N :   -0.017312
  23 C :   -0.057964
  24 C :    0.021315
  25 C :    0.057617
  26 N :   -0.001294
  27 C :    0.035121
  28 C :   -0.062879
  29 C :    0.081721
  30 O :   -0.201567
  31 C :   -0.123435
  32 C :   -0.092140
  33 C :    0.084624
  34 O :   -0.169977
  35 N :   -0.000877
  36 C :    0.036434
  37 C :   -0.061959
  38 C :    0.093566
  39 C :   -0.024015
  40 C :    0.008327
  41 C :   -0.145387
  42 S :    0.503169
  43 C :   -0.177998
  44 C :   -0.015889
  45 C :   -0.046388
  46 C :   -0.044725
  47 C :   -0.033226
  48 N :   -0.054303
  49 C :   -0.005225
  50 C :   -0.007008
  51 C :   -0.040123
  52 C :   -0.034832
  53 N :   -0.052836
  54 C :    0.045571
  55 C :   -0.085635
  56 C :    0.083959
  57 O :   -0.121650
  58 C :   -0.043787
  59 C :   -0.009679
  60 C :    0.059126
  61 C :   -0.129950
  62 C :   -0.020896
  63 N :   -0.052122
  64 C :   -0.021848
  65 N :   -0.034530
  66 C :   -0.007563
  67 C :   -0.117098
  68 C :   -0.122446
  69 C :    0.009100
  70 Br:    0.142263
  71 Br:    0.146012
  72 H :    0.044501
  73 H :    0.047968
  74 H :    0.046374
  75 H :    0.030027
  76 H :    0.057620
  77 H :    0.020715
  78 H :    0.038846
  79 H :    0.022278
  80 H :    0.031639
  81 H :    0.034807
  82 H :    0.040887
  83 H :    0.024690
  84 H :    0.034123
  85 H :    0.031710
  86 H :    0.020013
  87 H :    0.028156
  88 H :    0.040187
  89 H :    0.056971
  90 H :    0.039532
  91 H :    0.042774
  92 H :    0.034397
  93 H :    0.041541
  94 H :    0.067604
  95 H :    0.055340
  96 H :    0.045757
  97 H :    0.048130

  Mayer bond orders larger than 0.100000
B(  0-C ,  1-O ) :   2.2950 B(  0-C ,  2-C ) :   0.9314 B(  0-C , 16-C ) :   0.9116
B(  2-C ,  3-C ) :   1.3283 B(  2-C ,  7-C ) :   1.3757 B(  3-C ,  4-C ) :   1.3551
B(  3-C , 10-C ) :   0.9982 B(  4-C ,  5-C ) :   1.3806 B(  4-C , 72-H ) :   0.9787
B(  5-C ,  6-C ) :   1.4133 B(  5-C ,  9-Br) :   1.0589 B(  6-C ,  7-C ) :   1.3538
B(  6-C ,  8-Br) :   1.0378 B(  7-C , 73-H ) :   1.0075 B( 10-C , 11-C ) :   1.6507
B( 10-C , 16-C ) :   1.0671 B( 11-C , 12-C ) :   1.1395 B( 11-C , 14-C ) :   1.1406
B( 12-C , 13-N ) :   2.9735 B( 14-C , 15-N ) :   2.9758 B( 16-C , 17-C ) :   1.6783
B( 17-C , 18-C ) :   1.1336 B( 17-C , 74-H ) :   0.9192 B( 18-C , 19-S ) :   1.0698
B( 18-C , 22-N ) :   1.6277 B( 19-S , 20-C ) :   1.1264 B( 19-S , 22-N ) :   0.1088
B( 20-C , 21-N ) :   1.6087 B( 20-C , 23-C ) :   1.1215 B( 21-N , 22-N ) :   1.2835
B( 23-C , 24-C ) :   1.6101 B( 23-C , 75-H ) :   0.9509 B( 24-C , 25-C ) :   1.1616
B( 24-C , 76-H ) :   0.9507 B( 25-C , 26-N ) :   1.1513 B( 25-C , 32-C ) :   1.3575
B( 26-N , 27-C ) :   0.9427 B( 26-N , 29-C ) :   1.0704 B( 27-C , 28-C ) :   1.1170
B( 27-C , 77-H ) :   0.9505 B( 27-C , 78-H ) :   0.9243 B( 28-C , 79-H ) :   0.9682
B( 28-C , 80-H ) :   0.9682 B( 28-C , 81-H ) :   0.9612 B( 29-C , 30-O ) :   2.0135
B( 29-C , 31-C ) :   0.9901 B( 30-O , 88-H ) :   0.1180 B( 31-C , 32-C ) :   1.2613
B( 31-C , 38-C ) :   1.3135 B( 32-C , 33-C ) :   0.9619 B( 33-C , 34-O ) :   2.1575
B( 33-C , 35-N ) :   1.0219 B( 35-N , 36-C ) :   0.9425 B( 35-N , 38-C ) :   1.1788
B( 36-C , 37-C ) :   1.1178 B( 36-C , 82-H ) :   0.9273 B( 36-C , 83-H ) :   0.9494
B( 37-C , 84-H ) :   0.9631 B( 37-C , 85-H ) :   0.9681 B( 37-C , 86-H ) :   0.9690
B( 38-C , 39-C ) :   1.1920 B( 39-C , 40-C ) :   1.6219 B( 39-C , 87-H ) :   0.9414
B( 40-C , 41-C ) :   1.1189 B( 40-C , 88-H ) :   0.9172 B( 41-C , 42-S ) :   1.1553
B( 41-C , 43-C ) :   0.1024 B( 41-C , 45-C ) :   1.4700 B( 42-S , 43-C ) :   1.1380
B( 43-C , 44-C ) :   1.4478 B( 43-C , 54-C ) :   1.0978 B( 44-C , 45-C ) :   1.4075
B( 44-C , 51-C ) :   0.9972 B( 45-C , 46-C ) :   0.9726 B( 46-C , 47-C ) :   1.0486
B( 46-C , 49-C ) :   1.1113 B( 46-C , 89-H ) :   0.8357 B( 47-C , 48-N ) :   3.0873
B( 49-C , 50-C ) :   1.1183 B( 49-C , 90-H ) :   0.9355 B( 49-C , 91-H ) :   0.9166
B( 50-C , 51-C ) :   1.0946 B( 50-C , 92-H ) :   0.9155 B( 50-C , 93-H ) :   0.9297
B( 51-C , 52-C ) :   1.0275 B( 51-C , 94-H ) :   0.8321 B( 52-C , 53-N ) :   3.0705
B( 54-C , 55-C ) :   1.6953 B( 54-C , 95-H ) :   0.9294 B( 55-C , 56-C ) :   0.9349
B( 55-C , 60-C ) :   1.0269 B( 56-C , 57-O ) :   2.2795 B( 56-C , 58-C ) :   0.9210
B( 58-C , 59-C ) :   1.3249 B( 58-C , 69-C ) :   1.3753 B( 59-C , 60-C ) :   1.0078
B( 59-C , 66-C ) :   1.3657 B( 60-C , 61-C ) :   1.6779 B( 61-C , 62-C ) :   1.1592
B( 61-C , 64-C ) :   1.1262 B( 62-C , 63-N ) :   2.9981 B( 64-C , 65-N ) :   2.9957
B( 66-C , 67-C ) :   1.3702 B( 66-C , 96-H ) :   0.9851 B( 67-C , 68-C ) :   1.4190
B( 67-C , 71-Br) :   1.0544 B( 68-C , 69-C ) :   1.3549 B( 68-C , 70-Br) :   1.0383
B( 69-C , 97-H ) :   1.0081

-----------------------------------------------------------------------------
         ABSORPTION SPECTRUM VIA TRANSITION ELECTRIC DIPOLE MOMENTS
-----------------------------------------------------------------------------
State   Energy  Wavelength   fosc         T2         TX        TY        TZ
        (cm-1)    (nm)                  (au**2)     (au)      (au)      (au)
-----------------------------------------------------------------------------
   0   13009.8    768.6   1.025274265  25.94442   3.30366   3.85179   0.44039
   1   17865.3    559.7   0.206131906   3.79849  -1.67868  -0.56827  -0.81092
   2   21319.3    469.1   0.022947689   0.35436   0.24068   0.41853  -0.34823
   3   21793.0    458.9   0.147135692   2.22268  -0.63300   0.85641  -1.04333
   4   23246.0    430.2   0.272342876   3.85695  -0.05340   1.64788  -1.06705
   5   25158.3    397.5   0.166812527   2.18285   0.36078   1.32375  -0.54807
   6   25816.0    387.4   0.133586419   1.70353  -0.96984  -0.86652  -0.10988
   7   25869.3    386.6   0.084799956   1.07916   0.40437   0.92357  -0.25034
   8   26609.8    375.8   0.065970484   0.81618  -0.82347  -0.18979  -0.31945
   9   27401.0    365.0   0.024518675   0.29458   0.33335   0.42824   0.00836
  10   27560.3    362.8   0.241587705   2.88580   0.67576  -1.55669   0.07653
  11   27754.2    360.3   0.163788179   1.94281   1.24351   0.62338   0.08877
  12   28373.6    352.4   0.465019735   5.39551  -0.07290  -2.29776   0.33243
  13   29020.8    344.6   0.155090093   1.75934   0.57060   1.15936   0.29940
  14   29375.7    340.4   0.012073109   0.13530  -0.35597  -0.04057   0.08333
  15   29502.5    339.0   0.046326179   0.51694  -0.33607   0.63473  -0.03352
  16   30361.0    329.4   0.006720915   0.07288  -0.04000  -0.24067   0.11556
  17   30821.4    324.4   0.039124462   0.41790  -0.46579  -0.43704   0.09968
  18   30958.8    323.0   0.005691357   0.06052   0.04798   0.23870  -0.03526
  19   31706.0    315.4   0.005110806   0.05307  -0.09935   0.20755   0.01094
  20   31874.3    313.7   0.036113215   0.37299  -0.44390   0.41029  -0.08722
  21   32389.4    308.7   0.071866315   0.73046  -0.15503  -0.83560   0.09055
  22   32530.4    307.4   0.042798722   0.43313  -0.18775  -0.46898  -0.42182
  23   32735.4    305.5   0.016402016   0.16495  -0.27967  -0.23523  -0.17720
  24   33120.9    301.9   0.110115071   1.09451   0.52250  -0.89072   0.16770
  25   34629.6    288.8   0.320045997   3.04257  -0.43564   1.59351   0.55991
  26   34762.6    287.7   0.205690068   1.94794  -0.60894   1.22848   0.26073
  27   34826.8    287.1   0.305401657   2.88691   0.61547  -1.57730   0.14224
  28   35457.8    282.0   0.522078647   4.84730  -1.90553   0.72044  -0.83501
  29   35749.1    279.7   0.038524433   0.35477  -0.07851   0.45471   0.37663
  30   36271.1    275.7   0.040019219   0.36323   0.19022   0.52370   0.22975
  31   36415.2    274.6   0.000062046   0.00056   0.00369  -0.01985   0.01239
  32   36557.7    273.5   0.067011554   0.60346  -0.76230   0.12352  -0.08427
  33   36746.2    272.1   0.077279933   0.69236  -0.23102   0.25134  -0.75882
  34   36828.5    271.5   0.006769531   0.06051  -0.06230   0.16725  -0.16929
  35   37063.3    269.8   0.022379644   0.19879   0.41634  -0.00689   0.15936
  36   37190.6    268.9   0.229784568   2.03406   0.74356   1.18955  -0.25721
  37   37309.5    268.0   0.014050326   0.12398  -0.14386  -0.32127   0.00808
  38   37439.7    267.1   0.046963667   0.41296  -0.52649  -0.29191   0.22484
  39   37812.3    264.5   0.025310771   0.22037   0.31316  -0.22176   0.27040
  40   37987.8    263.2   0.003450013   0.02990  -0.15488  -0.05835   0.05005
  41   38374.5    260.6   0.057684140   0.49487  -0.39676  -0.56203  -0.14687
  42   38724.4    258.2   0.003620939   0.03078   0.06069   0.16078  -0.03537
  43   39261.5    254.7   0.111105580   0.93163   0.47008   0.84013  -0.06957
  44   39445.0    253.5   0.002125077   0.01774   0.04215   0.09634   0.08172
  45   39454.1    253.5   0.237841021   1.98459  -1.16149   0.62897  -0.48982
  46   40091.8    249.4   0.117494147   0.96480  -0.64545  -0.72607  -0.14495
  47   40295.5    248.2   0.001188828   0.00971  -0.01233   0.04533  -0.08664

FINAL SINGLE POINT ENERGY    -13933.870229056785

DIPOLE MOMENT
-------------
                                X             Y             Z
Electronic contribution:    143.04912      44.22053      33.70861
Nuclear contribution   :   -145.07757     -45.41075     -34.24790
                        -----------------------------------------
Total Dipole Moment    :     -2.02845      -1.19022      -0.53929
                        -----------------------------------------
Magnitude (a.u.)       :      2.41290
Magnitude (Debye)      :      6.13310

Rotational constants in cm-1:     0.001225     0.000148     0.000135
Rotational constants in MHz :    36.726695     4.430743     4.033521

                             ****ORCA TERMINATED NORMALLY****
TOTAL RUN TIME: 0 days 0 hours 10 minutes 58 seconds 706 msec
