                         Program Version 4.2.0 -  RELEASE  -
|  1> # ORCA input file
|  2> # SCF done       -177.228125221436          0.000951027015
|  3> ! CAM-B3LYP def2-SVP def2/J RIJCOSX Grid4 TightSCF
|  4> %maxcore 5000
|  5> %tddft
|  6>     Mode sTDDFT
|  7>     Ethresh 5.0
|  8>     maxcore 5000
|  9> end
| 10>
| 11> %pal
| 12>   nprocs 6
| 13>   end
| 14> * xyz 0 1
| 15>    C       -1.19989         0.06037        -0.82218
| 16>    C       -2.52776         0.32453        -0.95794
| 17>    S       -3.47601        -1.09355        -0.69810
| 18>    C       -2.05576        -2.06790        -0.40090
| 19>   Cl       -2.17628        -3.71807        -0.03967
| 20>    C       -0.92757        -1.30917        -0.50196
| 21>    C        0.51706        -1.51661        -0.36823
| 22>    O        1.09867        -2.55077        -0.13190
| 23>    C        1.11935        -0.17392        -0.65039
| 24>    C        0.05153         0.78451        -0.90807
| 25>    C        0.16219         2.12688        -1.15080
| 26>    C       -0.97823         2.92841        -1.37194
| 27>    N       -1.89506         3.59268        -1.55654
| 28>    C        1.36696         2.85623        -1.19877
| 29>    N        2.31374         3.50363        -1.24293
| 30>    C        2.44949         0.05312        -0.79083
| 31>    C        3.48389        -0.90067        -0.50601
| 32>    C        4.57976        -1.08161        -1.37152
| 33>    N        5.49946        -1.98467        -1.16507
| 34>    C        5.37588        -2.77894        -0.09813
| 35>    N        4.43015        -2.62480         0.83220
| 36>    C        3.52356        -1.69933         0.64947
| 37>    C        6.35298        -3.82908         0.01989
| 38>    N        6.40890        -4.76664         1.01692
| 39>    C        5.49489        -4.94326         2.12044
| 40>    C        4.20632        -5.63317         1.68334
| 41>    C        7.48391        -5.66072         0.82689
| 42>    O        7.74233        -6.57805         1.57786
| 43>    C        8.11529        -5.19661        -0.38634
| 44>    C        7.40244        -4.06927        -0.85938
| 45>    C        8.05085        -3.62423        -2.07941
| 46>    O        7.82928        -2.73187        -2.86008
| 47>    N        9.13144        -4.53495        -2.25097
| 48>    C       10.01753        -4.37026        -3.37709
| 49>    C       11.28699        -3.61060        -2.99725
| 50>    C        9.17541        -5.46908        -1.24788
| 51>    C       10.05682        -6.56503        -1.04746
| 52>    C       11.17574        -6.91263        -1.72455
| 53>    C       11.94213        -8.07236        -1.43114
| 54>    S       11.47835        -9.25751        -0.23852
| 55>    C       12.83580       -10.22867        -0.61020
| 56>    C       13.64453        -9.67653        -1.56418
| 57>    C       14.92126       -10.30976        -1.99550
| 58>    O       15.02695       -11.47065        -2.28078
| 59>    O       15.99017        -9.49751        -2.01413
| 60>    C       13.12242        -8.44538        -2.04609
| 61>    S       13.88104        -7.53253        -3.36349
| 62>    C       14.07235        -8.91969        -4.44008
| 63>    C       15.25991        -9.30706        -4.90991
| 64>    C       15.39493       -10.53327        -5.64506
| 65>    C       16.29918       -11.52316        -5.47953
| 66>    C       16.00871       -12.81659        -6.19256
| 67>    O       15.24299       -12.95709        -7.11480
| 68>    C       16.80780       -13.81591        -5.48798
| 69>    C       16.97011       -15.16919        -5.51743
| 70>    S       18.09565       -15.67462        -4.28188
| 71>    C       18.33860       -14.05250        -3.74781
| 72>    C       17.59510       -13.17581        -4.47566
| 73>    C       17.39185       -11.73859        -4.53496
| 74>    C       18.18008       -10.84734        -3.86353
| 75>    C       19.16806       -11.28194        -2.95099
| 76>    N       19.97743       -11.59671        -2.20205
| 77>    C       18.20227        -9.44868        -4.00330
| 78>    N       18.30348        -8.30825        -4.09295
| 79>   Cl       16.23574       -16.28660        -6.55640
| 80>    H       -3.01728         1.24822        -1.19479
| 81>    H        2.78476         1.00234        -1.19047
| 82>    H        4.68617        -0.49133        -2.27212
| 83>    H        2.82384        -1.55108         1.46027
| 84>    H        5.26985        -3.97042         2.55944
| 85>    H        6.02303        -5.56903         2.84568
| 86>    H        3.65621        -5.00630         0.98675
| 87>    H        3.58058        -5.81730         2.55179
| 88>    H        4.43198        -6.58471         1.20755
| 89>    H        9.45838        -3.78400        -4.11284
| 90>    H       10.24493        -5.34694        -3.81048
| 91>    H       11.02787        -2.60482        -2.67691
| 92>    H       11.94775        -3.54203        -3.85698
| 93>    H       11.81678        -4.10336        -2.18503
| 94>    H        9.75656        -7.18468        -0.20962
| 95>    H       11.57002        -6.31828        -2.53455
| 96>    H       13.00180       -11.14980        -0.08770
| 97>    H       15.77876        -8.57195        -1.81767
| 98>    H       13.16210        -9.47736        -4.60529
| 99>    H       16.14055        -8.73510        -4.66418
|100>    H       14.59485       -10.77006        -6.34119
|101>    H       19.00335       -13.86795        -2.92784
|102> *
|103>
|104>                          ****END OF INPUT****

CARTESIAN COORDINATES (ANGSTROEM)
---------------------------------
  C     -1.199890    0.060370   -0.822180
  C     -2.527760    0.324530   -0.957940
  S     -3.476010   -1.093550   -0.698100
  C     -2.055760   -2.067900   -0.400900
  Cl    -2.176280   -3.718070   -0.039670
  C     -0.927570   -1.309170   -0.501960
  C      0.517060   -1.516610   -0.368230
  O      1.098670   -2.550770   -0.131900
  C      1.119350   -0.173920   -0.650390
  C      0.051530    0.784510   -0.908070
  C      0.162190    2.126880   -1.150800
  C     -0.978230    2.928410   -1.371940
  N     -1.895060    3.592680   -1.556540
  C      1.366960    2.856230   -1.198770
  N      2.313740    3.503630   -1.242930
  C      2.449490    0.053120   -0.790830
  C      3.483890   -0.900670   -0.506010
  C      4.579760   -1.081610   -1.371520
  N      5.499460   -1.984670   -1.165070
  C      5.375880   -2.778940   -0.098130
  N      4.430150   -2.624800    0.832200
  C      3.523560   -1.699330    0.649470
  C      6.352980   -3.829080    0.019890
  N      6.408900   -4.766640    1.016920
  C      5.494890   -4.943260    2.120440
  C      4.206320   -5.633170    1.683340
  C      7.483910   -5.660720    0.826890
  O      7.742330   -6.578050    1.577860
  C      8.115290   -5.196610   -0.386340
  C      7.402440   -4.069270   -0.859380
  C      8.050850   -3.624230   -2.079410
  O      7.829280   -2.731870   -2.860080
  N      9.131440   -4.534950   -2.250970
  C     10.017530   -4.370260   -3.377090
  C     11.286990   -3.610600   -2.997250
  C      9.175410   -5.469080   -1.247880
  C     10.056820   -6.565030   -1.047460
  C     11.175740   -6.912630   -1.724550
  C     11.942130   -8.072360   -1.431140
  S     11.478350   -9.257510   -0.238520
  C     12.835800  -10.228670   -0.610200
  C     13.644530   -9.676530   -1.564180
  C     14.921260  -10.309760   -1.995500
  O     15.026950  -11.470650   -2.280780
  O     15.990170   -9.497510   -2.014130
  C     13.122420   -8.445380   -2.046090
  S     13.881040   -7.532530   -3.363490
  C     14.072350   -8.919690   -4.440080
  C     15.259910   -9.307060   -4.909910
  C     15.394930  -10.533270   -5.645060
  C     16.299180  -11.523160   -5.479530
  C     16.008710  -12.816590   -6.192560
  O     15.242990  -12.957090   -7.114800
  C     16.807800  -13.815910   -5.487980
  C     16.970110  -15.169190   -5.517430
  S     18.095650  -15.674620   -4.281880
  C     18.338600  -14.052500   -3.747810
  C     17.595100  -13.175810   -4.475660
  C     17.391850  -11.738590   -4.534960
  C     18.180080  -10.847340   -3.863530
  C     19.168060  -11.281940   -2.950990
  N     19.977430  -11.596710   -2.202050
  C     18.202270   -9.448680   -4.003300
  N     18.303480   -8.308250   -4.092950
  Cl    16.235740  -16.286600   -6.556400
  H     -3.017280    1.248220   -1.194790
  H      2.784760    1.002340   -1.190470
  H      4.686170   -0.491330   -2.272120
  H      2.823840   -1.551080    1.460270
  H      5.269850   -3.970420    2.559440
  H      6.023030   -5.569030    2.845680
  H      3.656210   -5.006300    0.986750
  H      3.580580   -5.817300    2.551790
  H      4.431980   -6.584710    1.207550
  H      9.458380   -3.784000   -4.112840
  H     10.244930   -5.346940   -3.810480
  H     11.027870   -2.604820   -2.676910
  H     11.947750   -3.542030   -3.856980
  H     11.816780   -4.103360   -2.185030
  H      9.756560   -7.184680   -0.209620
  H     11.570020   -6.318280   -2.534550
  H     13.001800  -11.149800   -0.087700
  H     15.778760   -8.571950   -1.817670
  H     13.162100   -9.477360   -4.605290
  H     16.140550   -8.735100   -4.664180
  H     14.594850  -10.770060   -6.341190
  H     19.003350  -13.867950   -2.927840

 Total Charge           Charge          ....    0
 Multiplicity           Mult            ....    1
 Number of Electrons    NEL             ....  494
 Basis Dimension        Dim             .... 1044

ORBITAL ENERGIES
----------------

  NO   OCC          E(Eh)            E(eV)
   0   2.0000    -101.626130     -2765.3876
   1   2.0000    -101.614732     -2765.0774
   2   2.0000     -89.003438     -2421.9067
   3   2.0000     -88.989967     -2421.5401
   4   2.0000     -88.986082     -2421.4344
   5   2.0000     -88.966593     -2420.9041
   6   2.0000     -19.272306      -524.4261
   7   2.0000     -19.233906      -523.3812
   8   2.0000     -19.218533      -522.9629
   9   2.0000     -19.214951      -522.8654
  10   2.0000     -19.191903      -522.2382
  11   2.0000     -19.186048      -522.0789
  12   2.0000     -14.455587      -393.3565
  13   2.0000     -14.450590      -393.2205
  14   2.0000     -14.430974      -392.6868
  15   2.0000     -14.429549      -392.6480
  16   2.0000     -14.426762      -392.5722
  17   2.0000     -14.420936      -392.4136
  18   2.0000     -14.419878      -392.3848
  19   2.0000     -14.417644      -392.3240
  20   2.0000     -10.420463      -283.5552
  21   2.0000     -10.391079      -282.7556
  22   2.0000     -10.386246      -282.6241
  23   2.0000     -10.376206      -282.3509
  24   2.0000     -10.373395      -282.2744
  25   2.0000     -10.372846      -282.2595
  26   2.0000     -10.370248      -282.1888
  27   2.0000     -10.365107      -282.0489
  28   2.0000     -10.359761      -281.9034
  29   2.0000     -10.359173      -281.8874
  30   2.0000     -10.347684      -281.5748
  31   2.0000     -10.347233      -281.5625
  32   2.0000     -10.346288      -281.5368
  33   2.0000     -10.341451      -281.4052
  34   2.0000     -10.339247      -281.3452
  35   2.0000     -10.338175      -281.3161
  36   2.0000     -10.336408      -281.2680
  37   2.0000     -10.335956      -281.2557
  38   2.0000     -10.332721      -281.1676
  39   2.0000     -10.332586      -281.1639
  40   2.0000     -10.331435      -281.1327
  41   2.0000     -10.331162      -281.1252
  42   2.0000     -10.328856      -281.0625
  43   2.0000     -10.324873      -280.9541
  44   2.0000     -10.324306      -280.9386
  45   2.0000     -10.323428      -280.9148
  46   2.0000     -10.322829      -280.8985
  47   2.0000     -10.321668      -280.8669
  48   2.0000     -10.319509      -280.8081
  49   2.0000     -10.319483      -280.8074
  50   2.0000     -10.312915      -280.6287
  51   2.0000     -10.311821      -280.5989
  52   2.0000     -10.311073      -280.5786
  53   2.0000     -10.310121      -280.5526
  54   2.0000     -10.309916      -280.5471
  55   2.0000     -10.308925      -280.5201
  56   2.0000     -10.307431      -280.4795
  57   2.0000     -10.303407      -280.3700
  58   2.0000     -10.302987      -280.3585
  59   2.0000     -10.296666      -280.1865
  60   2.0000     -10.290271      -280.0125
  61   2.0000     -10.268911      -279.4313
  62   2.0000     -10.265884      -279.3489
  63   2.0000     -10.262790      -279.2647
  64   2.0000     -10.247503      -278.8487
  65   2.0000      -9.580878      -260.7089
  66   2.0000      -9.569506      -260.3995
  67   2.0000      -8.099165      -220.3895
  68   2.0000      -8.085735      -220.0240
  69   2.0000      -8.081672      -219.9135
  70   2.0000      -8.061298      -219.3591
  71   2.0000      -7.351542      -200.0456
  72   2.0000      -7.340913      -199.7564
  73   2.0000      -7.340342      -199.7408
  74   2.0000      -7.340126      -199.7350
  75   2.0000      -7.329554      -199.4473
  76   2.0000      -7.329019      -199.4328
  77   2.0000      -6.068519      -165.1328
  78   2.0000      -6.063901      -165.0071
  79   2.0000      -6.061458      -164.9407
  80   2.0000      -6.055115      -164.7680
  81   2.0000      -6.050839      -164.6517
  82   2.0000      -6.050468      -164.6416
  83   2.0000      -6.048026      -164.5752
  84   2.0000      -6.046596      -164.5362
  85   2.0000      -6.044042      -164.4667
  86   2.0000      -6.031625      -164.1288
  87   2.0000      -6.027792      -164.0246
  88   2.0000      -6.021049      -163.8411
  89   2.0000      -1.196418       -32.5562
  90   2.0000      -1.151070       -31.3222
  91   2.0000      -1.135606       -30.9014
  92   2.0000      -1.134094       -30.8603
  93   2.0000      -1.124902       -30.6101
  94   2.0000      -1.110461       -30.2172
  95   2.0000      -1.102241       -29.9935
  96   2.0000      -1.063092       -28.9282
  97   2.0000      -1.051702       -28.6183
  98   2.0000      -1.048255       -28.5245
  99   2.0000      -1.034882       -28.1606
 100   2.0000      -1.027411       -27.9573
 101   2.0000      -1.019795       -27.7500
 102   2.0000      -1.016277       -27.6543
 103   2.0000      -1.008582       -27.4449
 104   2.0000      -0.998642       -27.1744
 105   2.0000      -0.997738       -27.1498
 106   2.0000      -0.995128       -27.0788
 107   2.0000      -0.985516       -26.8173
 108   2.0000      -0.966226       -26.2923
 109   2.0000      -0.955368       -25.9969
 110   2.0000      -0.944864       -25.7110
 111   2.0000      -0.939051       -25.5529
 112   2.0000      -0.928767       -25.2730
 113   2.0000      -0.922438       -25.1008
 114   2.0000      -0.915221       -24.9044
 115   2.0000      -0.910953       -24.7883
 116   2.0000      -0.897604       -24.4251
 117   2.0000      -0.882296       -24.0085
 118   2.0000      -0.869908       -23.6714
 119   2.0000      -0.860783       -23.4231
 120   2.0000      -0.855264       -23.2729
 121   2.0000      -0.842866       -22.9355
 122   2.0000      -0.830071       -22.5874
 123   2.0000      -0.829297       -22.5663
 124   2.0000      -0.818887       -22.2831
 125   2.0000      -0.816443       -22.2166
 126   2.0000      -0.794765       -21.6267
 127   2.0000      -0.778831       -21.1931
 128   2.0000      -0.770029       -20.9536
 129   2.0000      -0.766065       -20.8457
 130   2.0000      -0.762548       -20.7500
 131   2.0000      -0.756062       -20.5735
 132   2.0000      -0.747904       -20.3515
 133   2.0000      -0.736847       -20.0506
 134   2.0000      -0.731623       -19.9085
 135   2.0000      -0.717187       -19.5157
 136   2.0000      -0.703662       -19.1476
 137   2.0000      -0.698833       -19.0162
 138   2.0000      -0.694867       -18.9083
 139   2.0000      -0.690396       -18.7866
 140   2.0000      -0.687217       -18.7001
 141   2.0000      -0.684640       -18.6300
 142   2.0000      -0.682900       -18.5827
 143   2.0000      -0.674163       -18.3449
 144   2.0000      -0.671563       -18.2742
 145   2.0000      -0.651940       -17.7402
 146   2.0000      -0.645840       -17.5742
 147   2.0000      -0.644369       -17.5342
 148   2.0000      -0.637438       -17.3456
 149   2.0000      -0.628991       -17.1157
 150   2.0000      -0.626706       -17.0535
 151   2.0000      -0.623927       -16.9779
 152   2.0000      -0.616371       -16.7723
 153   2.0000      -0.614330       -16.7168
 154   2.0000      -0.610232       -16.6053
 155   2.0000      -0.597060       -16.2468
 156   2.0000      -0.586207       -15.9515
 157   2.0000      -0.581451       -15.8221
 158   2.0000      -0.576598       -15.6900
 159   2.0000      -0.571516       -15.5517
 160   2.0000      -0.568984       -15.4829
 161   2.0000      -0.563767       -15.3409
 162   2.0000      -0.562235       -15.2992
 163   2.0000      -0.556777       -15.1507
 164   2.0000      -0.552885       -15.0448
 165   2.0000      -0.550151       -14.9704
 166   2.0000      -0.547047       -14.8859
 167   2.0000      -0.545396       -14.8410
 168   2.0000      -0.539969       -14.6933
 169   2.0000      -0.536444       -14.5974
 170   2.0000      -0.535778       -14.5792
 171   2.0000      -0.532662       -14.4945
 172   2.0000      -0.531794       -14.4709
 173   2.0000      -0.529895       -14.4192
 174   2.0000      -0.527479       -14.3534
 175   2.0000      -0.523360       -14.2413
 176   2.0000      -0.523226       -14.2377
 177   2.0000      -0.520502       -14.1636
 178   2.0000      -0.518014       -14.0959
 179   2.0000      -0.516415       -14.0524
 180   2.0000      -0.514978       -14.0133
 181   2.0000      -0.514788       -14.0081
 182   2.0000      -0.510224       -13.8839
 183   2.0000      -0.508957       -13.8494
 184   2.0000      -0.506724       -13.7887
 185   2.0000      -0.504625       -13.7315
 186   2.0000      -0.502483       -13.6733
 187   2.0000      -0.499858       -13.6018
 188   2.0000      -0.498214       -13.5571
 189   2.0000      -0.494691       -13.4612
 190   2.0000      -0.493841       -13.4381
 191   2.0000      -0.485124       -13.2009
 192   2.0000      -0.482016       -13.1163
 193   2.0000      -0.475053       -12.9268
 194   2.0000      -0.470116       -12.7925
 195   2.0000      -0.468186       -12.7400
 196   2.0000      -0.465553       -12.6683
 197   2.0000      -0.462198       -12.5770
 198   2.0000      -0.461085       -12.5468
 199   2.0000      -0.458397       -12.4736
 200   2.0000      -0.456780       -12.4296
 201   2.0000      -0.455489       -12.3945
 202   2.0000      -0.455426       -12.3928
 203   2.0000      -0.454303       -12.3622
 204   2.0000      -0.453524       -12.3410
 205   2.0000      -0.447858       -12.1868
 206   2.0000      -0.445250       -12.1159
 207   2.0000      -0.443625       -12.0717
 208   2.0000      -0.443403       -12.0656
 209   2.0000      -0.441721       -12.0198
 210   2.0000      -0.440686       -11.9917
 211   2.0000      -0.439456       -11.9582
 212   2.0000      -0.437215       -11.8972
 213   2.0000      -0.433193       -11.7878
 214   2.0000      -0.432016       -11.7558
 215   2.0000      -0.429694       -11.6926
 216   2.0000      -0.427459       -11.6318
 217   2.0000      -0.425109       -11.5678
 218   2.0000      -0.419593       -11.4177
 219   2.0000      -0.416073       -11.3219
 220   2.0000      -0.414080       -11.2677
 221   2.0000      -0.411539       -11.1986
 222   2.0000      -0.410029       -11.1575
 223   2.0000      -0.404922       -11.0185
 224   2.0000      -0.404741       -11.0136
 225   2.0000      -0.400568       -10.9000
 226   2.0000      -0.395463       -10.7611
 227   2.0000      -0.391883       -10.6637
 228   2.0000      -0.389394       -10.5959
 229   2.0000      -0.382371       -10.4049
 230   2.0000      -0.372533       -10.1371
 231   2.0000      -0.365919        -9.9572
 232   2.0000      -0.359485        -9.7821
 233   2.0000      -0.347876        -9.4662
 234   2.0000      -0.346436        -9.4270
 235   2.0000      -0.345295        -9.3959
 236   2.0000      -0.342617        -9.3231
 237   2.0000      -0.335391        -9.1265
 238   2.0000      -0.331465        -9.0196
 239   2.0000      -0.331009        -9.0072
 240   2.0000      -0.323500        -8.8029
 241   2.0000      -0.319004        -8.6805
 242   2.0000      -0.315674        -8.5899
 243   2.0000      -0.313528        -8.5315
 244   2.0000      -0.307676        -8.3723
 245   2.0000      -0.299419        -8.1476
 246   2.0000      -0.244214        -6.6454
 247   0.0000      -0.111737        -3.0405
 248   0.0000      -0.090821        -2.4714
 249   0.0000      -0.083396        -2.2693
 250   0.0000      -0.061809        -1.6819
 251   0.0000      -0.046467        -1.2644

MULLIKEN ATOMIC CHARGES
-----------------------
   0 C :    0.032183
   1 C :   -0.127508
   2 S :    0.194829
   3 C :   -0.168606
   4 Cl:    0.005837
   5 C :    0.073302
   6 C :    0.145436
   7 O :   -0.125455
   8 C :   -0.100219
   9 C :    0.289127
  10 C :   -0.317670
  11 C :   -0.191744
  12 N :    0.161012
  13 C :   -0.193118
  14 N :    0.167396
  15 C :   -0.012032
  16 C :   -0.025702
  17 C :    0.059065
  18 N :    0.004249
  19 C :   -0.186668
  20 N :   -0.060741
  21 C :    0.119310
  22 C :    0.200781
  23 N :   -0.260463
  24 C :    0.135884
  25 C :   -0.000357
  26 C :    0.146121
  27 O :   -0.197657
  28 C :   -0.050816
  29 C :   -0.047372
  30 C :    0.145811
  31 O :   -0.151923
  32 N :   -0.272377
  33 C :    0.097379
  34 C :    0.004790
  35 C :    0.121734
  36 C :   -0.043951
  37 C :    0.013572
  38 C :   -0.111501
  39 S :    0.174754
  40 C :   -0.071205
  41 C :   -0.008130
  42 C :    0.172622
  43 O :   -0.186051
  44 O :   -0.167597
  45 C :   -0.071908
  46 S :    0.067536
  47 C :   -0.142655
  48 C :    0.111336
  49 C :   -0.011533
  50 C :   -0.086475
  51 C :    0.118145
  52 O :   -0.130509
  53 C :    0.096962
  54 C :   -0.171165
  55 S :    0.185591
  56 C :   -0.127360
  57 C :    0.016490
  58 C :    0.322275
  59 C :   -0.316863
  60 C :   -0.189307
  61 N :    0.150377
  62 C :   -0.150786
  63 N :    0.133395
  64 Cl:   -0.002366
  65 H :    0.056220
  66 H :    0.041740
  67 H :    0.017484
  68 H :    0.009738
  69 H :    0.025359
  70 H :    0.031378
  71 H :    0.025107
  72 H :    0.014805
  73 H :    0.015307
  74 H :    0.043661
  75 H :    0.022456
  76 H :    0.031151
  77 H :    0.024572
  78 H :    0.017221
  79 H :    0.016774
  80 H :   -0.001501
  81 H :    0.047448
  82 H :    0.194714
  83 H :    0.058796
  84 H :    0.029516
  85 H :    0.035006
  86 H :    0.055534
Sum of atomic charges:   -0.0000000

LOEWDIN ATOMIC CHARGES
----------------------
   0 C :   -0.059593
   1 C :   -0.146922
   2 S :    0.483428
   3 C :   -0.270114
   4 Cl:    0.196626
   5 C :   -0.118453
   6 C :    0.082462
   7 O :   -0.124042
   8 C :   -0.078859
   9 C :    0.072696
  10 C :   -0.129111
  11 C :   -0.015399
  12 N :   -0.044688
  13 C :   -0.024384
  14 N :   -0.038379
  15 C :    0.075204
  16 C :   -0.084966
  17 C :    0.070069
  18 N :   -0.045984
  19 C :    0.029655
  20 N :   -0.067557
  21 C :    0.086619
  22 C :    0.053107
  23 N :    0.008594
  24 C :    0.034720
  25 C :   -0.061568
  26 C :    0.075129
  27 O :   -0.200552
  28 C :   -0.118219
  29 C :   -0.094534
  30 C :    0.087575
  31 O :   -0.159254
  32 N :   -0.008853
  33 C :    0.033442
  34 C :   -0.062947
  35 C :    0.081247
  36 C :   -0.033037
  37 C :   -0.019577
  38 C :   -0.183441
  39 S :    0.486801
  40 C :   -0.137736
  41 C :   -0.130990
  42 C :    0.078573
  43 O :   -0.156546
  44 O :   -0.021639
  45 C :   -0.196390
  46 S :    0.336673
  47 C :   -0.140599
  48 C :   -0.030371
  49 C :    0.065345
  50 C :   -0.065035
  51 C :    0.083288
  52 O :   -0.131861
  53 C :   -0.117786
  54 C :   -0.272765
  55 S :    0.477078
  56 C :   -0.149630
  57 C :   -0.050317
  58 C :    0.079507
  59 C :   -0.121228
  60 C :   -0.008634
  61 N :   -0.049997
  62 C :   -0.009427
  63 N :   -0.056899
  64 Cl:    0.190754
  65 H :    0.038817
  66 H :    0.049932
  67 H :    0.032557
  68 H :    0.027997
  69 H :    0.022920
  70 H :    0.030132
  71 H :    0.022138
  72 H :    0.028478
  73 H :    0.024987
  74 H :    0.037720
  75 H :    0.021252
  76 H :    0.034106
  77 H :    0.031614
  78 H :    0.020118
  79 H :    0.040253
  80 H :    0.028857
  81 H :    0.037772
  82 H :    0.088542
  83 H :    0.028343
  84 H :    0.036501
  85 H :    0.049204
  86 H :    0.037449

  Mayer bond orders larger than 0.100000
B(  0-C ,  1-C ) :   1.5401 B(  0-C ,  5-C ) :   1.2189 B(  0-C ,  9-C ) :   1.0071
B(  1-C ,  2-S ) :   1.1655 B(  1-C , 65-H ) :   0.9547 B(  2-S ,  3-C ) :   1.1551
B(  3-C ,  4-Cl) :   1.1335 B(  3-C ,  5-C ) :   1.4726 B(  5-C ,  6-C ) :   0.9550
B(  6-C ,  7-O ) :   2.2364 B(  6-C ,  8-C ) :   0.9214 B(  8-C ,  9-C ) :   1.0461
B(  8-C , 15-C ) :   1.7188 B(  9-C , 10-C ) :   1.6729 B( 10-C , 11-C ) :   1.1421
B( 10-C , 13-C ) :   1.1362 B( 11-C , 12-N ) :   2.9918 B( 13-C , 14-N ) :   2.9789
B( 15-C , 16-C ) :   1.0451 B( 15-C , 66-H ) :   0.9430 B( 16-C , 17-C ) :   1.2859
B( 16-C , 21-C ) :   1.3027 B( 17-C , 18-N ) :   1.5887 B( 17-C , 67-H ) :   0.9922
B( 18-N , 19-C ) :   1.6478 B( 18-N , 22-C ) :  -0.1331 B( 19-C , 20-N ) :   1.4892
B( 19-C , 22-C ) :   0.9920 B( 20-N , 21-C ) :   1.5659 B( 21-C , 68-H ) :   0.9826
B( 22-C , 23-N ) :   1.2101 B( 22-C , 29-C ) :   1.3820 B( 23-N , 24-C ) :   0.9346
B( 23-N , 26-C ) :   1.0415 B( 24-C , 25-C ) :   1.1255 B( 24-C , 69-H ) :   0.9359
B( 24-C , 70-H ) :   0.9270 B( 25-C , 71-H ) :   0.9662 B( 25-C , 72-H ) :   0.9674
B( 25-C , 73-H ) :   0.9650 B( 26-C , 27-O ) :   2.1198 B( 26-C , 28-C ) :   0.9806
B( 28-C , 29-C ) :   1.2390 B( 28-C , 35-C ) :   1.3333 B( 29-C , 30-C ) :   0.9451
B( 30-C , 31-O ) :   2.1821 B( 30-C , 32-N ) :   1.0087 B( 32-N , 33-C ) :   0.9438
B( 32-N , 35-C ) :   1.1875 B( 33-C , 34-C ) :   1.1177 B( 33-C , 74-H ) :   0.9232
B( 33-C , 75-H ) :   0.9507 B( 34-C , 76-H ) :   0.9604 B( 34-C , 77-H ) :   0.9684
B( 34-C , 78-H ) :   0.9668 B( 35-C , 36-C ) :   1.1830 B( 36-C , 37-C ) :   1.5887
B( 36-C , 79-H ) :   0.9475 B( 37-C , 38-C ) :   1.1631 B( 37-C , 80-H ) :   0.9670
B( 38-C , 39-S ) :   1.1379 B( 38-C , 45-C ) :   1.5206 B( 39-S , 40-C ) :   1.1878
B( 40-C , 41-C ) :   1.5847 B( 40-C , 81-H ) :   0.9704 B( 41-C , 42-C ) :   0.8978
B( 41-C , 45-C ) :   1.2443 B( 42-C , 43-O ) :   2.1699 B( 42-C , 44-O ) :   1.2047
B( 44-O , 82-H ) :   0.9288 B( 45-C , 46-S ) :   1.0252 B( 46-S , 47-C ) :   1.0271
B( 47-C , 48-C ) :   1.7840 B( 47-C , 83-H ) :   0.9563 B( 48-C , 49-C ) :   1.0673
B( 48-C , 84-H ) :   0.9289 B( 49-C , 50-C ) :   1.7813 B( 49-C , 85-H ) :   0.9369
B( 50-C , 51-C ) :   0.9328 B( 50-C , 58-C ) :   0.9896 B( 51-C , 52-O ) :   2.2686
B( 51-C , 53-C ) :   0.9352 B( 53-C , 54-C ) :   1.4745 B( 53-C , 57-C ) :   1.2227
B( 54-C , 55-S ) :   1.1548 B( 54-C , 64-Cl) :   1.1271 B( 55-S , 56-C ) :   1.1614
B( 56-C , 57-C ) :   1.5479 B( 56-C , 86-H ) :   0.9522 B( 57-C , 58-C ) :   1.0220
B( 58-C , 59-C ) :   1.6776 B( 59-C , 60-C ) :   1.1308 B( 59-C , 62-C ) :   1.1688
B( 60-C , 61-N ) :   2.9922 B( 62-C , 63-N ) :   2.9033

-----------------------------------------------------------------------------
         ABSORPTION SPECTRUM VIA TRANSITION ELECTRIC DIPOLE MOMENTS
-----------------------------------------------------------------------------
State   Energy  Wavelength   fosc         T2         TX        TY        TZ
        (cm-1)    (nm)                  (au**2)     (au)      (au)      (au)
-----------------------------------------------------------------------------
   0   14474.4    690.9   0.852956499  19.40007  -3.68120   2.22004   0.95931
   1   20576.5    486.0   0.132497167   2.11987   0.90731  -0.32549  -1.09120
   2   23079.4    433.3   0.015499149   0.22109  -0.19682   0.37590  -0.20259
   3   23949.0    417.6   0.046294660   0.63638  -0.61213   0.49977  -0.10915
   4   25334.7    394.7   0.011755140   0.15275  -0.32009   0.16576   0.15106
   5   26142.2    382.5   0.112010816   1.41057   0.90774  -0.73813   0.20427
   6   26888.6    371.9   0.087596651   1.07250   0.65799  -0.79945   0.02035
   7   27162.6    368.2   0.179049643   2.17009  -1.29377   0.68012   0.18352
   8   27552.2    362.9   0.310890245   3.71472   1.59804  -1.01804  -0.35294
   9   28873.8    346.3   0.070990848   0.80942   0.11176  -0.87814  -0.16062
  10   29096.8    343.7   0.031244791   0.35351  -0.11149  -0.57350   0.11039
  11   29930.1    334.1   0.051753399   0.56925   0.40660  -0.62370  -0.12215
  12   30204.5    331.1   0.035949090   0.39182   0.09926  -0.61776  -0.01860
  13   30400.3    328.9   0.003526897   0.03819   0.18191  -0.06455  -0.03061
  14   30461.8    328.3   0.023002296   0.24859   0.38388  -0.26820   0.17116
  15   31898.0    313.5   0.441828951   4.56001   1.32814  -1.57251   0.56857
  16   32141.7    311.1   0.000517966   0.00531   0.05547  -0.04656  -0.00779
  17   32335.7    309.3   0.032581395   0.33171   0.46298  -0.33213  -0.08399
  18   33069.1    302.4   0.005172163   0.05149   0.21376   0.06505   0.03955
  19   33243.1    300.8   0.082379524   0.81582   0.76479   0.29038   0.38288
  20   33366.8    299.7   0.045575107   0.44966   0.60429  -0.29059   0.00736
  21   33535.6    298.2   0.003401901   0.03340   0.14702  -0.10719   0.01701
  22   33941.6    294.6   0.031896692   0.30938  -0.38370   0.39817  -0.06013
  23   34145.4    292.9   0.049168280   0.47406  -0.31829   0.59777   0.12417
  24   35105.4    284.9   0.322090538   3.02051   1.71231  -0.28799  -0.07456
  25   35312.9    283.2   0.044337948   0.41335  -0.31796  -0.14690  -0.53914
  26   35639.6    280.6   0.071460706   0.66010  -0.21735  -0.73144  -0.27902
  27   35881.1    278.7   0.060399046   0.55417   0.42348  -0.60767  -0.07461
  28   36518.3    273.8   0.207672463   1.87216   0.86719   1.04235  -0.18345
  29   36721.6    272.3   0.087894882   0.78798   0.49291   0.44663   0.58784
  30   37014.7    270.2   0.283028330   2.51728  -1.15357  -1.08837   0.04468
  31   37262.3    268.4   0.085601767   0.75629   0.60940  -0.10482   0.61150
  32   37834.6    264.3   0.108982402   0.94829  -0.12485  -0.83108   0.49195
  33   38144.9    262.2   0.627595963   5.41651  -0.13030  -2.23437  -0.63807
  34   38564.5    259.3   0.068544011   0.58514  -0.54127  -0.48773   0.23299
  35   38691.0    258.5   0.276482920   2.35252   0.09754   1.51789  -0.19751
  36   39119.4    255.6   0.035438391   0.29823   0.54101  -0.00182   0.07440
  37   39423.9    253.7   0.184525018   1.54089   0.18259  -1.21374   0.18541
  38   39627.4    252.4   0.005580894   0.04636  -0.03237  -0.19470   0.08607
  39   39767.1    251.5   0.004247822   0.03517   0.07480   0.00406  -0.17191
  40   40211.1    248.7   0.010905067   0.08928   0.24175  -0.06642  -0.16255

FINAL SINGLE POINT ENERGY     -5126.419135812918

DIPOLE MOMENT
-------------
                                X             Y             Z
Electronic contribution:     -8.08775     -27.62281     -13.85614
Nuclear contribution   :      5.76792      26.46240      14.30346
                        -----------------------------------------
Total Dipole Moment    :     -2.31983      -1.16040       0.44732
                        -----------------------------------------
Magnitude (a.u.)       :      2.63215
Magnitude (Debye)      :      6.69040

Rotational constants in cm-1:     0.002721     0.000220     0.000216
Rotational constants in MHz :    81.587046     6.596413     6.460785

                             ****ORCA TERMINATED NORMALLY****
TOTAL RUN TIME: 0 days 0 hours 8 minutes 11 seconds 734 msec
