                         Program Version 4.2.0 -  RELEASE  -
|  1> # ORCA input file
|  2> # SCF done       -196.040022191276          0.000534625520
|  3> ! CAM-B3LYP def2-SVP def2/J RIJCOSX Grid4 TightSCF
|  4> %maxcore 5000
|  5> %tddft
|  6>     Mode sTDDFT
|  7>     Ethresh 5.0
|  8>     maxcore 5000
|  9> end
| 10>
| 11> %pal
| 12>   nprocs 6
| 13>   end
| 14> * xyz 0 1
| 15>    C        1.60000         2.78781        -4.13063
| 16>    C        1.52262         3.43939        -5.33353
| 17>    C        2.31239         3.11330        -6.45719
| 18>    N        2.92499         2.90544        -7.40535
| 19>    C        0.63050         4.48510        -5.65404
| 20>    N       -0.07479         5.32102        -6.00487
| 21>    C        2.44546         1.63408        -3.85438
| 22>    C        2.10780         1.12709        -2.56831
| 23>    C        2.72696         0.03280        -2.03574
| 24>    C        3.73713        -0.61562        -2.77996
| 25>    C        4.08642        -0.11118        -4.06633
| 26>    C        3.42561         1.02283        -4.59149
| 27>    C        5.09743        -0.76490        -4.79990
| 28>    C        5.73314        -1.86390        -4.28948
| 29>    C        5.38883        -2.35908        -3.02271
| 30>    C        4.41181        -1.74849        -2.28404
| 31>    C        1.04520         1.95144        -1.97240
| 32>    O        0.51064         1.75434        -0.90148
| 33>    C        0.80289         3.05564        -2.93956
| 34>    C        0.08889         4.20454        -2.75636
| 35>    C       -0.76243         4.61828        -1.70482
| 36>    S       -1.35915         6.26365        -1.77106
| 37>    C       -2.29556         6.05663        -0.33288
| 38>    C       -2.14009         4.75038         0.16317
| 39>    C       -1.28483         3.95720        -0.60781
| 40>    C       -2.75663         4.24657         1.32155
| 41>    N       -3.24168         3.80409         2.26292
| 42>    C       -3.06393         7.14037         0.15344
| 43>    C       -3.89848         7.08212         1.22744
| 44>    C       -4.65271         8.19265         1.67070
| 45>    N       -5.51537         8.14141         2.73981
| 46>    C       -5.74558         7.01280         3.61161
| 47>    C       -4.61388         6.83127         4.61924
| 48>    C       -6.15355         9.37286         2.96058
| 49>    O       -6.96328         9.56714         3.84344
| 50>    C       -5.62537        10.23924         1.92676
| 51>    C       -4.70879         9.48993         1.15416
| 52>    C       -4.17361        10.36145         0.12976
| 53>    O       -3.36156        10.17280        -0.75473
| 54>    N       -4.80319        11.59534         0.35894
| 55>    C       -4.56382        12.73256        -0.49764
| 56>    C       -5.68744        12.92872        -1.51206
| 57>    C       -5.67698        11.53814         1.42092
| 58>    C       -6.44373        12.63703         1.87073
| 59>    C       -7.33620        12.55032         2.89521
| 60>    C       -8.09199        13.66752         3.32134
| 61>    O       -7.92680        14.87525         2.73884
| 62>    C       -8.76293        15.75941         3.32277
| 63>    C       -9.50221        15.11279         4.31750
| 64>    C       -9.06822        13.76170         4.31870
| 65>    C       -9.53485        12.73522         5.15244
| 66>    N       -9.93587        11.91470         5.84410
| 67>    C      -10.47272        15.69674         5.14348
| 68>    N      -11.26416        16.18332         5.81440
| 69>    C       -8.78720        17.11276         2.90932
| 70>    C       -7.96640        17.58809         1.93454
| 71>    C       -7.97458        18.94067         1.52567
| 72>    C       -7.14540        19.46072         0.57309
| 73>    C       -7.09661        20.84099         0.12133
| 74>    C       -7.93559        21.85909         0.49314
| 75>    C       -7.83881        23.18076         0.00725
| 76>    N       -7.81716        24.27270        -0.34597
| 77>    C       -9.01869        21.75032         1.39082
| 78>    N       -9.91879        21.74660         2.10387
| 79>    C       -5.99758        20.95874        -0.83024
| 80>    C       -5.40165        19.67642        -1.00134
| 81>    C       -6.09612        18.69441        -0.15496
| 82>    O       -5.85033        17.50748        -0.07475
| 83>    C       -4.34282        19.47813        -1.84072
| 84>    C       -3.81805        20.57464        -2.55973
| 85>    C       -4.40571        21.86190        -2.39147
| 86>    C       -5.50252        22.03611        -1.51689
| 87>    C       -3.87312        22.95085        -3.11112
| 88>    C       -2.81153        22.77829        -3.95714
| 89>    C       -2.23401        21.51039        -4.12236
| 90>    C       -2.72643        20.43193        -3.43867
| 91>    H        2.44866        -0.33222        -1.05823
| 92>    H        3.71822         1.38257        -5.56494
| 93>    H        5.35819        -0.38094        -5.77520
| 94>    H        6.50533        -2.35824        -4.85956
| 95>    H        5.90154        -3.22665        -2.63520
| 96>    H        4.14212        -2.12517        -1.30827
| 97>    H        0.18623         4.95516        -3.53244
| 98>    H       -1.04934         2.93534        -0.37047
| 99>    H       -2.96851         8.07161        -0.39120
|100>    H       -4.01238         6.15679         1.76990
|101>    H       -5.87900         6.10725         3.01405
|102>    H       -6.67762         7.22838         4.14124
|103>    H       -3.66884         6.63702         4.11732
|104>    H       -4.83796         5.99059         5.26894
|105>    H       -4.50951         7.72572         5.22871
|106>    H       -3.62770        12.52300        -1.02254
|107>    H       -4.43270        13.63042         0.11229
|108>    H       -5.76809        12.05482        -2.15392
|109>    H       -5.47486        13.79712        -2.12893
|110>    H       -6.64181        13.08190        -1.01331
|111>    H       -6.31142        13.58690         1.37181
|112>    H       -7.50266        11.61886         3.41920
|113>    H       -9.49268        17.75762         3.41563
|114>    H       -7.27229        16.91573         1.45171
|115>    H       -8.68401        19.59013         2.02182
|116>    H       -3.90925        18.49537        -1.95316
|117>    H       -5.92178        23.02380        -1.41137
|118>    H       -4.32141        23.92482        -2.98084
|119>    H       -2.41075        23.61840        -4.50403
|120>    H       -1.39692        21.39259        -4.79399
|121>    H       -2.28549        19.45355        -3.56192
|122> *
|123>
|124>                          ****END OF INPUT****

CARTESIAN COORDINATES (ANGSTROEM)
---------------------------------
  C      1.600000    2.787810   -4.130630
  C      1.522620    3.439390   -5.333530
  C      2.312390    3.113300   -6.457190
  N      2.924990    2.905440   -7.405350
  C      0.630500    4.485100   -5.654040
  N     -0.074790    5.321020   -6.004870
  C      2.445460    1.634080   -3.854380
  C      2.107800    1.127090   -2.568310
  C      2.726960    0.032800   -2.035740
  C      3.737130   -0.615620   -2.779960
  C      4.086420   -0.111180   -4.066330
  C      3.425610    1.022830   -4.591490
  C      5.097430   -0.764900   -4.799900
  C      5.733140   -1.863900   -4.289480
  C      5.388830   -2.359080   -3.022710
  C      4.411810   -1.748490   -2.284040
  C      1.045200    1.951440   -1.972400
  O      0.510640    1.754340   -0.901480
  C      0.802890    3.055640   -2.939560
  C      0.088890    4.204540   -2.756360
  C     -0.762430    4.618280   -1.704820
  S     -1.359150    6.263650   -1.771060
  C     -2.295560    6.056630   -0.332880
  C     -2.140090    4.750380    0.163170
  C     -1.284830    3.957200   -0.607810
  C     -2.756630    4.246570    1.321550
  N     -3.241680    3.804090    2.262920
  C     -3.063930    7.140370    0.153440
  C     -3.898480    7.082120    1.227440
  C     -4.652710    8.192650    1.670700
  N     -5.515370    8.141410    2.739810
  C     -5.745580    7.012800    3.611610
  C     -4.613880    6.831270    4.619240
  C     -6.153550    9.372860    2.960580
  O     -6.963280    9.567140    3.843440
  C     -5.625370   10.239240    1.926760
  C     -4.708790    9.489930    1.154160
  C     -4.173610   10.361450    0.129760
  O     -3.361560   10.172800   -0.754730
  N     -4.803190   11.595340    0.358940
  C     -4.563820   12.732560   -0.497640
  C     -5.687440   12.928720   -1.512060
  C     -5.676980   11.538140    1.420920
  C     -6.443730   12.637030    1.870730
  C     -7.336200   12.550320    2.895210
  C     -8.091990   13.667520    3.321340
  O     -7.926800   14.875250    2.738840
  C     -8.762930   15.759410    3.322770
  C     -9.502210   15.112790    4.317500
  C     -9.068220   13.761700    4.318700
  C     -9.534850   12.735220    5.152440
  N     -9.935870   11.914700    5.844100
  C    -10.472720   15.696740    5.143480
  N    -11.264160   16.183320    5.814400
  C     -8.787200   17.112760    2.909320
  C     -7.966400   17.588090    1.934540
  C     -7.974580   18.940670    1.525670
  C     -7.145400   19.460720    0.573090
  C     -7.096610   20.840990    0.121330
  C     -7.935590   21.859090    0.493140
  C     -7.838810   23.180760    0.007250
  N     -7.817160   24.272700   -0.345970
  C     -9.018690   21.750320    1.390820
  N     -9.918790   21.746600    2.103870
  C     -5.997580   20.958740   -0.830240
  C     -5.401650   19.676420   -1.001340
  C     -6.096120   18.694410   -0.154960
  O     -5.850330   17.507480   -0.074750
  C     -4.342820   19.478130   -1.840720
  C     -3.818050   20.574640   -2.559730
  C     -4.405710   21.861900   -2.391470
  C     -5.502520   22.036110   -1.516890
  C     -3.873120   22.950850   -3.111120
  C     -2.811530   22.778290   -3.957140
  C     -2.234010   21.510390   -4.122360
  C     -2.726430   20.431930   -3.438670
  H      2.448660   -0.332220   -1.058230
  H      3.718220    1.382570   -5.564940
  H      5.358190   -0.380940   -5.775200
  H      6.505330   -2.358240   -4.859560
  H      5.901540   -3.226650   -2.635200
  H      4.142120   -2.125170   -1.308270
  H      0.186230    4.955160   -3.532440
  H     -1.049340    2.935340   -0.370470
  H     -2.968510    8.071610   -0.391200
  H     -4.012380    6.156790    1.769900
  H     -5.879000    6.107250    3.014050
  H     -6.677620    7.228380    4.141240
  H     -3.668840    6.637020    4.117320
  H     -4.837960    5.990590    5.268940
  H     -4.509510    7.725720    5.228710
  H     -3.627700   12.523000   -1.022540
  H     -4.432700   13.630420    0.112290
  H     -5.768090   12.054820   -2.153920
  H     -5.474860   13.797120   -2.128930
  H     -6.641810   13.081900   -1.013310
  H     -6.311420   13.586900    1.371810
  H     -7.502660   11.618860    3.419200
  H     -9.492680   17.757620    3.415630
  H     -7.272290   16.915730    1.451710
  H     -8.684010   19.590130    2.021820
  H     -3.909250   18.495370   -1.953160
  H     -5.921780   23.023800   -1.411370
  H     -4.321410   23.924820   -2.980840
  H     -2.410750   23.618400   -4.504030
  H     -1.396920   21.392590   -4.793990
  H     -2.285490   19.453550   -3.561920

 Total Charge           Charge          ....    0
 Multiplicity           Mult            ....    1
 Number of Electrons    NEL             ....  516
 Basis Dimension        Dim             .... 1223

ORBITAL ENERGIES
----------------

  NO   OCC          E(Eh)            E(eV)
   0   2.0000     -88.991110     -2421.5712
   1   2.0000     -19.338871      -526.2374
   2   2.0000     -19.229119      -523.2509
   3   2.0000     -19.227937      -523.2188
   4   2.0000     -19.205208      -522.6003
   5   2.0000     -19.204757      -522.5880
   6   2.0000     -14.466219      -393.6458
   7   2.0000     -14.465078      -393.6148
   8   2.0000     -14.426654      -392.5692
   9   2.0000     -14.424493      -392.5104
  10   2.0000     -14.423601      -392.4861
  11   2.0000     -14.423177      -392.4746
  12   2.0000     -14.422331      -392.4516
  13   2.0000     -14.420514      -392.4021
  14   2.0000     -14.420498      -392.4017
  15   2.0000     -10.387471      -282.6574
  16   2.0000     -10.386938      -282.6429
  17   2.0000     -10.385637      -282.6076
  18   2.0000     -10.385351      -282.5998
  19   2.0000     -10.379544      -282.4418
  20   2.0000     -10.379059      -282.4286
  21   2.0000     -10.353616      -281.7362
  22   2.0000     -10.352304      -281.7005
  23   2.0000     -10.351929      -281.6903
  24   2.0000     -10.350164      -281.6423
  25   2.0000     -10.349576      -281.6263
  26   2.0000     -10.349289      -281.6185
  27   2.0000     -10.348305      -281.5917
  28   2.0000     -10.348106      -281.5863
  29   2.0000     -10.344944      -281.5002
  30   2.0000     -10.335662      -281.2477
  31   2.0000     -10.335027      -281.2304
  32   2.0000     -10.332088      -281.1504
  33   2.0000     -10.326615      -281.0015
  34   2.0000     -10.326279      -280.9923
  35   2.0000     -10.326156      -280.9890
  36   2.0000     -10.326034      -280.9857
  37   2.0000     -10.325708      -280.9768
  38   2.0000     -10.324754      -280.9508
  39   2.0000     -10.324564      -280.9457
  40   2.0000     -10.323258      -280.9101
  41   2.0000     -10.320028      -280.8222
  42   2.0000     -10.317757      -280.7604
  43   2.0000     -10.315239      -280.6919
  44   2.0000     -10.313571      -280.6465
  45   2.0000     -10.313438      -280.6429
  46   2.0000     -10.313003      -280.6311
  47   2.0000     -10.312911      -280.6286
  48   2.0000     -10.311964      -280.6028
  49   2.0000     -10.311171      -280.5812
  50   2.0000     -10.310663      -280.5674
  51   2.0000     -10.310037      -280.5504
  52   2.0000     -10.308939      -280.5205
  53   2.0000     -10.306949      -280.4663
  54   2.0000     -10.305731      -280.4332
  55   2.0000     -10.305457      -280.4257
  56   2.0000     -10.305194      -280.4186
  57   2.0000     -10.304320      -280.3948
  58   2.0000     -10.303443      -280.3710
  59   2.0000     -10.303256      -280.3659
  60   2.0000     -10.302916      -280.3566
  61   2.0000     -10.302737      -280.3517
  62   2.0000     -10.297282      -280.2033
  63   2.0000     -10.295009      -280.1415
  64   2.0000     -10.293741      -280.1069
  65   2.0000     -10.293249      -280.0935
  66   2.0000     -10.292757      -280.0802
  67   2.0000     -10.292212      -280.0653
  68   2.0000     -10.291673      -280.0507
  69   2.0000     -10.291191      -280.0376
  70   2.0000     -10.290939      -280.0307
  71   2.0000     -10.290476      -280.0181
  72   2.0000     -10.278102      -279.6814
  73   2.0000     -10.277194      -279.6567
  74   2.0000     -10.271437      -279.5000
  75   2.0000     -10.263861      -279.2939
  76   2.0000      -8.086706      -220.0504
  77   2.0000      -6.055722      -164.7846
  78   2.0000      -6.051640      -164.6735
  79   2.0000      -6.049172      -164.6063
  80   2.0000      -1.259431       -34.2709
  81   2.0000      -1.147093       -31.2140
  82   2.0000      -1.142985       -31.1022
  83   2.0000      -1.142676       -31.0938
  84   2.0000      -1.140420       -31.0324
  85   2.0000      -1.077399       -29.3175
  86   2.0000      -1.068726       -29.0815
  87   2.0000      -1.029062       -28.0022
  88   2.0000      -1.026502       -27.9325
  89   2.0000      -1.024735       -27.8844
  90   2.0000      -1.014490       -27.6057
  91   2.0000      -1.006913       -27.3995
  92   2.0000      -1.005504       -27.3612
  93   2.0000      -1.003532       -27.3075
  94   2.0000      -1.002631       -27.2830
  95   2.0000      -1.001473       -27.2515
  96   2.0000      -0.999864       -27.2077
  97   2.0000      -0.980150       -26.6712
  98   2.0000      -0.977956       -26.6115
  99   2.0000      -0.962532       -26.1918
 100   2.0000      -0.957145       -26.0452
 101   2.0000      -0.942461       -25.6457
 102   2.0000      -0.938902       -25.5488
 103   2.0000      -0.935612       -25.4593
 104   2.0000      -0.928385       -25.2626
 105   2.0000      -0.926504       -25.2114
 106   2.0000      -0.911029       -24.7904
 107   2.0000      -0.906343       -24.6628
 108   2.0000      -0.891854       -24.2686
 109   2.0000      -0.889900       -24.2154
 110   2.0000      -0.887474       -24.1494
 111   2.0000      -0.886618       -24.1261
 112   2.0000      -0.880604       -23.9625
 113   2.0000      -0.875979       -23.8366
 114   2.0000      -0.856108       -23.2959
 115   2.0000      -0.850747       -23.1500
 116   2.0000      -0.836040       -22.7498
 117   2.0000      -0.834121       -22.6976
 118   2.0000      -0.828420       -22.5425
 119   2.0000      -0.821692       -22.3594
 120   2.0000      -0.810338       -22.0504
 121   2.0000      -0.805106       -21.9081
 122   2.0000      -0.785244       -21.3676
 123   2.0000      -0.773207       -21.0400
 124   2.0000      -0.770561       -20.9680
 125   2.0000      -0.769308       -20.9339
 126   2.0000      -0.768286       -20.9061
 127   2.0000      -0.758345       -20.6356
 128   2.0000      -0.744350       -20.2548
 129   2.0000      -0.739154       -20.1134
 130   2.0000      -0.731392       -19.9022
 131   2.0000      -0.718889       -19.5620
 132   2.0000      -0.714603       -19.4453
 133   2.0000      -0.712195       -19.3798
 134   2.0000      -0.709735       -19.3129
 135   2.0000      -0.707173       -19.2431
 136   2.0000      -0.703120       -19.1329
 137   2.0000      -0.698017       -18.9940
 138   2.0000      -0.693402       -18.8684
 139   2.0000      -0.686379       -18.6773
 140   2.0000      -0.682774       -18.5792
 141   2.0000      -0.678208       -18.4550
 142   2.0000      -0.667229       -18.1562
 143   2.0000      -0.659667       -17.9505
 144   2.0000      -0.652075       -17.7439
 145   2.0000      -0.643653       -17.5147
 146   2.0000      -0.637522       -17.3479
 147   2.0000      -0.631677       -17.1888
 148   2.0000      -0.626702       -17.0534
 149   2.0000      -0.621779       -16.9195
 150   2.0000      -0.621125       -16.9017
 151   2.0000      -0.614444       -16.7199
 152   2.0000      -0.612555       -16.6685
 153   2.0000      -0.609445       -16.5838
 154   2.0000      -0.606767       -16.5110
 155   2.0000      -0.605671       -16.4811
 156   2.0000      -0.598952       -16.2983
 157   2.0000      -0.593572       -16.1519
 158   2.0000      -0.587597       -15.9893
 159   2.0000      -0.581978       -15.8364
 160   2.0000      -0.579211       -15.7611
 161   2.0000      -0.576683       -15.6923
 162   2.0000      -0.567415       -15.4402
 163   2.0000      -0.561997       -15.2927
 164   2.0000      -0.558847       -15.2070
 165   2.0000      -0.557489       -15.1701
 166   2.0000      -0.554522       -15.0893
 167   2.0000      -0.552217       -15.0266
 168   2.0000      -0.546947       -14.8832
 169   2.0000      -0.546559       -14.8726
 170   2.0000      -0.545459       -14.8427
 171   2.0000      -0.543702       -14.7949
 172   2.0000      -0.540601       -14.7105
 173   2.0000      -0.539750       -14.6874
 174   2.0000      -0.539509       -14.6808
 175   2.0000      -0.537048       -14.6138
 176   2.0000      -0.536351       -14.5948
 177   2.0000      -0.530414       -14.4333
 178   2.0000      -0.529687       -14.4135
 179   2.0000      -0.526005       -14.3133
 180   2.0000      -0.523535       -14.2461
 181   2.0000      -0.522201       -14.2098
 182   2.0000      -0.520882       -14.1739
 183   2.0000      -0.520659       -14.1678
 184   2.0000      -0.518161       -14.0999
 185   2.0000      -0.515119       -14.0171
 186   2.0000      -0.514453       -13.9990
 187   2.0000      -0.510759       -13.8985
 188   2.0000      -0.505489       -13.7551
 189   2.0000      -0.505283       -13.7494
 190   2.0000      -0.502617       -13.6769
 191   2.0000      -0.499383       -13.5889
 192   2.0000      -0.495444       -13.4817
 193   2.0000      -0.494111       -13.4455
 194   2.0000      -0.492445       -13.4001
 195   2.0000      -0.489424       -13.3179
 196   2.0000      -0.487041       -13.2531
 197   2.0000      -0.485787       -13.2189
 198   2.0000      -0.481695       -13.1076
 199   2.0000      -0.477995       -13.0069
 200   2.0000      -0.476334       -12.9617
 201   2.0000      -0.472246       -12.8505
 202   2.0000      -0.471523       -12.8308
 203   2.0000      -0.470285       -12.7971
 204   2.0000      -0.469126       -12.7656
 205   2.0000      -0.461704       -12.5636
 206   2.0000      -0.458235       -12.4692
 207   2.0000      -0.456059       -12.4100
 208   2.0000      -0.455247       -12.3879
 209   2.0000      -0.454788       -12.3754
 210   2.0000      -0.453106       -12.3296
 211   2.0000      -0.452381       -12.3099
 212   2.0000      -0.451639       -12.2897
 213   2.0000      -0.450438       -12.2570
 214   2.0000      -0.450107       -12.2480
 215   2.0000      -0.448230       -12.1970
 216   2.0000      -0.447627       -12.1806
 217   2.0000      -0.447386       -12.1740
 218   2.0000      -0.446218       -12.1422
 219   2.0000      -0.445846       -12.1321
 220   2.0000      -0.445332       -12.1181
 221   2.0000      -0.441210       -12.0059
 222   2.0000      -0.440734       -11.9930
 223   2.0000      -0.439707       -11.9650
 224   2.0000      -0.439401       -11.9567
 225   2.0000      -0.435086       -11.8393
 226   2.0000      -0.433523       -11.7967
 227   2.0000      -0.433121       -11.7858
 228   2.0000      -0.432945       -11.7810
 229   2.0000      -0.430758       -11.7215
 230   2.0000      -0.427466       -11.6319
 231   2.0000      -0.425662       -11.5828
 232   2.0000      -0.419782       -11.4228
 233   2.0000      -0.418931       -11.3997
 234   2.0000      -0.418395       -11.3851
 235   2.0000      -0.413770       -11.2593
 236   2.0000      -0.412189       -11.2162
 237   2.0000      -0.408499       -11.1158
 238   2.0000      -0.396639       -10.7931
 239   2.0000      -0.390945       -10.6382
 240   2.0000      -0.383245       -10.4286
 241   2.0000      -0.381137       -10.3713
 242   2.0000      -0.371331       -10.1044
 243   2.0000      -0.361778        -9.8445
 244   2.0000      -0.355693        -9.6789
 245   2.0000      -0.350182        -9.5289
 246   2.0000      -0.347612        -9.4590
 247   2.0000      -0.346898        -9.4396
 248   2.0000      -0.345616        -9.4047
 249   2.0000      -0.343755        -9.3540
 250   2.0000      -0.328311        -8.9338
 251   2.0000      -0.324858        -8.8398
 252   2.0000      -0.323665        -8.8074
 253   2.0000      -0.306918        -8.3517
 254   2.0000      -0.304033        -8.2732
 255   2.0000      -0.296402        -8.0655
 256   2.0000      -0.291068        -7.9204
 257   2.0000      -0.247638        -6.7386
 258   0.0000      -0.126384        -3.4391
 259   0.0000      -0.110836        -3.0160
 260   0.0000      -0.088718        -2.4141
 261   0.0000      -0.069539        -1.8923
 262   0.0000      -0.065447        -1.7809

MULLIKEN ATOMIC CHARGES
-----------------------
   0 C :    0.305502
   1 C :   -0.343669
   2 C :   -0.181560
   3 N :    0.151688
   4 C :   -0.199862
   5 N :    0.158948
   6 C :    0.048278
   7 C :   -0.006570
   8 C :   -0.073966
   9 C :    0.094807
  10 C :    0.093528
  11 C :   -0.077234
  12 C :   -0.016152
  13 C :    0.035067
  14 C :    0.037415
  15 C :   -0.013489
  16 C :    0.163517
  17 O :   -0.152920
  18 C :   -0.083763
  19 C :    0.050257
  20 C :   -0.107111
  21 S :    0.202288
  22 C :   -0.055160
  23 C :   -0.086589
  24 C :    0.039061
  25 C :   -0.157801
  26 N :    0.122424
  27 C :    0.058769
  28 C :   -0.027715
  29 C :    0.136966
  30 N :   -0.255003
  31 C :    0.091643
  32 C :    0.008491
  33 C :    0.168555
  34 O :   -0.193367
  35 C :   -0.055149
  36 C :   -0.063843
  37 C :    0.169186
  38 O :   -0.208013
  39 N :   -0.254154
  40 C :    0.093374
  41 C :    0.005089
  42 C :    0.136410
  43 C :   -0.023292
  44 C :   -0.053693
  45 C :    0.150610
  46 O :   -0.186389
  47 C :    0.151594
  48 C :   -0.001517
  49 C :   -0.007297
  50 C :   -0.288810
  51 N :    0.244950
  52 C :   -0.295351
  53 N :    0.240727
  54 C :   -0.034577
  55 C :    0.012065
  56 C :   -0.039719
  57 C :   -0.055532
  58 C :    0.330408
  59 C :   -0.347847
  60 C :   -0.182011
  61 N :    0.154242
  62 C :   -0.190027
  63 N :    0.154690
  64 C :    0.046967
  65 C :   -0.002854
  66 C :    0.150214
  67 O :   -0.159213
  68 C :   -0.075821
  69 C :    0.096847
  70 C :    0.094575
  71 C :   -0.079957
  72 C :   -0.016711
  73 C :    0.038261
  74 C :    0.034716
  75 C :   -0.014798
  76 H :   -0.011689
  77 H :   -0.007688
  78 H :   -0.008580
  79 H :   -0.002121
  80 H :   -0.003010
  81 H :   -0.016214
  82 H :    0.016192
  83 H :    0.027045
  84 H :    0.008531
  85 H :   -0.010222
  86 H :    0.037065
  87 H :    0.048246
  88 H :    0.017935
  89 H :    0.033661
  90 H :    0.025598
  91 H :    0.044750
  92 H :    0.032101
  93 H :    0.030237
  94 H :    0.029580
  95 H :    0.015773
  96 H :    0.002687
  97 H :    0.045375
  98 H :    0.038931
  99 H :    0.036002
 100 H :    0.016855
 101 H :   -0.016024
 102 H :   -0.007013
 103 H :   -0.006993
 104 H :   -0.001937
 105 H :   -0.001559
 106 H :   -0.017136
Sum of atomic charges:   -0.0000000

LOEWDIN ATOMIC CHARGES
----------------------
   0 C :    0.075801
   1 C :   -0.136923
   2 C :   -0.017041
   3 N :   -0.049957
   4 C :   -0.026214
   5 N :   -0.047831
   6 C :   -0.026959
   7 C :   -0.056639
   8 C :    0.034835
   9 C :   -0.007952
  10 C :   -0.005504
  11 C :    0.021048
  12 C :   -0.004586
  13 C :   -0.011675
  14 C :   -0.010432
  15 C :   -0.008533
  16 C :    0.089005
  17 O :   -0.139191
  18 C :   -0.083778
  19 C :    0.044769
  20 C :   -0.177792
  21 S :    0.504174
  22 C :   -0.128207
  23 C :   -0.106883
  24 C :    0.021295
  25 C :   -0.023518
  26 N :   -0.054602
  27 C :   -0.002807
  28 C :   -0.019974
  29 C :    0.077730
  30 N :    0.005012
  31 C :    0.037344
  32 C :   -0.058062
  33 C :    0.081987
  34 O :   -0.183028
  35 C :   -0.107347
  36 C :   -0.114195
  37 C :    0.080636
  38 O :   -0.197909
  39 N :    0.002235
  40 C :    0.036969
  41 C :   -0.059456
  42 C :    0.067825
  43 C :   -0.015366
  44 C :   -0.001898
  45 C :    0.075325
  46 O :    0.037113
  47 C :    0.065702
  48 C :   -0.069500
  49 C :   -0.075757
  50 C :   -0.035760
  51 N :   -0.014614
  52 C :   -0.035445
  53 N :   -0.017918
  54 C :    0.001716
  55 C :   -0.005548
  56 C :    0.061377
  57 C :   -0.076782
  58 C :    0.072098
  59 C :   -0.131039
  60 C :   -0.016924
  61 N :   -0.047374
  62 C :   -0.021514
  63 N :   -0.044725
  64 C :   -0.025598
  65 C :   -0.057561
  66 C :    0.087187
  67 O :   -0.150517
  68 C :    0.033491
  69 C :   -0.008056
  70 C :   -0.004948
  71 C :    0.021005
  72 C :   -0.004278
  73 C :   -0.010496
  74 C :   -0.010060
  75 C :   -0.009163
  76 H :    0.039582
  77 H :    0.039245
  78 H :    0.035124
  79 H :    0.034132
  80 H :    0.033674
  81 H :    0.032460
  82 H :    0.044466
  83 H :    0.043027
  84 H :    0.038356
  85 H :    0.037896
  86 H :    0.028325
  87 H :    0.040106
  88 H :    0.023126
  89 H :    0.036049
  90 H :    0.030374
  91 H :    0.038474
  92 H :    0.026478
  93 H :    0.032126
  94 H :    0.033712
  95 H :    0.022424
  96 H :    0.037114
  97 H :    0.049954
  98 H :    0.052623
  99 H :    0.035377
 100 H :    0.044046
 101 H :    0.037956
 102 H :    0.039682
 103 H :    0.035675
 104 H :    0.034465
 105 H :    0.034066
 106 H :    0.032045

  Mayer bond orders larger than 0.100000
B(  0-C ,  1-C ) :   1.6345 B(  0-C ,  6-C ) :   0.9879 B(  0-C , 18-C ) :   1.0651
B(  1-C ,  2-C ) :   1.1481 B(  1-C ,  4-C ) :   1.1339 B(  2-C ,  3-N ) :   2.9660
B(  4-C ,  5-N ) :   2.9854 B(  6-C ,  7-C ) :   1.2129 B(  6-C , 11-C ) :   1.4493
B(  7-C ,  8-C ) :   1.4691 B(  7-C , 16-C ) :   0.9574 B(  8-C ,  9-C ) :   1.1825
B(  8-C , 76-H ) :   1.0155 B(  9-C , 10-C ) :   1.2533 B(  9-C , 15-C ) :   1.2436
B( 10-C , 11-C ) :   1.2081 B( 10-C , 12-C ) :   1.2414 B( 11-C , 77-H ) :   0.9894
B( 12-C , 13-C ) :   1.4898 B( 12-C , 78-H ) :   0.9968 B( 13-C , 14-C ) :   1.2581
B( 13-C , 79-H ) :   0.9890 B( 14-C , 15-C ) :   1.4899 B( 14-C , 80-H ) :   0.9894
B( 15-C , 81-H ) :   0.9975 B( 16-C , 17-O ) :   2.1709 B( 16-C , 18-C ) :   0.9312
B( 18-C , 19-C ) :   1.6288 B( 19-C , 20-C ) :   1.1808 B( 19-C , 82-H ) :   0.9156
B( 20-C , 21-S ) :   1.1101 B( 20-C , 24-C ) :   1.4309 B( 21-S , 22-C ) :   1.1844
B( 22-C , 23-C ) :   1.3774 B( 22-C , 27-C ) :   1.1631 B( 23-C , 24-C ) :   1.3175
B( 23-C , 25-C ) :   1.1213 B( 24-C , 83-H ) :   0.9803 B( 25-C , 26-N ) :   2.9666
B( 27-C , 28-C ) :   1.6013 B( 27-C , 84-H ) :   0.9235 B( 28-C , 29-C ) :   1.1781
B( 28-C , 85-H ) :   0.9452 B( 29-C , 30-N ) :   1.1731 B( 29-C , 36-C ) :   1.3138
B( 30-N , 31-C ) :   0.9338 B( 30-N , 33-C ) :   1.0586 B( 31-C , 32-C ) :   1.1232
B( 31-C , 86-H ) :   0.9479 B( 31-C , 87-H ) :   0.9274 B( 32-C , 88-H ) :   0.9674
B( 32-C , 89-H ) :   0.9676 B( 32-C , 90-H ) :   0.9632 B( 33-C , 34-O ) :   2.0454
B( 33-C , 35-C ) :   0.9737 B( 34-O , 97-H ) :   0.1077 B( 35-C , 36-C ) :   1.2711
B( 35-C , 42-C ) :   1.3383 B( 36-C , 37-C ) :   0.9836 B( 37-C , 38-O ) :   2.0274
B( 37-C , 39-N ) :   1.0637 B( 38-O , 84-H ) :   0.1140 B( 39-N , 40-C ) :   0.9406
B( 39-N , 42-C ) :   1.1618 B( 40-C , 41-C ) :   1.1200 B( 40-C , 91-H ) :   0.9288
B( 40-C , 92-H ) :   0.9504 B( 41-C , 93-H ) :   0.9640 B( 41-C , 94-H ) :   0.9680
B( 41-C , 95-H ) :   0.9686 B( 42-C , 43-C ) :   1.1408 B( 43-C , 44-C ) :   1.5654
B( 43-C , 96-H ) :   0.9754 B( 44-C , 45-C ) :   1.2079 B( 44-C , 97-H ) :   0.9303
B( 45-C , 46-O ) :   1.1520 B( 45-C , 49-C ) :   1.3492 B( 46-O , 47-C ) :   1.1482
B( 47-C , 48-C ) :   1.3647 B( 47-C , 54-C ) :   1.1733 B( 48-C , 49-C ) :   1.3308
B( 48-C , 52-C ) :   1.1550 B( 49-C , 50-C ) :   1.1596 B( 50-C , 51-N ) :   3.0146
B( 52-C , 53-N ) :   3.0196 B( 54-C , 55-C ) :   1.5500 B( 54-C , 98-H ) :   0.9689
B( 55-C , 56-C ) :   1.1316 B( 55-C , 99-H ) :   0.9891 B( 56-C , 57-C ) :   1.5599
B( 56-C ,100-H ) :   0.9646 B( 57-C , 58-C ) :   1.0543 B( 57-C , 66-C ) :   0.9386
B( 58-C , 59-C ) :   1.6365 B( 58-C , 64-C ) :   0.9912 B( 59-C , 60-C ) :   1.1458
B( 59-C , 62-C ) :   1.1448 B( 60-C , 61-N ) :   2.9626 B( 62-C , 63-N ) :   2.9622
B( 64-C , 65-C ) :   1.2137 B( 64-C , 71-C ) :   1.4476 B( 65-C , 66-C ) :   0.9512
B( 65-C , 68-C ) :   1.4668 B( 66-C , 67-O ) :   2.1913 B( 68-C , 69-C ) :   1.1829
B( 68-C ,101-H ) :   1.0154 B( 69-C , 70-C ) :   1.2540 B( 69-C , 75-C ) :   1.2431
B( 70-C , 71-C ) :   1.2091 B( 70-C , 72-C ) :   1.2393 B( 71-C ,102-H ) :   0.9884
B( 72-C , 73-C ) :   1.4885 B( 72-C ,103-H ) :   0.9975 B( 73-C , 74-C ) :   1.2599
B( 73-C ,104-H ) :   0.9888 B( 74-C , 75-C ) :   1.4883 B( 74-C ,105-H ) :   0.9895
B( 75-C ,106-H ) :   0.9980

-----------------------------------------------------------------------------
         ABSORPTION SPECTRUM VIA TRANSITION ELECTRIC DIPOLE MOMENTS
-----------------------------------------------------------------------------
State   Energy  Wavelength   fosc         T2         TX        TY        TZ
        (cm-1)    (nm)                  (au**2)     (au)      (au)      (au)
-----------------------------------------------------------------------------
   0   12065.7    828.8   1.226441621  33.46334   2.34336  -5.22471  -0.82125
   1   17240.4    580.0   0.256607465   4.90002   1.40216   0.43600  -1.65646
   2   21564.7    463.7   0.098647368   1.50598  -0.11586   1.22141   0.02655
   3   22135.9    451.8   0.356435600   5.30101  -0.52767  -1.83594   1.28526
   4   23576.2    424.2   0.550901911   7.69266   1.64151  -1.38876  -1.75199
   5   24309.5    411.4   0.078175211   1.05869   0.29726   0.89119  -0.41965
   6   24894.0    401.7   0.008226393   0.10879   0.16743  -0.27936  -0.05213
   7   25508.9    392.0   0.323601269   4.17632  -1.42471   1.16151   0.89298
   8   26103.7    383.1   0.000182569   0.00230   0.03350  -0.01242  -0.03203
   9   26696.4    374.6   0.036884348   0.45485   0.30793  -0.58494   0.13368
  10   27127.0    368.6   0.056123128   0.68111  -0.48061  -0.41754   0.52515
  11   27248.4    367.0   0.089832552   1.08535   0.61474   0.31357  -0.78045
  12   27450.7    364.3   0.075603781   0.90670   0.49310   0.37470  -0.72330
  13   27900.4    358.4   0.042644748   0.50319   0.50828  -0.43683  -0.23242
  14   28064.5    356.3   0.108180402   1.26902  -0.70433  -0.40687   0.77936
  15   28491.8    351.0   0.002377509   0.02747   0.12390   0.01638  -0.10886
  16   29031.1    344.5   0.150983245   1.71215   0.91520  -0.93510  -0.01233
  17   30088.5    332.4   0.069414281   0.75949  -0.31212  -0.09296   0.80835
  18   30640.5    326.4   0.000321559   0.00345   0.05107   0.00891  -0.02770
  19   31770.9    314.8   0.364995158   3.78210  -1.43623  -0.19227   1.29706
  20   32058.6    311.9   0.035926888   0.36894  -0.35940  -0.26047   0.41463
  21   32398.6    308.7   0.695786621   7.07010  -1.77949   1.96350  -0.21945
  22   32631.8    306.5   0.073142244   0.73791  -0.59683  -0.17753   0.59176
  23   33142.6    301.7   0.180712371   1.79505   1.06198   0.05386  -0.81508
  24   33185.6    301.3   0.086862043   0.86170   0.41570   0.23233  -0.79681
  25   33471.2    298.8   0.053070311   0.52198  -0.07002   0.64601  -0.31584
  26   33744.0    296.3   0.000166927   0.00163   0.02257   0.02486  -0.02239
  27   33795.1    295.9   0.144047974   1.40323  -0.82025  -0.15787   0.83994
  28   33950.8    294.5   0.013265081   0.12863   0.10861   0.22266  -0.25933
  29   34241.9    292.0   0.146436844   1.40789   0.76296   0.22808  -0.87963
  30   34442.4    290.3   0.105945493   1.01266   0.64260   0.18626  -0.75169
  31   34699.7    288.2   0.001064848   0.01010  -0.00730   0.05119  -0.08619
  32   35624.6    280.7   0.502193604   4.64084  -1.73095   0.46916   1.19354
  33   35923.6    278.4   0.126362712   1.15802  -0.79855   0.72108   0.01943
  34   36368.8    275.0   0.370220460   3.35125   0.50611   0.69667  -1.61547
  35   36475.8    274.2   0.263523981   2.37843   1.09884  -0.33393  -1.02931
  36   37298.6    268.1   0.022159926   0.19559   0.24861  -0.31704   0.18241
  37   37350.1    267.7   0.062492271   0.55082  -0.02858   0.43547  -0.60030
  38   37475.5    266.8   0.007199408   0.06324  -0.12176   0.18524  -0.11876
  39   37712.1    265.2   0.046229817   0.40357   0.06891   0.39720  -0.49097
  40   38023.7    263.0   0.071832536   0.62193  -0.27357  -0.27727   0.68572
  41   38336.7    260.8   0.003222472   0.02767   0.10746  -0.12302  -0.03147
  42   38521.4    259.6   0.036115603   0.30865   0.25240  -0.43480   0.23642
  43   38710.3    258.3   0.045685823   0.38854  -0.11192  -0.51478   0.33319
  44   38833.8    257.5   0.089523921   0.75894   0.67157  -0.41239  -0.37130
  45   39125.4    255.6   0.114517319   0.96358   0.30945   0.17821  -0.91436
  46   39387.4    253.9   0.005890852   0.04924   0.05550  -0.20169   0.07402
  47   39519.5    253.0   0.097277478   0.81036   0.43608  -0.78696  -0.02983
  48   39863.7    250.9   0.199456945   1.64720   0.09424   1.18101  -0.49349
  49   40056.8    249.6   0.144580734   1.18825  -0.52910   0.72764   0.61550

FINAL SINGLE POINT ENERGY     -3605.971966578994

DIPOLE MOMENT
-------------
                                X             Y             Z
Electronic contribution:    -15.21557       8.42023       3.19977
Nuclear contribution   :     19.64498      -9.84730      -5.19795
                        -----------------------------------------
Total Dipole Moment    :      4.42941      -1.42708      -1.99819
                        -----------------------------------------
Magnitude (a.u.)       :      5.06448
Magnitude (Debye)      :     12.87289

Rotational constants in cm-1:     0.001225     0.000228     0.000195
Rotational constants in MHz :    36.718206     6.832450     5.831798

                             ****ORCA TERMINATED NORMALLY****
TOTAL RUN TIME: 0 days 0 hours 10 minutes 19 seconds 69 msec
