                         Program Version 4.2.0 -  RELEASE  -
|  1> # ORCA input file
|  2> # SCF done       -124.061465206891          0.000275592164
|  3> ! CAM-B3LYP def2-SVP def2/J RIJCOSX Grid4 TightSCF
|  4> %maxcore 5000
|  5> %tddft
|  6>     Mode sTDDFT
|  7>     Ethresh 5.0
|  8>     maxcore 5000
|  9> end
| 10>
| 11> %pal
| 12>   nprocs 6
| 13>   end
| 14> * xyz 0 1
| 15>    C       -3.39673        -1.53576         2.01546
| 16>    N       -4.39623        -0.74970         2.49896
| 17>    C       -5.49810        -1.18877         3.31694
| 18>    C       -5.06585        -1.43767         4.75958
| 19>    C       -4.20789         0.60284         2.13934
| 20>    O       -4.97780         1.49119         2.46282
| 21>    C       -2.99230         0.59438         1.37030
| 22>    C       -2.51802        -0.75542         1.31811
| 23>    C       -1.30286        -0.77198         0.52869
| 24>    O       -0.54307        -1.66129         0.21615
| 25>    N       -1.12469         0.57236         0.14933
| 26>    C       -0.02486         0.96515        -0.69691
| 27>    C       -0.45065         1.11308        -2.15598
| 28>    C       -2.12255         1.39205         0.63478
| 29>    C       -2.18443         2.78055         0.37726
| 30>    C       -3.14275         3.59302         0.90572
| 31>    C       -3.26532         4.96157         0.59010
| 32>    S       -2.43587         5.61155        -0.79374
| 33>    C       -3.22680         7.13634        -0.66431
| 34>    C       -4.09052         7.16896         0.44434
| 35>    C       -4.08632         5.94349         1.17844
| 36>    C       -4.85786         5.84213         2.36668
| 37>    C       -4.75958         4.69445         3.26628
| 38>    C       -5.79031         4.14806         3.89464
| 39>    C       -5.66144         6.91201         2.70199
| 40>    C       -5.70299         8.08811         1.94048
| 41>    C       -4.91101         8.24095         0.83541
| 42>    C       -3.00090         8.15131        -1.61680
| 43>    S       -1.89621         7.95117        -2.98037
| 44>    C       -2.38218         9.58539        -3.43717
| 45>    N       -3.24266        10.09631        -2.60774
| 46>    N       -3.58100         9.32274        -1.61753
| 47>    C       -1.87426        10.22556        -4.60474
| 48>    C       -2.27485        11.45687        -4.97494
| 49>    C       -1.83780        12.16875        -6.14642
| 50>    C       -0.88172        11.70973        -7.06582
| 51>    N       -0.53257        12.39403        -8.13157
| 52>    C       -1.11841        13.57473        -8.33183
| 53>    N       -2.02750        14.11582        -7.52045
| 54>    C       -2.37556        13.42853        -6.45706
| 55>    C       -0.73880        14.32672        -9.52205
| 56>    C        0.20068        13.84554       -10.43810
| 57>    N        0.53884        14.52686       -11.51723
| 58>    C       -0.05445        15.69474       -11.69619
| 59>    N       -0.95305        16.25121       -10.90180
| 60>    C       -1.29473        15.57376        -9.82154
| 61>    H       -3.38940        -2.59495         2.19387
| 62>    H       -5.92621        -2.09856         2.88546
| 63>    H       -6.24395        -0.38972         3.28312
| 64>    H       -4.30968        -2.21829         4.80483
| 65>    H       -5.92161        -1.74522         5.35402
| 66>    H       -4.65196        -0.52788         5.18754
| 67>    H        0.71862         0.16714        -0.61381
| 68>    H        0.41276         1.89491        -0.32215
| 69>    H       -0.83595         0.16602        -2.52538
| 70>    H        0.40425         1.40091        -2.76170
| 71>    H       -1.22664         1.86790        -2.26319
| 72>    H       -1.43009         3.21065        -0.26798
| 73>    H       -3.88422         3.17295         1.57194
| 74>    H       -3.76034         4.31326         3.43149
| 75>    H       -6.80081         4.47972         3.72344
| 76>    H       -5.66370         3.31746         4.56501
| 77>    H       -6.24988         6.85295         3.60528
| 78>    H       -6.34942         8.89321         2.25574
| 79>    H       -4.89368         9.15006         0.25797
| 80>    H       -1.15853         9.65872        -5.18151
| 81>    H       -2.99932        11.96287        -4.35062
| 82>    H       -0.37762        10.76027        -6.94028
| 83>    H       -3.11747        13.88892        -5.81544
| 84>    H        0.68311        12.88941       -10.28710
| 85>    H        0.22363        16.25156       -12.58185
| 86>    H       -2.02940        16.02419        -9.16813
| 87> *
| 88>
| 89>                          ****END OF INPUT****

CARTESIAN COORDINATES (ANGSTROEM)
---------------------------------
  C     -3.396730   -1.535760    2.015460
  N     -4.396230   -0.749700    2.498960
  C     -5.498100   -1.188770    3.316940
  C     -5.065850   -1.437670    4.759580
  C     -4.207890    0.602840    2.139340
  O     -4.977800    1.491190    2.462820
  C     -2.992300    0.594380    1.370300
  C     -2.518020   -0.755420    1.318110
  C     -1.302860   -0.771980    0.528690
  O     -0.543070   -1.661290    0.216150
  N     -1.124690    0.572360    0.149330
  C     -0.024860    0.965150   -0.696910
  C     -0.450650    1.113080   -2.155980
  C     -2.122550    1.392050    0.634780
  C     -2.184430    2.780550    0.377260
  C     -3.142750    3.593020    0.905720
  C     -3.265320    4.961570    0.590100
  S     -2.435870    5.611550   -0.793740
  C     -3.226800    7.136340   -0.664310
  C     -4.090520    7.168960    0.444340
  C     -4.086320    5.943490    1.178440
  C     -4.857860    5.842130    2.366680
  C     -4.759580    4.694450    3.266280
  C     -5.790310    4.148060    3.894640
  C     -5.661440    6.912010    2.701990
  C     -5.702990    8.088110    1.940480
  C     -4.911010    8.240950    0.835410
  C     -3.000900    8.151310   -1.616800
  S     -1.896210    7.951170   -2.980370
  C     -2.382180    9.585390   -3.437170
  N     -3.242660   10.096310   -2.607740
  N     -3.581000    9.322740   -1.617530
  C     -1.874260   10.225560   -4.604740
  C     -2.274850   11.456870   -4.974940
  C     -1.837800   12.168750   -6.146420
  C     -0.881720   11.709730   -7.065820
  N     -0.532570   12.394030   -8.131570
  C     -1.118410   13.574730   -8.331830
  N     -2.027500   14.115820   -7.520450
  C     -2.375560   13.428530   -6.457060
  C     -0.738800   14.326720   -9.522050
  C      0.200680   13.845540  -10.438100
  N      0.538840   14.526860  -11.517230
  C     -0.054450   15.694740  -11.696190
  N     -0.953050   16.251210  -10.901800
  C     -1.294730   15.573760   -9.821540
  H     -3.389400   -2.594950    2.193870
  H     -5.926210   -2.098560    2.885460
  H     -6.243950   -0.389720    3.283120
  H     -4.309680   -2.218290    4.804830
  H     -5.921610   -1.745220    5.354020
  H     -4.651960   -0.527880    5.187540
  H      0.718620    0.167140   -0.613810
  H      0.412760    1.894910   -0.322150
  H     -0.835950    0.166020   -2.525380
  H      0.404250    1.400910   -2.761700
  H     -1.226640    1.867900   -2.263190
  H     -1.430090    3.210650   -0.267980
  H     -3.884220    3.172950    1.571940
  H     -3.760340    4.313260    3.431490
  H     -6.800810    4.479720    3.723440
  H     -5.663700    3.317460    4.565010
  H     -6.249880    6.852950    3.605280
  H     -6.349420    8.893210    2.255740
  H     -4.893680    9.150060    0.257970
  H     -1.158530    9.658720   -5.181510
  H     -2.999320   11.962870   -4.350620
  H     -0.377620   10.760270   -6.940280
  H     -3.117470   13.888920   -5.815440
  H      0.683110   12.889410  -10.287100
  H      0.223630   16.251560  -12.581850
  H     -2.029400   16.024190   -9.168130

 Total Charge           Charge          ....    0
 Multiplicity           Mult            ....    1
 Number of Electrons    NEL             ....  334
 Basis Dimension        Dim             ....  782

ORBITAL ENERGIES
----------------

  NO   OCC          E(Eh)            E(eV)
   0   2.0000     -88.980257     -2421.2759
   1   2.0000     -88.977155     -2421.1915
   2   2.0000     -19.183522      -522.0102
   3   2.0000     -19.181797      -521.9632
   4   2.0000     -14.448442      -393.1621
   5   2.0000     -14.446681      -393.1142
   6   2.0000     -14.441577      -392.9753
   7   2.0000     -14.441511      -392.9735
   8   2.0000     -14.424503      -392.5107
   9   2.0000     -14.423243      -392.4764
  10   2.0000     -14.404735      -391.9728
  11   2.0000     -14.404686      -391.9714
  12   2.0000     -10.368094      -282.1302
  13   2.0000     -10.365525      -282.0603
  14   2.0000     -10.357441      -281.8403
  15   2.0000     -10.352977      -281.7188
  16   2.0000     -10.346688      -281.5477
  17   2.0000     -10.337630      -281.3012
  18   2.0000     -10.336448      -281.2690
  19   2.0000     -10.333899      -281.1997
  20   2.0000     -10.330404      -281.1046
  21   2.0000     -10.322608      -280.8924
  22   2.0000     -10.321605      -280.8651
  23   2.0000     -10.317577      -280.7555
  24   2.0000     -10.316375      -280.7228
  25   2.0000     -10.316164      -280.7171
  26   2.0000     -10.306361      -280.4503
  27   2.0000     -10.305729      -280.4332
  28   2.0000     -10.305637      -280.4306
  29   2.0000     -10.303066      -280.3607
  30   2.0000     -10.302035      -280.3326
  31   2.0000     -10.296931      -280.1937
  32   2.0000     -10.292213      -280.0653
  33   2.0000     -10.291538      -280.0470
  34   2.0000     -10.288368      -279.9607
  35   2.0000     -10.287238      -279.9300
  36   2.0000     -10.282947      -279.8132
  37   2.0000     -10.272471      -279.5282
  38   2.0000     -10.272044      -279.5165
  39   2.0000     -10.267283      -279.3870
  40   2.0000     -10.264335      -279.3067
  41   2.0000     -10.263691      -279.2892
  42   2.0000     -10.262596      -279.2594
  43   2.0000     -10.255962      -279.0789
  44   2.0000     -10.254225      -279.0316
  45   2.0000     -10.252366      -278.9811
  46   2.0000      -8.075400      -219.7428
  47   2.0000      -8.073568      -219.6929
  48   2.0000      -6.044322      -164.4744
  49   2.0000      -6.042389      -164.4218
  50   2.0000      -6.040374      -164.3669
  51   2.0000      -6.038982      -164.3291
  52   2.0000      -6.038142      -164.3062
  53   2.0000      -6.035667      -164.2389
  54   2.0000      -1.146086       -31.1866
  55   2.0000      -1.125929       -30.6381
  56   2.0000      -1.119131       -30.4531
  57   2.0000      -1.098368       -29.8881
  58   2.0000      -1.075823       -29.2746
  59   2.0000      -1.056695       -28.7541
  60   2.0000      -1.048376       -28.5278
  61   2.0000      -1.009750       -27.4767
  62   2.0000      -0.992241       -27.0002
  63   2.0000      -0.971909       -26.4470
  64   2.0000      -0.954778       -25.9808
  65   2.0000      -0.942573       -25.6487
  66   2.0000      -0.933076       -25.3903
  67   2.0000      -0.924075       -25.1453
  68   2.0000      -0.920939       -25.0600
  69   2.0000      -0.901505       -24.5312
  70   2.0000      -0.889265       -24.1981
  71   2.0000      -0.880016       -23.9465
  72   2.0000      -0.868809       -23.6415
  73   2.0000      -0.847349       -23.0575
  74   2.0000      -0.839206       -22.8360
  75   2.0000      -0.832051       -22.6413
  76   2.0000      -0.817320       -22.2404
  77   2.0000      -0.809246       -22.0207
  78   2.0000      -0.790564       -21.5123
  79   2.0000      -0.784245       -21.3404
  80   2.0000      -0.770605       -20.9692
  81   2.0000      -0.765729       -20.8365
  82   2.0000      -0.758084       -20.6285
  83   2.0000      -0.732592       -19.9348
  84   2.0000      -0.730081       -19.8665
  85   2.0000      -0.726090       -19.7579
  86   2.0000      -0.715500       -19.4698
  87   2.0000      -0.706949       -19.2371
  88   2.0000      -0.705544       -19.1988
  89   2.0000      -0.695422       -18.9234
  90   2.0000      -0.682633       -18.5754
  91   2.0000      -0.674525       -18.3547
  92   2.0000      -0.658777       -17.9262
  93   2.0000      -0.647822       -17.6281
  94   2.0000      -0.639434       -17.3999
  95   2.0000      -0.634404       -17.2630
  96   2.0000      -0.625193       -17.0124
  97   2.0000      -0.610476       -16.6119
  98   2.0000      -0.605870       -16.4866
  99   2.0000      -0.598419       -16.2838
 100   2.0000      -0.591898       -16.1064
 101   2.0000      -0.587296       -15.9811
 102   2.0000      -0.582401       -15.8479
 103   2.0000      -0.577311       -15.7094
 104   2.0000      -0.576721       -15.6934
 105   2.0000      -0.570041       -15.5116
 106   2.0000      -0.559795       -15.2328
 107   2.0000      -0.556315       -15.1381
 108   2.0000      -0.549449       -14.9513
 109   2.0000      -0.547889       -14.9088
 110   2.0000      -0.541439       -14.7333
 111   2.0000      -0.537035       -14.6135
 112   2.0000      -0.533993       -14.5307
 113   2.0000      -0.527881       -14.3644
 114   2.0000      -0.524321       -14.2675
 115   2.0000      -0.520228       -14.1561
 116   2.0000      -0.518013       -14.0958
 117   2.0000      -0.512692       -13.9511
 118   2.0000      -0.510797       -13.8995
 119   2.0000      -0.510467       -13.8905
 120   2.0000      -0.508435       -13.8352
 121   2.0000      -0.506930       -13.7943
 122   2.0000      -0.504799       -13.7363
 123   2.0000      -0.500469       -13.6185
 124   2.0000      -0.494864       -13.4659
 125   2.0000      -0.492467       -13.4007
 126   2.0000      -0.491664       -13.3789
 127   2.0000      -0.488687       -13.2978
 128   2.0000      -0.484691       -13.1891
 129   2.0000      -0.480179       -13.0663
 130   2.0000      -0.473073       -12.8730
 131   2.0000      -0.465855       -12.6765
 132   2.0000      -0.463262       -12.6060
 133   2.0000      -0.454228       -12.3602
 134   2.0000      -0.452039       -12.3006
 135   2.0000      -0.451374       -12.2825
 136   2.0000      -0.447697       -12.1825
 137   2.0000      -0.445203       -12.1146
 138   2.0000      -0.438360       -11.9284
 139   2.0000      -0.436915       -11.8891
 140   2.0000      -0.430357       -11.7106
 141   2.0000      -0.427514       -11.6332
 142   2.0000      -0.425770       -11.5858
 143   2.0000      -0.419315       -11.4101
 144   2.0000      -0.412452       -11.2234
 145   2.0000      -0.406726       -11.0676
 146   2.0000      -0.403406       -10.9772
 147   2.0000      -0.399580       -10.8731
 148   2.0000      -0.399226       -10.8635
 149   2.0000      -0.390572       -10.6280
 150   2.0000      -0.385108       -10.4793
 151   2.0000      -0.384446       -10.4613
 152   2.0000      -0.367648       -10.0042
 153   2.0000      -0.362992        -9.8775
 154   2.0000      -0.354797        -9.6545
 155   2.0000      -0.343171        -9.3382
 156   2.0000      -0.340738        -9.2720
 157   2.0000      -0.336121        -9.1463
 158   2.0000      -0.327541        -8.9128
 159   2.0000      -0.324814        -8.8386
 160   2.0000      -0.323679        -8.8078
 161   2.0000      -0.315268        -8.5789
 162   2.0000      -0.314597        -8.5606
 163   2.0000      -0.308337        -8.3903
 164   2.0000      -0.292676        -7.9641
 165   2.0000      -0.262352        -7.1390
 166   2.0000      -0.231575        -6.3015
 167   0.0000      -0.095492        -2.5985
 168   0.0000      -0.061225        -1.6660
 169   0.0000      -0.032105        -0.8736
 170   0.0000      -0.015045        -0.4094
 171   0.0000      -0.006570        -0.1788

MULLIKEN ATOMIC CHARGES
-----------------------
   0 C :    0.031829
   1 N :   -0.255897
   2 C :    0.111520
   3 C :   -0.001097
   4 C :    0.163271
   5 O :   -0.220427
   6 C :   -0.103954
   7 C :    0.007640
   8 C :    0.160691
   9 O :   -0.189005
  10 N :   -0.272291
  11 C :    0.100381
  12 C :    0.004478
  13 C :    0.167890
  14 C :   -0.056270
  15 C :   -0.011397
  16 C :   -0.124928
  17 S :    0.151539
  18 C :   -0.055685
  19 C :    0.061216
  20 C :    0.117287
  21 C :    0.037604
  22 C :   -0.043788
  23 C :    0.012557
  24 C :   -0.030675
  25 C :    0.046347
  26 C :   -0.018094
  27 C :   -0.097666
  28 S :    0.083469
  29 C :   -0.091995
  30 N :   -0.040121
  31 N :   -0.055776
  32 C :    0.065919
  33 C :    0.016998
  34 C :    0.019148
  35 C :    0.046020
  36 N :   -0.046292
  37 C :   -0.063964
  38 N :   -0.045064
  39 C :    0.036947
  40 C :    0.000267
  41 C :    0.045960
  42 N :   -0.090198
  43 C :    0.068863
  44 N :   -0.091416
  45 C :    0.045462
  46 H :    0.012757
  47 H :    0.017360
  48 H :    0.040961
  49 H :    0.016201
  50 H :    0.022073
  51 H :    0.027293
  52 H :    0.042860
  53 H :    0.019873
  54 H :    0.030258
  55 H :    0.020795
  56 H :    0.013018
  57 H :   -0.022998
  58 H :    0.056440
  59 H :    0.013356
  60 H :    0.015969
  61 H :    0.024488
  62 H :   -0.019755
  63 H :   -0.011202
  64 H :   -0.002477
  65 H :   -0.008912
  66 H :    0.018795
  67 H :    0.006118
  68 H :    0.012286
  69 H :    0.017524
  70 H :    0.019906
  71 H :    0.019712
Sum of atomic charges:   -0.0000000

LOEWDIN ATOMIC CHARGES
----------------------
   0 C :    0.081797
   1 N :    0.000615
   2 C :    0.037777
   3 C :   -0.060938
   4 C :    0.073625
   5 O :   -0.209650
   6 C :   -0.136592
   7 C :   -0.126535
   8 C :    0.081984
   9 O :   -0.192943
  10 N :   -0.010634
  11 C :    0.035366
  12 C :   -0.061786
  13 C :    0.085467
  14 C :   -0.068707
  15 C :    0.015612
  16 C :   -0.167505
  17 S :    0.478628
  18 C :   -0.204945
  19 C :   -0.025196
  20 C :   -0.028348
  21 C :   -0.014802
  22 C :   -0.028812
  23 C :   -0.017270
  24 C :   -0.009794
  25 C :   -0.015368
  26 C :   -0.011507
  27 C :   -0.154873
  28 S :    0.367872
  29 C :   -0.146459
  30 N :   -0.074099
  31 N :   -0.074034
  32 C :   -0.052015
  33 C :    0.019070
  34 C :   -0.075935
  35 C :    0.062835
  36 N :   -0.075272
  37 C :    0.037116
  38 N :   -0.075257
  39 C :    0.059196
  40 C :   -0.091368
  41 C :    0.069075
  42 N :   -0.086257
  43 C :    0.052405
  44 N :   -0.085881
  45 C :    0.069940
  46 H :    0.031292
  47 H :    0.024192
  48 H :    0.035209
  49 H :    0.022742
  50 H :    0.029533
  51 H :    0.030288
  52 H :    0.037574
  53 H :    0.021597
  54 H :    0.032638
  55 H :    0.029454
  56 H :    0.020434
  57 H :    0.018784
  58 H :    0.049078
  59 H :    0.031001
  60 H :    0.021420
  61 H :    0.025756
  62 H :    0.029905
  63 H :    0.031587
  64 H :    0.032114
  65 H :    0.029538
  66 H :    0.041428
  67 H :    0.024939
  68 H :    0.029274
  69 H :    0.027486
  70 H :    0.019030
  71 H :    0.028110

  Mayer bond orders larger than 0.100000
B(  0-C ,  1-N ) :   1.1843 B(  0-C ,  7-C ) :   1.4590 B(  0-C , 46-H ) :   0.9903
B(  1-N ,  2-C ) :   0.9447 B(  1-N ,  4-C ) :   1.0613 B(  2-C ,  3-C ) :   1.1191
B(  2-C , 47-H ) :   0.9536 B(  2-C , 48-H ) :   0.9343 B(  3-C , 49-H ) :   0.9690
B(  3-C , 50-H ) :   0.9687 B(  3-C , 51-H ) :   0.9672 B(  4-C ,  5-O ) :   1.9929
B(  4-C ,  6-C ) :   1.0180 B(  5-O , 58-H ) :   0.1052 B(  6-C ,  7-C ) :   1.2058
B(  6-C , 13-C ) :   1.3554 B(  7-C ,  8-C ) :   0.9474 B(  8-C ,  9-O ) :   2.1735
B(  8-C , 10-N ) :   1.0209 B( 10-N , 11-C ) :   0.9494 B( 10-N , 13-C ) :   1.1504
B( 11-C , 12-C ) :   1.1201 B( 11-C , 52-H ) :   0.9276 B( 11-C , 53-H ) :   0.9500
B( 12-C , 54-H ) :   0.9637 B( 12-C , 55-H ) :   0.9678 B( 12-C , 56-H ) :   0.9681
B( 13-C , 14-C ) :   1.1804 B( 14-C , 15-C ) :   1.5518 B( 14-C , 57-H ) :   0.9575
B( 15-C , 16-C ) :   1.1798 B( 15-C , 58-H ) :   0.9453 B( 16-C , 17-S ) :   1.1304
B( 16-C , 18-C ) :   0.1171 B( 16-C , 20-C ) :   1.3152 B( 17-S , 18-C ) :   1.1660
B( 18-C , 19-C ) :   1.3419 B( 18-C , 27-C ) :   1.1342 B( 19-C , 20-C ) :   1.1977
B( 19-C , 26-C ) :   1.2520 B( 20-C , 21-C ) :   1.2072 B( 21-C , 22-C ) :   1.0235
B( 21-C , 24-C ) :   1.5339 B( 22-C , 23-C ) :   1.9871 B( 22-C , 59-H ) :   0.9489
B( 23-C , 60-H ) :   0.9596 B( 23-C , 61-H ) :   0.9453 B( 24-C , 25-C ) :   1.2100
B( 24-C , 62-H ) :   0.9888 B( 25-C , 26-C ) :   1.4848 B( 25-C , 63-H ) :   0.9867
B( 26-C , 64-H ) :   0.9829 B( 27-C , 28-S ) :   1.0909 B( 27-C , 31-N ) :   1.6658
B( 28-S , 29-C ) :   1.0746 B( 29-C , 30-N ) :   1.6919 B( 29-C , 32-C ) :   1.0965
B( 30-N , 31-N ) :   1.2252 B( 32-C , 33-C ) :   1.7408 B( 32-C , 65-H ) :   0.9435
B( 33-C , 34-C ) :   1.0546 B( 33-C , 66-H ) :   0.9840 B( 34-C , 35-C ) :   1.3046
B( 34-C , 39-C ) :   1.3071 B( 35-C , 36-N ) :   1.5824 B( 35-C , 67-H ) :   0.9833
B( 36-N , 37-C ) :   1.5640 B( 37-C , 38-N ) :   1.5749 B( 37-C , 40-C ) :   0.9672
B( 38-N , 39-C ) :   1.5652 B( 39-C , 68-H ) :   0.9900 B( 40-C , 41-C ) :   1.3576
B( 40-C , 45-C ) :   1.3571 B( 41-C , 42-N ) :   1.5540 B( 41-C , 69-H ) :   0.9791
B( 42-N , 43-C ) :   1.5048 B( 43-C , 44-N ) :   1.5071 B( 43-C , 70-H ) :   0.9756
B( 44-N , 45-C ) :   1.5520 B( 45-C , 71-H ) :   0.9793

-----------------------------------------------------------------------------
         ABSORPTION SPECTRUM VIA TRANSITION ELECTRIC DIPOLE MOMENTS
-----------------------------------------------------------------------------
State   Energy  Wavelength   fosc         T2         TX        TY        TZ
        (cm-1)    (nm)                  (au**2)     (au)      (au)      (au)
-----------------------------------------------------------------------------
   0   14871.0    672.5   0.961771567  21.29161  -0.47761  -4.01238   2.22806
   1   20117.3    497.1   0.160844069   2.63215   0.19607  -1.29553   0.95671
   2   24125.0    414.5   0.130098484   1.77534   0.33973   0.03617  -1.28787
   3   26772.9    373.5   0.475944376   5.85242   0.41096   1.68536  -1.68614
   4   27625.5    362.0   0.017343055   0.20668  -0.25734  -0.19760   0.31844
   5   27785.9    359.9   0.024530827   0.29065  -0.52822   0.08997   0.05943
   6   28499.2    350.9   0.000454446   0.00525  -0.02203  -0.03610   0.05883
   7   29108.8    343.5   0.032302608   0.36533   0.33194   0.15006  -0.48232
   8   31424.6    318.2   0.047749262   0.50023   0.39942  -0.05147  -0.58142
   9   31458.5    317.9   0.355828433   3.72373   1.16854   0.04222  -1.53508
  10   31522.0    317.2   0.145287158   1.51736   0.64694  -0.26018  -1.01545
  11   32851.9    304.4   0.122258673   1.22516   0.62379  -0.88276  -0.23827
  12   33747.3    296.3   0.000173112   0.00169  -0.03664  -0.00772   0.01693
  13   33786.3    296.0   0.000029111   0.00028   0.01434  -0.00865   0.00181
  14   34867.8    286.8   0.143697071   1.35675   0.81758  -0.77503  -0.29603
  15   34953.1    286.1   0.124558243   1.17318  -0.25547   0.96134  -0.42865
  16   35565.4    281.2   0.026581393   0.24605  -0.04454  -0.31347   0.38184
  17   36214.6    276.1   0.035485414   0.32258   0.35839   0.31194  -0.31119
  18   36426.8    274.5   0.427590008   3.86440  -0.67291  -0.87952   1.62421
  19   36963.7    270.5   0.040851189   0.36383   0.01769  -0.49231   0.34807
  20   37874.6    264.0   0.051430873   0.44705  -0.54452   0.20093   0.33191
  21   38803.8    257.7   0.007436247   0.06309  -0.18640  -0.10769  -0.12941
  22   39020.6    256.3   0.007983092   0.06735  -0.03399   0.25046   0.05888
  23   39348.3    254.1   0.044323828   0.37084   0.45687  -0.13879  -0.37795

FINAL SINGLE POINT ENERGY     -2693.456234023278

DIPOLE MOMENT
-------------
                                X             Y             Z
Electronic contribution:      9.54655      37.96221     -28.89770
Nuclear contribution   :     -9.96213     -38.96574      30.22001
                        -----------------------------------------
Total Dipole Moment    :     -0.41559      -1.00353       1.32231
                        -----------------------------------------
Magnitude (a.u.)       :      1.71122
Magnitude (Debye)      :      4.34958

Rotational constants in cm-1:     0.004730     0.000538     0.000488
Rotational constants in MHz :   141.790338    16.128966    14.643210

                             ****ORCA TERMINATED NORMALLY****
TOTAL RUN TIME: 0 days 0 hours 8 minutes 49 seconds 511 msec
