                         Program Version 4.2.0 -  RELEASE  -
|  1> # ORCA input file
|  2> # SCF done       -183.817985274579          0.000918062250
|  3> ! CAM-B3LYP def2-SVP def2/J RIJCOSX Grid4 TightSCF
|  4> %maxcore 5000
|  5> %tddft
|  6>     Mode sTDDFT
|  7>     Ethresh 5.0
|  8>     maxcore 5000
|  9> end
| 10>
| 11> %pal
| 12>   nprocs 6
| 13>   end
| 14> * xyz 0 1
| 15>    C       -1.49102         1.94074         8.12685
| 16>    N       -1.51543         3.28554         8.32801
| 17>    C       -1.38727         3.95128         9.59991
| 18>    C       -2.66366         3.83364        10.42865
| 19>    C       -1.73902         3.98331         7.12114
| 20>    O       -1.80158         5.19773         7.05400
| 21>    C       -1.84361         2.94319         6.12971
| 22>    C       -1.68569         1.68622         6.79884
| 23>    C       -1.77736         0.63683         5.80489
| 24>    O       -1.71637        -0.56991         5.87985
| 25>    N       -1.98285         1.33083         4.59522
| 26>    C       -2.08225         0.62187         3.34341
| 27>    C       -0.76290         0.63520         2.57426
| 28>    C       -2.01652         2.69741         4.77471
| 29>    C       -2.19322         3.62183         3.71173
| 30>    C       -2.25135         4.96210         3.91726
| 31>    C       -2.38677         5.93156         2.88921
| 32>    S       -2.53104         7.61636         3.30892
| 33>    C       -2.58959         8.09832         1.64376
| 34>    C       -2.50964         6.97242         0.81022
| 35>    C       -2.40141         5.76704         1.51708
| 36>    C       -2.54881         6.99456        -0.59292
| 37>    N       -2.57942         6.95726        -1.74046
| 38>    C       -2.69059         9.47205         1.32457
| 39>    C       -2.58896         9.99073         0.07005
| 40>    C       -2.67682        11.37706        -0.19118
| 41>    N       -2.51117        11.92538        -1.44374
| 42>    C       -2.29322        11.20836        -2.67752
| 43>    C       -3.58026        10.58718        -3.21380
| 44>    C       -2.61832        13.32400        -1.42531
| 45>    O       -2.48913        14.02222        -2.41332
| 46>    C       -2.87748        13.64625        -0.04010
| 47>    C       -2.90647        12.43286         0.69125
| 48>    C       -3.17722        12.75251         2.07345
| 49>    O       -3.29135        12.05799         3.06595
| 50>    N       -3.31124        14.15021         2.08758
| 51>    C       -3.53676        14.86323         3.32070
| 52>    C       -2.25132        15.48335         3.86364
| 53>    C       -3.12420        14.70114         0.83802
| 54>    C       -3.19345        16.08920         0.57313
| 55>    C       -2.91376        16.61101        -0.65100
| 56>    C       -2.95187        17.99191        -0.96726
| 57>    S       -2.39266        18.53277        -2.52711
| 58>    C       -2.72360        20.19242        -2.14883
| 59>    C       -3.25744        20.29756        -0.85506
| 60>    C       -3.37503        19.06353        -0.20238
| 61>    C       -3.62795        21.49434        -0.22139
| 62>    N       -3.94443        22.44276         0.34428
| 63>    C       -2.42132        21.19268        -3.10198
| 64>    C       -2.71850        22.51357        -2.96924
| 65>    C       -2.35376        23.47901        -3.93785
| 66>    N       -2.67031        24.81522        -3.83196
| 67>    C       -3.37977        25.44980        -2.74685
| 68>    C       -2.48607        25.67550        -1.53012
| 69>    C       -2.17861        25.56282        -4.91465
| 70>    O       -2.34695        26.76059        -5.03238
| 71>    C       -1.50932        24.58826        -5.74817
| 72>    C       -1.64072        23.31773        -5.12260
| 73>    C       -0.96744        22.34642        -5.94873
| 74>    O       -0.80579        21.14516        -5.83678
| 75>    N       -0.45937        23.09766        -7.02489
| 76>    C        0.25153        22.45786        -8.10446
| 77>    C       -0.63865        22.24948        -9.32739
| 78>    C       -0.77925        24.43026        -6.91753
| 79>    C       -0.37285        25.41975        -7.87333
| 80>    C       -0.70754        26.70795        -7.77026
| 81>    H       -1.32672         1.26175         8.94299
| 82>    H       -1.18123         5.00207         9.37853
| 83>    H       -0.53880         3.52520        10.14415
| 84>    H       -3.49913         4.27744         9.89267
| 85>    H       -2.53936         4.35492        11.37366
| 86>    H       -2.89511         2.79034        10.63254
| 87>    H       -2.89049         1.04833         2.74233
| 88>    H       -2.34243        -0.40882         3.60112
| 89>    H       -0.45066         1.65260         2.34819
| 90>    H       -0.87324         0.08650         1.64297
| 91>    H        0.01431         0.16025         3.16767
| 92>    H       -2.28175         3.22377         2.71182
| 93>    H       -2.18107         5.34308         4.92766
| 94>    H       -2.32718         4.81318         1.02573
| 95>    H       -2.84207        10.14242         2.16109
| 96>    H       -2.41361         9.33542        -0.76903
| 97>    H       -1.52857        10.44119        -2.52767
| 98>    H       -1.91772        11.94804        -3.39039
| 99>    H       -3.98110         9.85366        -2.51824
|100>    H       -3.37906        10.09143        -4.15901
|101>    H       -4.32739        11.36050        -3.37612
|102>    H       -3.91400        14.12248         4.03151
|103>    H       -4.30498        15.62695         3.16855
|104>    H       -1.51596        14.70463         4.05056
|105>    H       -2.45656        15.99910         4.79777
|106>    H       -1.83007        16.19326         3.15494
|107>    H       -3.46608        16.74204         1.38928
|108>    H       -2.62413        15.94363        -1.45200
|109>    H       -3.76647        18.97116         0.79523
|110>    H       -1.91127        20.85484        -3.99514
|111>    H       -3.25301        22.85908        -2.09805
|112>    H       -4.25294        24.84924        -2.47763
|113>    H       -3.71957        26.41423        -3.13520
|114>    H       -2.12364        24.73200        -1.12888
|115>    H       -3.04930        26.18592        -0.75429
|116>    H       -1.63216        26.29006        -1.80496
|117>    H        0.57438        21.48693        -7.71766
|118>    H        1.13707        23.04577        -8.36208
|119>    H       -1.48923        21.62587        -9.06355
|120>    H       -0.07492        21.75419       -10.11319
|121>    H       -1.01038        23.19906        -9.70624
|122>    H        0.23363        25.07861        -8.70112
|123>    H       -1.31234        27.06996        -6.95572
|124>    H       -0.38432        27.42735        -8.50277
|125> *
|126>
|127>                          ****END OF INPUT****

CARTESIAN COORDINATES (ANGSTROEM)
---------------------------------
  C     -1.491020    1.940740    8.126850
  N     -1.515430    3.285540    8.328010
  C     -1.387270    3.951280    9.599910
  C     -2.663660    3.833640   10.428650
  C     -1.739020    3.983310    7.121140
  O     -1.801580    5.197730    7.054000
  C     -1.843610    2.943190    6.129710
  C     -1.685690    1.686220    6.798840
  C     -1.777360    0.636830    5.804890
  O     -1.716370   -0.569910    5.879850
  N     -1.982850    1.330830    4.595220
  C     -2.082250    0.621870    3.343410
  C     -0.762900    0.635200    2.574260
  C     -2.016520    2.697410    4.774710
  C     -2.193220    3.621830    3.711730
  C     -2.251350    4.962100    3.917260
  C     -2.386770    5.931560    2.889210
  S     -2.531040    7.616360    3.308920
  C     -2.589590    8.098320    1.643760
  C     -2.509640    6.972420    0.810220
  C     -2.401410    5.767040    1.517080
  C     -2.548810    6.994560   -0.592920
  N     -2.579420    6.957260   -1.740460
  C     -2.690590    9.472050    1.324570
  C     -2.588960    9.990730    0.070050
  C     -2.676820   11.377060   -0.191180
  N     -2.511170   11.925380   -1.443740
  C     -2.293220   11.208360   -2.677520
  C     -3.580260   10.587180   -3.213800
  C     -2.618320   13.324000   -1.425310
  O     -2.489130   14.022220   -2.413320
  C     -2.877480   13.646250   -0.040100
  C     -2.906470   12.432860    0.691250
  C     -3.177220   12.752510    2.073450
  O     -3.291350   12.057990    3.065950
  N     -3.311240   14.150210    2.087580
  C     -3.536760   14.863230    3.320700
  C     -2.251320   15.483350    3.863640
  C     -3.124200   14.701140    0.838020
  C     -3.193450   16.089200    0.573130
  C     -2.913760   16.611010   -0.651000
  C     -2.951870   17.991910   -0.967260
  S     -2.392660   18.532770   -2.527110
  C     -2.723600   20.192420   -2.148830
  C     -3.257440   20.297560   -0.855060
  C     -3.375030   19.063530   -0.202380
  C     -3.627950   21.494340   -0.221390
  N     -3.944430   22.442760    0.344280
  C     -2.421320   21.192680   -3.101980
  C     -2.718500   22.513570   -2.969240
  C     -2.353760   23.479010   -3.937850
  N     -2.670310   24.815220   -3.831960
  C     -3.379770   25.449800   -2.746850
  C     -2.486070   25.675500   -1.530120
  C     -2.178610   25.562820   -4.914650
  O     -2.346950   26.760590   -5.032380
  C     -1.509320   24.588260   -5.748170
  C     -1.640720   23.317730   -5.122600
  C     -0.967440   22.346420   -5.948730
  O     -0.805790   21.145160   -5.836780
  N     -0.459370   23.097660   -7.024890
  C      0.251530   22.457860   -8.104460
  C     -0.638650   22.249480   -9.327390
  C     -0.779250   24.430260   -6.917530
  C     -0.372850   25.419750   -7.873330
  C     -0.707540   26.707950   -7.770260
  H     -1.326720    1.261750    8.942990
  H     -1.181230    5.002070    9.378530
  H     -0.538800    3.525200   10.144150
  H     -3.499130    4.277440    9.892670
  H     -2.539360    4.354920   11.373660
  H     -2.895110    2.790340   10.632540
  H     -2.890490    1.048330    2.742330
  H     -2.342430   -0.408820    3.601120
  H     -0.450660    1.652600    2.348190
  H     -0.873240    0.086500    1.642970
  H      0.014310    0.160250    3.167670
  H     -2.281750    3.223770    2.711820
  H     -2.181070    5.343080    4.927660
  H     -2.327180    4.813180    1.025730
  H     -2.842070   10.142420    2.161090
  H     -2.413610    9.335420   -0.769030
  H     -1.528570   10.441190   -2.527670
  H     -1.917720   11.948040   -3.390390
  H     -3.981100    9.853660   -2.518240
  H     -3.379060   10.091430   -4.159010
  H     -4.327390   11.360500   -3.376120
  H     -3.914000   14.122480    4.031510
  H     -4.304980   15.626950    3.168550
  H     -1.515960   14.704630    4.050560
  H     -2.456560   15.999100    4.797770
  H     -1.830070   16.193260    3.154940
  H     -3.466080   16.742040    1.389280
  H     -2.624130   15.943630   -1.452000
  H     -3.766470   18.971160    0.795230
  H     -1.911270   20.854840   -3.995140
  H     -3.253010   22.859080   -2.098050
  H     -4.252940   24.849240   -2.477630
  H     -3.719570   26.414230   -3.135200
  H     -2.123640   24.732000   -1.128880
  H     -3.049300   26.185920   -0.754290
  H     -1.632160   26.290060   -1.804960
  H      0.574380   21.486930   -7.717660
  H      1.137070   23.045770   -8.362080
  H     -1.489230   21.625870   -9.063550
  H     -0.074920   21.754190  -10.113190
  H     -1.010380   23.199060   -9.706240
  H      0.233630   25.078610   -8.701120
  H     -1.312340   27.069960   -6.955720
  H     -0.384320   27.427350   -8.502770

 Total Charge           Charge          ....    0
 Multiplicity           Mult            ....    1
 Number of Electrons    NEL             ....  480
 Basis Dimension        Dim             .... 1152

ORBITAL ENERGIES
----------------

  NO   OCC          E(Eh)            E(eV)
   0   2.0000     -88.978218     -2421.2204
   1   2.0000     -88.977032     -2421.1881
   2   2.0000     -19.193237      -522.2745
   3   2.0000     -19.190673      -522.2048
   4   2.0000     -19.189271      -522.1666
   5   2.0000     -19.188386      -522.1425
   6   2.0000     -19.184444      -522.0353
   7   2.0000     -19.183967      -522.0223
   8   2.0000     -14.454680      -393.3318
   9   2.0000     -14.451659      -393.2496
  10   2.0000     -14.451564      -393.2471
  11   2.0000     -14.451544      -393.2465
  12   2.0000     -14.449849      -393.2004
  13   2.0000     -14.447447      -393.1350
  14   2.0000     -14.416436      -392.2912
  15   2.0000     -14.415311      -392.2606
  16   2.0000     -10.375230      -282.3244
  17   2.0000     -10.372157      -282.2408
  18   2.0000     -10.371733      -282.2292
  19   2.0000     -10.370760      -282.2027
  20   2.0000     -10.370225      -282.1882
  21   2.0000     -10.367769      -282.1213
  22   2.0000     -10.341374      -281.4031
  23   2.0000     -10.340427      -281.3773
  24   2.0000     -10.337213      -281.2899
  25   2.0000     -10.335224      -281.2357
  26   2.0000     -10.334499      -281.2160
  27   2.0000     -10.333316      -281.1838
  28   2.0000     -10.331989      -281.1477
  29   2.0000     -10.326920      -281.0098
  30   2.0000     -10.322478      -280.8889
  31   2.0000     -10.322013      -280.8762
  32   2.0000     -10.321271      -280.8561
  33   2.0000     -10.320861      -280.8449
  34   2.0000     -10.317734      -280.7598
  35   2.0000     -10.316577      -280.7283
  36   2.0000     -10.310635      -280.5667
  37   2.0000     -10.307818      -280.4900
  38   2.0000     -10.307774      -280.4888
  39   2.0000     -10.307153      -280.4719
  40   2.0000     -10.304249      -280.3929
  41   2.0000     -10.303031      -280.3597
  42   2.0000     -10.302894      -280.3560
  43   2.0000     -10.301670      -280.3227
  44   2.0000     -10.300252      -280.2841
  45   2.0000     -10.299994      -280.2771
  46   2.0000     -10.298780      -280.2440
  47   2.0000     -10.296626      -280.1854
  48   2.0000     -10.295131      -280.1448
  49   2.0000     -10.295005      -280.1413
  50   2.0000     -10.294798      -280.1357
  51   2.0000     -10.292570      -280.0751
  52   2.0000     -10.285443      -279.8811
  53   2.0000     -10.276692      -279.6430
  54   2.0000     -10.266037      -279.3531
  55   2.0000     -10.264285      -279.3054
  56   2.0000     -10.264277      -279.3052
  57   2.0000     -10.262943      -279.2689
  58   2.0000     -10.262361      -279.2530
  59   2.0000     -10.260953      -279.2147
  60   2.0000     -10.258103      -279.1372
  61   2.0000     -10.257428      -279.1188
  62   2.0000     -10.256665      -279.0980
  63   2.0000     -10.256012      -279.0803
  64   2.0000     -10.255137      -279.0565
  65   2.0000     -10.253475      -279.0112
  66   2.0000      -8.073805      -219.6994
  67   2.0000      -8.072434      -219.6621
  68   2.0000      -6.042867      -164.4348
  69   2.0000      -6.041489      -164.3973
  70   2.0000      -6.038740      -164.3225
  71   2.0000      -6.037386      -164.2856
  72   2.0000      -6.036227      -164.2541
  73   2.0000      -6.034919      -164.2185
  74   2.0000      -1.133981       -30.8572
  75   2.0000      -1.130292       -30.7568
  76   2.0000      -1.129463       -30.7342
  77   2.0000      -1.126509       -30.6539
  78   2.0000      -1.122777       -30.5523
  79   2.0000      -1.122191       -30.5364
  80   2.0000      -1.063809       -28.9477
  81   2.0000      -1.060261       -28.8512
  82   2.0000      -1.060059       -28.8457
  83   2.0000      -1.055051       -28.7094
  84   2.0000      -1.051878       -28.6231
  85   2.0000      -1.051008       -28.5994
  86   2.0000      -1.017092       -27.6765
  87   2.0000      -1.015747       -27.6399
  88   2.0000      -0.993947       -27.0467
  89   2.0000      -0.992656       -27.0115
  90   2.0000      -0.931537       -25.3484
  91   2.0000      -0.929288       -25.2872
  92   2.0000      -0.925921       -25.1956
  93   2.0000      -0.923118       -25.1193
  94   2.0000      -0.921160       -25.0660
  95   2.0000      -0.904940       -24.6247
  96   2.0000      -0.901244       -24.5241
  97   2.0000      -0.888685       -24.1823
  98   2.0000      -0.875725       -23.8297
  99   2.0000      -0.874207       -23.7884
 100   2.0000      -0.870701       -23.6930
 101   2.0000      -0.869310       -23.6551
 102   2.0000      -0.866322       -23.5738
 103   2.0000      -0.851524       -23.1711
 104   2.0000      -0.848248       -23.0820
 105   2.0000      -0.819325       -22.2950
 106   2.0000      -0.818977       -22.2855
 107   2.0000      -0.815517       -22.1913
 108   2.0000      -0.811313       -22.0770
 109   2.0000      -0.803537       -21.8653
 110   2.0000      -0.789682       -21.4883
 111   2.0000      -0.781823       -21.2745
 112   2.0000      -0.767954       -20.8971
 113   2.0000      -0.763229       -20.7685
 114   2.0000      -0.760035       -20.6816
 115   2.0000      -0.759303       -20.6617
 116   2.0000      -0.756021       -20.5724
 117   2.0000      -0.734242       -19.9798
 118   2.0000      -0.725538       -19.7429
 119   2.0000      -0.716298       -19.4914
 120   2.0000      -0.709687       -19.3116
 121   2.0000      -0.708410       -19.2768
 122   2.0000      -0.704930       -19.1821
 123   2.0000      -0.703496       -19.1431
 124   2.0000      -0.695846       -18.9349
 125   2.0000      -0.688487       -18.7347
 126   2.0000      -0.680840       -18.5266
 127   2.0000      -0.674276       -18.3480
 128   2.0000      -0.673282       -18.3209
 129   2.0000      -0.655061       -17.8251
 130   2.0000      -0.650578       -17.7031
 131   2.0000      -0.649978       -17.6868
 132   2.0000      -0.644489       -17.5374
 133   2.0000      -0.632644       -17.2151
 134   2.0000      -0.627031       -17.0624
 135   2.0000      -0.616568       -16.7777
 136   2.0000      -0.615347       -16.7445
 137   2.0000      -0.613132       -16.6842
 138   2.0000      -0.601774       -16.3751
 139   2.0000      -0.594527       -16.1779
 140   2.0000      -0.588249       -16.0071
 141   2.0000      -0.587434       -15.9849
 142   2.0000      -0.584520       -15.9056
 143   2.0000      -0.583409       -15.8754
 144   2.0000      -0.575205       -15.6521
 145   2.0000      -0.573387       -15.6027
 146   2.0000      -0.572104       -15.5677
 147   2.0000      -0.568752       -15.4765
 148   2.0000      -0.566834       -15.4243
 149   2.0000      -0.565041       -15.3755
 150   2.0000      -0.561106       -15.2685
 151   2.0000      -0.560629       -15.2555
 152   2.0000      -0.548219       -14.9178
 153   2.0000      -0.547717       -14.9041
 154   2.0000      -0.533704       -14.5228
 155   2.0000      -0.532682       -14.4950
 156   2.0000      -0.530683       -14.4406
 157   2.0000      -0.529668       -14.4130
 158   2.0000      -0.527874       -14.3642
 159   2.0000      -0.527661       -14.3584
 160   2.0000      -0.526389       -14.3238
 161   2.0000      -0.525536       -14.3006
 162   2.0000      -0.521854       -14.2004
 163   2.0000      -0.521303       -14.1854
 164   2.0000      -0.517458       -14.0808
 165   2.0000      -0.516987       -14.0679
 166   2.0000      -0.516378       -14.0514
 167   2.0000      -0.515675       -14.0322
 168   2.0000      -0.514523       -14.0009
 169   2.0000      -0.512238       -13.9387
 170   2.0000      -0.510519       -13.8919
 171   2.0000      -0.509406       -13.8616
 172   2.0000      -0.506426       -13.7805
 173   2.0000      -0.504097       -13.7172
 174   2.0000      -0.501728       -13.6527
 175   2.0000      -0.497779       -13.5453
 176   2.0000      -0.495518       -13.4837
 177   2.0000      -0.482109       -13.1189
 178   2.0000      -0.479361       -13.0441
 179   2.0000      -0.478256       -13.0140
 180   2.0000      -0.475679       -12.9439
 181   2.0000      -0.473682       -12.8895
 182   2.0000      -0.469857       -12.7855
 183   2.0000      -0.467829       -12.7303
 184   2.0000      -0.466231       -12.6868
 185   2.0000      -0.465146       -12.6573
 186   2.0000      -0.464761       -12.6468
 187   2.0000      -0.464078       -12.6282
 188   2.0000      -0.460986       -12.5441
 189   2.0000      -0.459054       -12.4915
 190   2.0000      -0.457815       -12.4578
 191   2.0000      -0.456698       -12.4274
 192   2.0000      -0.454435       -12.3658
 193   2.0000      -0.454183       -12.3589
 194   2.0000      -0.453105       -12.3296
 195   2.0000      -0.450985       -12.2719
 196   2.0000      -0.450824       -12.2675
 197   2.0000      -0.449010       -12.2182
 198   2.0000      -0.447363       -12.1734
 199   2.0000      -0.445540       -12.1237
 200   2.0000      -0.444067       -12.0837
 201   2.0000      -0.442183       -12.0324
 202   2.0000      -0.438902       -11.9431
 203   2.0000      -0.438600       -11.9349
 204   2.0000      -0.438042       -11.9197
 205   2.0000      -0.437263       -11.8985
 206   2.0000      -0.436752       -11.8846
 207   2.0000      -0.433860       -11.8059
 208   2.0000      -0.432976       -11.7819
 209   2.0000      -0.431881       -11.7521
 210   2.0000      -0.430303       -11.7091
 211   2.0000      -0.424657       -11.5555
 212   2.0000      -0.423977       -11.5370
 213   2.0000      -0.420048       -11.4301
 214   2.0000      -0.418869       -11.3980
 215   2.0000      -0.416287       -11.3278
 216   2.0000      -0.409880       -11.1534
 217   2.0000      -0.408339       -11.1115
 218   2.0000      -0.402977       -10.9656
 219   2.0000      -0.396636       -10.7930
 220   2.0000      -0.391991       -10.6666
 221   2.0000      -0.355676        -9.6784
 222   2.0000      -0.350176        -9.5288
 223   2.0000      -0.348731        -9.4895
 224   2.0000      -0.345472        -9.4008
 225   2.0000      -0.344214        -9.3666
 226   2.0000      -0.344049        -9.3620
 227   2.0000      -0.339754        -9.2452
 228   2.0000      -0.338268        -9.2047
 229   2.0000      -0.332496        -9.0477
 230   2.0000      -0.327717        -8.9176
 231   2.0000      -0.327524        -8.9124
 232   2.0000      -0.315395        -8.5823
 233   2.0000      -0.311609        -8.4793
 234   2.0000      -0.310831        -8.4582
 235   2.0000      -0.299801        -8.1580
 236   2.0000      -0.294990        -8.0271
 237   2.0000      -0.250959        -6.8289
 238   2.0000      -0.241051        -6.5593
 239   2.0000      -0.226781        -6.1710
 240   0.0000      -0.102591        -2.7917
 241   0.0000      -0.082049        -2.2327
 242   0.0000      -0.062053        -1.6885
 243   0.0000      -0.036533        -0.9941
 244   0.0000      -0.018088        -0.4922

MULLIKEN ATOMIC CHARGES
-----------------------
   0 C :    0.036523
   1 N :   -0.258599
   2 C :    0.112225
   3 C :   -0.001009
   4 C :    0.176877
   5 O :   -0.219258
   6 C :   -0.108887
   7 C :    0.004587
   8 C :    0.165555
   9 O :   -0.187529
  10 N :   -0.273493
  11 C :    0.100617
  12 C :    0.004571
  13 C :    0.158017
  14 C :   -0.031063
  15 C :    0.086553
  16 C :   -0.082296
  17 S :    0.206947
  18 C :   -0.065123
  19 C :   -0.077880
  20 C :    0.016254
  21 C :   -0.168385
  22 N :    0.114283
  23 C :    0.054669
  24 C :   -0.034037
  25 C :    0.132801
  26 N :   -0.257463
  27 C :    0.093430
  28 C :    0.010347
  29 C :    0.163604
  30 O :   -0.213300
  31 C :   -0.067598
  32 C :   -0.064535
  33 C :    0.165161
  34 O :   -0.211451
  35 N :   -0.260209
  36 C :    0.096948
  37 C :    0.003786
  38 C :    0.135212
  39 C :   -0.029340
  40 C :    0.082977
  41 C :   -0.084298
  42 S :    0.207402
  43 C :   -0.065961
  44 C :   -0.080903
  45 C :    0.016218
  46 C :   -0.163721
  47 N :    0.114225
  48 C :    0.054380
  49 C :   -0.035649
  50 C :    0.134259
  51 N :   -0.258464
  52 C :    0.096835
  53 C :    0.008393
  54 C :    0.162690
  55 O :   -0.208857
  56 C :   -0.060818
  57 C :   -0.067247
  58 C :    0.165267
  59 O :   -0.213273
  60 N :   -0.258240
  61 C :    0.098229
  62 C :    0.002598
  63 C :    0.105620
  64 C :   -0.036626
  65 C :    0.013642
  66 H :    0.015181
  67 H :    0.042906
  68 H :    0.018505
  69 H :    0.030044
  70 H :    0.022662
  71 H :    0.014992
  72 H :    0.020712
  73 H :    0.043394
  74 H :    0.011803
  75 H :    0.023166
  76 H :    0.031195
  77 H :   -0.029049
  78 H :    0.010574
  79 H :   -0.004097
  80 H :    0.006468
  81 H :   -0.014248
  82 H :    0.032763
  83 H :    0.041824
  84 H :    0.020265
  85 H :    0.027234
  86 H :    0.023006
  87 H :    0.045105
  88 H :    0.023151
  89 H :    0.030283
  90 H :    0.024273
  91 H :    0.016676
  92 H :   -0.029202
  93 H :    0.011721
  94 H :   -0.004905
  95 H :    0.005790
  96 H :   -0.013515
  97 H :    0.031173
  98 H :    0.039543
  99 H :    0.017914
 100 H :    0.026861
 101 H :    0.023728
 102 H :    0.042850
 103 H :    0.024316
 104 H :    0.029975
 105 H :    0.023052
 106 H :    0.016458
 107 H :   -0.018925
 108 H :    0.058126
 109 H :    0.030065
Sum of atomic charges:   -0.0000000

LOEWDIN ATOMIC CHARGES
----------------------
   0 C :    0.087453
   1 N :    0.001044
   2 C :    0.038236
   3 C :   -0.060300
   4 C :    0.076226
   5 O :   -0.208992
   6 C :   -0.133380
   7 C :   -0.127393
   8 C :    0.082286
   9 O :   -0.191072
  10 N :   -0.009907
  11 C :    0.035318
  12 C :   -0.061471
  13 C :    0.085076
  14 C :   -0.046702
  15 C :    0.014211
  16 C :   -0.172294
  17 S :    0.502985
  18 C :   -0.140411
  19 C :   -0.105010
  20 C :   -0.014165
  21 C :   -0.025686
  22 N :   -0.062095
  23 C :   -0.005840
  24 C :   -0.029606
  25 C :    0.070733
  26 N :    0.003114
  27 C :    0.036050
  28 C :   -0.058987
  29 C :    0.078469
  30 O :   -0.204815
  31 C :   -0.121922
  32 C :   -0.116583
  33 C :    0.080270
  34 O :   -0.202325
  35 N :   -0.000828
  36 C :    0.035670
  37 C :   -0.061202
  38 C :    0.076583
  39 C :   -0.046396
  40 C :    0.011224
  41 C :   -0.172017
  42 S :    0.502609
  43 C :   -0.140342
  44 C :   -0.104945
  45 C :   -0.015088
  46 C :   -0.025368
  47 N :   -0.062366
  48 C :   -0.006351
  49 C :   -0.029280
  50 C :    0.072119
  51 N :    0.000768
  52 C :    0.036087
  53 C :   -0.059385
  54 C :    0.080539
  55 O :   -0.201098
  56 C :   -0.124588
  57 C :   -0.118344
  58 C :    0.080399
  59 O :   -0.202547
  60 N :    0.000933
  61 C :    0.035993
  62 C :   -0.061198
  63 C :    0.081170
  64 C :   -0.055377
  65 C :    0.025586
  66 H :    0.032479
  67 H :    0.036332
  68 H :    0.024496
  69 H :    0.031611
  70 H :    0.030111
  71 H :    0.022316
  72 H :    0.021663
  73 H :    0.038160
  74 H :    0.020179
  75 H :    0.030397
  76 H :    0.033096
  77 H :    0.027214
  78 H :    0.038090
  79 H :    0.037909
  80 H :    0.037254
  81 H :    0.035416
  82 H :    0.026315
  83 H :    0.037158
  84 H :    0.023928
  85 H :    0.033394
  86 H :    0.029410
  87 H :    0.038384
  88 H :    0.022400
  89 H :    0.032691
  90 H :    0.031008
  91 H :    0.022126
  92 H :    0.027342
  93 H :    0.037945
  94 H :    0.037617
  95 H :    0.037224
  96 H :    0.035234
  97 H :    0.025899
  98 H :    0.036636
  99 H :    0.023030
 100 H :    0.033032
 101 H :    0.029495
 102 H :    0.037255
 103 H :    0.023097
 104 H :    0.032247
 105 H :    0.030419
 106 H :    0.022459
 107 H :    0.029368
 108 H :    0.033153
 109 H :    0.029533

  Mayer bond orders larger than 0.100000
B(  0-C ,  1-N ) :   1.1879 B(  0-C ,  7-C ) :   1.4607 B(  0-C , 66-H ) :   0.9900
B(  1-N ,  2-C ) :   0.9419 B(  1-N ,  4-C ) :   1.0596 B(  2-C ,  3-C ) :   1.1198
B(  2-C , 67-H ) :   0.9341 B(  2-C , 68-H ) :   0.9538 B(  3-C , 69-H ) :   0.9674
B(  3-C , 70-H ) :   0.9686 B(  3-C , 71-H ) :   0.9692 B(  4-C ,  5-O ) :   2.0078
B(  4-C ,  6-C ) :   1.0086 B(  5-O , 78-H ) :   0.1180 B(  6-C ,  7-C ) :   1.2039
B(  6-C , 13-C ) :   1.3761 B(  7-C ,  8-C ) :   0.9488 B(  8-C ,  9-O ) :   2.1746
B(  8-C , 10-N ) :   1.0166 B( 10-N , 11-C ) :   0.9479 B( 10-N , 13-C ) :   1.1536
B( 11-C , 12-C ) :   1.1203 B( 11-C , 72-H ) :   0.9503 B( 11-C , 73-H ) :   0.9269
B( 12-C , 74-H ) :   0.9683 B( 12-C , 75-H ) :   0.9678 B( 12-C , 76-H ) :   0.9640
B( 13-C , 14-C ) :   1.1595 B( 14-C , 15-C ) :   1.6351 B( 14-C , 77-H ) :   0.9621
B( 15-C , 16-C ) :   1.1139 B( 15-C , 78-H ) :   0.9361 B( 16-C , 17-S ) :   1.1299
B( 16-C , 20-C ) :   1.4508 B( 17-S , 18-C ) :   1.1586 B( 18-C , 19-C ) :   1.4019
B( 18-C , 23-C ) :   1.1641 B( 19-C , 20-C ) :   1.3236 B( 19-C , 21-C ) :   1.1219
B( 20-C , 79-H ) :   1.0004 B( 21-C , 22-N ) :   2.9675 B( 23-C , 24-C ) :   1.6023
B( 23-C , 80-H ) :   0.9233 B( 24-C , 25-C ) :   1.1820 B( 24-C , 81-H ) :   0.9463
B( 25-C , 26-N ) :   1.1579 B( 25-C , 32-C ) :   1.3293 B( 26-N , 27-C ) :   0.9398
B( 26-N , 29-C ) :   1.0677 B( 27-C , 28-C ) :   1.1250 B( 27-C , 82-H ) :   0.9479
B( 27-C , 83-H ) :   0.9269 B( 28-C , 84-H ) :   0.9670 B( 28-C , 85-H ) :   0.9671
B( 28-C , 86-H ) :   0.9626 B( 29-C , 30-O ) :   2.0215 B( 29-C , 31-C ) :   0.9867
B( 30-O , 93-H ) :   0.1157 B( 31-C , 32-C ) :   1.2592 B( 31-C , 38-C ) :   1.3315
B( 32-C , 33-C ) :   0.9866 B( 33-C , 34-O ) :   2.0234 B( 33-C , 35-N ) :   1.0624
B( 34-O , 80-H ) :   0.1131 B( 35-N , 36-C ) :   0.9470 B( 35-N , 38-C ) :   1.1531
B( 36-C , 37-C ) :   1.1215 B( 36-C , 87-H ) :   0.9274 B( 36-C , 88-H ) :   0.9497
B( 37-C , 89-H ) :   0.9633 B( 37-C , 90-H ) :   0.9676 B( 37-C , 91-H ) :   0.9682
B( 38-C , 39-C ) :   1.1755 B( 39-C , 40-C ) :   1.6169 B( 39-C , 92-H ) :   0.9594
B( 40-C , 41-C ) :   1.1240 B( 40-C , 93-H ) :   0.9347 B( 41-C , 42-S ) :   1.1288
B( 41-C , 45-C ) :   1.4466 B( 42-S , 43-C ) :   1.1599 B( 43-C , 44-C ) :   1.4022
B( 43-C , 48-C ) :   1.1622 B( 44-C , 45-C ) :   1.3294 B( 44-C , 46-C ) :   1.1180
B( 45-C , 94-H ) :   0.9986 B( 46-C , 47-N ) :   2.9671 B( 48-C , 49-C ) :   1.6072
B( 48-C , 95-H ) :   0.9235 B( 49-C , 50-C ) :   1.1735 B( 49-C , 96-H ) :   0.9472
B( 50-C , 51-N ) :   1.1600 B( 50-C , 57-C ) :   1.3417 B( 51-N , 52-C ) :   0.9423
B( 51-N , 54-C ) :   1.0573 B( 52-C , 53-C ) :   1.1227 B( 52-C , 97-H ) :   0.9486
B( 52-C , 98-H ) :   0.9268 B( 53-C , 99-H ) :   0.9673 B( 53-C ,100-H ) :   0.9675
B( 53-C ,101-H ) :   0.9630 B( 54-C , 55-O ) :   2.0479 B( 54-C , 56-C ) :   0.9797
B( 56-C , 57-C ) :   1.2421 B( 56-C , 63-C ) :   1.3695 B( 57-C , 58-C ) :   0.9909
B( 58-C , 59-O ) :   2.0191 B( 58-C , 60-N ) :   1.0570 B( 59-O , 95-H ) :   0.1135
B( 60-N , 61-C ) :   0.9476 B( 60-N , 63-C ) :   1.1681 B( 61-C , 62-C ) :   1.1189
B( 61-C ,102-H ) :   0.9284 B( 61-C ,103-H ) :   0.9507 B( 62-C ,104-H ) :   0.9640
B( 62-C ,105-H ) :   0.9682 B( 62-C ,106-H ) :   0.9690 B( 63-C , 64-C ) :   1.1287
B( 64-C , 65-C ) :   1.8861 B( 64-C ,107-H ) :   0.9528 B( 65-C ,108-H ) :   0.9263
B( 65-C ,109-H ) :   0.9445

-----------------------------------------------------------------------------
         ABSORPTION SPECTRUM VIA TRANSITION ELECTRIC DIPOLE MOMENTS
-----------------------------------------------------------------------------
State   Energy  Wavelength   fosc         T2         TX        TY        TZ
        (cm-1)    (nm)                  (au**2)     (au)      (au)      (au)
-----------------------------------------------------------------------------
   0   12904.5    774.9   1.529266680  39.01375  -0.11477  -5.76352   2.40467
   1   16904.6    591.6   0.168996999   3.29116   1.19690  -0.36648  -1.31312
   2   19142.0    522.4   0.304832968   5.24264   0.00214   0.12381  -2.28633
   3   19570.9    511.0   0.012658421   0.21293  -0.22372  -0.04573   0.40099
   4   22638.1    441.7   0.204456035   2.97328  -0.35878   0.62244   1.56752
   5   24116.8    414.6   0.127503972   1.74052   0.16850  -0.47650   1.21864
   6   25603.6    390.6   0.142554801   1.83297  -0.26062  -1.24875   0.45350
   7   26120.3    382.8   0.024365472   0.30709   0.14519  -0.52399   0.10698
   8   26822.5    372.8   0.012875448   0.15803  -0.22018  -0.16922   0.28446
   9   27161.3    368.2   0.103588118   1.25555  -0.17088   0.92501  -0.60887
  10   27544.6    363.0   0.648048068   7.74545  -0.09099  -2.37492   1.44807
  11   28406.4    352.0   0.039940923   0.46289   0.01386   0.67130  -0.10980
  12   28604.8    349.6   0.007175745   0.08259   0.06206  -0.21863   0.17588
  13   29003.7    344.8   0.009883467   0.11218  -0.10273   0.31746  -0.02909
  14   29190.5    342.6   0.015104862   0.17035  -0.00527  -0.40784   0.06321
  15   29313.5    341.1   0.136496558   1.53295   0.20435  -1.17824   0.32086
  16   29888.6    334.6   0.028387068   0.31267   0.03770   0.53945   0.14227
  17   31095.9    321.6   0.014483374   0.15334  -0.10170   0.37304  -0.06193
  18   31406.4    318.4   0.000370020   0.00388  -0.05131   0.02145   0.02804
  19   31834.5    314.1   0.004694238   0.04854  -0.00615   0.20347  -0.08430
  20   32826.2    304.6   0.000048412   0.00049  -0.00116   0.02147   0.00482
  21   33183.4    301.4   0.050886259   0.50484   0.06707   0.51600  -0.48383
  22   34111.2    293.2   0.018333031   0.17693  -0.12691   0.15608  -0.36942
  23   34990.3    285.8   0.030375053   0.28579  -0.02382  -0.26767   0.46214
  24   35363.1    282.8   0.290725039   2.70649   0.08373   1.43934  -0.79233
  25   35895.6    278.6   0.100233107   0.91927   0.05649   0.67295   0.68060
  26   35961.9    278.1   0.021085081   0.19302   0.14390  -0.09398  -0.40433
  27   36316.6    275.4   0.081152462   0.73565   0.23311  -0.25439  -0.78524
  28   37292.9    268.1   0.050120434   0.44245   0.17672  -0.55655  -0.31854
  29   37611.6    265.9   0.006076625   0.05319   0.05886  -0.18671   0.12191
  30   37711.8    265.2   0.105720252   0.92290   0.06726   0.55555  -0.78086
  31   37799.8    264.6   0.046279192   0.40306   0.08602  -0.53656   0.32828
  32   37906.4    263.8   0.084263452   0.73182   0.01705  -0.80176   0.29784
  33   38647.4    258.7   0.002149793   0.01831  -0.02183   0.09959  -0.08898
  34   38699.4    258.4   0.008967293   0.07628   0.12927  -0.20452   0.13320
  35   38770.5    257.9   0.005608891   0.04763  -0.10489  -0.02386   0.18988
  36   39741.2    251.6   0.001654601   0.01371   0.01019  -0.10956  -0.04000
  37   39812.6    251.2   0.002026730   0.01676  -0.03707   0.11291   0.05134
  38   39999.5    250.0   0.017271074   0.14215  -0.05530   0.36992  -0.04744

FINAL SINGLE POINT ENERGY     -3613.807479976453

DIPOLE MOMENT
-------------
                                X             Y             Z
Electronic contribution:     -6.37147      -6.06465       2.67770
Nuclear contribution   :      6.93039       5.68988      -2.37325
                        -----------------------------------------
Total Dipole Moment    :      0.55891      -0.37477       0.30446
                        -----------------------------------------
Magnitude (a.u.)       :      0.73860
Magnitude (Debye)      :      1.87737

Rotational constants in cm-1:     0.002959     0.000212     0.000201
Rotational constants in MHz :    88.719787     6.352575     6.011406

                             ****ORCA TERMINATED NORMALLY****
TOTAL RUN TIME: 0 days 0 hours 12 minutes 12 seconds 728 msec
