                         Program Version 4.2.0 -  RELEASE  -
|  1> # ORCA input file
|  2> # SCF done       -169.454041288836          0.000715937829
|  3> ! CAM-B3LYP def2-SVP def2/J RIJCOSX Grid4 TightSCF
|  4> %maxcore 5000
|  5> %tddft
|  6>     Mode sTDDFT
|  7>     Ethresh 5.0
|  8>     maxcore 5000
|  9> end
| 10>
| 11> %pal
| 12>   nprocs 6
| 13>   end
| 14> * xyz 0 1
| 15>    C       -1.64465         1.31194        -0.01535
| 16>    C       -1.10117         1.54915        -1.25780
| 17>    C        0.19554         1.15082        -1.63154
| 18>    N        1.25266         0.87350        -1.99041
| 19>    C       -1.72534         2.20885        -2.33483
| 20>    N       -2.13962         2.70628        -3.28508
| 21>    C       -0.98671         0.56154         1.05012
| 22>    C       -1.84611         0.53260         2.17358
| 23>    C       -1.51502        -0.09564         3.34748
| 24>    C       -0.27280        -0.73757         3.41599
| 25>    C        0.57819        -0.70766         2.28849
| 26>    C        0.24294        -0.06651         1.10150
| 27>    S        2.06420        -1.56018         2.58614
| 28>    C        1.52591        -1.93976         4.20038
| 29>    C        0.29890        -1.45473         4.50280
| 30>   Br        2.63549        -2.94209         5.33447
| 31>    C       -3.08108         1.28029         1.85742
| 32>    O       -3.97985         1.52757         2.64289
| 33>    C       -2.93973         1.73026         0.46842
| 34>    C       -3.76512         2.60229        -0.20965
| 35>    C       -5.06163         3.07577         0.03910
| 36>    S       -5.36878         4.68146        -0.59693
| 37>    C       -6.99846         4.68603         0.00686
| 38>    C       -7.31149         3.44277         0.56861
| 39>    C       -6.23681         2.55246         0.60158
| 40>    C       -6.38483         1.14013         1.05959
| 41>    C       -7.74348         0.86751         1.69958
| 42>    C       -8.87693         1.54086         0.91776
| 43>    N      -10.21266         1.20958         1.38446
| 44>    C       -8.68796         3.05691         1.00393
| 45>    C       -7.71547         5.88387        -0.15406
| 46>    C       -8.87109         6.28438         0.46666
| 47>    C       -9.49336         7.52787         0.28555
| 48>    C       -9.21407         8.51583        -0.63982
| 49>    C       -9.80839         9.80028        -0.66705
| 50>    C       -9.36132        10.61735        -1.66597
| 51>    C       -8.40811        10.01220        -2.50676
| 52>    S       -8.09141         8.37574        -1.97584
| 53>    C       -7.73465        10.52716        -3.60044
| 54>    C       -7.73225        11.84499        -4.10681
| 55>    C       -6.91469        12.02088        -5.18265
| 56>    C       -6.24614        10.84441        -5.60760
| 57>    S       -6.68366         9.50638        -4.55145
| 58>    C       -5.39446        10.69223        -6.66822
| 59>    C       -4.89521         9.43026        -7.07166
| 60>    C       -4.07776         9.18277        -8.11885
| 61>    C       -3.46518        10.26221        -8.95703
| 62>    C       -3.70372         7.76060        -8.44663
| 63>    N       -2.41278         7.39938        -7.90265
| 64>    C       -2.24940         7.01489        -6.60808
| 65>    C       -1.05402         6.79974        -6.02407
| 66>    C       -0.89555         6.29993        -4.69719
| 67>    S       -2.18774         6.34624        -3.53818
| 68>    C       -1.20212         5.57885        -2.32019
| 69>    C        0.05263         5.28900        -2.81912
| 70>    C        0.23158         5.71865        -4.14897
| 71>    C        1.50542         5.50397        -4.90943
| 72>    C        2.63654         5.05704        -3.98850
| 73>    C        2.14258         3.95127        -3.05936
| 74>    N        3.24884         3.40358        -2.28671
| 75>    C        1.12142         4.54621        -2.08723
| 76>    C       -1.81037         5.37056        -1.03962
| 77>    C       -1.24118         4.95926         0.09497
| 78>    H       -2.19160        -0.09490         4.18770
| 79>    H        0.93096        -0.07345         0.27328
| 80>    H       -0.18433        -1.59514         5.45248
| 81>    H       -3.30025         3.09477        -1.05720
| 82>    H       -5.60511         0.91918         1.79013
| 83>    H       -6.22691         0.47964         0.20068
| 84>    H       -7.74639         1.25263         2.72272
| 85>    H       -7.90804        -0.21192         1.74808
| 86>    H       -8.82078         1.23433        -0.13407
| 87>    H      -10.30263         1.43310         2.37094
| 88>    H      -10.39054         0.21702         1.27709
| 89>    H       -8.85702         3.37291         2.03900
| 90>    H       -9.43293         3.54900         0.37710
| 91>    H       -7.21252         6.59608        -0.79269
| 92>    H       -9.31998         5.63886         1.20684
| 93>    H      -10.29973         7.76396         0.96917
| 94>    H      -10.54046        10.09081         0.06626
| 95>    H       -9.70281        11.62516        -1.82209
| 96>    H       -8.31975        12.62549        -3.65666
| 97>    H       -6.77741        12.95691        -5.69526
| 98>    H       -5.14305        11.57139        -7.24379
| 99>    H       -5.25621         8.58704        -6.49523
|100>    H       -2.92082        10.97599        -8.33942
|101>    H       -4.23914        10.81205        -9.49328
|102>    H       -2.77962         9.84366        -9.68988
|103>    H       -3.66519         7.61874        -9.53152
|104>    H       -4.44235         7.07074        -8.03190
|105>    H       -1.60264         7.79091        -8.36002
|106>    H       -3.16147         6.80672        -6.06698
|107>    H       -0.14628         6.95915        -6.59046
|108>    H        1.79052         6.42353        -5.42793
|109>    H        1.33257         4.73801        -5.67347
|110>    H        2.98701         5.89308        -3.38077
|111>    H        3.47839         4.69894        -4.58505
|112>    H        1.63420         3.18163        -3.67067
|113>    H        2.91613         2.61486        -1.73929
|114>    H        3.96231         3.04522        -2.91360
|115>    H        1.65107         5.21287        -1.39965
|116>    H        0.67722         3.74392        -1.49448
|117>    H       -2.86827         5.60618        -1.02586
|118>    H       -0.19248         4.74778         0.19105
|119>    H       -1.83226         4.84517         0.98812
|120> *
|121>
|122>                          ****END OF INPUT****

CARTESIAN COORDINATES (ANGSTROEM)
---------------------------------
  C     -1.644650    1.311940   -0.015350
  C     -1.101170    1.549150   -1.257800
  C      0.195540    1.150820   -1.631540
  N      1.252660    0.873500   -1.990410
  C     -1.725340    2.208850   -2.334830
  N     -2.139620    2.706280   -3.285080
  C     -0.986710    0.561540    1.050120
  C     -1.846110    0.532600    2.173580
  C     -1.515020   -0.095640    3.347480
  C     -0.272800   -0.737570    3.415990
  C      0.578190   -0.707660    2.288490
  C      0.242940   -0.066510    1.101500
  S      2.064200   -1.560180    2.586140
  C      1.525910   -1.939760    4.200380
  C      0.298900   -1.454730    4.502800
  Br     2.635490   -2.942090    5.334470
  C     -3.081080    1.280290    1.857420
  O     -3.979850    1.527570    2.642890
  C     -2.939730    1.730260    0.468420
  C     -3.765120    2.602290   -0.209650
  C     -5.061630    3.075770    0.039100
  S     -5.368780    4.681460   -0.596930
  C     -6.998460    4.686030    0.006860
  C     -7.311490    3.442770    0.568610
  C     -6.236810    2.552460    0.601580
  C     -6.384830    1.140130    1.059590
  C     -7.743480    0.867510    1.699580
  C     -8.876930    1.540860    0.917760
  N    -10.212660    1.209580    1.384460
  C     -8.687960    3.056910    1.003930
  C     -7.715470    5.883870   -0.154060
  C     -8.871090    6.284380    0.466660
  C     -9.493360    7.527870    0.285550
  C     -9.214070    8.515830   -0.639820
  C     -9.808390    9.800280   -0.667050
  C     -9.361320   10.617350   -1.665970
  C     -8.408110   10.012200   -2.506760
  S     -8.091410    8.375740   -1.975840
  C     -7.734650   10.527160   -3.600440
  C     -7.732250   11.844990   -4.106810
  C     -6.914690   12.020880   -5.182650
  C     -6.246140   10.844410   -5.607600
  S     -6.683660    9.506380   -4.551450
  C     -5.394460   10.692230   -6.668220
  C     -4.895210    9.430260   -7.071660
  C     -4.077760    9.182770   -8.118850
  C     -3.465180   10.262210   -8.957030
  C     -3.703720    7.760600   -8.446630
  N     -2.412780    7.399380   -7.902650
  C     -2.249400    7.014890   -6.608080
  C     -1.054020    6.799740   -6.024070
  C     -0.895550    6.299930   -4.697190
  S     -2.187740    6.346240   -3.538180
  C     -1.202120    5.578850   -2.320190
  C      0.052630    5.289000   -2.819120
  C      0.231580    5.718650   -4.148970
  C      1.505420    5.503970   -4.909430
  C      2.636540    5.057040   -3.988500
  C      2.142580    3.951270   -3.059360
  N      3.248840    3.403580   -2.286710
  C      1.121420    4.546210   -2.087230
  C     -1.810370    5.370560   -1.039620
  C     -1.241180    4.959260    0.094970
  H     -2.191600   -0.094900    4.187700
  H      0.930960   -0.073450    0.273280
  H     -0.184330   -1.595140    5.452480
  H     -3.300250    3.094770   -1.057200
  H     -5.605110    0.919180    1.790130
  H     -6.226910    0.479640    0.200680
  H     -7.746390    1.252630    2.722720
  H     -7.908040   -0.211920    1.748080
  H     -8.820780    1.234330   -0.134070
  H    -10.302630    1.433100    2.370940
  H    -10.390540    0.217020    1.277090
  H     -8.857020    3.372910    2.039000
  H     -9.432930    3.549000    0.377100
  H     -7.212520    6.596080   -0.792690
  H     -9.319980    5.638860    1.206840
  H    -10.299730    7.763960    0.969170
  H    -10.540460   10.090810    0.066260
  H     -9.702810   11.625160   -1.822090
  H     -8.319750   12.625490   -3.656660
  H     -6.777410   12.956910   -5.695260
  H     -5.143050   11.571390   -7.243790
  H     -5.256210    8.587040   -6.495230
  H     -2.920820   10.975990   -8.339420
  H     -4.239140   10.812050   -9.493280
  H     -2.779620    9.843660   -9.689880
  H     -3.665190    7.618740   -9.531520
  H     -4.442350    7.070740   -8.031900
  H     -1.602640    7.790910   -8.360020
  H     -3.161470    6.806720   -6.066980
  H     -0.146280    6.959150   -6.590460
  H      1.790520    6.423530   -5.427930
  H      1.332570    4.738010   -5.673470
  H      2.987010    5.893080   -3.380770
  H      3.478390    4.698940   -4.585050
  H      1.634200    3.181630   -3.670670
  H      2.916130    2.614860   -1.739290
  H      3.962310    3.045220   -2.913600
  H      1.651070    5.212870   -1.399650
  H      0.677220    3.743920   -1.494480
  H     -2.868270    5.606180   -1.025860
  H     -0.192480    4.747780    0.191050
  H     -1.832260    4.845170    0.988120

 Total Charge           Charge          ....    0
 Multiplicity           Mult            ....    1
 Number of Electrons    NEL             ....  506
 Basis Dimension        Dim             .... 1130

ORBITAL ENERGIES
----------------

  NO   OCC          E(Eh)            E(eV)
   0   2.0000    -482.877625    -13139.7682
   1   2.0000     -88.965261     -2420.8678
   2   2.0000     -88.948205     -2420.4037
   3   2.0000     -88.947553     -2420.3860
   4   2.0000     -88.946094     -2420.3463
   5   2.0000     -88.911229     -2419.3975
   6   2.0000     -62.555307     -1702.2164
   7   2.0000     -56.389248     -1534.4295
   8   2.0000     -56.386557     -1534.3562
   9   2.0000     -56.386514     -1534.3550
  10   2.0000     -19.200417      -522.4699
  11   2.0000     -14.416800      -392.3011
  12   2.0000     -14.405647      -391.9976
  13   2.0000     -14.396202      -391.7406
  14   2.0000     -14.375685      -391.1823
  15   2.0000     -14.347190      -390.4069
  16   2.0000     -10.350548      -281.6527
  17   2.0000     -10.349041      -281.6117
  18   2.0000     -10.324210      -280.9360
  19   2.0000     -10.323191      -280.9083
  20   2.0000     -10.317269      -280.7472
  21   2.0000     -10.313512      -280.6449
  22   2.0000     -10.310868      -280.5730
  23   2.0000     -10.309940      -280.5477
  24   2.0000     -10.308459      -280.5074
  25   2.0000     -10.308222      -280.5010
  26   2.0000     -10.305614      -280.4300
  27   2.0000     -10.305490      -280.4266
  28   2.0000     -10.304534      -280.4006
  29   2.0000     -10.298853      -280.2460
  30   2.0000     -10.296879      -280.1923
  31   2.0000     -10.295695      -280.1601
  32   2.0000     -10.293968      -280.1131
  33   2.0000     -10.292925      -280.0847
  34   2.0000     -10.291607      -280.0489
  35   2.0000     -10.291082      -280.0346
  36   2.0000     -10.290733      -280.0251
  37   2.0000     -10.289106      -279.9808
  38   2.0000     -10.288511      -279.9646
  39   2.0000     -10.287159      -279.9278
  40   2.0000     -10.284933      -279.8673
  41   2.0000     -10.284841      -279.8647
  42   2.0000     -10.284563      -279.8572
  43   2.0000     -10.283759      -279.8353
  44   2.0000     -10.282952      -279.8133
  45   2.0000     -10.280817      -279.7553
  46   2.0000     -10.278204      -279.6841
  47   2.0000     -10.277760      -279.6721
  48   2.0000     -10.275729      -279.6168
  49   2.0000     -10.275683      -279.6156
  50   2.0000     -10.273538      -279.5572
  51   2.0000     -10.273245      -279.5492
  52   2.0000     -10.269402      -279.4446
  53   2.0000     -10.262317      -279.2518
  54   2.0000     -10.262079      -279.2454
  55   2.0000     -10.257774      -279.1282
  56   2.0000     -10.253689      -279.0171
  57   2.0000     -10.253243      -279.0049
  58   2.0000     -10.252844      -278.9941
  59   2.0000     -10.252341      -278.9804
  60   2.0000     -10.240832      -278.6672
  61   2.0000     -10.239017      -278.6178
  62   2.0000     -10.237017      -278.5634
  63   2.0000     -10.235869      -278.5321
  64   2.0000     -10.234085      -278.4836
  65   2.0000     -10.232515      -278.4409
  66   2.0000     -10.232276      -278.4344
  67   2.0000      -8.784708      -239.0441
  68   2.0000      -8.061249      -219.3577
  69   2.0000      -8.043996      -218.8883
  70   2.0000      -8.043099      -218.8638
  71   2.0000      -8.042435      -218.8458
  72   2.0000      -8.007000      -217.8815
  73   2.0000      -6.620930      -180.1647
  74   2.0000      -6.606466      -179.7711
  75   2.0000      -6.606304      -179.7667
  76   2.0000      -6.030955      -164.1106
  77   2.0000      -6.026683      -163.9944
  78   2.0000      -6.022462      -163.8795
  79   2.0000      -6.013651      -163.6398
  80   2.0000      -6.012302      -163.6031
  81   2.0000      -6.012164      -163.5993
  82   2.0000      -6.009529      -163.5276
  83   2.0000      -6.008374      -163.4962
  84   2.0000      -6.008139      -163.4898
  85   2.0000      -6.005198      -163.4097
  86   2.0000      -6.005111      -163.4074
  87   2.0000      -6.003320      -163.3587
  88   2.0000      -5.976151      -162.6193
  89   2.0000      -5.972418      -162.5178
  90   2.0000      -5.969057      -162.4263
  91   2.0000      -2.736859       -74.4737
  92   2.0000      -2.732720       -74.3611
  93   2.0000      -2.732612       -74.3582
  94   2.0000      -2.721108       -74.0451
  95   2.0000      -2.721104       -74.0450
  96   2.0000      -1.113711       -30.3056
  97   2.0000      -1.018923       -27.7263
  98   2.0000      -1.010567       -27.4989
  99   2.0000      -1.001102       -27.2414
 100   2.0000      -0.998059       -27.1586
 101   2.0000      -0.988434       -26.8967
 102   2.0000      -0.979767       -26.6608
 103   2.0000      -0.975411       -26.5423
 104   2.0000      -0.974554       -26.5190
 105   2.0000      -0.964579       -26.2475
 106   2.0000      -0.952596       -25.9214
 107   2.0000      -0.933973       -25.4147
 108   2.0000      -0.930289       -25.3145
 109   2.0000      -0.917772       -24.9738
 110   2.0000      -0.908978       -24.7346
 111   2.0000      -0.896201       -24.3869
 112   2.0000      -0.891759       -24.2660
 113   2.0000      -0.886297       -24.1174
 114   2.0000      -0.875326       -23.8188
 115   2.0000      -0.873498       -23.7691
 116   2.0000      -0.865481       -23.5509
 117   2.0000      -0.862390       -23.4668
 118   2.0000      -0.857622       -23.3371
 119   2.0000      -0.851087       -23.1593
 120   2.0000      -0.835092       -22.7240
 121   2.0000      -0.826426       -22.4882
 122   2.0000      -0.824995       -22.4493
 123   2.0000      -0.821895       -22.3649
 124   2.0000      -0.817308       -22.2401
 125   2.0000      -0.810391       -22.0519
 126   2.0000      -0.803468       -21.8635
 127   2.0000      -0.797304       -21.6957
 128   2.0000      -0.785845       -21.3839
 129   2.0000      -0.778081       -21.1727
 130   2.0000      -0.771775       -21.0011
 131   2.0000      -0.763444       -20.7744
 132   2.0000      -0.746407       -20.3108
 133   2.0000      -0.741185       -20.1687
 134   2.0000      -0.727385       -19.7932
 135   2.0000      -0.716649       -19.5010
 136   2.0000      -0.703457       -19.1420
 137   2.0000      -0.696404       -18.9501
 138   2.0000      -0.689079       -18.7508
 139   2.0000      -0.683721       -18.6050
 140   2.0000      -0.680148       -18.5078
 141   2.0000      -0.677229       -18.4283
 142   2.0000      -0.676461       -18.4074
 143   2.0000      -0.668959       -18.2033
 144   2.0000      -0.652375       -17.7520
 145   2.0000      -0.648765       -17.6538
 146   2.0000      -0.644640       -17.5415
 147   2.0000      -0.639250       -17.3949
 148   2.0000      -0.636941       -17.3320
 149   2.0000      -0.627274       -17.0690
 150   2.0000      -0.622749       -16.9459
 151   2.0000      -0.616064       -16.7640
 152   2.0000      -0.612721       -16.6730
 153   2.0000      -0.609642       -16.5892
 154   2.0000      -0.605128       -16.4664
 155   2.0000      -0.599541       -16.3143
 156   2.0000      -0.597780       -16.2664
 157   2.0000      -0.584623       -15.9084
 158   2.0000      -0.579786       -15.7768
 159   2.0000      -0.572479       -15.5779
 160   2.0000      -0.566629       -15.4188
 161   2.0000      -0.563958       -15.3461
 162   2.0000      -0.560756       -15.2589
 163   2.0000      -0.559772       -15.2322
 164   2.0000      -0.548655       -14.9297
 165   2.0000      -0.543932       -14.8011
 166   2.0000      -0.542171       -14.7532
 167   2.0000      -0.536414       -14.5966
 168   2.0000      -0.536149       -14.5894
 169   2.0000      -0.531841       -14.4721
 170   2.0000      -0.528888       -14.3918
 171   2.0000      -0.526478       -14.3262
 172   2.0000      -0.524979       -14.2854
 173   2.0000      -0.521623       -14.1941
 174   2.0000      -0.518061       -14.0971
 175   2.0000      -0.516485       -14.0543
 176   2.0000      -0.511104       -13.9078
 177   2.0000      -0.507909       -13.8209
 178   2.0000      -0.507843       -13.8191
 179   2.0000      -0.503840       -13.7102
 180   2.0000      -0.499363       -13.5884
 181   2.0000      -0.498872       -13.5750
 182   2.0000      -0.497583       -13.5399
 183   2.0000      -0.495245       -13.4763
 184   2.0000      -0.493346       -13.4246
 185   2.0000      -0.491889       -13.3850
 186   2.0000      -0.490652       -13.3513
 187   2.0000      -0.488177       -13.2840
 188   2.0000      -0.484481       -13.1834
 189   2.0000      -0.481913       -13.1135
 190   2.0000      -0.481047       -13.0900
 191   2.0000      -0.477508       -12.9937
 192   2.0000      -0.469941       -12.7877
 193   2.0000      -0.469343       -12.7715
 194   2.0000      -0.466214       -12.6863
 195   2.0000      -0.464955       -12.6521
 196   2.0000      -0.463947       -12.6246
 197   2.0000      -0.462111       -12.5747
 198   2.0000      -0.460050       -12.5186
 199   2.0000      -0.459307       -12.4984
 200   2.0000      -0.457982       -12.4623
 201   2.0000      -0.452833       -12.3222
 202   2.0000      -0.447981       -12.1902
 203   2.0000      -0.446605       -12.1527
 204   2.0000      -0.444391       -12.0925
 205   2.0000      -0.442698       -12.0464
 206   2.0000      -0.440962       -11.9992
 207   2.0000      -0.436444       -11.8762
 208   2.0000      -0.434673       -11.8280
 209   2.0000      -0.431072       -11.7301
 210   2.0000      -0.430361       -11.7107
 211   2.0000      -0.428210       -11.6522
 212   2.0000      -0.425517       -11.5789
 213   2.0000      -0.423491       -11.5238
 214   2.0000      -0.420624       -11.4458
 215   2.0000      -0.419692       -11.4204
 216   2.0000      -0.415609       -11.3093
 217   2.0000      -0.415250       -11.2995
 218   2.0000      -0.411677       -11.2023
 219   2.0000      -0.406320       -11.0565
 220   2.0000      -0.405489       -11.0339
 221   2.0000      -0.404378       -11.0037
 222   2.0000      -0.398202       -10.8356
 223   2.0000      -0.396800       -10.7975
 224   2.0000      -0.394551       -10.7363
 225   2.0000      -0.392420       -10.6783
 226   2.0000      -0.389256       -10.5922
 227   2.0000      -0.386545       -10.5184
 228   2.0000      -0.385164       -10.4808
 229   2.0000      -0.384606       -10.4657
 230   2.0000      -0.377006       -10.2589
 231   2.0000      -0.375670       -10.2225
 232   2.0000      -0.367910       -10.0114
 233   2.0000      -0.367113        -9.9896
 234   2.0000      -0.365977        -9.9587
 235   2.0000      -0.352431        -9.5901
 236   2.0000      -0.349424        -9.5083
 237   2.0000      -0.343366        -9.3435
 238   2.0000      -0.338273        -9.2049
 239   2.0000      -0.325240        -8.8502
 240   2.0000      -0.324523        -8.8307
 241   2.0000      -0.323775        -8.8104
 242   2.0000      -0.307379        -8.3642
 243   2.0000      -0.304374        -8.2824
 244   2.0000      -0.295596        -8.0436
 245   2.0000      -0.293781        -7.9942
 246   2.0000      -0.285861        -7.7787
 247   2.0000      -0.279000        -7.5920
 248   2.0000      -0.275723        -7.5028
 249   2.0000      -0.269486        -7.3331
 250   2.0000      -0.258712        -7.0399
 251   2.0000      -0.209276        -5.6947
 252   2.0000      -0.204184        -5.5561
 253   0.0000      -0.094130        -2.5614
 254   0.0000      -0.066766        -1.8168
 255   0.0000      -0.045275        -1.2320
 256   0.0000      -0.016172        -0.4401
 257   0.0000       0.003276         0.0891

MULLIKEN ATOMIC CHARGES
-----------------------
   0 C :    0.329750
   1 C :   -0.372628
   2 C :   -0.163600
   3 N :    0.112787
   4 C :   -0.194960
   5 N :    0.173708
   6 C :    0.018048
   7 C :   -0.006822
   8 C :   -0.086667
   9 C :    0.121552
  10 C :   -0.088805
  11 C :   -0.035056
  12 S :    0.178389
  13 C :   -0.123514
  14 C :    0.037485
  15 Br:    0.014924
  16 C :    0.134854
  17 O :   -0.177418
  18 C :   -0.079333
  19 C :   -0.018476
  20 C :   -0.125785
  21 S :    0.118403
  22 C :   -0.085997
  23 C :   -0.093172
  24 C :   -0.035620
  25 C :    0.131168
  26 C :    0.052759
  27 C :   -0.073432
  28 N :   -0.165501
  29 C :    0.164751
  30 C :    0.017255
  31 C :    0.014895
  32 C :   -0.014221
  33 C :   -0.021294
  34 C :    0.031375
  35 C :    0.032227
  36 C :   -0.049943
  37 S :    0.076344
  38 C :   -0.035405
  39 C :    0.027126
  40 C :    0.040214
  41 C :   -0.020241
  42 S :    0.077444
  43 C :   -0.005769
  44 C :   -0.003811
  45 C :   -0.187988
  46 C :    0.084861
  47 C :    0.198173
  48 N :   -0.166080
  49 C :    0.058716
  50 C :   -0.039854
  51 C :   -0.091582
  52 S :    0.074481
  53 C :   -0.155566
  54 C :   -0.028168
  55 C :   -0.111658
  56 C :    0.135686
  57 C :    0.073748
  58 C :   -0.077326
  59 N :   -0.169061
  60 C :    0.154974
  61 C :    0.012643
  62 C :   -0.044663
  63 H :   -0.015520
  64 H :   -0.012185
  65 H :   -0.006720
  66 H :    0.033541
  67 H :    0.039304
  68 H :    0.013116
  69 H :   -0.008554
  70 H :   -0.013259
  71 H :   -0.001309
  72 H :    0.084443
  73 H :    0.087624
  74 H :    0.004836
  75 H :    0.020651
  76 H :   -0.005088
  77 H :   -0.010196
  78 H :   -0.015908
  79 H :   -0.012650
  80 H :   -0.013236
  81 H :   -0.011972
  82 H :   -0.010387
  83 H :   -0.017315
  84 H :   -0.010295
  85 H :    0.039773
  86 H :    0.036637
  87 H :    0.004339
  88 H :    0.009516
  89 H :    0.014276
  90 H :    0.111161
  91 H :   -0.000581
  92 H :   -0.038108
  93 H :    0.000198
  94 H :    0.006708
  95 H :   -0.004615
  96 H :   -0.021332
  97 H :   -0.007689
  98 H :    0.082964
  99 H :    0.080028
 100 H :    0.010844
 101 H :   -0.000932
 102 H :   -0.020872
 103 H :    0.013792
 104 H :    0.015646
Sum of atomic charges:   -0.0000000

LOEWDIN ATOMIC CHARGES
----------------------
   0 C :    0.080753
   1 C :   -0.152379
   2 C :   -0.003319
   3 N :   -0.076120
   4 C :   -0.026350
   5 N :   -0.047833
   6 C :   -0.019850
   7 C :   -0.047279
   8 C :    0.016334
   9 C :   -0.035539
  10 C :   -0.145799
  11 C :   -0.014256
  12 S :    0.426263
  13 C :   -0.274233
  14 C :   -0.071080
  15 Br:    0.130074
  16 C :    0.082425
  17 O :   -0.157621
  18 C :   -0.114058
  19 C :    0.050744
  20 C :   -0.180257
  21 S :    0.461113
  22 C :   -0.133896
  23 C :   -0.063664
  24 C :   -0.001052
  25 C :   -0.034522
  26 C :   -0.042279
  27 C :    0.011224
  28 N :   -0.103979
  29 C :   -0.026669
  30 C :   -0.071168
  31 C :   -0.015531
  32 C :   -0.073165
  33 C :   -0.132540
  34 C :   -0.037954
  35 C :   -0.031212
  36 C :   -0.190949
  37 S :    0.403332
  38 C :   -0.163289
  39 C :   -0.035950
  40 C :   -0.023202
  41 C :   -0.146242
  42 S :    0.379268
  43 C :   -0.040203
  44 C :   -0.060310
  45 C :   -0.024789
  46 C :   -0.054601
  47 C :    0.041385
  48 N :   -0.018379
  49 C :    0.030897
  50 C :   -0.129529
  51 C :   -0.157727
  52 S :    0.407177
  53 C :   -0.192355
  54 C :   -0.042666
  55 C :   -0.077630
  56 C :   -0.026282
  57 C :   -0.027856
  58 C :    0.017013
  59 N :   -0.115836
  60 C :   -0.027311
  61 C :   -0.046179
  62 C :   -0.077394
  63 H :    0.038462
  64 H :    0.038515
  65 H :    0.037470
  66 H :    0.044481
  67 H :    0.037722
  68 H :    0.034861
  69 H :    0.019294
  70 H :    0.018921
  71 H :    0.020151
  72 H :    0.049305
  73 H :    0.052611
  74 H :    0.026955
  75 H :    0.034141
  76 H :    0.007228
  77 H :    0.032720
  78 H :    0.033955
  79 H :    0.033155
  80 H :    0.032190
  81 H :    0.032782
  82 H :    0.034354
  83 H :    0.031022
  84 H :    0.018406
  85 H :    0.039714
  86 H :    0.041199
  87 H :    0.025666
  88 H :    0.026348
  89 H :    0.031269
  90 H :    0.072074
  91 H :    0.019349
  92 H :    0.020986
  93 H :    0.024441
  94 H :    0.028486
  95 H :    0.021106
  96 H :    0.016173
  97 H :    0.002193
  98 H :    0.044983
  99 H :    0.049776
 100 H :    0.031247
 101 H :    0.022472
 102 H :    0.009161
 103 H :    0.018763
 104 H :    0.020173

  Mayer bond orders larger than 0.100000
B(  0-C ,  1-C ) :   1.5988 B(  0-C ,  6-C ) :   0.9927 B(  0-C , 18-C ) :   1.1031
B(  1-C ,  2-C ) :   1.1704 B(  1-C ,  4-C ) :   1.1476 B(  2-C ,  3-N ) :   2.8557
B(  4-C ,  5-N ) :   2.9396 B(  6-C ,  7-C ) :   1.2701 B(  6-C , 11-C ) :   1.4137
B(  7-C ,  8-C ) :   1.4286 B(  7-C , 16-C ) :   0.9317 B(  8-C ,  9-C ) :   1.2374
B(  8-C , 63-H ) :   1.0164 B(  9-C , 10-C ) :   1.3166 B(  9-C , 14-C ) :   1.1601
B( 10-C , 11-C ) :   1.3234 B( 10-C , 12-S ) :   1.0817 B( 11-C , 64-H ) :   0.9801
B( 12-S , 13-C ) :   1.0864 B( 13-C , 14-C ) :   1.6206 B( 13-C , 15-Br) :   1.0146
B( 14-C , 65-H ) :   1.0002 B( 16-C , 17-O ) :   2.1383 B( 16-C , 18-C ) :   0.9846
B( 18-C , 19-C ) :   1.5121 B( 19-C , 20-C ) :   1.2467 B( 19-C , 66-H ) :   0.9104
B( 20-C , 21-S ) :   1.0940 B( 20-C , 24-C ) :   1.3817 B( 21-S , 22-C ) :   1.1526
B( 22-C , 23-C ) :   1.3981 B( 22-C , 30-C ) :   1.2170 B( 23-C , 24-C ) :   1.3844
B( 23-C , 29-C ) :   1.0334 B( 24-C , 25-C ) :   1.0660 B( 25-C , 26-C ) :   1.0842
B( 25-C , 67-H ) :   0.8697 B( 25-C , 68-H ) :   0.9031 B( 26-C , 27-C ) :   1.0309
B( 26-C , 69-H ) :   0.9266 B( 26-C , 70-H ) :   0.9289 B( 27-C , 28-N ) :   1.1086
B( 27-C , 29-C ) :   1.0422 B( 27-C , 71-H ) :   0.9289 B( 28-N , 72-H ) :   0.9688
B( 28-N , 73-H ) :   0.9702 B( 29-C , 74-H ) :   0.8899 B( 29-C , 75-H ) :   0.9172
B( 30-C , 31-C ) :   1.5590 B( 30-C , 76-H ) :   0.9105 B( 31-C , 32-C ) :   1.2463
B( 31-C , 77-H ) :   0.9693 B( 32-C , 33-C ) :   1.5162 B( 32-C , 78-H ) :   0.9628
B( 33-C , 34-C ) :   1.1714 B( 33-C , 37-S ) :   1.0603 B( 34-C , 35-C ) :   1.5661
B( 34-C , 79-H ) :   0.9987 B( 35-C , 36-C ) :   1.2050 B( 35-C , 80-H ) :   0.9935
B( 36-C , 37-S ) :   1.0386 B( 36-C , 38-C ) :   1.4827 B( 38-C , 39-C ) :   1.1926
B( 38-C , 42-S ) :   1.0639 B( 39-C , 40-C ) :   1.5901 B( 39-C , 81-H ) :   0.9949
B( 40-C , 41-C ) :   1.1342 B( 40-C , 82-H ) :   0.9984 B( 41-C , 42-S ) :   1.0254
B( 41-C , 43-C ) :   1.6143 B( 43-C , 44-C ) :   1.1200 B( 43-C , 83-H ) :   0.9697
B( 44-C , 45-C ) :   1.7562 B( 44-C , 84-H ) :   0.9622 B( 45-C , 46-C ) :   1.0735
B( 45-C , 47-C ) :   1.0446 B( 46-C , 85-H ) :   0.9514 B( 46-C , 86-H ) :   0.9424
B( 46-C , 87-H ) :   0.9540 B( 47-C , 48-N ) :   1.0354 B( 47-C , 88-H ) :   0.9348
B( 47-C , 89-H ) :   0.9391 B( 48-N , 49-C ) :   1.1753 B( 48-N , 90-H ) :   0.9423
B( 49-C , 50-C ) :   1.6664 B( 49-C , 91-H ) :   0.9656 B( 50-C , 51-C ) :   1.1481
B( 50-C , 92-H ) :   0.9545 B( 51-C , 52-S ) :   1.1213 B( 51-C , 55-C ) :   1.5159
B( 52-S , 53-C ) :   1.0934 B( 53-C , 54-C ) :   1.5263 B( 53-C , 61-C ) :   1.1312
B( 54-C , 55-C ) :   1.3130 B( 54-C , 60-C ) :   1.0440 B( 55-C , 56-C ) :   1.0489
B( 56-C , 57-C ) :   1.0931 B( 56-C , 93-H ) :   0.9117 B( 56-C , 94-H ) :   0.9047
B( 57-C , 58-C ) :   1.0366 B( 57-C , 95-H ) :   0.9305 B( 57-C , 96-H ) :   0.9282
B( 58-C , 59-N ) :   1.0871 B( 58-C , 60-C ) :   1.0406 B( 58-C , 97-H ) :   0.9316
B( 59-N , 98-H ) :   0.9596 B( 59-N , 99-H ) :   0.9598 B( 60-C ,100-H ) :   0.8847
B( 60-C ,101-H ) :   0.9075 B( 61-C , 62-C ) :   1.9088 B( 61-C ,102-H ) :   0.9287
B( 62-C ,103-H ) :   0.9503 B( 62-C ,104-H ) :   0.9397

-----------------------------------------------------------------------------
         ABSORPTION SPECTRUM VIA TRANSITION ELECTRIC DIPOLE MOMENTS
-----------------------------------------------------------------------------
State   Energy  Wavelength   fosc         T2         TX        TY        TZ
        (cm-1)    (nm)                  (au**2)     (au)      (au)      (au)
-----------------------------------------------------------------------------
   0    9931.3   1006.9   0.042265786   1.40107  -0.55507  -0.64497   0.82279
   1   11422.3    875.5   0.776310328  22.37472   1.27835  -3.66096   2.70885
   2   15449.6    647.3   0.162752384   3.46805  -0.86835   1.46914  -0.74542
   3   18650.2    536.2   0.397665462   7.01956   1.96915   0.25626  -1.75395
   4   20796.1    480.9   0.031713195   0.50204  -0.36300   0.55237  -0.25524
   5   21286.1    469.8   0.450280254   6.96406  -2.23876   0.71071   1.20288
   6   23139.5    432.2   0.800692630  11.39167   2.94206  -1.33720  -0.97357
   7   23900.8    418.4   0.003120134   0.04298  -0.16119   0.12111   0.04823
   8   26174.4    382.1   0.072253881   0.90878   0.19994  -0.70230   0.61284
   9   26512.6    377.2   0.058188257   0.72253  -0.62087   0.54813  -0.19134
  10   26704.7    374.5   0.010781102   0.13291  -0.06881  -0.12506   0.33546
  11   27332.0    365.9   0.002944201   0.03546   0.08843   0.08526  -0.14274
  12   28164.7    355.1   0.045270946   0.52916   0.10519   0.25405  -0.67347
  13   28331.6    353.0   0.230090219   2.67364   1.34411  -0.78249   0.50471
  14   28570.6    350.0   0.158724023   1.82894  -0.55870   1.18929  -0.31997
  15   29670.7    337.0   0.097195397   1.07843   0.39297  -0.86095  -0.42751
  16   29808.4    335.5   0.004884592   0.05395   0.06461  -0.16114  -0.15429
  17   30291.5    330.1   0.017650265   0.19183   0.10991  -0.01463  -0.42371
  18   30408.0    328.9   0.020471322   0.22163   0.46882   0.02011   0.03795
  19   30884.1    323.8   0.075350829   0.80321  -0.02388  -0.60037   0.66497
  20   31342.8    319.1   0.697129506   7.32237  -0.33791   0.77711  -2.56988
  21   31802.2    314.4   0.157005392   1.62530  -0.34396   0.22403  -1.20698
  22   31918.6    313.3   0.138588790   1.42942  -0.60893   0.19729   1.00980
  23   32155.3    311.0   0.077980017   0.79838  -0.15806   0.64280  -0.60017
  24   32673.2    306.1   0.024344396   0.24529   0.09849  -0.14789   0.46230
  25   32788.8    305.0   0.058724238   0.58961   0.25655  -0.41565   0.59248
  26   33023.0    302.8   0.013487934   0.13446  -0.19521   0.20372  -0.23421
  27   33243.5    300.8   0.419840869   4.15770  -0.40560   0.49314  -1.93649
  28   33760.2    296.2   0.014360896   0.14004   0.07477   0.15544   0.33210
  29   33933.2    294.7   0.047516991   0.46100  -0.28736  -0.21629   0.57588
  30   34363.4    291.0   0.098850294   0.94702   0.00145   0.29383  -0.92773
  31   34844.6    287.0   0.051359656   0.48525  -0.52843   0.24274   0.38352
  32   35110.3    284.8   0.048017321   0.45023  -0.40022   0.47716  -0.24976
  33   35175.6    284.3   0.000865595   0.00810   0.00840  -0.04629   0.07673
  34   36045.3    277.4   0.074815664   0.68331   0.14957   0.27196  -0.76615
  35   36533.9    273.7   0.094209202   0.84893   0.19463   0.66190  -0.61069
  36   36824.5    271.6   0.012039726   0.10764  -0.00078  -0.00068   0.32808
  37   37152.9    269.2   0.001953491   0.01731  -0.01671  -0.05702  -0.11738
  38   37392.9    267.4   0.047066794   0.41438  -0.53150   0.13633   0.33661
  39   37778.5    264.7   0.001553471   0.01354   0.09444   0.02213  -0.06426
  40   37837.2    264.3   0.017054745   0.14839   0.36219   0.11883  -0.05559
  41   38021.1    263.0   0.007973796   0.06904  -0.06820   0.02005  -0.25296
  42   38230.0    261.6   0.074126377   0.63833  -0.66149   0.12148   0.43128
  43   38671.5    258.6   0.020649851   0.17579   0.32209   0.08078  -0.25598
  44   39098.1    255.8   0.071714994   0.60385   0.39222  -0.10496  -0.66257
  45   39611.1    252.5   0.006022138   0.05005   0.10099  -0.04538  -0.19440
  46   39945.8    250.3   0.008094434   0.06671  -0.10363  -0.02026  -0.23571

FINAL SINGLE POINT ENERGY     -6878.905759591627

DIPOLE MOMENT
-------------
                                X             Y             Z
Electronic contribution:     78.16546    -110.47451     109.25511
Nuclear contribution   :    -80.65249     112.26691    -109.86752
                        -----------------------------------------
Total Dipole Moment    :     -2.48703       1.79240      -0.61241
                        -----------------------------------------
Magnitude (a.u.)       :      3.12619
Magnitude (Debye)      :      7.94614

Rotational constants in cm-1:     0.001322     0.000485     0.000376
Rotational constants in MHz :    39.642695    14.544879    11.265184

                             ****ORCA TERMINATED NORMALLY****
TOTAL RUN TIME: 0 days 0 hours 11 minutes 32 seconds 571 msec
