                         Program Version 4.2.0 -  RELEASE  -
|  1> # ORCA input file
|  2> # SCF done       -167.671846780975          0.001289039859
|  3> ! CAM-B3LYP def2-SVP def2/J RIJCOSX Grid4 TightSCF
|  4> %maxcore 5000
|  5> %tddft
|  6>     Mode sTDDFT
|  7>     Ethresh 5.0
|  8>     maxcore 5000
|  9> end
| 10>
| 11> %pal
| 12>   nprocs 6
| 13>   end
| 14> * xyz 0 1
| 15>    C      -11.87439         4.17484         0.42785
| 16>    C      -11.41225         4.57652         1.65559
| 17>    C      -12.23432         4.79546         2.77993
| 18>    N      -12.84921         5.00459         3.72676
| 19>    C      -10.06082         4.80645         1.97383
| 20>    N       -8.98095         4.99772         2.31625
| 21>    C      -13.25617         3.83347         0.11107
| 22>    C      -13.31564         3.37576        -1.22831
| 23>    C      -14.48564         2.97113        -1.82181
| 24>    C      -15.65566         3.01822        -1.05554
| 25>    C      -15.58769         3.48127         0.28023
| 26>    C      -14.40299         3.89077         0.88016
| 27>    S      -17.14879         3.46706         1.04188
| 28>    C      -17.86173         2.84357        -0.42206
| 29>    C      -16.97807         2.65657        -1.43129
| 30>   Br      -19.70492         2.50493        -0.48105
| 31>    C      -11.96778         3.43238        -1.82396
| 32>    O      -11.67360         3.20603        -2.98225
| 33>    C      -11.08307         3.93949        -0.75846
| 34>    C       -9.78354         4.33426        -0.95045
| 35>    N       -8.99027         3.99824        -1.97950
| 36>    C       -9.01819         2.86490        -2.74818
| 37>    S       -9.63759         1.36427        -2.15420
| 38>    C       -9.06364         0.57864        -3.58361
| 39>    N       -9.33423        -0.78489        -3.71078
| 40>    O       -8.92381        -1.35865        -4.70397
| 41>    O       -9.96218        -1.30895        -2.80676
| 42>    C       -8.40376         1.41512        -4.44634
| 43>    C       -8.36956         2.74007        -3.97791
| 44>    C       -7.73359         3.83684        -4.67088
| 45>    C       -8.17171         5.10718        -4.63782
| 46>    C       -7.46777         6.20877        -5.23107
| 47>    C       -7.93330         7.46463        -5.31340
| 48>    C       -9.31856         7.86355        -4.90502
| 49>    C       -7.04977         8.57813        -5.82640
| 50>    N       -7.16992         9.78928        -5.04216
| 51>    C       -7.02397         9.85474        -3.69960
| 52>    C       -6.77729         8.79949        -2.88105
| 53>    C       -6.75791         8.87526        -1.47492
| 54>    C       -6.64043         7.77556        -0.67115
| 55>    C       -6.66172         7.69848         0.74296
| 56>    C       -6.57038         6.43926         1.25066
| 57>    C       -6.46287         5.42833         0.26822
| 58>    S       -6.46760         6.14485        -1.33759
| 59>    C       -6.38359         4.06466         0.42782
| 60>    C       -6.48711         3.28955         1.60385
| 61>    C       -6.43450         1.94931         1.38646
| 62>    C       -6.26756         1.56164         0.02500
| 63>    S       -6.15959         3.01110        -0.96350
| 64>    C       -6.25148         0.27656        -0.43433
| 65>    C       -6.11405        -0.19795        -1.77512
| 66>    C       -5.68458         0.60254        -2.84751
| 67>    C       -5.66450         0.09773        -4.12116
| 68>    C       -6.04578        -1.22026        -4.38445
| 69>    C       -6.39304        -2.07281        -3.32179
| 70>    C       -6.42545        -1.54013        -2.04804
| 71>    C       -6.78890        -3.50372        -3.53958
| 72>    O       -7.15776        -4.10340        -2.31556
| 73>    N       -6.08350        -1.61693        -5.75133
| 74>    O       -6.10014        -0.72652        -6.58551
| 75>    O       -6.08582        -2.80141        -6.02754
| 76>    H      -14.49851         2.62401        -2.84279
| 77>    H      -14.40340         4.23856         1.89949
| 78>    H      -17.24602         2.27805        -2.40064
| 79>    H       -9.33145         5.02949        -0.25244
| 80>    H       -8.17966         4.59719        -2.14841
| 81>    H       -7.99718         1.08701        -5.38655
| 82>    H       -6.86751         3.57687        -5.26357
| 83>    H       -9.09974         5.33323        -4.13361
| 84>    H       -6.46826         5.99260        -5.58617
| 85>    H       -9.38078         7.97471        -3.82192
| 86>    H      -10.04514         7.11677        -5.21311
| 87>    H       -9.58863         8.81614        -5.35350
| 88>    H       -7.34152         8.82618        -6.85204
| 89>    H       -6.00629         8.23711        -5.84574
| 90>    H       -7.28617        10.65276        -5.54376
| 91>    H       -7.16092        10.84281        -3.27965
| 92>    H       -6.62631         7.82004        -3.30862
| 93>    H       -6.87630         9.83947        -0.99884
| 94>    H       -6.74910         8.58794         1.34206
| 95>    H       -6.58493         6.20188         2.29761
| 96>    H       -6.62999         3.74572         2.56578
| 97>    H       -6.51399         1.20660         2.16045
| 98>    H       -6.40855        -0.48731         0.31654
| 99>    H       -5.34983         1.61198        -2.67964
|100>    H       -5.34556         0.70945        -4.95141
|101>    H       -6.73111        -2.18936        -1.24320
|102>    H       -5.94668        -4.04603        -3.99343
|103>    H       -7.61939        -3.52476        -4.25956
|104>    H       -7.55819        -4.95587        -2.50929
|105> *
|106>
|107>                          ****END OF INPUT****

CARTESIAN COORDINATES (ANGSTROEM)
---------------------------------
  C    -11.874390    4.174840    0.427850
  C    -11.412250    4.576520    1.655590
  C    -12.234320    4.795460    2.779930
  N    -12.849210    5.004590    3.726760
  C    -10.060820    4.806450    1.973830
  N     -8.980950    4.997720    2.316250
  C    -13.256170    3.833470    0.111070
  C    -13.315640    3.375760   -1.228310
  C    -14.485640    2.971130   -1.821810
  C    -15.655660    3.018220   -1.055540
  C    -15.587690    3.481270    0.280230
  C    -14.402990    3.890770    0.880160
  S    -17.148790    3.467060    1.041880
  C    -17.861730    2.843570   -0.422060
  C    -16.978070    2.656570   -1.431290
  Br   -19.704920    2.504930   -0.481050
  C    -11.967780    3.432380   -1.823960
  O    -11.673600    3.206030   -2.982250
  C    -11.083070    3.939490   -0.758460
  C     -9.783540    4.334260   -0.950450
  N     -8.990270    3.998240   -1.979500
  C     -9.018190    2.864900   -2.748180
  S     -9.637590    1.364270   -2.154200
  C     -9.063640    0.578640   -3.583610
  N     -9.334230   -0.784890   -3.710780
  O     -8.923810   -1.358650   -4.703970
  O     -9.962180   -1.308950   -2.806760
  C     -8.403760    1.415120   -4.446340
  C     -8.369560    2.740070   -3.977910
  C     -7.733590    3.836840   -4.670880
  C     -8.171710    5.107180   -4.637820
  C     -7.467770    6.208770   -5.231070
  C     -7.933300    7.464630   -5.313400
  C     -9.318560    7.863550   -4.905020
  C     -7.049770    8.578130   -5.826400
  N     -7.169920    9.789280   -5.042160
  C     -7.023970    9.854740   -3.699600
  C     -6.777290    8.799490   -2.881050
  C     -6.757910    8.875260   -1.474920
  C     -6.640430    7.775560   -0.671150
  C     -6.661720    7.698480    0.742960
  C     -6.570380    6.439260    1.250660
  C     -6.462870    5.428330    0.268220
  S     -6.467600    6.144850   -1.337590
  C     -6.383590    4.064660    0.427820
  C     -6.487110    3.289550    1.603850
  C     -6.434500    1.949310    1.386460
  C     -6.267560    1.561640    0.025000
  S     -6.159590    3.011100   -0.963500
  C     -6.251480    0.276560   -0.434330
  C     -6.114050   -0.197950   -1.775120
  C     -5.684580    0.602540   -2.847510
  C     -5.664500    0.097730   -4.121160
  C     -6.045780   -1.220260   -4.384450
  C     -6.393040   -2.072810   -3.321790
  C     -6.425450   -1.540130   -2.048040
  C     -6.788900   -3.503720   -3.539580
  O     -7.157760   -4.103400   -2.315560
  N     -6.083500   -1.616930   -5.751330
  O     -6.100140   -0.726520   -6.585510
  O     -6.085820   -2.801410   -6.027540
  H    -14.498510    2.624010   -2.842790
  H    -14.403400    4.238560    1.899490
  H    -17.246020    2.278050   -2.400640
  H     -9.331450    5.029490   -0.252440
  H     -8.179660    4.597190   -2.148410
  H     -7.997180    1.087010   -5.386550
  H     -6.867510    3.576870   -5.263570
  H     -9.099740    5.333230   -4.133610
  H     -6.468260    5.992600   -5.586170
  H     -9.380780    7.974710   -3.821920
  H    -10.045140    7.116770   -5.213110
  H     -9.588630    8.816140   -5.353500
  H     -7.341520    8.826180   -6.852040
  H     -6.006290    8.237110   -5.845740
  H     -7.286170   10.652760   -5.543760
  H     -7.160920   10.842810   -3.279650
  H     -6.626310    7.820040   -3.308620
  H     -6.876300    9.839470   -0.998840
  H     -6.749100    8.587940    1.342060
  H     -6.584930    6.201880    2.297610
  H     -6.629990    3.745720    2.565780
  H     -6.513990    1.206600    2.160450
  H     -6.408550   -0.487310    0.316540
  H     -5.349830    1.611980   -2.679640
  H     -5.345560    0.709450   -4.951410
  H     -6.731110   -2.189360   -1.243200
  H     -5.946680   -4.046030   -3.993430
  H     -7.619390   -3.524760   -4.259560
  H     -7.558190   -4.955870   -2.509290

 Total Charge           Charge          ....    0
 Multiplicity           Mult            ....    1
 Number of Electrons    NEL             ....  482
 Basis Dimension        Dim             .... 1033

ORBITAL ENERGIES
----------------

  NO   OCC          E(Eh)            E(eV)
   0   2.0000    -482.883567    -13139.9299
   1   2.0000     -88.972895     -2421.0756
   2   2.0000     -88.971677     -2421.0424
   3   2.0000     -88.950193     -2420.4578
   4   2.0000     -88.942938     -2420.2604
   5   2.0000     -62.561257     -1702.3783
   6   2.0000     -56.395207     -1534.5916
   7   2.0000     -56.392494     -1534.5178
   8   2.0000     -56.392463     -1534.5169
   9   2.0000     -19.231158      -523.3064
  10   2.0000     -19.230315      -523.2835
  11   2.0000     -19.222550      -523.0722
  12   2.0000     -19.219069      -522.9774
  13   2.0000     -19.211506      -522.7717
  14   2.0000     -19.194718      -522.3148
  15   2.0000     -14.640953      -398.4006
  16   2.0000     -14.625935      -397.9919
  17   2.0000     -14.488435      -394.2504
  18   2.0000     -14.453046      -393.2874
  19   2.0000     -14.417679      -392.3250
  20   2.0000     -14.411126      -392.1467
  21   2.0000     -10.363339      -282.0008
  22   2.0000     -10.359898      -281.9072
  23   2.0000     -10.356347      -281.8105
  24   2.0000     -10.355968      -281.8002
  25   2.0000     -10.340783      -281.3870
  26   2.0000     -10.336025      -281.2575
  27   2.0000     -10.330619      -281.1104
  28   2.0000     -10.329087      -281.0687
  29   2.0000     -10.325312      -280.9660
  30   2.0000     -10.322074      -280.8779
  31   2.0000     -10.322048      -280.8772
  32   2.0000     -10.315032      -280.6863
  33   2.0000     -10.311067      -280.5784
  34   2.0000     -10.304959      -280.4122
  35   2.0000     -10.304593      -280.4022
  36   2.0000     -10.304504      -280.3998
  37   2.0000     -10.304423      -280.3976
  38   2.0000     -10.302948      -280.3575
  39   2.0000     -10.299698      -280.2690
  40   2.0000     -10.298348      -280.2323
  41   2.0000     -10.298278      -280.2304
  42   2.0000     -10.297419      -280.2070
  43   2.0000     -10.295834      -280.1639
  44   2.0000     -10.294050      -280.1153
  45   2.0000     -10.291257      -280.0393
  46   2.0000     -10.290678      -280.0236
  47   2.0000     -10.290464      -280.0178
  48   2.0000     -10.288994      -279.9778
  49   2.0000     -10.287736      -279.9435
  50   2.0000     -10.286751      -279.9167
  51   2.0000     -10.283697      -279.8336
  52   2.0000     -10.282797      -279.8091
  53   2.0000     -10.282244      -279.7941
  54   2.0000     -10.282133      -279.7911
  55   2.0000     -10.278810      -279.7006
  56   2.0000     -10.276961      -279.6503
  57   2.0000     -10.275591      -279.6130
  58   2.0000     -10.274541      -279.5845
  59   2.0000     -10.273650      -279.5602
  60   2.0000     -10.271830      -279.5107
  61   2.0000     -10.268052      -279.4079
  62   2.0000     -10.265313      -279.3334
  63   2.0000     -10.262789      -279.2647
  64   2.0000     -10.259987      -279.1884
  65   2.0000      -8.790666      -239.2062
  66   2.0000      -8.068930      -219.5667
  67   2.0000      -8.066603      -219.5034
  68   2.0000      -8.045321      -218.9243
  69   2.0000      -8.038100      -218.7278
  70   2.0000      -6.626964      -180.3289
  71   2.0000      -6.612402      -179.9326
  72   2.0000      -6.612201      -179.9271
  73   2.0000      -6.038594      -164.3185
  74   2.0000      -6.036198      -164.2533
  75   2.0000      -6.034356      -164.2032
  76   2.0000      -6.031823      -164.1343
  77   2.0000      -6.030157      -164.0889
  78   2.0000      -6.028212      -164.0360
  79   2.0000      -6.014984      -163.6760
  80   2.0000      -6.011143      -163.5715
  81   2.0000      -6.007852      -163.4820
  82   2.0000      -6.006496      -163.4451
  83   2.0000      -6.003886      -163.3740
  84   2.0000      -5.999111      -163.2441
  85   2.0000      -2.742826       -74.6361
  86   2.0000      -2.738732       -74.5247
  87   2.0000      -2.738632       -74.5220
  88   2.0000      -2.727026       -74.2062
  89   2.0000      -2.727021       -74.2060
  90   2.0000      -1.311131       -35.6777
  91   2.0000      -1.298912       -35.3452
  92   2.0000      -1.129834       -30.7444
  93   2.0000      -1.128361       -30.7043
  94   2.0000      -1.116787       -30.3893
  95   2.0000      -1.089785       -29.6545
  96   2.0000      -1.083438       -29.4818
  97   2.0000      -1.049752       -28.5652
  98   2.0000      -1.020528       -27.7700
  99   2.0000      -1.012184       -27.5429
 100   2.0000      -0.996589       -27.1186
 101   2.0000      -0.994044       -27.0493
 102   2.0000      -0.990205       -26.9448
 103   2.0000      -0.985458       -26.8157
 104   2.0000      -0.969657       -26.3857
 105   2.0000      -0.961000       -26.1501
 106   2.0000      -0.939313       -25.5600
 107   2.0000      -0.928812       -25.2742
 108   2.0000      -0.907787       -24.7021
 109   2.0000      -0.906086       -24.6558
 110   2.0000      -0.903920       -24.5969
 111   2.0000      -0.894757       -24.3476
 112   2.0000      -0.886258       -24.1163
 113   2.0000      -0.883009       -24.0279
 114   2.0000      -0.873714       -23.7750
 115   2.0000      -0.861606       -23.4455
 116   2.0000      -0.850685       -23.1483
 117   2.0000      -0.846081       -23.0230
 118   2.0000      -0.843069       -22.9411
 119   2.0000      -0.838840       -22.8260
 120   2.0000      -0.830041       -22.5866
 121   2.0000      -0.826331       -22.4856
 122   2.0000      -0.816891       -22.2287
 123   2.0000      -0.803867       -21.8743
 124   2.0000      -0.793959       -21.6047
 125   2.0000      -0.787197       -21.4207
 126   2.0000      -0.777573       -21.1588
 127   2.0000      -0.760317       -20.6893
 128   2.0000      -0.758321       -20.6350
 129   2.0000      -0.743375       -20.2283
 130   2.0000      -0.740153       -20.1406
 131   2.0000      -0.717198       -19.5159
 132   2.0000      -0.707859       -19.2618
 133   2.0000      -0.702212       -19.1082
 134   2.0000      -0.691097       -18.8057
 135   2.0000      -0.682533       -18.5727
 136   2.0000      -0.680715       -18.5232
 137   2.0000      -0.677832       -18.4447
 138   2.0000      -0.669726       -18.2242
 139   2.0000      -0.658696       -17.9240
 140   2.0000      -0.656044       -17.8519
 141   2.0000      -0.652504       -17.7555
 142   2.0000      -0.648780       -17.6542
 143   2.0000      -0.638044       -17.3621
 144   2.0000      -0.628606       -17.1052
 145   2.0000      -0.625577       -17.0228
 146   2.0000      -0.623442       -16.9647
 147   2.0000      -0.621349       -16.9078
 148   2.0000      -0.619111       -16.8469
 149   2.0000      -0.616157       -16.7665
 150   2.0000      -0.611287       -16.6340
 151   2.0000      -0.609860       -16.5951
 152   2.0000      -0.606069       -16.4920
 153   2.0000      -0.601216       -16.3599
 154   2.0000      -0.600004       -16.3269
 155   2.0000      -0.594804       -16.1855
 156   2.0000      -0.590551       -16.0697
 157   2.0000      -0.580188       -15.7877
 158   2.0000      -0.577439       -15.7129
 159   2.0000      -0.576510       -15.6876
 160   2.0000      -0.568508       -15.4699
 161   2.0000      -0.565896       -15.3988
 162   2.0000      -0.559547       -15.2261
 163   2.0000      -0.555957       -15.1284
 164   2.0000      -0.550533       -14.9808
 165   2.0000      -0.548344       -14.9212
 166   2.0000      -0.541641       -14.7388
 167   2.0000      -0.537429       -14.6242
 168   2.0000      -0.537134       -14.6162
 169   2.0000      -0.529108       -14.3978
 170   2.0000      -0.523683       -14.2501
 171   2.0000      -0.521443       -14.1892
 172   2.0000      -0.519105       -14.1256
 173   2.0000      -0.517631       -14.0854
 174   2.0000      -0.514778       -14.0078
 175   2.0000      -0.511997       -13.9322
 176   2.0000      -0.509254       -13.8575
 177   2.0000      -0.508045       -13.8246
 178   2.0000      -0.505330       -13.7507
 179   2.0000      -0.503344       -13.6967
 180   2.0000      -0.499022       -13.5791
 181   2.0000      -0.496992       -13.5238
 182   2.0000      -0.495052       -13.4710
 183   2.0000      -0.493669       -13.4334
 184   2.0000      -0.492928       -13.4133
 185   2.0000      -0.489782       -13.3276
 186   2.0000      -0.485539       -13.2122
 187   2.0000      -0.482691       -13.1347
 188   2.0000      -0.480016       -13.0619
 189   2.0000      -0.473961       -12.8971
 190   2.0000      -0.471444       -12.8286
 191   2.0000      -0.466197       -12.6859
 192   2.0000      -0.464569       -12.6416
 193   2.0000      -0.461236       -12.5509
 194   2.0000      -0.456400       -12.4193
 195   2.0000      -0.456032       -12.4093
 196   2.0000      -0.455453       -12.3935
 197   2.0000      -0.452228       -12.3057
 198   2.0000      -0.449007       -12.2181
 199   2.0000      -0.445598       -12.1253
 200   2.0000      -0.443309       -12.0631
 201   2.0000      -0.441215       -12.0061
 202   2.0000      -0.438606       -11.9351
 203   2.0000      -0.436169       -11.8688
 204   2.0000      -0.429569       -11.6892
 205   2.0000      -0.428435       -11.6583
 206   2.0000      -0.426266       -11.5993
 207   2.0000      -0.424702       -11.5567
 208   2.0000      -0.420347       -11.4382
 209   2.0000      -0.419296       -11.4096
 210   2.0000      -0.411272       -11.1913
 211   2.0000      -0.409583       -11.1453
 212   2.0000      -0.405961       -11.0468
 213   2.0000      -0.404919       -11.0184
 214   2.0000      -0.401780       -10.9330
 215   2.0000      -0.393249       -10.7009
 216   2.0000      -0.391253       -10.6465
 217   2.0000      -0.384681       -10.4677
 218   2.0000      -0.378860       -10.3093
 219   2.0000      -0.375379       -10.2146
 220   2.0000      -0.373018       -10.1503
 221   2.0000      -0.365907        -9.9568
 222   2.0000      -0.364778        -9.9261
 223   2.0000      -0.361433        -9.8351
 224   2.0000      -0.359079        -9.7710
 225   2.0000      -0.356446        -9.6994
 226   2.0000      -0.348014        -9.4699
 227   2.0000      -0.343894        -9.3578
 228   2.0000      -0.341877        -9.3030
 229   2.0000      -0.336994        -9.1701
 230   2.0000      -0.333790        -9.0829
 231   2.0000      -0.325990        -8.8706
 232   2.0000      -0.318543        -8.6680
 233   2.0000      -0.315270        -8.5789
 234   2.0000      -0.311565        -8.4781
 235   2.0000      -0.304520        -8.2864
 236   2.0000      -0.295232        -8.0337
 237   2.0000      -0.290733        -7.9113
 238   2.0000      -0.270084        -7.3494
 239   2.0000      -0.261944        -7.1279
 240   2.0000      -0.207701        -5.6518
 241   0.0000      -0.080971        -2.2033
 242   0.0000      -0.068771        -1.8714
 243   0.0000      -0.056849        -1.5469
 244   0.0000      -0.034808        -0.9472
 245   0.0000      -0.025966        -0.7066

MULLIKEN ATOMIC CHARGES
-----------------------
   0 C :    0.312310
   1 C :   -0.351775
   2 C :   -0.191982
   3 N :    0.145887
   4 C :   -0.201125
   5 N :    0.141752
   6 C :    0.006236
   7 C :   -0.003335
   8 C :   -0.070452
   9 C :    0.115982
  10 C :   -0.092066
  11 C :   -0.019374
  12 S :    0.183916
  13 C :   -0.123587
  14 C :    0.039405
  15 Br:    0.021624
  16 C :    0.143477
  17 O :   -0.156611
  18 C :   -0.156970
  19 C :    0.026176
  20 N :   -0.019277
  21 C :   -0.045907
  22 S :    0.199035
  23 C :   -0.029797
  24 N :    0.285680
  25 O :   -0.253085
  26 O :   -0.259442
  27 C :    0.059456
  28 C :    0.097574
  29 C :   -0.030996
  30 C :   -0.024057
  31 C :    0.032919
  32 C :   -0.269009
  33 C :    0.124405
  34 C :    0.221739
  35 N :   -0.154010
  36 C :    0.052268
  37 C :   -0.046852
  38 C :    0.019053
  39 C :   -0.048116
  40 C :    0.037016
  41 C :    0.061628
  42 C :   -0.053319
  43 S :   -0.004383
  44 C :   -0.071317
  45 C :    0.069811
  46 C :    0.017415
  47 C :    0.000060
  48 S :    0.011017
  49 C :   -0.036012
  50 C :    0.159451
  51 C :   -0.038629
  52 C :   -0.010644
  53 C :    0.097337
  54 C :   -0.113762
  55 C :   -0.114315
  56 C :    0.289708
  57 O :   -0.296961
  58 N :    0.265281
  59 O :   -0.256532
  60 O :   -0.246860
  61 H :   -0.010716
  62 H :   -0.008638
  63 H :   -0.003545
  64 H :    0.057021
  65 H :    0.168874
  66 H :    0.007625
  67 H :   -0.002459
  68 H :    0.004716
  69 H :   -0.023423
  70 H :    0.032677
  71 H :    0.039054
  72 H :    0.000246
  73 H :    0.027831
  74 H :    0.017245
  75 H :    0.127947
  76 H :    0.001548
  77 H :    0.005018
  78 H :   -0.020417
  79 H :   -0.014708
  80 H :   -0.002703
  81 H :   -0.001831
  82 H :   -0.012945
  83 H :   -0.018833
  84 H :   -0.010784
  85 H :   -0.007791
  86 H :   -0.010299
  87 H :    0.016729
  88 H :    0.023246
  89 H :    0.172255
Sum of atomic charges:   -0.0000000

LOEWDIN ATOMIC CHARGES
----------------------
   0 C :    0.085002
   1 C :   -0.158767
   2 C :   -0.020073
   3 N :   -0.061385
   4 C :   -0.011722
   5 N :   -0.058328
   6 C :   -0.023034
   7 C :   -0.047166
   8 C :    0.021170
   9 C :   -0.032736
  10 C :   -0.146544
  11 C :   -0.008944
  12 S :    0.431244
  13 C :   -0.272351
  14 C :   -0.069854
  15 Br:    0.135562
  16 C :    0.068005
  17 O :   -0.159726
  18 C :   -0.160522
  19 C :    0.106460
  20 N :    0.084243
  21 C :   -0.100730
  22 S :    0.500528
  23 C :   -0.203184
  24 N :    0.279780
  25 O :   -0.215504
  26 O :   -0.226268
  27 C :    0.009200
  28 C :   -0.083964
  29 C :   -0.020078
  30 C :   -0.028005
  31 C :   -0.048929
  32 C :   -0.031903
  33 C :   -0.052819
  34 C :    0.044196
  35 N :    0.000135
  36 C :    0.049092
  37 C :   -0.133463
  38 C :   -0.024817
  39 C :   -0.177469
  40 C :   -0.026819
  41 C :   -0.035988
  42 C :   -0.167769
  43 S :    0.357241
  44 C :   -0.201473
  45 C :   -0.015814
  46 C :   -0.044728
  47 C :   -0.130800
  48 S :    0.372522
  49 C :   -0.068170
  50 C :   -0.007235
  51 C :   -0.043732
  52 C :   -0.001011
  53 C :   -0.050606
  54 C :   -0.007355
  55 C :   -0.017467
  56 C :    0.068332
  57 O :   -0.138798
  58 N :    0.293735
  59 O :   -0.225879
  60 O :   -0.200233
  61 H :    0.041112
  62 H :    0.040581
  63 H :    0.038816
  64 H :    0.045362
  65 H :    0.059640
  66 H :    0.044400
  67 H :    0.032139
  68 H :    0.026708
  69 H :    0.025472
  70 H :    0.039824
  71 H :    0.037025
  72 H :    0.026811
  73 H :    0.037724
  74 H :    0.025300
  75 H :    0.081375
  76 H :    0.028490
  77 H :    0.020309
  78 H :    0.031473
  79 H :    0.033811
  80 H :    0.034908
  81 H :    0.035627
  82 H :    0.033335
  83 H :    0.035182
  84 H :    0.010590
  85 H :    0.033004
  86 H :    0.033052
  87 H :    0.019767
  88 H :    0.021253
  89 H :    0.082629

  Mayer bond orders larger than 0.100000
B(  0-C ,  1-C ) :   1.6113 B(  0-C ,  6-C ) :   1.0079 B(  0-C , 18-C ) :   1.1191
B(  1-C ,  2-C ) :   1.1425 B(  1-C ,  4-C ) :   1.1512 B(  2-C ,  3-N ) :   2.9719
B(  4-C ,  5-N ) :   2.9538 B(  6-C ,  7-C ) :   1.2748 B(  6-C , 11-C ) :   1.4175
B(  7-C ,  8-C ) :   1.4325 B(  7-C , 16-C ) :   0.9436 B(  8-C ,  9-C ) :   1.2409
B(  8-C , 61-H ) :   1.0169 B(  9-C , 10-C ) :   1.3105 B(  9-C , 14-C ) :   1.1630
B( 10-C , 11-C ) :   1.3265 B( 10-C , 12-S ) :   1.0846 B( 11-C , 62-H ) :   0.9791
B( 12-S , 13-C ) :   1.0881 B( 13-C , 14-C ) :   1.6174 B( 13-C , 15-Br) :   1.0172
B( 14-C , 63-H ) :   1.0003 B( 16-C , 17-O ) :   2.2047 B( 16-C , 18-C ) :   0.9588
B( 18-C , 19-C ) :   1.4671 B( 19-C , 20-N ) :   1.3447 B( 19-C , 64-H ) :   0.9447
B( 20-N , 21-C ) :   1.1060 B( 20-N , 65-H ) :   0.8599 B( 21-C , 22-S ) :   1.1525
B( 21-C , 28-C ) :   1.4334 B( 22-S , 23-C ) :   1.1143 B( 23-C , 24-N ) :   0.9778
B( 23-C , 27-C ) :   1.4722 B( 24-N , 25-O ) :   1.5078 B( 24-N , 26-O ) :   1.5180
B( 25-O , 26-O ) :   0.2437 B( 27-C , 28-C ) :   1.2476 B( 27-C , 66-H ) :   0.9832
B( 28-C , 29-C ) :   1.0368 B( 29-C , 30-C ) :   1.7285 B( 29-C , 67-H ) :   0.9777
B( 30-C , 31-C ) :   1.1064 B( 30-C , 68-H ) :   0.9715 B( 31-C , 32-C ) :   1.7766
B( 31-C , 69-H ) :   0.9760 B( 32-C , 33-C ) :   1.0736 B( 32-C , 34-C ) :   1.0184
B( 33-C , 70-H ) :   0.9337 B( 33-C , 71-H ) :   0.9494 B( 33-C , 72-H ) :   0.9458
B( 34-C , 35-N ) :   1.0136 B( 34-C , 73-H ) :   0.9286 B( 34-C , 74-H ) :   0.9441
B( 35-N , 36-C ) :   1.2340 B( 35-N , 75-H ) :   0.9387 B( 36-C , 37-C ) :   1.6092
B( 36-C , 76-H ) :   0.9685 B( 37-C , 38-C ) :   1.1599 B( 37-C , 77-H ) :   0.9505
B( 38-C , 39-C ) :   1.5987 B( 38-C , 78-H ) :   0.9825 B( 39-C , 40-C ) :   1.1331
B( 39-C , 43-S ) :   0.9881 B( 40-C , 41-C ) :   1.5943 B( 40-C , 79-H ) :   0.9989
B( 41-C , 42-C ) :   1.1834 B( 41-C , 80-H ) :   0.9888 B( 42-C , 43-S ) :   1.0256
B( 42-C , 44-C ) :   1.5297 B( 44-C , 45-C ) :   1.1806 B( 44-C , 48-S ) :   1.0116
B( 45-C , 46-C ) :   1.6001 B( 45-C , 81-H ) :   0.9899 B( 46-C , 47-C ) :   1.1249
B( 46-C , 82-H ) :   1.0000 B( 47-C , 48-S ) :   1.0317 B( 47-C , 49-C ) :   1.5933
B( 49-C , 50-C ) :   1.1176 B( 49-C , 83-H ) :   0.9718 B( 50-C , 51-C ) :   1.2930
B( 50-C , 55-C ) :   1.2331 B( 51-C , 52-C ) :   1.3861 B( 51-C , 84-H ) :   0.9716
B( 52-C , 53-C ) :   1.3764 B( 52-C , 85-H ) :   0.9812 B( 53-C , 54-C ) :   1.3665
B( 53-C , 58-N ) :   0.9127 B( 54-C , 55-C ) :   1.4160 B( 54-C , 56-C ) :   1.0226
B( 55-C , 86-H ) :   1.0023 B( 56-C , 57-O ) :   1.0903 B( 56-C , 87-H ) :   0.9144
B( 56-C , 88-H ) :   0.9155 B( 57-O , 89-H ) :   0.9728 B( 58-N , 59-O ) :   1.5415
B( 58-N , 60-O ) :   1.5213 B( 59-O , 60-O ) :   0.2493

-----------------------------------------------------------------------------
         ABSORPTION SPECTRUM VIA TRANSITION ELECTRIC DIPOLE MOMENTS
-----------------------------------------------------------------------------
State   Energy  Wavelength   fosc         T2         TX        TY        TZ
        (cm-1)    (nm)                  (au**2)     (au)      (au)      (au)
-----------------------------------------------------------------------------
   0   11964.5    835.8   0.006631958   0.18248   0.41202  -0.08490  -0.07424
   1   16025.2    624.0   0.905598516  18.60411  -0.24593   4.30609  -0.03486
   2   17964.3    556.7   0.057196155   1.04817   0.35462  -0.96039  -0.00811
   3   21688.6    461.1   0.010762989   0.16337   0.21821  -0.22579  -0.25451
   4   22086.0    452.8   0.402282035   5.99638  -1.61677   0.80875   1.65178
   5   23718.4    421.6   0.023262112   0.32288  -0.16574  -0.23966   0.48782
   6   25295.5    395.3   0.041104557   0.53496   0.49996  -0.31645  -0.42995
   7   25342.5    394.6   0.225663628   2.93148  -0.11007   1.07116  -1.33116
   8   25887.0    386.3   0.016194441   0.20595  -0.38434  -0.04400   0.23727
   9   26344.5    379.6   0.057394380   0.71722  -0.75460   0.28006   0.26337
  10   27998.1    357.2   0.536873538   6.31276   0.61452  -0.13716  -2.43235
  11   29001.2    344.8   0.222483301   2.52556  -1.31114  -0.51025  -0.73899
  12   29539.9    338.5   0.186820139   2.08204  -1.28535  -0.12329  -0.64398
  13   30146.1    331.7   0.113976496   1.24468  -1.04218   0.38739   0.09208
  14   31024.8    322.3   0.169926584   1.80313   0.37303   0.87811  -0.94493
  15   31175.6    320.8   0.035690471   0.37689   0.17697   0.58671   0.03670
  16   31230.1    320.2   0.006124410   0.06456   0.24490  -0.02353   0.06349
  17   31740.5    315.1   0.005047755   0.05236   0.16401  -0.04648  -0.15263
  18   31807.6    314.4   0.348657465   3.60864   0.99132   1.54468   0.48978
  19   32079.9    311.7   0.111845979   1.14779  -0.01548   1.03963  -0.25830
  20   32979.0    303.2   0.013768967   0.13745   0.35946   0.07401  -0.05253
  21   33169.5    301.5   0.030021408   0.29797   0.26093   0.24162   0.41413
  22   33544.9    298.1   0.025526886   0.25052   0.05208   0.49762   0.01369
  23   33695.4    296.8   0.084894040   0.82943   0.71253  -0.39874  -0.40340
  24   34074.8    293.5   0.008847953   0.08548   0.03122  -0.03509  -0.28858
  25   34349.3    291.1   0.250183091   2.39781  -0.81775  -0.66081  -1.13685
  26   34493.2    289.9   0.156194899   1.49077  -0.58182  -0.55359  -0.91967
  27   34716.9    288.0   0.095915349   0.90954   0.32078   0.71367  -0.54527
  28   34927.8    286.3   0.062920030   0.59305  -0.04363   0.11923  -0.75956
  29   35146.7    284.5   0.293221873   2.74655  -0.40483   1.41629  -0.75945
  30   35612.8    280.8   0.155573396   1.43815  -0.28837   0.12047  -1.15779
  31   35732.8    279.9   0.055571008   0.51198  -0.20632  -0.28772  -0.62180
  32   36257.4    275.8   0.014853199   0.13486   0.17395  -0.32226  -0.02753
  33   36815.7    271.6   0.036121659   0.32301  -0.14151  -0.01254   0.55029
  34   37017.7    270.1   0.013112719   0.11662  -0.04886   0.18275  -0.28431
  35   37248.0    268.5   0.033995915   0.30047   0.07256   0.11134   0.53180
  36   37683.1    265.4   0.025295118   0.22099  -0.04732  -0.46770   0.00010
  37   37990.1    263.2   0.004220904   0.03658  -0.02501   0.11139   0.15344
  38   38180.0    261.9   0.007424876   0.06402   0.05957  -0.14498  -0.19863
  39   38612.1    259.0   0.037572752   0.32035   0.28410   0.40153   0.28001
  40   38665.4    258.6   0.032041465   0.27281   0.25165   0.02037   0.45724
  41   38837.6    257.5   0.149205813   1.26476  -0.82774   0.11155   0.75310
  42   39006.6    256.4   0.005260198   0.04440  -0.14751   0.09294   0.11831
  43   39314.6    254.4   0.012177531   0.10197   0.24298  -0.01680  -0.20652
  44   39713.1    251.8   0.000268048   0.00222  -0.03288   0.00981  -0.03232
  45   39906.6    250.6   0.109758844   0.90546  -0.90686  -0.21004   0.19738
  46   40117.5    249.3   0.081284288   0.66703   0.02313  -0.81565   0.03486

FINAL SINGLE POINT ENERGY     -6636.856230287855

DIPOLE MOMENT
-------------
                                X             Y             Z
Electronic contribution:   -141.74561     -31.46394      36.26930
Nuclear contribution   :    141.46217      35.77588     -37.17556
                        -----------------------------------------
Total Dipole Moment    :     -0.28344       4.31194      -0.90627
                        -----------------------------------------
Magnitude (a.u.)       :      4.41526
Magnitude (Debye)      :     11.22269

Rotational constants in cm-1:     0.001211     0.000733     0.000581
Rotational constants in MHz :    36.314748    21.970291    17.421991

                             ****ORCA TERMINATED NORMALLY****
TOTAL RUN TIME: 0 days 0 hours 11 minutes 37 seconds 295 msec
