                         Program Version 4.2.0 -  RELEASE  -
|  1> # ORCA input file
|  2> # SCF done       -186.281278803002          0.000881545641
|  3> ! CAM-B3LYP def2-SVP def2/J RIJCOSX Grid4 TightSCF
|  4> %maxcore 5000
|  5> %tddft
|  6>     Mode sTDDFT
|  7>     Ethresh 5.0
|  8>     maxcore 5000
|  9> end
| 10>
| 11> %pal
| 12>   nprocs 6
| 13>   end
| 14> * xyz 0 1
| 15>    C       -7.17699         9.06040         5.18235
| 16>    C       -7.44184         8.42018         6.36460
| 17>    C       -7.71612         9.07960         7.58041
| 18>    N       -7.94444         9.56496         8.59489
| 19>    C       -7.48332         7.01795         6.50764
| 20>    N       -7.52966         5.88179         6.66356
| 21>    C       -7.14704        10.50667         4.97841
| 22>    C       -6.87759        10.77562         3.61100
| 23>    C       -6.78010        12.05193         3.11132
| 24>    C       -6.95278        13.11586         4.00253
| 25>    C       -7.22179        12.83903         5.36451
| 26>    C       -7.32376        11.54763         5.86919
| 27>    S       -7.39390        14.29750         6.29089
| 28>    C       -7.10477        15.24751         4.85761
| 29>    C       -6.89154        14.51155         3.74054
| 30>   Br       -7.10900        17.11909         4.97082
| 31>    C       -6.71885         9.50228         2.89931
| 32>    O       -6.48002         9.33354         1.70890
| 33>    C       -6.88871         8.44730         3.90549
| 34>    C       -6.73265         7.12247         3.58490
| 35>    N       -6.45282         6.76146         2.32680
| 36>    C       -6.20255         5.50666         1.87548
| 37>    S       -6.18265         4.13728         2.94117
| 38>    C       -5.76058         3.12777         1.59618
| 39>    N       -5.60035         1.75357         1.83515
| 40>    O       -5.31335         1.04759         0.88883
| 41>    O       -5.76630         1.37599         2.98035
| 42>    C       -5.63871         3.80545         0.41409
| 43>    C       -5.89599         5.18403         0.54853
| 44>    C       -5.89281         6.14057        -0.52991
| 45>    C       -5.34246         5.92881        -1.73409
| 46>    C       -5.43224         6.89977        -2.80919
| 47>    N       -6.22789         7.96073        -2.63980
| 48>    C       -6.33861         8.79221        -3.65926
| 49>    C       -5.67391         8.59553        -4.85789
| 50>    C       -4.82859         7.47768        -4.93405
| 51>    N       -4.72379         6.63965        -3.89889
| 52>    C       -4.05268         7.19395        -6.11482
| 53>    C       -3.05884         6.27231        -6.12608
| 54>    C       -2.27937         5.96274        -7.25871
| 55>    C       -1.19527         5.12601        -7.24096
| 56>    C       -0.38759         4.75293        -8.34763
| 57>    C        0.65067         3.93526        -8.02953
| 58>    C        0.73292         3.62540        -6.64984
| 59>    S       -0.57522         4.37965        -5.77541
| 60>    C        1.70422         2.87216        -6.01581
| 61>    C        2.81136         2.22012        -6.60390
| 62>    C        3.61613         1.58840        -5.70428
| 63>    C        3.19131         1.71450        -4.36046
| 64>    S        1.71173         2.63960        -4.28164
| 65>    C        3.82737         1.19453        -3.25153
| 66>    C        3.38750         1.39662        -1.94641
| 67>    C        3.92436         0.90429        -0.77825
| 68>    C        4.89487        -0.12374        -0.51484
| 69>    C        5.18904        -1.21397        -1.30053
| 70>    C        6.13582        -2.19866        -0.95668
| 71>    N        6.91375        -3.01684        -0.74473
| 72>    C        4.51591        -1.54976        -2.49167
| 73>    N        3.97964        -1.90627        -3.44284
| 74>    C        5.37350         0.06925         0.85461
| 75>    C        4.57479         1.05953         1.47902
| 76>    C        3.59797         1.57936         0.49947
| 77>    O        2.74002         2.41571         0.68284
| 78>    C        4.75441         1.43728         2.78660
| 79>    C        5.77829         0.81638         3.51092
| 80>    C        6.57900        -0.16034         2.87461
| 81>    C        6.39199        -0.54885         1.55272
| 82>    S        7.79200        -0.79048         3.94741
| 83>    C        7.21127         0.24983         5.22068
| 84>    C        6.16503         1.03083         4.86258
| 85>   Br        8.04436         0.20915         6.90086
| 86>    H       -6.57343        12.22431         2.06676
| 87>    H       -7.52785        11.38913         6.91486
| 88>    H       -6.69716        14.93430         2.77184
| 89>    H       -6.81543         6.33265         4.32075
| 90>    H       -6.38167         7.55585         1.66468
| 91>    H       -5.39384         3.31260        -0.50848
| 92>    H       -6.38173         7.09149        -0.36600
| 93>    H       -4.79701         5.03010        -1.97697
| 94>    H       -6.99082         9.64287        -3.50387
| 95>    H       -5.78423         9.27399        -5.68814
| 96>    H       -4.27886         7.77347        -6.99970
| 97>    H       -2.84402         5.74923        -5.20330
| 98>    H       -2.54495         6.41679        -8.20489
| 99>    H       -0.60572         5.10321        -9.34099
|100>    H        1.36193         3.55541        -8.74031
|101>    H        2.98544         2.23419        -7.66457
|102>    H        4.50125         1.03394        -5.95977
|103>    H        4.73374         0.63649        -3.43457
|104>    H        2.57205         2.10045        -1.80345
|105>    H        4.12543         2.18805         3.23854
|106>    H        7.03127        -1.29503         1.11102
|107>    H        5.68415         1.72981         5.52224
|108> *
|109>
|110>                          ****END OF INPUT****

CARTESIAN COORDINATES (ANGSTROEM)
---------------------------------
  C     -7.176990    9.060400    5.182350
  C     -7.441840    8.420180    6.364600
  C     -7.716120    9.079600    7.580410
  N     -7.944440    9.564960    8.594890
  C     -7.483320    7.017950    6.507640
  N     -7.529660    5.881790    6.663560
  C     -7.147040   10.506670    4.978410
  C     -6.877590   10.775620    3.611000
  C     -6.780100   12.051930    3.111320
  C     -6.952780   13.115860    4.002530
  C     -7.221790   12.839030    5.364510
  C     -7.323760   11.547630    5.869190
  S     -7.393900   14.297500    6.290890
  C     -7.104770   15.247510    4.857610
  C     -6.891540   14.511550    3.740540
  Br    -7.109000   17.119090    4.970820
  C     -6.718850    9.502280    2.899310
  O     -6.480020    9.333540    1.708900
  C     -6.888710    8.447300    3.905490
  C     -6.732650    7.122470    3.584900
  N     -6.452820    6.761460    2.326800
  C     -6.202550    5.506660    1.875480
  S     -6.182650    4.137280    2.941170
  C     -5.760580    3.127770    1.596180
  N     -5.600350    1.753570    1.835150
  O     -5.313350    1.047590    0.888830
  O     -5.766300    1.375990    2.980350
  C     -5.638710    3.805450    0.414090
  C     -5.895990    5.184030    0.548530
  C     -5.892810    6.140570   -0.529910
  C     -5.342460    5.928810   -1.734090
  C     -5.432240    6.899770   -2.809190
  N     -6.227890    7.960730   -2.639800
  C     -6.338610    8.792210   -3.659260
  C     -5.673910    8.595530   -4.857890
  C     -4.828590    7.477680   -4.934050
  N     -4.723790    6.639650   -3.898890
  C     -4.052680    7.193950   -6.114820
  C     -3.058840    6.272310   -6.126080
  C     -2.279370    5.962740   -7.258710
  C     -1.195270    5.126010   -7.240960
  C     -0.387590    4.752930   -8.347630
  C      0.650670    3.935260   -8.029530
  C      0.732920    3.625400   -6.649840
  S     -0.575220    4.379650   -5.775410
  C      1.704220    2.872160   -6.015810
  C      2.811360    2.220120   -6.603900
  C      3.616130    1.588400   -5.704280
  C      3.191310    1.714500   -4.360460
  S      1.711730    2.639600   -4.281640
  C      3.827370    1.194530   -3.251530
  C      3.387500    1.396620   -1.946410
  C      3.924360    0.904290   -0.778250
  C      4.894870   -0.123740   -0.514840
  C      5.189040   -1.213970   -1.300530
  C      6.135820   -2.198660   -0.956680
  N      6.913750   -3.016840   -0.744730
  C      4.515910   -1.549760   -2.491670
  N      3.979640   -1.906270   -3.442840
  C      5.373500    0.069250    0.854610
  C      4.574790    1.059530    1.479020
  C      3.597970    1.579360    0.499470
  O      2.740020    2.415710    0.682840
  C      4.754410    1.437280    2.786600
  C      5.778290    0.816380    3.510920
  C      6.579000   -0.160340    2.874610
  C      6.391990   -0.548850    1.552720
  S      7.792000   -0.790480    3.947410
  C      7.211270    0.249830    5.220680
  C      6.165030    1.030830    4.862580
  Br     8.044360    0.209150    6.900860
  H     -6.573430   12.224310    2.066760
  H     -7.527850   11.389130    6.914860
  H     -6.697160   14.934300    2.771840
  H     -6.815430    6.332650    4.320750
  H     -6.381670    7.555850    1.664680
  H     -5.393840    3.312600   -0.508480
  H     -6.381730    7.091490   -0.366000
  H     -4.797010    5.030100   -1.976970
  H     -6.990820    9.642870   -3.503870
  H     -5.784230    9.273990   -5.688140
  H     -4.278860    7.773470   -6.999700
  H     -2.844020    5.749230   -5.203300
  H     -2.544950    6.416790   -8.204890
  H     -0.605720    5.103210   -9.340990
  H      1.361930    3.555410   -8.740310
  H      2.985440    2.234190   -7.664570
  H      4.501250    1.033940   -5.959770
  H      4.733740    0.636490   -3.434570
  H      2.572050    2.100450   -1.803450
  H      4.125430    2.188050    3.238540
  H      7.031270   -1.295030    1.111020
  H      5.684150    1.729810    5.522240

 Total Charge           Charge          ....    0
 Multiplicity           Mult            ....    1
 Number of Electrons    NEL             ....  572
 Basis Dimension        Dim             .... 1160

ORBITAL ENERGIES
----------------

  NO   OCC          E(Eh)            E(eV)
   0   2.0000    -482.890761    -13140.1256
   1   2.0000    -482.878165    -13139.7829
   2   2.0000     -88.991074     -2421.5702
   3   2.0000     -88.981904     -2421.3207
   4   2.0000     -88.966835     -2420.9107
   5   2.0000     -88.966596     -2420.9042
   6   2.0000     -88.964344     -2420.8429
   7   2.0000     -62.568475     -1702.5748
   8   2.0000     -62.555900     -1702.2326
   9   2.0000     -56.402432     -1534.7882
  10   2.0000     -56.399703     -1534.7140
  11   2.0000     -56.399672     -1534.7131
  12   2.0000     -56.389843     -1534.4456
  13   2.0000     -56.387141     -1534.3721
  14   2.0000     -56.387104     -1534.3711
  15   2.0000     -19.238786      -523.5140
  16   2.0000     -19.238062      -523.4943
  17   2.0000     -19.235728      -523.4308
  18   2.0000     -19.201211      -522.4915
  19   2.0000     -14.650361      -398.6566
  20   2.0000     -14.498119      -394.5139
  21   2.0000     -14.422273      -392.4500
  22   2.0000     -14.418234      -392.3401
  23   2.0000     -14.412990      -392.1974
  24   2.0000     -14.412643      -392.1880
  25   2.0000     -14.404284      -391.9605
  26   2.0000     -14.402224      -391.9044
  27   2.0000     -10.382557      -282.5238
  28   2.0000     -10.373951      -282.2896
  29   2.0000     -10.372697      -282.2554
  30   2.0000     -10.364764      -282.0396
  31   2.0000     -10.351909      -281.6898
  32   2.0000     -10.350032      -281.6387
  33   2.0000     -10.349941      -281.6362
  34   2.0000     -10.347661      -281.5742
  35   2.0000     -10.347461      -281.5687
  36   2.0000     -10.345872      -281.5255
  37   2.0000     -10.338759      -281.3319
  38   2.0000     -10.334562      -281.2177
  39   2.0000     -10.332283      -281.1557
  40   2.0000     -10.331973      -281.1473
  41   2.0000     -10.330195      -281.0989
  42   2.0000     -10.329895      -281.0907
  43   2.0000     -10.329336      -281.0755
  44   2.0000     -10.329123      -281.0697
  45   2.0000     -10.326802      -281.0066
  46   2.0000     -10.324563      -280.9457
  47   2.0000     -10.321402      -280.8596
  48   2.0000     -10.315875      -280.7092
  49   2.0000     -10.315776      -280.7065
  50   2.0000     -10.314227      -280.6644
  51   2.0000     -10.312467      -280.6165
  52   2.0000     -10.311795      -280.5982
  53   2.0000     -10.310272      -280.5568
  54   2.0000     -10.310047      -280.5506
  55   2.0000     -10.309380      -280.5325
  56   2.0000     -10.309331      -280.5312
  57   2.0000     -10.307719      -280.4873
  58   2.0000     -10.306911      -280.4653
  59   2.0000     -10.305527      -280.4276
  60   2.0000     -10.303568      -280.3743
  61   2.0000     -10.302897      -280.3561
  62   2.0000     -10.302872      -280.3554
  63   2.0000     -10.302288      -280.3395
  64   2.0000     -10.301932      -280.3298
  65   2.0000     -10.298257      -280.2298
  66   2.0000     -10.297900      -280.2201
  67   2.0000     -10.297452      -280.2079
  68   2.0000     -10.295906      -280.1658
  69   2.0000     -10.294957      -280.1400
  70   2.0000     -10.294875      -280.1378
  71   2.0000     -10.291521      -280.0465
  72   2.0000     -10.290894      -280.0295
  73   2.0000     -10.290661      -280.0231
  74   2.0000     -10.288366      -279.9607
  75   2.0000     -10.286594      -279.9124
  76   2.0000     -10.281747      -279.7806
  77   2.0000     -10.281383      -279.7706
  78   2.0000     -10.280611      -279.7496
  79   2.0000      -8.797914      -239.4034
  80   2.0000      -8.785341      -239.0613
  81   2.0000      -8.086288      -220.0391
  82   2.0000      -8.077912      -219.8112
  83   2.0000      -8.063173      -219.4101
  84   2.0000      -8.062701      -219.3972
  85   2.0000      -8.060664      -219.3418
  86   2.0000      -6.634239      -180.5268
  87   2.0000      -6.621626      -180.1836
  88   2.0000      -6.619640      -180.1296
  89   2.0000      -6.619435      -180.1240
  90   2.0000      -6.607071      -179.7875
  91   2.0000      -6.606904      -179.7830
  92   2.0000      -6.055891      -164.7892
  93   2.0000      -6.051571      -164.6716
  94   2.0000      -6.047795      -164.5689
  95   2.0000      -6.047574      -164.5628
  96   2.0000      -6.043305      -164.4467
  97   2.0000      -6.039160      -164.3339
  98   2.0000      -6.032838      -164.1619
  99   2.0000      -6.032388      -164.1496
 100   2.0000      -6.030284      -164.0924
 101   2.0000      -6.028866      -164.0538
 102   2.0000      -6.028126      -164.0336
 103   2.0000      -6.026285      -163.9836
 104   2.0000      -6.024084      -163.9236
 105   2.0000      -6.023891      -163.9184
 106   2.0000      -6.021711      -163.8591
 107   2.0000      -2.750090       -74.8338
 108   2.0000      -2.746013       -74.7228
 109   2.0000      -2.745858       -74.7186
 110   2.0000      -2.737447       -74.4897
 111   2.0000      -2.734258       -74.4029
 112   2.0000      -2.734224       -74.4020
 113   2.0000      -2.733440       -74.3807
 114   2.0000      -2.733302       -74.3769
 115   2.0000      -2.721730       -74.0620
 116   2.0000      -2.721711       -74.0615
 117   2.0000      -1.320687       -35.9377
 118   2.0000      -1.151057       -31.3218
 119   2.0000      -1.140000       -31.0210
 120   2.0000      -1.115635       -30.3580
 121   2.0000      -1.105735       -30.0886
 122   2.0000      -1.087245       -29.5854
 123   2.0000      -1.029688       -28.0192
 124   2.0000      -1.019165       -27.7329
 125   2.0000      -1.017032       -27.6749
 126   2.0000      -1.012391       -27.5486
 127   2.0000      -1.011457       -27.5231
 128   2.0000      -1.002356       -27.2755
 129   2.0000      -0.999802       -27.2060
 130   2.0000      -0.995773       -27.0964
 131   2.0000      -0.994601       -27.0645
 132   2.0000      -0.986622       -26.8473
 133   2.0000      -0.982055       -26.7231
 134   2.0000      -0.978150       -26.6168
 135   2.0000      -0.948439       -25.8083
 136   2.0000      -0.934442       -25.4275
 137   2.0000      -0.931161       -25.3382
 138   2.0000      -0.924222       -25.1494
 139   2.0000      -0.915376       -24.9087
 140   2.0000      -0.913069       -24.8459
 141   2.0000      -0.906387       -24.6640
 142   2.0000      -0.898080       -24.4380
 143   2.0000      -0.895069       -24.3561
 144   2.0000      -0.892826       -24.2950
 145   2.0000      -0.882657       -24.0183
 146   2.0000      -0.877840       -23.8872
 147   2.0000      -0.875819       -23.8323
 148   2.0000      -0.867241       -23.5988
 149   2.0000      -0.858606       -23.3639
 150   2.0000      -0.854446       -23.2506
 151   2.0000      -0.843241       -22.9458
 152   2.0000      -0.841309       -22.8932
 153   2.0000      -0.836400       -22.7596
 154   2.0000      -0.830555       -22.6006
 155   2.0000      -0.819365       -22.2961
 156   2.0000      -0.800756       -21.7897
 157   2.0000      -0.800070       -21.7710
 158   2.0000      -0.773683       -21.0530
 159   2.0000      -0.771344       -20.9893
 160   2.0000      -0.767056       -20.8727
 161   2.0000      -0.754274       -20.5248
 162   2.0000      -0.745728       -20.2923
 163   2.0000      -0.744304       -20.2536
 164   2.0000      -0.732812       -19.9408
 165   2.0000      -0.724853       -19.7243
 166   2.0000      -0.712893       -19.3988
 167   2.0000      -0.707311       -19.2469
 168   2.0000      -0.696521       -18.9533
 169   2.0000      -0.691460       -18.8156
 170   2.0000      -0.689078       -18.7508
 171   2.0000      -0.680120       -18.5070
 172   2.0000      -0.676827       -18.4174
 173   2.0000      -0.666065       -18.1245
 174   2.0000      -0.663023       -18.0418
 175   2.0000      -0.657541       -17.8926
 176   2.0000      -0.653182       -17.7740
 177   2.0000      -0.651114       -17.7177
 178   2.0000      -0.643469       -17.5097
 179   2.0000      -0.637687       -17.3523
 180   2.0000      -0.637457       -17.3461
 181   2.0000      -0.631744       -17.1906
 182   2.0000      -0.630398       -17.1540
 183   2.0000      -0.628198       -17.0941
 184   2.0000      -0.624518       -16.9940
 185   2.0000      -0.623307       -16.9610
 186   2.0000      -0.612656       -16.6712
 187   2.0000      -0.611116       -16.6293
 188   2.0000      -0.607597       -16.5335
 189   2.0000      -0.597791       -16.2667
 190   2.0000      -0.595916       -16.2157
 191   2.0000      -0.590047       -16.0560
 192   2.0000      -0.585556       -15.9338
 193   2.0000      -0.584442       -15.9035
 194   2.0000      -0.576310       -15.6822
 195   2.0000      -0.570805       -15.5324
 196   2.0000      -0.564791       -15.3688
 197   2.0000      -0.561874       -15.2894
 198   2.0000      -0.558112       -15.1870
 199   2.0000      -0.553075       -15.0499
 200   2.0000      -0.548691       -14.9306
 201   2.0000      -0.544738       -14.8231
 202   2.0000      -0.542545       -14.7634
 203   2.0000      -0.540942       -14.7198
 204   2.0000      -0.538531       -14.6542
 205   2.0000      -0.537874       -14.6363
 206   2.0000      -0.533397       -14.5145
 207   2.0000      -0.530615       -14.4388
 208   2.0000      -0.528844       -14.3906
 209   2.0000      -0.527844       -14.3634
 210   2.0000      -0.525491       -14.2993
 211   2.0000      -0.524185       -14.2638
 212   2.0000      -0.521055       -14.1786
 213   2.0000      -0.517558       -14.0835
 214   2.0000      -0.514702       -14.0058
 215   2.0000      -0.514427       -13.9983
 216   2.0000      -0.507698       -13.8152
 217   2.0000      -0.505533       -13.7563
 218   2.0000      -0.503149       -13.6914
 219   2.0000      -0.502583       -13.6760
 220   2.0000      -0.498420       -13.5627
 221   2.0000      -0.495266       -13.4769
 222   2.0000      -0.491252       -13.3677
 223   2.0000      -0.489848       -13.3294
 224   2.0000      -0.486916       -13.2497
 225   2.0000      -0.485977       -13.2241
 226   2.0000      -0.483846       -13.1661
 227   2.0000      -0.482971       -13.1423
 228   2.0000      -0.481290       -13.0966
 229   2.0000      -0.474186       -12.9033
 230   2.0000      -0.471258       -12.8236
 231   2.0000      -0.468772       -12.7559
 232   2.0000      -0.465750       -12.6737
 233   2.0000      -0.463342       -12.6082
 234   2.0000      -0.460827       -12.5397
 235   2.0000      -0.454991       -12.3809
 236   2.0000      -0.454143       -12.3579
 237   2.0000      -0.452720       -12.3191
 238   2.0000      -0.449840       -12.2408
 239   2.0000      -0.448660       -12.2087
 240   2.0000      -0.448245       -12.1974
 241   2.0000      -0.445383       -12.1195
 242   2.0000      -0.442664       -12.0455
 243   2.0000      -0.439133       -11.9494
 244   2.0000      -0.436998       -11.8913
 245   2.0000      -0.436340       -11.8734
 246   2.0000      -0.432475       -11.7683
 247   2.0000      -0.432413       -11.7666
 248   2.0000      -0.431924       -11.7532
 249   2.0000      -0.429555       -11.6888
 250   2.0000      -0.424097       -11.5403
 251   2.0000      -0.417982       -11.3739
 252   2.0000      -0.417709       -11.3664
 253   2.0000      -0.415292       -11.3007
 254   2.0000      -0.413697       -11.2573
 255   2.0000      -0.410437       -11.1685
 256   2.0000      -0.408452       -11.1146
 257   2.0000      -0.400210       -10.8903
 258   2.0000      -0.398013       -10.8305
 259   2.0000      -0.394865       -10.7448
 260   2.0000      -0.385498       -10.4899
 261   2.0000      -0.383860       -10.4454
 262   2.0000      -0.383764       -10.4427
 263   2.0000      -0.380192       -10.3456
 264   2.0000      -0.379177       -10.3179
 265   2.0000      -0.377435       -10.2705
 266   2.0000      -0.376335       -10.2406
 267   2.0000      -0.369006       -10.0412
 268   2.0000      -0.367798       -10.0083
 269   2.0000      -0.367435        -9.9984
 270   2.0000      -0.359260        -9.7759
 271   2.0000      -0.358415        -9.7530
 272   2.0000      -0.353378        -9.6159
 273   2.0000      -0.344232        -9.3670
 274   2.0000      -0.342608        -9.3228
 275   2.0000      -0.334770        -9.1096
 276   2.0000      -0.330321        -8.9885
 277   2.0000      -0.324163        -8.8209
 278   2.0000      -0.323444        -8.8014
 279   2.0000      -0.315135        -8.5753
 280   2.0000      -0.305638        -8.3168
 281   2.0000      -0.300153        -8.1676
 282   2.0000      -0.293958        -7.9990
 283   2.0000      -0.284315        -7.7366
 284   2.0000      -0.274080        -7.4581
 285   2.0000      -0.233507        -6.3540
 286   0.0000      -0.113711        -3.0942
 287   0.0000      -0.091293        -2.4842
 288   0.0000      -0.071961        -1.9582
 289   0.0000      -0.066048        -1.7973
 290   0.0000      -0.048653        -1.3239

MULLIKEN ATOMIC CHARGES
-----------------------
   0 C :    0.328092
   1 C :   -0.340676
   2 C :   -0.187032
   3 N :    0.153986
   4 C :   -0.197035
   5 N :    0.145413
   6 C :    0.006452
   7 C :   -0.010620
   8 C :   -0.064465
   9 C :    0.114397
  10 C :   -0.092354
  11 C :   -0.015959
  12 S :    0.192343
  13 C :   -0.124800
  14 C :    0.039966
  15 Br:    0.027428
  16 C :    0.166943
  17 O :   -0.211000
  18 C :   -0.129664
  19 C :    0.026739
  20 N :   -0.005541
  21 C :   -0.116033
  22 S :    0.177844
  23 C :    0.007691
  24 N :    0.275839
  25 O :   -0.243422
  26 O :   -0.255397
  27 C :    0.008290
  28 C :    0.136951
  29 C :   -0.011985
  30 C :    0.033686
  31 C :   -0.063110
  32 N :   -0.080911
  33 C :    0.081047
  34 C :   -0.045372
  35 C :    0.056616
  36 N :   -0.060395
  37 C :   -0.014028
  38 C :    0.045948
  39 C :   -0.002667
  40 C :   -0.019696
  41 C :    0.051089
  42 C :    0.028465
  43 C :   -0.037465
  44 S :    0.108197
  45 C :   -0.056824
  46 C :    0.038821
  47 C :    0.040876
  48 C :   -0.019125
  49 S :    0.114859
  50 C :    0.002447
  51 C :    0.016590
  52 C :   -0.121027
  53 C :    0.289586
  54 C :   -0.345132
  55 C :   -0.178653
  56 N :    0.137169
  57 C :   -0.217977
  58 N :    0.160656
  59 C :    0.005420
  60 C :   -0.003392
  61 C :    0.137442
  62 O :   -0.153556
  63 C :   -0.075378
  64 C :    0.114341
  65 C :   -0.086625
  66 C :   -0.025719
  67 S :    0.180443
  68 C :   -0.124195
  69 C :    0.037554
  70 Br:    0.017084
  71 H :   -0.009211
  72 H :   -0.004746
  73 H :   -0.003197
  74 H :    0.048317
  75 H :    0.179762
  76 H :    0.015305
  77 H :    0.018334
  78 H :   -0.012426
  79 H :    0.007588
  80 H :   -0.006845
  81 H :   -0.016687
  82 H :    0.022383
  83 H :   -0.007138
  84 H :   -0.002396
  85 H :   -0.003308
  86 H :   -0.002695
  87 H :    0.004576
  88 H :    0.009717
  89 H :    0.017437
  90 H :   -0.012668
  91 H :   -0.006408
  92 H :   -0.005170
Sum of atomic charges:   -0.0000000

LOEWDIN ATOMIC CHARGES
----------------------
   0 C :    0.078823
   1 C :   -0.147253
   2 C :   -0.020113
   3 N :   -0.052617
   4 C :   -0.020804
   5 N :   -0.051409
   6 C :   -0.018059
   7 C :   -0.051495
   8 C :    0.024312
   9 C :   -0.033836
  10 C :   -0.143704
  11 C :   -0.006990
  12 S :    0.438115
  13 C :   -0.271354
  14 C :   -0.070037
  15 Br:    0.139547
  16 C :    0.094916
  17 O :   -0.170038
  18 C :   -0.145324
  19 C :    0.112142
  20 N :    0.079811
  21 C :   -0.109291
  22 S :    0.474616
  23 C :   -0.199789
  24 N :    0.273165
  25 O :   -0.209408
  26 O :   -0.221605
  27 C :    0.007809
  28 C :   -0.087555
  29 C :    0.003447
  30 C :   -0.029451
  31 C :    0.030143
  32 N :   -0.092628
  33 C :    0.051997
  34 C :   -0.067917
  35 C :    0.033080
  36 N :   -0.090834
  37 C :   -0.030705
  38 C :    0.005891
  39 C :   -0.038956
  40 C :   -0.138163
  41 C :   -0.017156
  42 C :   -0.027045
  43 C :   -0.155180
  44 S :    0.395692
  45 C :   -0.184279
  46 C :   -0.009350
  47 C :   -0.030200
  48 C :   -0.102293
  49 S :    0.404862
  50 C :   -0.063909
  51 C :    0.051357
  52 C :   -0.101096
  53 C :    0.068719
  54 C :   -0.150257
  55 C :   -0.019510
  56 N :   -0.061706
  57 C :   -0.024620
  58 N :   -0.059523
  59 C :   -0.016402
  60 C :   -0.051115
  61 C :    0.079344
  62 O :   -0.153392
  63 C :    0.019888
  64 C :   -0.035747
  65 C :   -0.144438
  66 C :   -0.015356
  67 S :    0.428348
  68 C :   -0.274324
  69 C :   -0.070210
  70 Br:    0.131779
  71 H :    0.041652
  72 H :    0.042179
  73 H :    0.038890
  74 H :    0.036366
  75 H :    0.088202
  76 H :    0.047431
  77 H :    0.034533
  78 H :    0.031645
  79 H :    0.026976
  80 H :    0.032627
  81 H :    0.028552
  82 H :    0.030101
  83 H :    0.035700
  84 H :    0.037996
  85 H :    0.035880
  86 H :    0.036170
  87 H :    0.041292
  88 H :    0.038652
  89 H :    0.035553
  90 H :    0.040095
  91 H :    0.040071
  92 H :    0.038075

  Mayer bond orders larger than 0.100000
B(  0-C ,  1-C ) :   1.6293 B(  0-C ,  6-C ) :   1.0046 B(  0-C , 18-C ) :   1.0992
B(  1-C ,  2-C ) :   1.1422 B(  1-C ,  4-C ) :   1.1467 B(  2-C ,  3-N ) :   2.9704
B(  4-C ,  5-N ) :   2.9569 B(  6-C ,  7-C ) :   1.2730 B(  6-C , 11-C ) :   1.4241
B(  7-C ,  8-C ) :   1.4253 B(  7-C , 16-C ) :   0.9797 B(  8-C ,  9-C ) :   1.2425
B(  8-C , 71-H ) :   1.0176 B(  9-C , 10-C ) :   1.3083 B(  9-C , 14-C ) :   1.1638
B( 10-C , 11-C ) :   1.3216 B( 10-C , 12-S ) :   1.0902 B( 11-C , 72-H ) :   0.9797
B( 12-S , 13-C ) :   1.0888 B( 13-C , 14-C ) :   1.6165 B( 13-C , 15-Br) :   1.0207
B( 14-C , 73-H ) :   1.0003 B( 16-C , 17-O ) :   2.0495 B( 16-C , 18-C ) :   0.9981
B( 17-O , 75-H ) :   0.1426 B( 18-C , 19-C ) :   1.4603 B( 19-C , 20-N ) :   1.3379
B( 19-C , 74-H ) :   0.9307 B( 20-N , 21-C ) :   1.1918 B( 20-N , 75-H ) :   0.8240
B( 21-C , 22-S ) :   1.1407 B( 21-C , 28-C ) :   1.3840 B( 22-S , 23-C ) :   1.0817
B( 23-C , 24-N ) :   0.9602 B( 23-C , 27-C ) :   1.5049 B( 24-N , 25-O ) :   1.5401
B( 24-N , 26-O ) :   1.5172 B( 25-O , 26-O ) :   0.2636 B( 27-C , 28-C ) :   1.2225
B( 27-C , 76-H ) :   1.0028 B( 28-C , 29-C ) :   1.0365 B( 29-C , 30-C ) :   1.7538
B( 29-C , 77-H ) :   0.9557 B( 30-C , 31-C ) :   1.0275 B( 30-C , 78-H ) :   0.9721
B( 31-C , 32-N ) :   1.5129 B( 31-C , 36-N ) :   1.5429 B( 32-N , 33-C ) :   1.5531
B( 33-C , 34-C ) :   1.3664 B( 33-C , 79-H ) :   0.9810 B( 34-C , 35-C ) :   1.3302
B( 34-C , 80-H ) :   0.9756 B( 35-C , 36-N ) :   1.4986 B( 35-C , 37-C ) :   1.0693
B( 37-C , 38-C ) :   1.6752 B( 37-C , 81-H ) :   0.9816 B( 38-C , 39-C ) :   1.1227
B( 38-C , 82-H ) :   0.9632 B( 39-C , 40-C ) :   1.5806 B( 39-C , 83-H ) :   0.9825
B( 40-C , 41-C ) :   1.1315 B( 40-C , 44-S ) :   1.0324 B( 41-C , 42-C ) :   1.5996
B( 41-C , 84-H ) :   0.9998 B( 42-C , 43-C ) :   1.1835 B( 42-C , 85-H ) :   0.9938
B( 43-C , 44-S ) :   1.0686 B( 43-C , 45-C ) :   1.4917 B( 45-C , 46-C ) :   1.2010
B( 45-C , 49-S ) :   1.0452 B( 46-C , 47-C ) :   1.5636 B( 46-C , 86-H ) :   0.9943
B( 47-C , 48-C ) :   1.1674 B( 47-C , 87-H ) :   1.0008 B( 48-C , 49-S ) :   1.0784
B( 48-C , 50-C ) :   1.5195 B( 50-C , 51-C ) :   1.2037 B( 50-C , 88-H ) :   0.9618
B( 51-C , 52-C ) :   1.5506 B( 51-C , 89-H ) :   0.9397 B( 52-C , 53-C ) :   1.0782
B( 52-C , 61-C ) :   0.9605 B( 53-C , 54-C ) :   1.6044 B( 53-C , 59-C ) :   1.0052
B( 54-C , 55-C ) :   1.1330 B( 54-C , 57-C ) :   1.1661 B( 55-C , 56-N ) :   2.9745
B( 57-C , 58-N ) :   3.0099 B( 59-C , 60-C ) :   1.2762 B( 59-C , 66-C ) :   1.4190
B( 60-C , 61-C ) :   0.9214 B( 60-C , 63-C ) :   1.4281 B( 61-C , 62-O ) :   2.2465
B( 63-C , 64-C ) :   1.2447 B( 63-C , 90-H ) :   1.0178 B( 64-C , 65-C ) :   1.3155
B( 64-C , 69-C ) :   1.1601 B( 65-C , 66-C ) :   1.3184 B( 65-C , 67-S ) :   1.0833
B( 66-C , 91-H ) :   0.9827 B( 67-S , 68-C ) :   1.0860 B( 68-C , 69-C ) :   1.6202
B( 68-C , 70-Br) :   1.0146 B( 69-C , 92-H ) :   1.0010

-----------------------------------------------------------------------------
         ABSORPTION SPECTRUM VIA TRANSITION ELECTRIC DIPOLE MOMENTS
-----------------------------------------------------------------------------
State   Energy  Wavelength   fosc         T2         TX        TY        TZ
        (cm-1)    (nm)                  (au**2)     (au)      (au)      (au)
-----------------------------------------------------------------------------
   0   12685.3    788.3   1.465734613  38.03900  -4.32212   3.38788  -2.80723
   1   21522.6    464.6   0.079373182   1.21410  -0.70053   0.33471   0.78188
   2   22350.1    447.4   0.150139199   2.21151   0.35699  -0.93390  -1.10086
   3   22979.7    435.2   0.806572938  11.55513  -0.71771   2.28330   2.41383
   4   23894.5    418.5   0.058710856   0.80890   0.48666  -0.20307  -0.72857
   5   24159.4    413.9   0.056840838   0.77455  -0.84294  -0.15991  -0.19603
   6   24572.9    407.0   0.022844335   0.30605   0.21382   0.45759   0.22571
   7   25881.7    386.4   0.166413545   2.11676   0.21095  -1.36178  -0.46670
   8   26612.1    375.8   0.466759878   5.77417   0.63870  -0.36296  -2.28790
   9   26985.7    370.6   0.006750198   0.08235   0.03571  -0.28448   0.01197
  10   27378.8    365.2   0.270505361   3.25265   0.72244  -0.32172  -1.62087
  11   28173.0    354.9   0.011016802   0.12874  -0.02016   0.17030   0.31516
  12   29133.9    343.2   0.011215866   0.12674  -0.07499  -0.09634   0.33441
  13   29442.3    339.6   0.551932298   6.17148  -0.08826  -2.44788   0.41422
  14   29960.3    333.8   0.001872994   0.02058  -0.11550  -0.03874  -0.07576
  15   30582.6    327.0   0.118659178   1.27733   0.34006  -0.04048  -1.07706
  16   30721.8    325.5   0.001586203   0.01700   0.08957  -0.09356   0.01490
  17   31084.0    321.7   0.246770668   2.61356   0.38167  -0.04490   1.57031
  18   31164.9    320.9   0.030989707   0.32736   0.19486  -0.21542  -0.49293
  19   32273.1    309.9   0.385261399   3.92998  -0.02870  -0.68638  -1.85958
  20   32679.2    306.0   0.192122824   1.93545   0.54432   1.05501   0.72534
  21   32847.8    304.4   0.284343863   2.84979  -0.08290   1.32474  -1.04306
  22   33044.7    302.6   0.044062258   0.43898   0.34538  -0.10781   0.55504
  23   33221.9    301.0   0.152278159   1.50900  -0.41541   1.01101  -0.56061
  24   33704.6    296.7   0.002454958   0.02398  -0.03325  -0.05960   0.13900
  25   33905.0    294.9   0.010875959   0.10560  -0.09220  -0.15012   0.27307
  26   34086.8    293.4   0.245278309   2.36891   0.29264   1.12482  -1.00898
  27   34290.4    291.6   0.044822787   0.43033   0.02942  -0.54640   0.36181
  28   34765.5    287.6   0.011212055   0.10617  -0.11963   0.30259   0.01739
  29   34801.1    287.3   0.044147684   0.41763   0.21935  -0.60494  -0.05966
  30   34922.2    286.4   0.002115936   0.01995  -0.06298  -0.03992   0.11994
  31   35405.9    282.4   0.028075050   0.26105   0.30086  -0.37588   0.17100
  32   35459.9    282.0   0.089669629   0.83250   0.27262  -0.49941  -0.71328
  33   35587.0    281.0   0.218205196   2.01860   0.58700   0.34989  -1.24563
  34   35757.8    279.7   0.064866345   0.59721  -0.00611   0.72329  -0.27208
  35   35798.0    279.3   0.008798925   0.08092   0.00797  -0.23843   0.15494
  36   35999.9    277.8   0.029051051   0.26567   0.01030  -0.44698   0.25645
  37   36009.5    277.7   0.134440489   1.22910   0.06387  -1.09056   0.18897
  38   36227.6    276.0   0.119021006   1.08158   0.34490  -0.35108  -0.91617
  39   36869.0    271.2   0.154138899   1.37634   0.21020   0.95839  -0.64315
  40   36934.9    270.7   0.240375474   2.14254  -0.15172   0.91125  -1.13540
  41   38059.3    262.7   0.263019867   2.27512  -0.59927   1.05961   0.89063
  42   38536.5    259.5   0.134195423   1.14641   0.18281  -0.64367  -0.83587
  43   38888.7    257.1   0.004867005   0.04120   0.01636  -0.18550  -0.08076
  44   39065.1    256.0   0.067674041   0.57031   0.62141  -0.38939   0.18037
  45   39356.8    254.1   0.007806362   0.06530  -0.04162  -0.02626   0.25075
  46   39483.1    253.3   0.001296198   0.01081  -0.07708   0.02235   0.06608
  47   39575.4    252.7   0.007097562   0.05904   0.08487  -0.15287   0.16873
  48   40206.2    248.7   0.030398534   0.24891  -0.22353  -0.01937   0.44561

FINAL SINGLE POINT ENERGY     -9868.333842936649

DIPOLE MOMENT
-------------
                                X             Y             Z
Electronic contribution:     43.60747      61.62451     146.99236
Nuclear contribution   :    -44.02726     -55.94002    -151.50479
                        -----------------------------------------
Total Dipole Moment    :     -0.41979       5.68450      -4.51243
                        -----------------------------------------
Magnitude (a.u.)       :      7.26992
Magnitude (Debye)      :     18.47866

Rotational constants in cm-1:     0.000580     0.000233     0.000191
Rotational constants in MHz :    17.398562     6.999185     5.713889

                             ****ORCA TERMINATED NORMALLY****
TOTAL RUN TIME: 0 days 0 hours 8 minutes 31 seconds 173 msec
