                         Program Version 4.2.0 -  RELEASE  -
|  1> # ORCA input file
|  2> # SCF done       -190.384937416447          0.000462665808
|  3> ! CAM-B3LYP def2-SVP def2/J RIJCOSX Grid4 TightSCF
|  4> %maxcore 5000
|  5> %tddft
|  6>     Mode sTDDFT
|  7>     Ethresh 5.0
|  8>     maxcore 5000
|  9> end
| 10>
| 11> %pal
| 12>   nprocs 6
| 13>   end
| 14> * xyz 0 1
| 15>    C       -7.59507        -2.64496        -6.11989
| 16>    C       -6.56106        -3.01559        -6.94182
| 17>    C       -6.27646        -4.34843        -7.30637
| 18>    N       -5.98919        -5.41028        -7.63451
| 19>    C       -5.63291        -2.13094        -7.52865
| 20>    N       -4.84325        -1.47092        -8.03861
| 21>    C       -8.57350        -3.54576        -5.52489
| 22>    C       -9.47439        -2.79141        -4.73205
| 23>    C      -10.51579        -3.36468        -4.04405
| 24>    C      -10.68543        -4.74890        -4.15137
| 25>    C       -9.78095        -5.49543        -4.94535
| 26>    C       -8.72314        -4.91676        -5.63468
| 27>    S      -10.16959        -7.18838        -4.93622
| 28>    C      -11.52384        -6.87592        -3.88310
| 29>    C      -11.67854        -5.57124        -3.55332
| 30>   Br      -12.60216        -8.30057        -3.31657
| 31>    C       -9.09619        -1.36876        -4.77541
| 32>    O       -9.52843        -0.47969        -4.07947
| 33>    C       -7.94833        -1.29271        -5.72884
| 34>    C       -7.29749        -0.14416        -6.05554
| 35>    C       -7.83385         1.15702        -5.86757
| 36>    O       -6.98127         2.21688        -5.78984
| 37>    C       -9.12782         1.64241        -5.86312
| 38>    C      -10.54223         1.27389        -6.03385
| 39>    O      -11.06479         0.21802        -6.27094
| 40>    N      -11.20843         2.49198        -5.92869
| 41>    C      -10.39351         3.61117        -5.77154
| 42>    O      -10.77962         4.74696        -5.68794
| 43>    C       -9.03901         3.04832        -5.75466
| 44>    C       -7.69383         3.36861        -5.70569
| 45>    C       -7.04476         4.63020        -5.61620
| 46>    C       -5.70100         4.77167        -5.59107
| 47>    C       -5.04630         6.04074        -5.54835
| 48>    C       -3.71332         6.21665        -5.50817
| 49>    C       -2.72969         5.08616        -5.49189
| 50>    C       -3.11979         7.60191        -5.57389
| 51>    N       -2.56976         7.82534        -6.89432
| 52>    C       -3.22739         8.45166        -7.88558
| 53>    C       -2.89452         8.34097        -9.20275
| 54>    C       -3.51692         9.06359       -10.23028
| 55>    C       -3.24362         8.88985       -11.56519
| 56>    C       -3.80464         9.58131       -12.66229
| 57>    C       -3.35433         9.16123       -13.87954
| 58>    C       -2.42124         8.10467       -13.80933
| 59>    S       -2.10646         7.67869       -12.15057
| 60>    C       -1.82050         7.42104       -14.85631
| 61>    C       -1.96900         7.63484       -16.23881
| 62>    C       -1.26892         6.74849       -17.00948
| 63>    C       -0.54330         5.79081       -16.27190
| 64>    S       -0.74692         6.06965       -14.56152
| 65>    C        0.21802         4.75205       -16.78322
| 66>    C        0.84888         3.81168       -15.98373
| 67>    C        1.59156         2.70990       -16.36362
| 68>    C        1.76947         1.61012       -15.39201
| 69>    O        1.52948         1.64036       -14.20213
| 70>    C        2.25069         0.45958       -16.18421
| 71>    C        2.46533        -0.82774       -15.78968
| 72>    C        2.88153        -1.78187       -16.74663
| 73>    C        3.06653        -1.37535       -18.09910
| 74>    C        3.47018        -2.33212       -19.05005
| 75>    C        3.67623        -3.62495       -18.65617
| 76>    C        3.50081        -4.04423       -17.33150
| 77>    C        3.10905        -3.12742       -16.39533
| 78>    F        4.06180        -4.54197       -19.56595
| 79>    C        2.84627        -0.02841       -18.47619
| 80>    C        2.44754         0.87623       -17.53169
| 81>    C        2.15851         2.31038       -17.61832
| 82>    C        2.55193         3.12522       -18.65724
| 83>    C        2.53371         4.53189       -18.61838
| 84>    N        2.58728         5.67984       -18.63413
| 85>    C        3.12940         2.65269       -19.85025
| 86>    N        3.58512         2.32861       -20.85438
| 87>    H      -11.18391        -2.76114        -3.45052
| 88>    H       -8.06094        -5.52926        -6.22338
| 89>    H      -12.46023        -5.20244        -2.91471
| 90>    H       -6.31595        -0.17292        -6.50924
| 91>    H      -12.21426         2.56154        -5.99234
| 92>    H       -7.70533         5.48427        -5.57948
| 93>    H       -5.08831         3.88269        -5.62151
| 94>    H       -5.69361         6.90808        -5.55415
| 95>    H       -2.77751         4.51250        -6.41750
| 96>    H       -2.94547         4.40378        -4.67186
| 97>    H       -1.71415         5.45388        -5.36573
| 98>    H       -2.31512         7.70810        -4.83815
| 99>    H       -3.87703         8.36339        -5.38042
|100>    H       -1.84723         7.17674        -7.17800
|101>    H       -4.03478         9.10089        -7.57471
|102>    H       -2.10730         7.65468        -9.48682
|103>    H       -4.26566         9.79829        -9.96497
|104>    H       -4.52435        10.36830       -12.52003
|105>    H       -3.67483         9.57374       -14.81901
|106>    H       -2.58241         8.42489       -16.63346
|107>    H       -1.25502         6.75445       -18.08466
|108>    H        0.26476         4.67516       -17.85911
|109>    H        0.66258         3.87104       -14.91448
|110>    H        2.31512        -1.11879       -14.76076
|111>    H        3.61740        -2.04454       -20.07943
|112>    H        3.67724        -5.07786       -17.07910
|113>    H        2.96613        -3.42603       -15.36753
|114>    H        2.98886         0.24722       -19.50898
|115> *
|116>
|117>                          ****END OF INPUT****

CARTESIAN COORDINATES (ANGSTROEM)
---------------------------------
  C     -7.595070   -2.644960   -6.119890
  C     -6.561060   -3.015590   -6.941820
  C     -6.276460   -4.348430   -7.306370
  N     -5.989190   -5.410280   -7.634510
  C     -5.632910   -2.130940   -7.528650
  N     -4.843250   -1.470920   -8.038610
  C     -8.573500   -3.545760   -5.524890
  C     -9.474390   -2.791410   -4.732050
  C    -10.515790   -3.364680   -4.044050
  C    -10.685430   -4.748900   -4.151370
  C     -9.780950   -5.495430   -4.945350
  C     -8.723140   -4.916760   -5.634680
  S    -10.169590   -7.188380   -4.936220
  C    -11.523840   -6.875920   -3.883100
  C    -11.678540   -5.571240   -3.553320
  Br   -12.602160   -8.300570   -3.316570
  C     -9.096190   -1.368760   -4.775410
  O     -9.528430   -0.479690   -4.079470
  C     -7.948330   -1.292710   -5.728840
  C     -7.297490   -0.144160   -6.055540
  C     -7.833850    1.157020   -5.867570
  O     -6.981270    2.216880   -5.789840
  C     -9.127820    1.642410   -5.863120
  C    -10.542230    1.273890   -6.033850
  O    -11.064790    0.218020   -6.270940
  N    -11.208430    2.491980   -5.928690
  C    -10.393510    3.611170   -5.771540
  O    -10.779620    4.746960   -5.687940
  C     -9.039010    3.048320   -5.754660
  C     -7.693830    3.368610   -5.705690
  C     -7.044760    4.630200   -5.616200
  C     -5.701000    4.771670   -5.591070
  C     -5.046300    6.040740   -5.548350
  C     -3.713320    6.216650   -5.508170
  C     -2.729690    5.086160   -5.491890
  C     -3.119790    7.601910   -5.573890
  N     -2.569760    7.825340   -6.894320
  C     -3.227390    8.451660   -7.885580
  C     -2.894520    8.340970   -9.202750
  C     -3.516920    9.063590  -10.230280
  C     -3.243620    8.889850  -11.565190
  C     -3.804640    9.581310  -12.662290
  C     -3.354330    9.161230  -13.879540
  C     -2.421240    8.104670  -13.809330
  S     -2.106460    7.678690  -12.150570
  C     -1.820500    7.421040  -14.856310
  C     -1.969000    7.634840  -16.238810
  C     -1.268920    6.748490  -17.009480
  C     -0.543300    5.790810  -16.271900
  S     -0.746920    6.069650  -14.561520
  C      0.218020    4.752050  -16.783220
  C      0.848880    3.811680  -15.983730
  C      1.591560    2.709900  -16.363620
  C      1.769470    1.610120  -15.392010
  O      1.529480    1.640360  -14.202130
  C      2.250690    0.459580  -16.184210
  C      2.465330   -0.827740  -15.789680
  C      2.881530   -1.781870  -16.746630
  C      3.066530   -1.375350  -18.099100
  C      3.470180   -2.332120  -19.050050
  C      3.676230   -3.624950  -18.656170
  C      3.500810   -4.044230  -17.331500
  C      3.109050   -3.127420  -16.395330
  F      4.061800   -4.541970  -19.565950
  C      2.846270   -0.028410  -18.476190
  C      2.447540    0.876230  -17.531690
  C      2.158510    2.310380  -17.618320
  C      2.551930    3.125220  -18.657240
  C      2.533710    4.531890  -18.618380
  N      2.587280    5.679840  -18.634130
  C      3.129400    2.652690  -19.850250
  N      3.585120    2.328610  -20.854380
  H    -11.183910   -2.761140   -3.450520
  H     -8.060940   -5.529260   -6.223380
  H    -12.460230   -5.202440   -2.914710
  H     -6.315950   -0.172920   -6.509240
  H    -12.214260    2.561540   -5.992340
  H     -7.705330    5.484270   -5.579480
  H     -5.088310    3.882690   -5.621510
  H     -5.693610    6.908080   -5.554150
  H     -2.777510    4.512500   -6.417500
  H     -2.945470    4.403780   -4.671860
  H     -1.714150    5.453880   -5.365730
  H     -2.315120    7.708100   -4.838150
  H     -3.877030    8.363390   -5.380420
  H     -1.847230    7.176740   -7.178000
  H     -4.034780    9.100890   -7.574710
  H     -2.107300    7.654680   -9.486820
  H     -4.265660    9.798290   -9.964970
  H     -4.524350   10.368300  -12.520030
  H     -3.674830    9.573740  -14.819010
  H     -2.582410    8.424890  -16.633460
  H     -1.255020    6.754450  -18.084660
  H      0.264760    4.675160  -17.859110
  H      0.662580    3.871040  -14.914480
  H      2.315120   -1.118790  -14.760760
  H      3.617400   -2.044540  -20.079430
  H      3.677240   -5.077860  -17.079100
  H      2.966130   -3.426030  -15.367530
  H      2.988860    0.247220  -19.508980

 Total Charge           Charge          ....    0
 Multiplicity           Mult            ....    1
 Number of Electrons    NEL             ....  538
 Basis Dimension        Dim             .... 1178

ORBITAL ENERGIES
----------------

  NO   OCC          E(Eh)            E(eV)
   0   2.0000    -482.890194    -13140.1102
   1   2.0000     -88.980930     -2421.2942
   2   2.0000     -88.957149     -2420.6471
   3   2.0000     -88.948291     -2420.4060
   4   2.0000     -62.567932     -1702.5600
   5   2.0000     -56.401889     -1534.7734
   6   2.0000     -56.399157     -1534.6991
   7   2.0000     -56.399130     -1534.6983
   8   2.0000     -24.765860      -673.9133
   9   2.0000     -19.327280      -525.9220
  10   2.0000     -19.223925      -523.1096
  11   2.0000     -19.222788      -523.0787
  12   2.0000     -19.221690      -523.0488
  13   2.0000     -19.179877      -521.9110
  14   2.0000     -14.471463      -393.7885
  15   2.0000     -14.464918      -393.6104
  16   2.0000     -14.425748      -392.5445
  17   2.0000     -14.423368      -392.4798
  18   2.0000     -14.384677      -391.4270
  19   2.0000     -14.382643      -391.3716
  20   2.0000     -10.411294      -283.3057
  21   2.0000     -10.411063      -283.2994
  22   2.0000     -10.380246      -282.4608
  23   2.0000     -10.376417      -282.3567
  24   2.0000     -10.374273      -282.2983
  25   2.0000     -10.364493      -282.0322
  26   2.0000     -10.352946      -281.7180
  27   2.0000     -10.351370      -281.6751
  28   2.0000     -10.350991      -281.6648
  29   2.0000     -10.347315      -281.5648
  30   2.0000     -10.343170      -281.4520
  31   2.0000     -10.332465      -281.1607
  32   2.0000     -10.331910      -281.1456
  33   2.0000     -10.331382      -281.1312
  34   2.0000     -10.329462      -281.0789
  35   2.0000     -10.327988      -281.0388
  36   2.0000     -10.325650      -280.9752
  37   2.0000     -10.316297      -280.7207
  38   2.0000     -10.315799      -280.7072
  39   2.0000     -10.314621      -280.6751
  40   2.0000     -10.313985      -280.6578
  41   2.0000     -10.313881      -280.6550
  42   2.0000     -10.312217      -280.6097
  43   2.0000     -10.311632      -280.5938
  44   2.0000     -10.310302      -280.5576
  45   2.0000     -10.310299      -280.5575
  46   2.0000     -10.309566      -280.5375
  47   2.0000     -10.308752      -280.5154
  48   2.0000     -10.308179      -280.4998
  49   2.0000     -10.306975      -280.4670
  50   2.0000     -10.306481      -280.4536
  51   2.0000     -10.306466      -280.4532
  52   2.0000     -10.304418      -280.3975
  53   2.0000     -10.301829      -280.3270
  54   2.0000     -10.301201      -280.3099
  55   2.0000     -10.299110      -280.2530
  56   2.0000     -10.297471      -280.2084
  57   2.0000     -10.297176      -280.2004
  58   2.0000     -10.293112      -280.0898
  59   2.0000     -10.291618      -280.0492
  60   2.0000     -10.289263      -279.9851
  61   2.0000     -10.286717      -279.9158
  62   2.0000     -10.283911      -279.8395
  63   2.0000     -10.282397      -279.7982
  64   2.0000     -10.281354      -279.7699
  65   2.0000     -10.277945      -279.6771
  66   2.0000     -10.276614      -279.6409
  67   2.0000     -10.276442      -279.6362
  68   2.0000     -10.275845      -279.6200
  69   2.0000     -10.272915      -279.5402
  70   2.0000     -10.272854      -279.5386
  71   2.0000     -10.270580      -279.4767
  72   2.0000     -10.267146      -279.3832
  73   2.0000     -10.262403      -279.2542
  74   2.0000     -10.261725      -279.2357
  75   2.0000     -10.257082      -279.1094
  76   2.0000      -8.797378      -239.3888
  77   2.0000      -8.076968      -219.7855
  78   2.0000      -8.053370      -219.1433
  79   2.0000      -8.044471      -218.9012
  80   2.0000      -6.633727      -180.5129
  81   2.0000      -6.619101      -180.1149
  82   2.0000      -6.618872      -180.1087
  83   2.0000      -6.046661      -164.5380
  84   2.0000      -6.042369      -164.4212
  85   2.0000      -6.038174      -164.3071
  86   2.0000      -6.022965      -163.8932
  87   2.0000      -6.019018      -163.7858
  88   2.0000      -6.014495      -163.6627
  89   2.0000      -6.014030      -163.6501
  90   2.0000      -6.010036      -163.5414
  91   2.0000      -6.005713      -163.4238
  92   2.0000      -2.749553       -74.8191
  93   2.0000      -2.745511       -74.7092
  94   2.0000      -2.745335       -74.7044
  95   2.0000      -2.733703       -74.3878
  96   2.0000      -2.733699       -74.3877
  97   2.0000      -1.279860       -34.8268
  98   2.0000      -1.243489       -33.8371
  99   2.0000      -1.167059       -31.7573
 100   2.0000      -1.147546       -31.2263
 101   2.0000      -1.139033       -30.9947
 102   2.0000      -1.094189       -29.7744
 103   2.0000      -1.072038       -29.1716
 104   2.0000      -1.054101       -28.6835
 105   2.0000      -1.030498       -28.0413
 106   2.0000      -1.020989       -27.7825
 107   2.0000      -1.002907       -27.2905
 108   2.0000      -1.002853       -27.2890
 109   2.0000      -0.997997       -27.1569
 110   2.0000      -0.987491       -26.8710
 111   2.0000      -0.978761       -26.6335
 112   2.0000      -0.972775       -26.4706
 113   2.0000      -0.962790       -26.1988
 114   2.0000      -0.957674       -26.0596
 115   2.0000      -0.951002       -25.8781
 116   2.0000      -0.948507       -25.8102
 117   2.0000      -0.937791       -25.5186
 118   2.0000      -0.935602       -25.4590
 119   2.0000      -0.918515       -24.9941
 120   2.0000      -0.915449       -24.9106
 121   2.0000      -0.905842       -24.6492
 122   2.0000      -0.901665       -24.5356
 123   2.0000      -0.892294       -24.2806
 124   2.0000      -0.888024       -24.1644
 125   2.0000      -0.879344       -23.9282
 126   2.0000      -0.868735       -23.6395
 127   2.0000      -0.862505       -23.4700
 128   2.0000      -0.855856       -23.2890
 129   2.0000      -0.852784       -23.2054
 130   2.0000      -0.842405       -22.9230
 131   2.0000      -0.835497       -22.7350
 132   2.0000      -0.829902       -22.5828
 133   2.0000      -0.824611       -22.4388
 134   2.0000      -0.811152       -22.0726
 135   2.0000      -0.809083       -22.0163
 136   2.0000      -0.804533       -21.8924
 137   2.0000      -0.789566       -21.4852
 138   2.0000      -0.783588       -21.3225
 139   2.0000      -0.777186       -21.1483
 140   2.0000      -0.770493       -20.9662
 141   2.0000      -0.763989       -20.7892
 142   2.0000      -0.756637       -20.5891
 143   2.0000      -0.737353       -20.0644
 144   2.0000      -0.729955       -19.8631
 145   2.0000      -0.727039       -19.7837
 146   2.0000      -0.712732       -19.3944
 147   2.0000      -0.711897       -19.3717
 148   2.0000      -0.703695       -19.1485
 149   2.0000      -0.697433       -18.9781
 150   2.0000      -0.695227       -18.9181
 151   2.0000      -0.685664       -18.6579
 152   2.0000      -0.683379       -18.5957
 153   2.0000      -0.681659       -18.5489
 154   2.0000      -0.664229       -18.0746
 155   2.0000      -0.661492       -18.0001
 156   2.0000      -0.650589       -17.7034
 157   2.0000      -0.648520       -17.6471
 158   2.0000      -0.644556       -17.5393
 159   2.0000      -0.639666       -17.4062
 160   2.0000      -0.634732       -17.2719
 161   2.0000      -0.629250       -17.1228
 162   2.0000      -0.623504       -16.9664
 163   2.0000      -0.618103       -16.8194
 164   2.0000      -0.613774       -16.7016
 165   2.0000      -0.610385       -16.6094
 166   2.0000      -0.607182       -16.5223
 167   2.0000      -0.606735       -16.5101
 168   2.0000      -0.604637       -16.4530
 169   2.0000      -0.603122       -16.4118
 170   2.0000      -0.601000       -16.3540
 171   2.0000      -0.595938       -16.2163
 172   2.0000      -0.594732       -16.1835
 173   2.0000      -0.592343       -16.1185
 174   2.0000      -0.582580       -15.8528
 175   2.0000      -0.574351       -15.6289
 176   2.0000      -0.570378       -15.5208
 177   2.0000      -0.567110       -15.4318
 178   2.0000      -0.560170       -15.2430
 179   2.0000      -0.556926       -15.1547
 180   2.0000      -0.555839       -15.1251
 181   2.0000      -0.551658       -15.0114
 182   2.0000      -0.550991       -14.9932
 183   2.0000      -0.546014       -14.8578
 184   2.0000      -0.543193       -14.7810
 185   2.0000      -0.539796       -14.6886
 186   2.0000      -0.537917       -14.6375
 187   2.0000      -0.535813       -14.5802
 188   2.0000      -0.532521       -14.4906
 189   2.0000      -0.530500       -14.4356
 190   2.0000      -0.527512       -14.3543
 191   2.0000      -0.526613       -14.3299
 192   2.0000      -0.523970       -14.2580
 193   2.0000      -0.520708       -14.1692
 194   2.0000      -0.519240       -14.1292
 195   2.0000      -0.517473       -14.0811
 196   2.0000      -0.516199       -14.0465
 197   2.0000      -0.514142       -13.9905
 198   2.0000      -0.508667       -13.8415
 199   2.0000      -0.505324       -13.7506
 200   2.0000      -0.502882       -13.6841
 201   2.0000      -0.502434       -13.6719
 202   2.0000      -0.502109       -13.6631
 203   2.0000      -0.500796       -13.6273
 204   2.0000      -0.500002       -13.6058
 205   2.0000      -0.495814       -13.4918
 206   2.0000      -0.490634       -13.3508
 207   2.0000      -0.489891       -13.3306
 208   2.0000      -0.488321       -13.2879
 209   2.0000      -0.486077       -13.2268
 210   2.0000      -0.484749       -13.1907
 211   2.0000      -0.481802       -13.1105
 212   2.0000      -0.478088       -13.0094
 213   2.0000      -0.476104       -12.9554
 214   2.0000      -0.472926       -12.8690
 215   2.0000      -0.471429       -12.8282
 216   2.0000      -0.467648       -12.7253
 217   2.0000      -0.464482       -12.6392
 218   2.0000      -0.462492       -12.5850
 219   2.0000      -0.460374       -12.5274
 220   2.0000      -0.457364       -12.4455
 221   2.0000      -0.457248       -12.4423
 222   2.0000      -0.453314       -12.3353
 223   2.0000      -0.453104       -12.3296
 224   2.0000      -0.451927       -12.2976
 225   2.0000      -0.445698       -12.1281
 226   2.0000      -0.443191       -12.0599
 227   2.0000      -0.442553       -12.0425
 228   2.0000      -0.442366       -12.0374
 229   2.0000      -0.438230       -11.9248
 230   2.0000      -0.435507       -11.8507
 231   2.0000      -0.432889       -11.7795
 232   2.0000      -0.432411       -11.7665
 233   2.0000      -0.426300       -11.6002
 234   2.0000      -0.424081       -11.5398
 235   2.0000      -0.420980       -11.4554
 236   2.0000      -0.416960       -11.3461
 237   2.0000      -0.415373       -11.3029
 238   2.0000      -0.413809       -11.2603
 239   2.0000      -0.408926       -11.1275
 240   2.0000      -0.402638       -10.9563
 241   2.0000      -0.400267       -10.8918
 242   2.0000      -0.398701       -10.8492
 243   2.0000      -0.395418       -10.7599
 244   2.0000      -0.392280       -10.6745
 245   2.0000      -0.390461       -10.6250
 246   2.0000      -0.389136       -10.5889
 247   2.0000      -0.383228       -10.4282
 248   2.0000      -0.381531       -10.3820
 249   2.0000      -0.379477       -10.3261
 250   2.0000      -0.374548       -10.1920
 251   2.0000      -0.371330       -10.1044
 252   2.0000      -0.367013        -9.9869
 253   2.0000      -0.358198        -9.7471
 254   2.0000      -0.356283        -9.6950
 255   2.0000      -0.351144        -9.5551
 256   2.0000      -0.346785        -9.4365
 257   2.0000      -0.343434        -9.3453
 258   2.0000      -0.333895        -9.0858
 259   2.0000      -0.326143        -8.8748
 260   2.0000      -0.320940        -8.7332
 261   2.0000      -0.317818        -8.6483
 262   2.0000      -0.305345        -8.3089
 263   2.0000      -0.299943        -8.1619
 264   2.0000      -0.288831        -7.8595
 265   2.0000      -0.282189        -7.6787
 266   2.0000      -0.276838        -7.5332
 267   2.0000      -0.267565        -7.2808
 268   2.0000      -0.211388        -5.7522
 269   0.0000      -0.109660        -2.9840
 270   0.0000      -0.094198        -2.5633
 271   0.0000      -0.070916        -1.9297
 272   0.0000      -0.064021        -1.7421
 273   0.0000      -0.042986        -1.1697

MULLIKEN ATOMIC CHARGES
-----------------------
   0 C :    0.304549
   1 C :   -0.344438
   2 C :   -0.182643
   3 N :    0.156737
   4 C :   -0.188896
   5 N :    0.156840
   6 C :    0.020964
   7 C :   -0.013361
   8 C :   -0.060762
   9 C :    0.116744
  10 C :   -0.088724
  11 C :   -0.021334
  12 S :    0.190563
  13 C :   -0.122508
  14 C :    0.038884
  15 Br:    0.028424
  16 C :    0.156393
  17 O :   -0.144946
  18 C :   -0.066637
  19 C :   -0.036996
  20 C :    0.118735
  21 O :   -0.200774
  22 C :   -0.017735
  23 C :    0.185238
  24 O :   -0.139468
  25 N :   -0.161996
  26 C :    0.171825
  27 O :   -0.139723
  28 C :   -0.050801
  29 C :    0.097219
  30 C :   -0.030144
  31 C :    0.031037
  32 C :    0.017761
  33 C :   -0.193008
  34 C :    0.067122
  35 C :    0.203367
  36 N :   -0.139048
  37 C :    0.074590
  38 C :   -0.038115
  39 C :    0.019092
  40 C :   -0.052438
  41 C :    0.054694
  42 C :    0.009528
  43 C :   -0.021131
  44 S :    0.086926
  45 C :   -0.067817
  46 C :    0.041801
  47 C :    0.022853
  48 C :   -0.015471
  49 S :    0.099912
  50 C :   -0.003504
  51 C :    0.022110
  52 C :   -0.140041
  53 C :    0.134368
  54 O :   -0.167530
  55 C :    0.009739
  56 C :   -0.090440
  57 C :    0.102168
  58 C :    0.103617
  59 C :   -0.099711
  60 C :    0.298860
  61 C :   -0.032235
  62 C :   -0.013825
  63 F :   -0.197734
  64 C :   -0.096894
  65 C :    0.043792
  66 C :    0.295452
  67 C :   -0.359228
  68 C :   -0.221760
  69 N :    0.149770
  70 C :   -0.178831
  71 N :    0.128623
  72 H :   -0.007300
  73 H :   -0.004842
  74 H :   -0.001315
  75 H :    0.030317
  76 H :    0.141189
  77 H :    0.014393
  78 H :    0.009628
  79 H :   -0.021021
  80 H :    0.054248
  81 H :    0.050510
  82 H :    0.015167
  83 H :    0.028775
  84 H :    0.020290
  85 H :    0.127875
  86 H :    0.009927
  87 H :   -0.000725
  88 H :   -0.008852
  89 H :   -0.007939
  90 H :   -0.010678
  91 H :   -0.009446
  92 H :   -0.000998
  93 H :    0.002142
  94 H :    0.008568
  95 H :   -0.020883
  96 H :   -0.007905
  97 H :   -0.005005
  98 H :   -0.015494
  99 H :   -0.010275
Sum of atomic charges:   -0.0000000

LOEWDIN ATOMIC CHARGES
----------------------
   0 C :    0.073523
   1 C :   -0.132544
   2 C :   -0.018248
   3 N :   -0.045821
   4 C :   -0.020295
   5 N :   -0.046329
   6 C :   -0.020133
   7 C :   -0.045630
   8 C :    0.027374
   9 C :   -0.029756
  10 C :   -0.142010
  11 C :   -0.008639
  12 S :    0.435750
  13 C :   -0.269579
  14 C :   -0.069729
  15 Br:    0.140937
  16 C :    0.088446
  17 O :   -0.131445
  18 C :   -0.064228
  19 C :    0.043269
  20 C :    0.050069
  21 O :    0.021812
  22 C :   -0.054058
  23 C :    0.090173
  24 O :   -0.145713
  25 N :   -0.000177
  26 C :    0.086166
  27 O :   -0.156588
  28 C :   -0.098289
  29 C :    0.081572
  30 C :   -0.040162
  31 C :    0.011768
  32 C :   -0.047173
  33 C :   -0.025020
  34 C :   -0.056015
  35 C :    0.048575
  36 N :    0.018712
  37 C :    0.069135
  38 C :   -0.123471
  39 C :   -0.001556
  40 C :   -0.184395
  41 C :   -0.007130
  42 C :   -0.055265
  43 C :   -0.138524
  44 S :    0.387770
  45 C :   -0.210198
  46 C :   -0.006731
  47 C :   -0.051252
  48 C :   -0.097595
  49 S :    0.401181
  50 C :   -0.080376
  51 C :    0.049210
  52 C :   -0.119196
  53 C :    0.075232
  54 O :   -0.169281
  55 C :   -0.054282
  56 C :    0.024062
  57 C :   -0.021477
  58 C :    0.001118
  59 C :   -0.044173
  60 C :    0.088105
  61 C :   -0.044648
  62 C :    0.001040
  63 F :   -0.072113
  64 C :    0.002781
  65 C :   -0.012353
  66 C :    0.067612
  67 C :   -0.163038
  68 C :   -0.023825
  69 N :   -0.071291
  70 C :   -0.019538
  71 N :   -0.075909
  72 H :    0.042674
  73 H :    0.041470
  74 H :    0.039716
  75 H :    0.051591
  76 H :    0.096684
  77 H :    0.046130
  78 H :    0.033166
  79 H :    0.027422
  80 H :    0.045665
  81 H :    0.046622
  82 H :    0.028568
  83 H :    0.031105
  84 H :    0.033052
  85 H :    0.083627
  86 H :    0.031871
  87 H :    0.021454
  88 H :    0.035822
  89 H :    0.035578
  90 H :    0.032796
  91 H :    0.033784
  92 H :    0.038218
  93 H :    0.036296
  94 H :    0.030940
  95 H :    0.035911
  96 H :    0.041096
  97 H :    0.038307
  98 H :    0.033039
  99 H :    0.037198

  Mayer bond orders larger than 0.100000
B(  0-C ,  1-C ) :   1.6381 B(  0-C ,  6-C ) :   1.0133 B(  0-C , 18-C ) :   1.0728
B(  1-C ,  2-C ) :   1.1414 B(  1-C ,  4-C ) :   1.1448 B(  2-C ,  3-N ) :   2.9691
B(  4-C ,  5-N ) :   2.9690 B(  6-C ,  7-C ) :   1.2708 B(  6-C , 11-C ) :   1.4004
B(  7-C ,  8-C ) :   1.4250 B(  7-C , 16-C ) :   0.9398 B(  8-C ,  9-C ) :   1.2491
B(  8-C , 72-H ) :   1.0161 B(  9-C , 10-C ) :   1.2989 B(  9-C , 14-C ) :   1.1644
B( 10-C , 11-C ) :   1.3390 B( 10-C , 12-S ) :   1.0877 B( 11-C , 73-H ) :   0.9795
B( 12-S , 13-C ) :   1.0870 B( 13-C , 14-C ) :   1.6156 B( 13-C , 15-Br) :   1.0212
B( 14-C , 74-H ) :   1.0006 B( 16-C , 17-O ) :   2.2284 B( 16-C , 18-C ) :   0.9225
B( 18-C , 19-C ) :   1.6290 B( 19-C , 20-C ) :   1.1478 B( 19-C , 75-H ) :   0.9304
B( 20-C , 21-O ) :   1.1249 B( 20-C , 22-C ) :   1.4466 B( 21-O , 29-C ) :   1.1729
B( 22-C , 23-C ) :   0.8649 B( 22-C , 28-C ) :   1.3134 B( 23-C , 24-O ) :   2.2383
B( 23-C , 25-N ) :   1.0883 B( 25-N , 26-C ) :   1.0784 B( 25-N , 76-H ) :   0.9144
B( 26-C , 27-O ) :   2.2697 B( 26-C , 28-C ) :   0.8772 B( 28-C , 29-C ) :   1.3739
B( 29-C , 30-C ) :   1.1502 B( 30-C , 31-C ) :   1.6539 B( 30-C , 77-H ) :   0.9705
B( 31-C , 32-C ) :   1.0992 B( 31-C , 78-H ) :   0.9771 B( 32-C , 33-C ) :   1.7636
B( 32-C , 79-H ) :   0.9814 B( 33-C , 34-C ) :   1.0646 B( 33-C , 35-C ) :   1.0457
B( 34-C , 80-H ) :   0.9486 B( 34-C , 81-H ) :   0.9437 B( 34-C , 82-H ) :   0.9543
B( 35-C , 36-N ) :   1.0044 B( 35-C , 83-H ) :   0.9312 B( 35-C , 84-H ) :   0.9414
B( 36-N , 37-C ) :   1.2638 B( 36-N , 85-H ) :   0.9357 B( 37-C , 38-C ) :   1.5510
B( 37-C , 86-H ) :   0.9695 B( 38-C , 39-C ) :   1.2097 B( 38-C , 87-H ) :   0.9630
B( 39-C , 40-C ) :   1.5456 B( 39-C , 88-H ) :   0.9793 B( 40-C , 41-C ) :   1.1709
B( 40-C , 44-S ) :   1.0129 B( 41-C , 42-C ) :   1.5539 B( 41-C , 89-H ) :   0.9992
B( 42-C , 43-C ) :   1.2189 B( 42-C , 90-H ) :   0.9954 B( 43-C , 44-S ) :   1.0973
B( 43-C , 45-C ) :   1.4302 B( 45-C , 46-C ) :   1.2480 B( 45-C , 49-S ) :   1.0383
B( 46-C , 47-C ) :   1.5105 B( 46-C , 91-H ) :   0.9943 B( 47-C , 48-C ) :   1.2103
B( 47-C , 92-H ) :   1.0009 B( 48-C , 49-S ) :   1.0980 B( 48-C , 50-C ) :   1.4491
B( 50-C , 51-C ) :   1.2728 B( 50-C , 93-H ) :   0.9640 B( 51-C , 52-C ) :   1.4774
B( 51-C , 94-H ) :   0.9364 B( 52-C , 53-C ) :   0.9766 B( 52-C , 66-C ) :   1.1105
B( 53-C , 54-O ) :   2.2332 B( 53-C , 55-C ) :   0.9164 B( 55-C , 56-C ) :   1.4856
B( 55-C , 65-C ) :   1.2185 B( 56-C , 57-C ) :   1.1771 B( 56-C , 95-H ) :   1.0148
B( 57-C , 58-C ) :   1.2662 B( 57-C , 62-C ) :   1.2398 B( 58-C , 59-C ) :   1.2044
B( 58-C , 64-C ) :   1.1915 B( 59-C , 60-C ) :   1.4390 B( 59-C , 96-H ) :   1.0066
B( 60-C , 61-C ) :   1.2619 B( 60-C , 63-F ) :   1.0811 B( 61-C , 62-C ) :   1.4543
B( 61-C , 97-H ) :   0.9922 B( 62-C , 98-H ) :   0.9962 B( 64-C , 65-C ) :   1.4738
B( 64-C , 99-H ) :   0.9923 B( 65-C , 66-C ) :   0.9839 B( 66-C , 67-C ) :   1.5782
B( 67-C , 68-C ) :   1.1715 B( 67-C , 70-C ) :   1.1405 B( 68-C , 69-N ) :   3.0070
B( 70-C , 71-N ) :   2.9690

-----------------------------------------------------------------------------
         ABSORPTION SPECTRUM VIA TRANSITION ELECTRIC DIPOLE MOMENTS
-----------------------------------------------------------------------------
State   Energy  Wavelength   fosc         T2         TX        TY        TZ
        (cm-1)    (nm)                  (au**2)     (au)      (au)      (au)
-----------------------------------------------------------------------------
   0   11791.1    848.1   1.321781770  36.90462  -3.10175   2.95046   4.31028
   1   13722.8    728.7   0.077564656   1.86079  -0.35622   1.21009   0.51921
   2   20429.5    489.5   0.783929677  12.63268   0.18594   3.54929  -0.02474
   3   21115.2    473.6   0.025196272   0.39284  -0.05890   0.40196   0.47729
   4   22248.9    449.5   0.012040484   0.17816  -0.14066  -0.37301  -0.13870
   5   23713.6    421.7   0.054450426   0.75592  -0.29822   0.06452  -0.81414
   6   23816.5    419.9   0.006622837   0.09155  -0.10271  -0.27139   0.08571
   7   25113.8    398.2   0.185108859   2.42655  -1.11433  -0.83538   0.69783
   8   25434.4    393.2   0.112867494   1.46091   0.17809  -0.35251   1.14233
   9   26066.6    383.6   0.059013739   0.74532   0.21893   0.83463  -0.02793
  10   26637.3    375.4   0.063213947   0.78127   0.10251   0.87061   0.11312
  11   26940.2    371.2   0.186644292   2.28081  -0.21328   1.09129  -1.02196
  12   27296.2    366.4   0.223316562   2.69336   0.12367  -1.20377   1.10861
  13   27933.3    358.0   0.019407918   0.22873   0.36286  -0.06697  -0.30428
  14   28628.7    349.3   0.162451614   1.86809  -0.82319  -0.89980   0.61711
  15   28703.6    348.4   0.045474389   0.52156   0.12091  -0.68191   0.20481
  16   29228.3    342.1   0.012374433   0.13938   0.02772   0.34907  -0.12945
  17   30031.9    333.0   0.302674973   3.31794   1.48321   1.05222   0.10427
  18   30810.5    324.6   0.030830549   0.32943  -0.04567  -0.49252   0.29115
  19   31351.1    319.0   0.448057657   4.70497  -1.70060  -1.34617   0.02750
  20   31783.0    314.6   0.060298731   0.62458  -0.76936  -0.16769  -0.06745
  21   31956.7    312.9   0.156427256   1.61149  -0.59103  -0.81446   0.77383
  22   31973.4    312.8   0.094340071   0.97137  -0.86215   0.41453  -0.23711
  23   32297.7    309.6   0.323184514   3.29423   1.23266   0.81555  -1.05340
  24   32358.0    309.0   0.217209418   2.20990   0.12421  -1.25671   0.78433
  25   32993.3    303.1   0.007495982   0.07480  -0.06317   0.25788  -0.06560
  26   33451.1    298.9   0.061865470   0.60885   0.21116  -0.74949  -0.05030
  27   33466.3    298.8   0.003468268   0.03412   0.17836  -0.04200   0.02327
  28   33595.1    297.7   0.002844595   0.02788  -0.09031   0.10449   0.09381
  29   33816.4    295.7   0.032755746   0.31889   0.09316   0.50242  -0.24037
  30   33886.0    295.1   0.411208778   3.99501   0.95364  -1.75646   0.02037
  31   34094.1    293.3   0.094669982   0.91413   0.74406   0.55911   0.21886
  32   34649.3    288.6   0.006302138   0.05988  -0.09383   0.21663   0.06437
  33   35235.5    283.8   0.185717311   1.73519  -0.11539   0.75531  -1.07302
  34   36332.3    275.2   0.002016849   0.01827   0.10444  -0.08185   0.02584
  35   36670.9    272.7   0.025392020   0.22796  -0.27958  -0.24662  -0.29828
  36   36746.2    272.1   0.159280157   1.42700   0.75942  -0.85715  -0.33996
  37   37087.4    269.6   0.192034831   1.70463  -0.65483   1.09969   0.25790
  38   37573.3    266.1   0.053415614   0.46802  -0.02692   0.67378   0.11542
  39   38002.5    263.1   0.021139442   0.18313  -0.35221   0.19090   0.15045
  40   38029.3    263.0   0.131176448   1.13557  -0.18605  -0.93792   0.47039
  41   38164.7    262.0   0.079593344   0.68658   0.06823  -0.56176   0.60527
  42   38448.5    260.1   0.071793906   0.61473  -0.41394  -0.45336   0.48769
  43   38469.1    259.9   0.078454149   0.67140   0.00215   0.59648  -0.56178
  44   38813.4    257.6   0.001376132   0.01167  -0.00818   0.05475   0.09278
  45   39032.4    256.2   0.000820538   0.00692  -0.05079   0.02837   0.05946
  46   39306.4    254.4   0.003934409   0.03295   0.15482   0.08232   0.04696
  47   39431.2    253.6   0.006325637   0.05281  -0.20077  -0.05617   0.09670
  48   39525.8    253.0   0.046222725   0.38499   0.38233  -0.45141  -0.18720
  49   39741.5    251.6   0.016414728   0.13598   0.18696   0.27662   0.15654
  50   39867.1    250.8   0.021407534   0.17678  -0.01784   0.32495   0.26621
  51   39993.3    250.0   0.011976691   0.09859  -0.01841  -0.31194  -0.03072
  52   40228.1    248.6   0.155485752   1.27244   0.08267   0.24071  -1.09894

FINAL SINGLE POINT ENERGY     -6719.653579232985

DIPOLE MOMENT
-------------
                                X             Y             Z
Electronic contribution:   -103.76007    -158.67570      61.79796
Nuclear contribution   :     98.93994     161.43283     -54.78062
                        -----------------------------------------
Total Dipole Moment    :     -4.82013       2.75713       7.01735
                        -----------------------------------------
Magnitude (a.u.)       :      8.94866
Magnitude (Debye)      :     22.74569

Rotational constants in cm-1:     0.000681     0.000237     0.000184
Rotational constants in MHz :    20.423025     7.098417     5.505256

                             ****ORCA TERMINATED NORMALLY****
TOTAL RUN TIME: 0 days 0 hours 13 minutes 8 seconds 230 msec
