                         Program Version 4.2.0 -  RELEASE  -
|  1> # ORCA input file
|  2> # SCF done       -197.632421110356          0.001076936859
|  3> ! CAM-B3LYP def2-SVP def2/J RIJCOSX Grid4 TightSCF
|  4> %maxcore 5000
|  5> %tddft
|  6>     Mode sTDDFT
|  7>     Ethresh 5.0
|  8>     maxcore 5000
|  9> end
| 10>
| 11> %pal
| 12>   nprocs 6
| 13>   end
| 14> * xyz 0 1
| 15>    C       -7.72972         0.39421        -3.20224
| 16>    C       -7.98972         1.57940        -3.86944
| 17>    C       -8.51100         1.51454        -5.16350
| 18>    C       -8.78846         2.71649        -5.86179
| 19>    N       -9.01126         3.69093        -6.41952
| 20>    C       -8.76855         0.27907        -5.78772
| 21>    C       -9.29857         0.24707        -7.10036
| 22>    N       -9.72828         0.19913        -8.16080
| 23>    C       -8.50440        -0.91382        -5.11300
| 24>    C       -7.99267        -0.83597        -3.83534
| 25>    C       -7.64096        -1.93956        -2.91940
| 26>    O       -7.73786        -3.12999        -3.15853
| 27>    C       -7.16810        -1.30904        -1.68546
| 28>    C       -7.19477         0.13111        -1.86414
| 29>    C       -6.78331         1.09187        -0.98003
| 30>    C       -6.83996         2.48020        -1.23492
| 31>    N       -6.86304         3.61765        -1.38163
| 32>    C       -6.23205         0.85225         0.29815
| 33>    N       -5.76898         0.73944         1.34235
| 34>    C       -6.80163        -1.97484        -0.54152
| 35>    C       -6.74597        -3.34787        -0.26736
| 36>    C       -6.37562        -3.82801         0.99724
| 37>    C       -6.38331        -5.20604         1.06232
| 38>    C       -6.75340        -5.79921        -0.17065
| 39>    S       -7.10243        -4.66376        -1.38856
| 40>    C       -6.73403        -7.20464        -0.00081
| 41>    C       -6.36553        -7.50187         1.32611
| 42>    C       -6.12164        -6.25628         2.03507
| 43>    C       -5.71793        -6.10942         3.32842
| 44>    C       -5.48303        -7.22096         4.16632
| 45>    N       -5.28887        -8.12838         4.83903
| 46>    C       -5.50032        -4.84119         3.90915
| 47>    N       -5.32570        -3.81184         4.38159
| 48>    C       -6.33096        -8.86923         1.58496
| 49>    C       -6.65800        -9.61048         0.46127
| 50>    S       -7.01796        -8.60687        -0.93167
| 51>    C       -6.71341       -11.02585         0.37338
| 52>    C       -6.89872       -11.80899        -0.75116
| 53>    F       -7.06239       -11.29340        -1.97309
| 54>    C       -6.88660       -13.18422        -0.48929
| 55>    F       -7.03987       -14.11606        -1.43477
| 56>    C       -6.70638       -13.49627         0.84598
| 57>    S       -6.53588       -12.03730         1.77800
| 58>    C       -6.66110       -14.77949         1.44954
| 59>    C       -6.58224       -15.05026         2.80647
| 60>    C       -6.56722       -16.41903         3.05772
| 61>    C       -6.62489       -17.19034         1.88099
| 62>    S       -6.71307       -16.23332         0.47051
| 63>    C       -6.60534       -18.55854         2.23919
| 64>    C       -6.53770       -18.65730         3.64585
| 65>    C       -6.51641       -17.31484         4.20406
| 66>    C       -6.46723       -16.96638         5.52057
| 67>    C       -6.42059       -17.93085         6.55082
| 68>    N       -6.37648       -18.71242         7.38771
| 69>    C       -6.45768       -15.61710         5.93619
| 70>    N       -6.44976       -14.52074         6.26969
| 71>    C       -6.49852       -19.97153         4.08989
| 72>    C       -6.56753       -20.88625         3.04498
| 73>    S       -6.63168       -20.07751         1.47788
| 74>    C       -6.48043       -22.28545         3.19133
| 75>    C       -6.71612       -23.28781         2.29748
| 76>    C       -6.09182       -24.61803         2.53051
| 77>    O       -5.57006       -25.01151         3.54500
| 78>    C       -6.19423       -25.32155         1.22967
| 79>    C       -5.66249       -26.54078         0.86736
| 80>    C       -5.86772       -26.98546        -0.44003
| 81>    C       -6.59447       -26.19548        -1.35151
| 82>    C       -7.13877       -24.96704        -0.97104
| 83>    C       -6.93899       -24.53515         0.32818
| 84>    C       -7.40876       -23.33904         1.02943
| 85>    C       -8.50792       -22.60322         0.67381
| 86>    C       -9.11803       -21.66975         1.53798
| 87>    N       -9.65870       -20.93773         2.23703
| 88>    C       -9.20574       -22.76898        -0.54065
| 89>    N       -9.79000       -22.85921        -1.52358
| 90>    C       -6.77378       -26.65430        -2.68033
| 91>    N       -6.92016       -27.01477        -3.75668
| 92>    C       -5.33795       -28.23215        -0.85300
| 93>    N       -4.90065       -29.24200        -1.16912
| 94>    H       -7.80763         2.54544        -3.42674
| 95>    H       -8.69631        -1.86961        -5.57646
| 96>    H       -6.51360        -1.36549         0.30655
| 97>    H       -6.12118        -3.16790         1.80766
| 98>    H       -6.08064        -9.32340         2.52680
| 99>    H       -6.54458       -14.27516         3.55064
|100>    H       -6.44630       -20.27720         5.11936
|101>    H       -6.07622       -22.61782         4.14387
|102>    H       -5.10347       -27.13434         1.57465
|103>    H       -7.68687       -24.38364        -1.69420
|104> *
|105>
|106>                          ****END OF INPUT****

CARTESIAN COORDINATES (ANGSTROEM)
---------------------------------
  C     -7.729720    0.394210   -3.202240
  C     -7.989720    1.579400   -3.869440
  C     -8.511000    1.514540   -5.163500
  C     -8.788460    2.716490   -5.861790
  N     -9.011260    3.690930   -6.419520
  C     -8.768550    0.279070   -5.787720
  C     -9.298570    0.247070   -7.100360
  N     -9.728280    0.199130   -8.160800
  C     -8.504400   -0.913820   -5.113000
  C     -7.992670   -0.835970   -3.835340
  C     -7.640960   -1.939560   -2.919400
  O     -7.737860   -3.129990   -3.158530
  C     -7.168100   -1.309040   -1.685460
  C     -7.194770    0.131110   -1.864140
  C     -6.783310    1.091870   -0.980030
  C     -6.839960    2.480200   -1.234920
  N     -6.863040    3.617650   -1.381630
  C     -6.232050    0.852250    0.298150
  N     -5.768980    0.739440    1.342350
  C     -6.801630   -1.974840   -0.541520
  C     -6.745970   -3.347870   -0.267360
  C     -6.375620   -3.828010    0.997240
  C     -6.383310   -5.206040    1.062320
  C     -6.753400   -5.799210   -0.170650
  S     -7.102430   -4.663760   -1.388560
  C     -6.734030   -7.204640   -0.000810
  C     -6.365530   -7.501870    1.326110
  C     -6.121640   -6.256280    2.035070
  C     -5.717930   -6.109420    3.328420
  C     -5.483030   -7.220960    4.166320
  N     -5.288870   -8.128380    4.839030
  C     -5.500320   -4.841190    3.909150
  N     -5.325700   -3.811840    4.381590
  C     -6.330960   -8.869230    1.584960
  C     -6.658000   -9.610480    0.461270
  S     -7.017960   -8.606870   -0.931670
  C     -6.713410  -11.025850    0.373380
  C     -6.898720  -11.808990   -0.751160
  F     -7.062390  -11.293400   -1.973090
  C     -6.886600  -13.184220   -0.489290
  F     -7.039870  -14.116060   -1.434770
  C     -6.706380  -13.496270    0.845980
  S     -6.535880  -12.037300    1.778000
  C     -6.661100  -14.779490    1.449540
  C     -6.582240  -15.050260    2.806470
  C     -6.567220  -16.419030    3.057720
  C     -6.624890  -17.190340    1.880990
  S     -6.713070  -16.233320    0.470510
  C     -6.605340  -18.558540    2.239190
  C     -6.537700  -18.657300    3.645850
  C     -6.516410  -17.314840    4.204060
  C     -6.467230  -16.966380    5.520570
  C     -6.420590  -17.930850    6.550820
  N     -6.376480  -18.712420    7.387710
  C     -6.457680  -15.617100    5.936190
  N     -6.449760  -14.520740    6.269690
  C     -6.498520  -19.971530    4.089890
  C     -6.567530  -20.886250    3.044980
  S     -6.631680  -20.077510    1.477880
  C     -6.480430  -22.285450    3.191330
  C     -6.716120  -23.287810    2.297480
  C     -6.091820  -24.618030    2.530510
  O     -5.570060  -25.011510    3.545000
  C     -6.194230  -25.321550    1.229670
  C     -5.662490  -26.540780    0.867360
  C     -5.867720  -26.985460   -0.440030
  C     -6.594470  -26.195480   -1.351510
  C     -7.138770  -24.967040   -0.971040
  C     -6.938990  -24.535150    0.328180
  C     -7.408760  -23.339040    1.029430
  C     -8.507920  -22.603220    0.673810
  C     -9.118030  -21.669750    1.537980
  N     -9.658700  -20.937730    2.237030
  C     -9.205740  -22.768980   -0.540650
  N     -9.790000  -22.859210   -1.523580
  C     -6.773780  -26.654300   -2.680330
  N     -6.920160  -27.014770   -3.756680
  C     -5.337950  -28.232150   -0.853000
  N     -4.900650  -29.242000   -1.169120
  H     -7.807630    2.545440   -3.426740
  H     -8.696310   -1.869610   -5.576460
  H     -6.513600   -1.365490    0.306550
  H     -6.121180   -3.167900    1.807660
  H     -6.080640   -9.323400    2.526800
  H     -6.544580  -14.275160    3.550640
  H     -6.446300  -20.277200    5.119360
  H     -6.076220  -22.617820    4.143870
  H     -5.103470  -27.134340    1.574650
  H     -7.686870  -24.383640   -1.694200

 Total Charge           Charge          ....    0
 Multiplicity           Mult            ....    1
 Number of Electrons    NEL             ....  556
 Basis Dimension        Dim             .... 1176

ORBITAL ENERGIES
----------------

  NO   OCC          E(Eh)            E(eV)
   0   2.0000     -89.018119     -2422.3062
   1   2.0000     -89.017628     -2422.2928
   2   2.0000     -89.016289     -2422.2564
   3   2.0000     -89.011700     -2422.1315
   4   2.0000     -89.010813     -2422.1074
   5   2.0000     -24.838403      -675.8873
   6   2.0000     -24.838022      -675.8770
   7   2.0000     -19.252795      -523.8952
   8   2.0000     -19.243580      -523.6444
   9   2.0000     -14.450249      -393.2113
  10   2.0000     -14.449940      -393.2028
  11   2.0000     -14.448630      -393.1672
  12   2.0000     -14.447363      -393.1327
  13   2.0000     -14.440865      -392.9559
  14   2.0000     -14.440582      -392.9482
  15   2.0000     -14.440441      -392.9444
  16   2.0000     -14.436898      -392.8480
  17   2.0000     -14.434542      -392.7839
  18   2.0000     -14.434028      -392.7699
  19   2.0000     -14.433857      -392.7652
  20   2.0000     -14.432729      -392.7345
  21   2.0000     -10.409371      -283.2534
  22   2.0000     -10.409006      -283.2435
  23   2.0000     -10.400819      -283.0207
  24   2.0000     -10.395301      -282.8705
  25   2.0000     -10.388318      -282.6805
  26   2.0000     -10.385778      -282.6114
  27   2.0000     -10.374922      -282.3160
  28   2.0000     -10.373921      -282.2887
  29   2.0000     -10.372986      -282.2633
  30   2.0000     -10.371155      -282.2135
  31   2.0000     -10.370986      -282.2089
  32   2.0000     -10.368253      -282.1345
  33   2.0000     -10.368041      -282.1287
  34   2.0000     -10.367307      -282.1088
  35   2.0000     -10.366492      -282.0866
  36   2.0000     -10.366092      -282.0757
  37   2.0000     -10.365998      -282.0731
  38   2.0000     -10.363483      -282.0047
  39   2.0000     -10.362767      -281.9852
  40   2.0000     -10.361108      -281.9401
  41   2.0000     -10.360926      -281.9351
  42   2.0000     -10.357308      -281.8367
  43   2.0000     -10.356249      -281.8079
  44   2.0000     -10.354409      -281.7578
  45   2.0000     -10.351089      -281.6675
  46   2.0000     -10.350027      -281.6386
  47   2.0000     -10.349722      -281.6302
  48   2.0000     -10.349610      -281.6272
  49   2.0000     -10.349284      -281.6183
  50   2.0000     -10.348269      -281.5907
  51   2.0000     -10.348233      -281.5897
  52   2.0000     -10.348077      -281.5855
  53   2.0000     -10.346956      -281.5550
  54   2.0000     -10.346584      -281.5449
  55   2.0000     -10.342022      -281.4207
  56   2.0000     -10.341755      -281.4135
  57   2.0000     -10.341746      -281.4132
  58   2.0000     -10.341518      -281.4070
  59   2.0000     -10.341268      -281.4002
  60   2.0000     -10.341139      -281.3967
  61   2.0000     -10.340015      -281.3661
  62   2.0000     -10.338517      -281.3253
  63   2.0000     -10.336549      -281.2718
  64   2.0000     -10.334836      -281.2252
  65   2.0000     -10.334651      -281.2201
  66   2.0000     -10.333615      -281.1920
  67   2.0000     -10.332866      -281.1716
  68   2.0000     -10.332675      -281.1664
  69   2.0000     -10.330984      -281.1204
  70   2.0000     -10.330455      -281.1060
  71   2.0000     -10.330135      -281.0973
  72   2.0000     -10.330046      -281.0948
  73   2.0000     -10.329594      -281.0825
  74   2.0000     -10.328991      -281.0661
  75   2.0000     -10.328853      -281.0624
  76   2.0000     -10.326622      -281.0017
  77   2.0000     -10.323216      -280.9090
  78   2.0000     -10.322968      -280.9022
  79   2.0000      -8.112326      -220.7476
  80   2.0000      -8.111920      -220.7366
  81   2.0000      -8.110678      -220.7028
  82   2.0000      -8.106453      -220.5878
  83   2.0000      -8.103300      -220.5020
  84   2.0000      -6.081691      -165.4912
  85   2.0000      -6.081163      -165.4769
  86   2.0000      -6.080015      -165.4456
  87   2.0000      -6.077318      -165.3722
  88   2.0000      -6.076937      -165.3619
  89   2.0000      -6.076028      -165.3371
  90   2.0000      -6.075657      -165.3270
  91   2.0000      -6.074585      -165.2979
  92   2.0000      -6.074311      -165.2904
  93   2.0000      -6.072939      -165.2531
  94   2.0000      -6.072735      -165.2475
  95   2.0000      -6.072172      -165.2322
  96   2.0000      -6.067965      -165.1177
  97   2.0000      -6.067682      -165.1100
  98   2.0000      -6.065789      -165.0585
  99   2.0000      -1.357506       -36.9396
 100   2.0000      -1.346392       -36.6372
 101   2.0000      -1.168494       -31.7963
 102   2.0000      -1.159792       -31.5595
 103   2.0000      -1.072555       -29.1857
 104   2.0000      -1.069098       -29.0916
 105   2.0000      -1.051816       -28.6214
 106   2.0000      -1.050344       -28.5813
 107   2.0000      -1.048112       -28.5206
 108   2.0000      -1.042477       -28.3672
 109   2.0000      -1.040079       -28.3020
 110   2.0000      -1.036430       -28.2027
 111   2.0000      -1.035414       -28.1751
 112   2.0000      -1.028131       -27.9769
 113   2.0000      -1.026381       -27.9292
 114   2.0000      -1.024965       -27.8907
 115   2.0000      -1.019997       -27.7555
 116   2.0000      -1.018640       -27.7186
 117   2.0000      -1.018621       -27.7181
 118   2.0000      -1.017037       -27.6750
 119   2.0000      -1.015981       -27.6463
 120   2.0000      -1.013269       -27.5725
 121   2.0000      -1.012736       -27.5579
 122   2.0000      -0.989539       -26.9267
 123   2.0000      -0.987581       -26.8735
 124   2.0000      -0.982501       -26.7352
 125   2.0000      -0.979548       -26.6549
 126   2.0000      -0.947777       -25.7903
 127   2.0000      -0.942867       -25.6567
 128   2.0000      -0.935156       -25.4469
 129   2.0000      -0.934462       -25.4280
 130   2.0000      -0.922215       -25.0947
 131   2.0000      -0.915118       -24.9016
 132   2.0000      -0.911599       -24.8059
 133   2.0000      -0.910323       -24.7712
 134   2.0000      -0.902576       -24.5603
 135   2.0000      -0.898188       -24.4409
 136   2.0000      -0.886985       -24.1361
 137   2.0000      -0.885921       -24.1071
 138   2.0000      -0.882369       -24.0105
 139   2.0000      -0.876241       -23.8437
 140   2.0000      -0.858722       -23.3670
 141   2.0000      -0.851751       -23.1773
 142   2.0000      -0.825451       -22.4617
 143   2.0000      -0.817991       -22.2587
 144   2.0000      -0.816820       -22.2268
 145   2.0000      -0.802418       -21.8349
 146   2.0000      -0.800150       -21.7732
 147   2.0000      -0.799314       -21.7505
 148   2.0000      -0.777708       -21.1625
 149   2.0000      -0.763942       -20.7879
 150   2.0000      -0.761102       -20.7106
 151   2.0000      -0.755918       -20.5696
 152   2.0000      -0.740583       -20.1523
 153   2.0000      -0.728290       -19.8178
 154   2.0000      -0.722947       -19.6724
 155   2.0000      -0.720960       -19.6183
 156   2.0000      -0.719644       -19.5825
 157   2.0000      -0.716398       -19.4942
 158   2.0000      -0.710741       -19.3402
 159   2.0000      -0.708077       -19.2677
 160   2.0000      -0.705445       -19.1961
 161   2.0000      -0.696236       -18.9456
 162   2.0000      -0.694460       -18.8972
 163   2.0000      -0.681900       -18.5554
 164   2.0000      -0.678096       -18.4519
 165   2.0000      -0.670677       -18.2501
 166   2.0000      -0.666764       -18.1436
 167   2.0000      -0.664224       -18.0745
 168   2.0000      -0.663744       -18.0614
 169   2.0000      -0.657331       -17.8869
 170   2.0000      -0.648402       -17.6439
 171   2.0000      -0.643066       -17.4987
 172   2.0000      -0.641365       -17.4524
 173   2.0000      -0.633871       -17.2485
 174   2.0000      -0.630519       -17.1573
 175   2.0000      -0.627586       -17.0775
 176   2.0000      -0.622737       -16.9455
 177   2.0000      -0.621320       -16.9070
 178   2.0000      -0.613670       -16.6988
 179   2.0000      -0.607160       -16.5217
 180   2.0000      -0.603354       -16.4181
 181   2.0000      -0.600611       -16.3434
 182   2.0000      -0.586848       -15.9689
 183   2.0000      -0.583896       -15.8886
 184   2.0000      -0.581176       -15.8146
 185   2.0000      -0.576266       -15.6810
 186   2.0000      -0.575674       -15.6649
 187   2.0000      -0.574528       -15.6337
 188   2.0000      -0.573239       -15.5986
 189   2.0000      -0.570161       -15.5149
 190   2.0000      -0.568703       -15.4752
 191   2.0000      -0.568511       -15.4700
 192   2.0000      -0.560283       -15.2461
 193   2.0000      -0.557567       -15.1722
 194   2.0000      -0.554230       -15.0814
 195   2.0000      -0.547843       -14.9076
 196   2.0000      -0.544102       -14.8058
 197   2.0000      -0.541206       -14.7270
 198   2.0000      -0.536542       -14.6001
 199   2.0000      -0.534791       -14.5524
 200   2.0000      -0.533182       -14.5086
 201   2.0000      -0.532993       -14.5035
 202   2.0000      -0.529896       -14.4192
 203   2.0000      -0.529453       -14.4071
 204   2.0000      -0.527965       -14.3666
 205   2.0000      -0.525048       -14.2873
 206   2.0000      -0.524155       -14.2630
 207   2.0000      -0.523023       -14.2322
 208   2.0000      -0.518609       -14.1121
 209   2.0000      -0.517848       -14.0914
 210   2.0000      -0.516062       -14.0428
 211   2.0000      -0.513636       -13.9768
 212   2.0000      -0.511335       -13.9141
 213   2.0000      -0.506894       -13.7933
 214   2.0000      -0.503435       -13.6992
 215   2.0000      -0.500172       -13.6104
 216   2.0000      -0.498586       -13.5672
 217   2.0000      -0.494425       -13.4540
 218   2.0000      -0.492468       -13.4007
 219   2.0000      -0.480621       -13.0784
 220   2.0000      -0.479638       -13.0516
 221   2.0000      -0.477585       -12.9958
 222   2.0000      -0.476572       -12.9682
 223   2.0000      -0.473621       -12.8879
 224   2.0000      -0.472904       -12.8684
 225   2.0000      -0.470604       -12.8058
 226   2.0000      -0.469694       -12.7810
 227   2.0000      -0.467637       -12.7250
 228   2.0000      -0.467129       -12.7112
 229   2.0000      -0.466735       -12.7005
 230   2.0000      -0.465241       -12.6598
 231   2.0000      -0.463978       -12.6255
 232   2.0000      -0.461941       -12.5701
 233   2.0000      -0.461025       -12.5451
 234   2.0000      -0.460685       -12.5359
 235   2.0000      -0.459935       -12.5155
 236   2.0000      -0.459482       -12.5031
 237   2.0000      -0.459362       -12.4999
 238   2.0000      -0.459103       -12.4928
 239   2.0000      -0.458212       -12.4686
 240   2.0000      -0.457617       -12.4524
 241   2.0000      -0.457510       -12.4495
 242   2.0000      -0.457470       -12.4484
 243   2.0000      -0.456648       -12.4260
 244   2.0000      -0.455306       -12.3895
 245   2.0000      -0.452884       -12.3236
 246   2.0000      -0.451298       -12.2804
 247   2.0000      -0.448694       -12.2096
 248   2.0000      -0.446917       -12.1612
 249   2.0000      -0.445964       -12.1353
 250   2.0000      -0.445577       -12.1248
 251   2.0000      -0.443247       -12.0614
 252   2.0000      -0.440461       -11.9856
 253   2.0000      -0.437324       -11.9002
 254   2.0000      -0.433943       -11.8082
 255   2.0000      -0.433253       -11.7894
 256   2.0000      -0.433219       -11.7885
 257   2.0000      -0.429650       -11.6914
 258   2.0000      -0.427978       -11.6459
 259   2.0000      -0.422696       -11.5021
 260   2.0000      -0.418442       -11.3864
 261   2.0000      -0.407025       -11.0757
 262   2.0000      -0.392865       -10.6904
 263   2.0000      -0.378135       -10.2896
 264   2.0000      -0.376224       -10.2376
 265   2.0000      -0.373808       -10.1718
 266   2.0000      -0.372422       -10.1341
 267   2.0000      -0.369016       -10.0414
 268   2.0000      -0.368439       -10.0257
 269   2.0000      -0.364280        -9.9126
 270   2.0000      -0.360417        -9.8074
 271   2.0000      -0.351475        -9.5641
 272   2.0000      -0.344629        -9.3778
 273   2.0000      -0.343403        -9.3445
 274   2.0000      -0.342816        -9.3285
 275   2.0000      -0.328316        -8.9339
 276   2.0000      -0.298019        -8.1095
 277   2.0000      -0.271359        -7.3841
 278   0.0000      -0.138831        -3.7778
 279   0.0000      -0.130118        -3.5407
 280   0.0000      -0.113775        -3.0960
 281   0.0000      -0.112902        -3.0722
 282   0.0000      -0.103505        -2.8165

MULLIKEN ATOMIC CHARGES
-----------------------
   0 C :    0.043830
   1 C :   -0.043099
   2 C :   -0.060873
   3 C :   -0.172991
   4 N :    0.206829
   5 C :   -0.065574
   6 C :   -0.174278
   7 N :    0.200433
   8 C :   -0.036325
   9 C :    0.003447
  10 C :    0.172245
  11 O :   -0.179314
  12 C :   -0.099858
  13 C :    0.325861
  14 C :   -0.335485
  15 C :   -0.185729
  16 N :    0.167463
  17 C :   -0.191615
  18 N :    0.167701
  19 C :   -0.021456
  20 C :   -0.054621
  21 C :   -0.054587
  22 C :    0.044722
  23 C :   -0.064904
  24 S :    0.248433
  25 C :   -0.110354
  26 C :    0.028767
  27 C :    0.301955
  28 C :   -0.284863
  29 C :   -0.190093
  30 N :    0.180908
  31 C :   -0.191186
  32 N :    0.189676
  33 C :   -0.070040
  34 C :   -0.028702
  35 S :    0.235222
  36 C :   -0.138774
  37 C :    0.200087
  38 F :   -0.164208
  39 C :    0.195273
  40 F :   -0.165235
  41 C :   -0.133515
  42 S :    0.191709
  43 C :   -0.028904
  44 C :   -0.072737
  45 C :    0.032179
  46 C :   -0.107840
  47 S :    0.235347
  48 C :   -0.076648
  49 C :    0.024736
  50 C :    0.293911
  51 C :   -0.279768
  52 C :   -0.190253
  53 N :    0.190133
  54 C :   -0.190262
  55 N :    0.182798
  56 C :    0.000712
  57 C :   -0.082479
  58 S :    0.211713
  59 C :    0.044392
  60 C :   -0.140314
  61 C :    0.146083
  62 O :   -0.122353
  63 C :    0.009041
  64 C :   -0.034392
  65 C :   -0.071706
  66 C :   -0.061147
  67 C :   -0.037402
  68 C :    0.035714
  69 C :    0.242448
  70 C :   -0.307717
  71 C :   -0.212009
  72 N :    0.185003
  73 C :   -0.176460
  74 N :    0.173541
  75 C :   -0.174109
  76 N :    0.203348
  77 C :   -0.171855
  78 N :    0.202916
  79 H :    0.021667
  80 H :    0.014583
  81 H :    0.019859
  82 H :    0.032437
  83 H :    0.019149
  84 H :    0.021292
  85 H :    0.024650
  86 H :    0.039247
  87 H :    0.020414
  88 H :    0.024165
Sum of atomic charges:   -0.0000000

LOEWDIN ATOMIC CHARGES
----------------------
   0 C :    0.004293
   1 C :    0.034745
   2 C :   -0.022255
   3 C :   -0.031945
   4 N :   -0.008262
   5 C :   -0.028239
   6 C :   -0.032409
   7 N :   -0.011982
   8 C :    0.048086
   9 C :   -0.029961
  10 C :    0.085017
  11 O :   -0.164018
  12 C :   -0.118284
  13 C :    0.068963
  14 C :   -0.123468
  15 C :   -0.021908
  16 N :   -0.033191
  17 C :   -0.023086
  18 N :   -0.031907
  19 C :    0.063289
  20 C :   -0.184550
  21 C :    0.019163
  22 C :   -0.075819
  23 C :   -0.159666
  24 S :    0.549221
  25 C :   -0.191733
  26 C :   -0.048166
  27 C :    0.074430
  28 C :   -0.092601
  29 C :   -0.017503
  30 N :   -0.023197
  31 C :   -0.020237
  32 N :   -0.016873
  33 C :   -0.033850
  34 C :   -0.169344
  35 S :    0.505396
  36 C :   -0.212070
  37 C :    0.023992
  38 F :   -0.041983
  39 C :    0.023774
  40 F :   -0.042077
  41 C :   -0.212225
  42 S :    0.484424
  43 C :   -0.169354
  44 C :   -0.032529
  45 C :   -0.047754
  46 C :   -0.192610
  47 S :    0.505959
  48 C :   -0.145096
  49 C :   -0.072978
  50 C :    0.075972
  51 C :   -0.089389
  52 C :   -0.018146
  53 N :   -0.019060
  54 C :   -0.017586
  55 N :   -0.020763
  56 C :    0.021937
  57 C :   -0.181567
  58 S :    0.515297
  59 C :    0.060241
  60 C :   -0.110503
  61 C :    0.083154
  62 O :   -0.125708
  63 C :   -0.030611
  64 C :    0.050069
  65 C :   -0.028347
  66 C :   -0.022280
  67 C :    0.031313
  68 C :    0.004352
  69 C :    0.054714
  70 C :   -0.131752
  71 C :   -0.038684
  72 N :   -0.034839
  73 C :   -0.025126
  74 N :   -0.031983
  75 C :   -0.031880
  76 N :   -0.009006
  77 C :   -0.032620
  78 N :   -0.011158
  79 H :    0.052992
  80 H :    0.053673
  81 H :    0.055112
  82 H :    0.049941
  83 H :    0.039135
  84 H :    0.039617
  85 H :    0.049417
  86 H :    0.058345
  87 H :    0.055564
  88 H :    0.052543

  Mayer bond orders larger than 0.100000
B(  0-C ,  1-C ) :   1.3615 B(  0-C ,  9-C ) :   1.3368 B(  0-C , 13-C ) :   0.9521
B(  1-C ,  2-C ) :   1.3869 B(  1-C , 79-H ) :   0.9866 B(  2-C ,  3-C ) :   1.0877
B(  2-C ,  5-C ) :   1.4077 B(  3-C ,  4-N ) :   3.0434 B(  5-C ,  6-C ) :   1.0834
B(  5-C ,  8-C ) :   1.3582 B(  6-C ,  7-N ) :   3.0449 B(  8-C ,  9-C ) :   1.3608
B(  8-C , 80-H ) :   1.0169 B(  9-C , 10-C ) :   0.9421 B( 10-C , 11-O ) :   2.1245
B( 10-C , 12-C ) :   0.9930 B( 12-C , 13-C ) :   1.0872 B( 12-C , 19-C ) :   1.4640
B( 13-C , 14-C ) :   1.6471 B( 14-C , 15-C ) :   1.1461 B( 14-C , 17-C ) :   1.1415
B( 15-C , 16-N ) :   2.9589 B( 17-C , 18-N ) :   2.9622 B( 19-C , 20-C ) :   1.2942
B( 19-C , 81-H ) :   0.9387 B( 20-C , 21-C ) :   1.3108 B( 20-C , 24-S ) :   1.0617
B( 21-C , 22-C ) :   1.3465 B( 21-C , 82-H ) :   1.0075 B( 22-C , 23-C ) :   1.3462
B( 22-C , 27-C ) :   0.9863 B( 23-C , 24-S ) :   1.1367 B( 23-C , 25-C ) :   1.2144
B( 25-C , 26-C ) :   1.4219 B( 25-C , 35-S ) :   1.1024 B( 26-C , 27-C ) :   0.9976
B( 26-C , 33-C ) :   1.3155 B( 27-C , 28-C ) :   1.7228 B( 28-C , 29-C ) :   1.1329
B( 28-C , 31-C ) :   1.1325 B( 29-C , 30-N ) :   2.9902 B( 31-C , 32-N ) :   2.9935
B( 33-C , 34-C ) :   1.4356 B( 33-C , 83-H ) :   0.9898 B( 34-C , 35-S ) :   1.1244
B( 34-C , 36-C ) :   1.1699 B( 36-C , 37-C ) :   1.4495 B( 36-C , 41-C ) :   0.1253
B( 36-C , 42-S ) :   1.1097 B( 37-C , 38-F ) :   1.1572 B( 37-C , 39-C ) :   1.2190
B( 39-C , 40-F ) :   1.1535 B( 39-C , 41-C ) :   1.4497 B( 41-C , 42-S ) :   1.1085
B( 41-C , 43-C ) :   1.1716 B( 43-C , 44-C ) :   1.4341 B( 43-C , 47-S ) :   1.1246
B( 44-C , 45-C ) :   1.3214 B( 44-C , 84-H ) :   0.9899 B( 45-C , 46-C ) :   1.4220
B( 45-C , 50-C ) :   0.9949 B( 46-C , 47-S ) :   1.1004 B( 46-C , 48-C ) :   1.2242
B( 48-C , 49-C ) :   1.3860 B( 48-C , 58-S ) :   1.1697 B( 49-C , 50-C ) :   0.9914
B( 49-C , 56-C ) :   1.3197 B( 50-C , 51-C ) :   1.7278 B( 51-C , 52-C ) :   1.1304
B( 51-C , 54-C ) :   1.1335 B( 52-C , 53-N ) :   2.9954 B( 54-C , 55-N ) :   2.9908
B( 56-C , 57-C ) :   1.3709 B( 56-C , 85-H ) :   1.0028 B( 57-C , 58-S ) :   1.0727
B( 57-C , 59-C ) :   1.1852 B( 59-C , 60-C ) :   1.5980 B( 59-C , 86-H ) :   0.9436
B( 60-C , 61-C ) :   0.9506 B( 60-C , 69-C ) :   1.0473 B( 61-C , 62-O ) :   2.2820
B( 61-C , 63-C ) :   0.8999 B( 63-C , 64-C ) :   1.3715 B( 63-C , 68-C ) :   1.3347
B( 64-C , 65-C ) :   1.3652 B( 64-C , 87-H ) :   1.0146 B( 65-C , 66-C ) :   1.4033
B( 65-C , 77-C ) :   1.0878 B( 66-C , 67-C ) :   1.3852 B( 66-C , 75-C ) :   1.0871
B( 67-C , 68-C ) :   1.3641 B( 67-C , 88-H ) :   0.9906 B( 68-C , 69-C ) :   0.9802
B( 69-C , 70-C ) :   1.6645 B( 70-C , 71-C ) :   1.1568 B( 70-C , 73-C ) :   1.1291
B( 71-C , 72-N ) :   3.0216 B( 73-C , 74-N ) :   2.9883 B( 75-C , 76-N ) :   3.0441
B( 77-C , 78-N ) :   3.0463

-----------------------------------------------------------------------------
         ABSORPTION SPECTRUM VIA TRANSITION ELECTRIC DIPOLE MOMENTS
-----------------------------------------------------------------------------
State   Energy  Wavelength   fosc         T2         TX        TY        TZ
        (cm-1)    (nm)                  (au**2)     (au)      (au)      (au)
-----------------------------------------------------------------------------
   0   12977.4    770.6   0.900773011  22.85096  -0.09806  -4.73796   0.62699
   1   14516.3    688.9   0.140823274   3.19370   0.18374  -1.69144   0.54679
   2   19121.9    523.0   1.193442000  20.54687  -0.35696  -4.51871   0.02581
   3   20442.8    489.2   0.561202365   9.03762   0.62339  -2.49448   1.55775
   4   21993.7    454.7   0.010774209   0.16127   0.24383  -0.12802   0.29229
   5   22722.3    440.1   0.140032193   2.02885  -0.39218   1.02582  -0.90705
   6   23787.3    420.4   0.041436747   0.57348  -0.11691   0.31135  -0.68034
   7   24449.9    409.0   0.274924567   3.70179  -0.03420   1.91056   0.22444
   8   27478.7    363.9   0.026886958   0.32212   0.24709   0.49602  -0.12261
   9   28012.3    357.0   0.019475384   0.22888   0.47127  -0.08119   0.01406
  10   28076.4    356.2   0.086441837   1.01358  -0.34006   0.75901  -0.56731
  11   29021.3    344.6   0.102806873   1.16622   0.08638   1.03799  -0.28520
  12   29314.8    341.1   0.020965954   0.23545   0.31080  -0.13413   0.34766
  13   29858.7    334.9   0.016547674   0.18245  -0.15502   0.26398  -0.29788
  14   30023.6    333.1   0.532235725   5.83601   0.22671   1.19959   2.08461
  15   30300.1    330.0   0.083471309   0.90692   0.01906  -0.87598   0.37313
  16   30573.2    327.1   0.141367228   1.52224  -0.24744  -0.14443  -1.20006
  17   31045.2    322.1   0.015826540   0.16783   0.01546   0.14178  -0.38404
  18   31275.4    319.7   0.057569330   0.60599  -0.37288   0.58325  -0.35606
  19   31611.2    316.3   0.045588396   0.47478   0.60254  -0.19402  -0.27217
  20   32025.0    312.3   0.000108453   0.00111  -0.03230   0.00845   0.00052
  21   32308.9    309.5   0.078119010   0.79600   0.18499   0.43188   0.75845
  22   32618.8    306.6   0.060555071   0.61116  -0.36851  -0.35070  -0.59361
  23   32970.3    303.3   0.300296631   2.99849   0.46807  -1.66087  -0.14462
  24   33149.0    301.7   0.348777788   3.46381  -0.54083   1.48030  -0.98997
  25   33499.7    298.5   0.256754454   2.52321  -0.24464   0.58977  -1.45448
  26   33948.9    294.6   0.707856672   6.86428  -0.25788  -1.15662  -2.33667
  27   34169.3    292.7   0.025524940   0.24593   0.29070  -0.27965  -0.28848
  28   34408.5    290.6   0.009894940   0.09467   0.13522   0.09091  -0.26101
  29   34655.4    288.6   0.455045644   4.32275   0.66854  -0.00003   1.96871
  30   34841.4    287.0   0.054137723   0.51154   0.25747   0.35701   0.56373
  31   35148.5    284.5   0.280178346   2.62424   0.36804   0.48227   1.50207
  32   35381.7    282.6   0.311292519   2.89644  -1.17600   1.13321  -0.47887
  33   35492.4    281.8   0.104338646   0.96780   0.38630  -0.84858  -0.31382
  34   36045.0    277.4   0.096052517   0.87728  -0.10289  -0.53237  -0.76373
  35   36471.4    274.2   0.005348380   0.04828  -0.03764  -0.00933  -0.21627
  36   36707.4    272.4   0.035495445   0.31834  -0.23659  -0.47104  -0.20120
  37   37056.9    269.9   0.036480410   0.32409   0.00156   0.52100  -0.22945
  38   37286.3    268.2   0.155606262   1.37390  -0.67825   0.89643  -0.33210
  39   37321.5    267.9   0.009555214   0.08429   0.18451  -0.16966  -0.14649
  40   37421.4    267.2   0.006465919   0.05688  -0.18581   0.13116   0.07181
  41   37562.4    266.2   0.109041451   0.95568   0.58103  -0.70270   0.35257
  42   37603.4    265.9   0.120377210   1.05388  -0.03830   0.99010   0.26855
  43   38091.2    262.5   0.002465766   0.02131   0.09374   0.07426   0.08372
  44   38157.9    262.1   0.068450707   0.59057   0.10667   0.68197  -0.33778
  45   38562.2    259.3   0.016379373   0.13983   0.23008   0.27587   0.10388
  46   38743.3    258.1   0.188238382   1.59951  -0.38147  -0.26313  -1.17676
  47   39270.4    254.6   0.009248468   0.07753   0.15899   0.10444  -0.20334
  48   39457.9    253.4   0.018780016   0.15669  -0.00233   0.26486  -0.29416
  49   39596.7    252.5   0.177164726   1.47297   0.12113   1.20419   0.09076
  50   40011.0    249.9   0.066965750   0.55100   0.09135   0.62158   0.39533
  51   40308.8    248.1   0.035525360   0.29014   0.07646  -0.52823  -0.07263

FINAL SINGLE POINT ENERGY     -5209.366046367403

DIPOLE MOMENT
-------------
                                X             Y             Z
Electronic contribution:     -1.36639      -1.30709      -8.29273
Nuclear contribution   :      2.31267       0.25791       8.91959
                        -----------------------------------------
Total Dipole Moment    :      0.94628      -1.04918       0.62686
                        -----------------------------------------
Magnitude (a.u.)       :      1.54569
Magnitude (Debye)      :      3.92884

Rotational constants in cm-1:     0.001720     0.000164     0.000151
Rotational constants in MHz :    51.573538     4.904291     4.535188

                             ****ORCA TERMINATED NORMALLY****
TOTAL RUN TIME: 0 days 0 hours 9 minutes 49 seconds 42 msec
