                         Program Version 4.2.0 -  RELEASE  -
|  1> # ORCA input file
|  2> # SCF done       -204.444265466687          0.000735689432
|  3> ! CAM-B3LYP def2-SVP def2/J RIJCOSX Grid4 TightSCF
|  4> %maxcore 5000
|  5> %tddft
|  6>     Mode sTDDFT
|  7>     Ethresh 5.0
|  8>     maxcore 5000
|  9> end
| 10>
| 11> %pal
| 12>   nprocs 6
| 13>   end
| 14> * xyz 0 1
| 15>    C       11.68407         6.56162        11.74484
| 16>    C       10.73542         6.38755        12.71588
| 17>    C        9.71781         5.43608        12.55024
| 18>    C        9.66189         4.67246        11.41616
| 19>    C       10.62045         4.82809        10.39443
| 20>    C       10.55815         4.05198         9.21445
| 21>    C       11.50146         4.23543         8.23977
| 22>    C       12.55072         5.18279         8.42684
| 23>    C       12.63049         5.95007         9.55345
| 24>    C       11.65626         5.79228        10.56492
| 25>    C       13.45268         5.14433         7.26437
| 26>    O       14.41885         5.83494         7.03760
| 27>    C       12.96028         4.01068         6.42315
| 28>    C       11.65912         3.61814         6.92743
| 29>    C       10.65002         3.01460         6.22289
| 30>    C       10.74588         2.62982         4.87202
| 31>    N       10.76431         2.32314         3.76538
| 32>    C        9.35646         2.79136         6.74085
| 33>    N        8.28908         2.58651         7.10831
| 34>    C       13.77540         3.51213         5.45602
| 35>    C       13.69151         2.26180         4.79884
| 36>    C       13.05022         1.10687         5.21814
| 37>    C       13.17715         0.07259         4.29919
| 38>    C       13.92982         0.43474         3.16589
| 39>    S       14.50089         2.03529         3.25401
| 40>    C       13.94330        -0.66747         2.27151
| 41>    C       13.20294        -1.71733         2.83885
| 42>    C       12.69223        -1.28633         4.12987
| 43>    C       11.88978        -1.98157         4.98513
| 44>    C       11.46198        -3.29828         4.71305
| 45>    N       11.12134        -4.37074         4.49417
| 46>    C       11.43908        -1.41379         6.19600
| 47>    N       11.08222        -0.93972         7.17706
| 48>    C       13.13477        -2.83998         2.01478
| 49>    C       13.82322        -2.65994         0.83039
| 50>    S       14.56204        -1.06855         0.73203
| 51>    C       13.87097        -3.58586        -0.25199
| 52>    C       14.62777        -3.55949        -1.40087
| 53>    C       14.29085        -4.62270        -2.30254
| 54>    C       14.85470        -4.92393        -3.54043
| 55>    C       14.38604        -6.02357        -4.24366
| 56>    C       13.36015        -6.83407        -3.72764
| 57>    C       12.80411        -6.55296        -2.50055
| 58>    C       13.27230        -5.45269        -1.79416
| 59>    S       12.73372        -4.92264        -0.23337
| 60>    C       14.95800        -6.34255        -5.49808
| 61>    N       15.42711        -6.60418        -6.51016
| 62>    C       15.69933        -2.63231        -1.70030
| 63>    C       15.82332        -1.86017        -2.82762
| 64>    C       17.04493        -1.17314        -2.86236
| 65>    C       17.85220        -1.45164        -1.75186
| 66>    S       17.11517        -2.54279        -0.66362
| 67>    C       19.07695        -0.74727        -1.89108
| 68>    C       19.03767        -0.01949        -3.09902
| 69>    C       17.74973        -0.25044        -3.73798
| 70>    C       17.28807         0.28347        -4.90386
| 71>    C       18.02144         1.20657        -5.68183
| 72>    N       18.57721         1.97047        -6.33022
| 73>    C       16.01162        -0.04347        -5.41147
| 74>    N       14.97520        -0.31392        -5.82016
| 75>    C       20.21335         0.67319        -3.35854
| 76>    C       21.16236         0.48479        -2.36235
| 77>    S       20.55036        -0.56145        -1.07015
| 78>    C       22.47746         0.96137        -2.17929
| 79>    C       23.30764         1.66967        -3.00195
| 80>    C       24.64822         2.09449        -2.62151
| 81>    C       25.20327         2.06016        -1.36794
| 82>    C       26.51364         2.49443        -1.07331
| 83>    N       27.56780         2.82317        -0.75899
| 84>    C       24.57033         1.62470        -0.18471
| 85>    N       24.13101         1.30428         0.82762
| 86>    C       25.30274         2.62907        -3.80928
| 87>    C       24.37224         2.60721        -4.88541
| 88>    C       24.69316         3.06077        -6.13235
| 89>    C       25.99152         3.56503        -6.36660
| 90>    C       26.38202         4.04962        -7.63031
| 91>    C       27.64762         4.52890        -7.83441
| 92>    C       28.57741         4.54442        -6.78383
| 93>    C       28.22946         4.08171        -5.54395
| 94>    C       26.93418         3.58218        -5.29796
| 95>    C       26.57008         3.10754        -4.01698
| 96>    C       23.09582         2.03865        -4.42604
| 97>    O       22.10125         1.88840        -5.10388
| 98>    H       12.47011         7.29228        11.86758
| 99>    H       10.76432         6.98161        13.61699
|100>    H        8.97732         5.31166        13.32602
|101>    H        8.87859         3.94111        11.28200
|102>    H        9.77152         3.32043         9.11528
|103>    H       13.42710         6.66934         9.67251
|104>    H       14.62618         4.13738         5.20272
|105>    H       12.54892         1.02667         6.16547
|106>    H       12.61325        -3.74992         2.25218
|107>    H       15.64677        -4.31273        -3.94633
|108>    H       13.01818        -7.68094        -4.30239
|109>    H       12.02159        -7.17043        -2.08918
|110>    H       15.05168        -1.78671        -3.57257
|111>    H       20.40348         1.27746        -4.22769
|112>    H       22.88828         0.68534        -1.21488
|113>    H       23.96335         3.03527        -6.92791
|114>    H       25.66159         4.03464        -8.43498
|115>    H       27.93933         4.89829        -8.80615
|116>    H       29.57172         4.92573        -6.96188
|117>    H       28.94159         4.09310        -4.73182
|118>    H       27.30944         3.13189        -3.23257
|119> *
|120>
|121>                          ****END OF INPUT****

CARTESIAN COORDINATES (ANGSTROEM)
---------------------------------
  C     11.684070    6.561620   11.744840
  C     10.735420    6.387550   12.715880
  C      9.717810    5.436080   12.550240
  C      9.661890    4.672460   11.416160
  C     10.620450    4.828090   10.394430
  C     10.558150    4.051980    9.214450
  C     11.501460    4.235430    8.239770
  C     12.550720    5.182790    8.426840
  C     12.630490    5.950070    9.553450
  C     11.656260    5.792280   10.564920
  C     13.452680    5.144330    7.264370
  O     14.418850    5.834940    7.037600
  C     12.960280    4.010680    6.423150
  C     11.659120    3.618140    6.927430
  C     10.650020    3.014600    6.222890
  C     10.745880    2.629820    4.872020
  N     10.764310    2.323140    3.765380
  C      9.356460    2.791360    6.740850
  N      8.289080    2.586510    7.108310
  C     13.775400    3.512130    5.456020
  C     13.691510    2.261800    4.798840
  C     13.050220    1.106870    5.218140
  C     13.177150    0.072590    4.299190
  C     13.929820    0.434740    3.165890
  S     14.500890    2.035290    3.254010
  C     13.943300   -0.667470    2.271510
  C     13.202940   -1.717330    2.838850
  C     12.692230   -1.286330    4.129870
  C     11.889780   -1.981570    4.985130
  C     11.461980   -3.298280    4.713050
  N     11.121340   -4.370740    4.494170
  C     11.439080   -1.413790    6.196000
  N     11.082220   -0.939720    7.177060
  C     13.134770   -2.839980    2.014780
  C     13.823220   -2.659940    0.830390
  S     14.562040   -1.068550    0.732030
  C     13.870970   -3.585860   -0.251990
  C     14.627770   -3.559490   -1.400870
  C     14.290850   -4.622700   -2.302540
  C     14.854700   -4.923930   -3.540430
  C     14.386040   -6.023570   -4.243660
  C     13.360150   -6.834070   -3.727640
  C     12.804110   -6.552960   -2.500550
  C     13.272300   -5.452690   -1.794160
  S     12.733720   -4.922640   -0.233370
  C     14.958000   -6.342550   -5.498080
  N     15.427110   -6.604180   -6.510160
  C     15.699330   -2.632310   -1.700300
  C     15.823320   -1.860170   -2.827620
  C     17.044930   -1.173140   -2.862360
  C     17.852200   -1.451640   -1.751860
  S     17.115170   -2.542790   -0.663620
  C     19.076950   -0.747270   -1.891080
  C     19.037670   -0.019490   -3.099020
  C     17.749730   -0.250440   -3.737980
  C     17.288070    0.283470   -4.903860
  C     18.021440    1.206570   -5.681830
  N     18.577210    1.970470   -6.330220
  C     16.011620   -0.043470   -5.411470
  N     14.975200   -0.313920   -5.820160
  C     20.213350    0.673190   -3.358540
  C     21.162360    0.484790   -2.362350
  S     20.550360   -0.561450   -1.070150
  C     22.477460    0.961370   -2.179290
  C     23.307640    1.669670   -3.001950
  C     24.648220    2.094490   -2.621510
  C     25.203270    2.060160   -1.367940
  C     26.513640    2.494430   -1.073310
  N     27.567800    2.823170   -0.758990
  C     24.570330    1.624700   -0.184710
  N     24.131010    1.304280    0.827620
  C     25.302740    2.629070   -3.809280
  C     24.372240    2.607210   -4.885410
  C     24.693160    3.060770   -6.132350
  C     25.991520    3.565030   -6.366600
  C     26.382020    4.049620   -7.630310
  C     27.647620    4.528900   -7.834410
  C     28.577410    4.544420   -6.783830
  C     28.229460    4.081710   -5.543950
  C     26.934180    3.582180   -5.297960
  C     26.570080    3.107540   -4.016980
  C     23.095820    2.038650   -4.426040
  O     22.101250    1.888400   -5.103880
  H     12.470110    7.292280   11.867580
  H     10.764320    6.981610   13.616990
  H      8.977320    5.311660   13.326020
  H      8.878590    3.941110   11.282000
  H      9.771520    3.320430    9.115280
  H     13.427100    6.669340    9.672510
  H     14.626180    4.137380    5.202720
  H     12.548920    1.026670    6.165470
  H     12.613250   -3.749920    2.252180
  H     15.646770   -4.312730   -3.946330
  H     13.018180   -7.680940   -4.302390
  H     12.021590   -7.170430   -2.089180
  H     15.051680   -1.786710   -3.572570
  H     20.403480    1.277460   -4.227690
  H     22.888280    0.685340   -1.214880
  H     23.963350    3.035270   -6.927910
  H     25.661590    4.034640   -8.434980
  H     27.939330    4.898290   -8.806150
  H     29.571720    4.925730   -6.961880
  H     28.941590    4.093100   -4.731820
  H     27.309440    3.131890   -3.232570

 Total Charge           Charge          ....    0
 Multiplicity           Mult            ....    1
 Number of Electrons    NEL             ....  582
 Basis Dimension        Dim             .... 1287

ORBITAL ENERGIES
----------------

  NO   OCC          E(Eh)            E(eV)
   0   2.0000     -89.005398     -2421.9600
   1   2.0000     -89.004812     -2421.9441
   2   2.0000     -89.002630     -2421.8847
   3   2.0000     -89.002503     -2421.8812
   4   2.0000     -88.980885     -2421.2930
   5   2.0000     -19.222246      -523.0639
   6   2.0000     -19.218434      -522.9602
   7   2.0000     -14.439172      -392.9099
   8   2.0000     -14.438906      -392.9026
   9   2.0000     -14.438263      -392.8851
  10   2.0000     -14.434141      -392.7729
  11   2.0000     -14.421884      -392.4394
  12   2.0000     -14.421616      -392.4321
  13   2.0000     -14.416800      -392.3011
  14   2.0000     -14.416562      -392.2946
  15   2.0000     -14.407127      -392.0379
  16   2.0000     -10.374941      -282.3165
  17   2.0000     -10.374568      -282.3063
  18   2.0000     -10.373228      -282.2699
  19   2.0000     -10.369845      -282.1778
  20   2.0000     -10.361616      -281.9539
  21   2.0000     -10.360938      -281.9355
  22   2.0000     -10.352108      -281.6952
  23   2.0000     -10.348756      -281.6040
  24   2.0000     -10.347458      -281.5686
  25   2.0000     -10.346667      -281.5471
  26   2.0000     -10.346331      -281.5380
  27   2.0000     -10.345676      -281.5202
  28   2.0000     -10.345601      -281.5181
  29   2.0000     -10.345494      -281.5152
  30   2.0000     -10.344910      -281.4993
  31   2.0000     -10.343972      -281.4738
  32   2.0000     -10.342169      -281.4247
  33   2.0000     -10.339209      -281.3442
  34   2.0000     -10.338872      -281.3350
  35   2.0000     -10.337909      -281.3088
  36   2.0000     -10.335422      -281.2411
  37   2.0000     -10.334377      -281.2127
  38   2.0000     -10.332880      -281.1720
  39   2.0000     -10.332789      -281.1695
  40   2.0000     -10.330929      -281.1189
  41   2.0000     -10.329650      -281.0841
  42   2.0000     -10.324663      -280.9484
  43   2.0000     -10.323851      -280.9263
  44   2.0000     -10.323348      -280.9126
  45   2.0000     -10.319913      -280.8191
  46   2.0000     -10.319642      -280.8117
  47   2.0000     -10.319428      -280.8059
  48   2.0000     -10.318911      -280.7918
  49   2.0000     -10.317564      -280.7552
  50   2.0000     -10.317434      -280.7516
  51   2.0000     -10.316912      -280.7374
  52   2.0000     -10.316115      -280.7158
  53   2.0000     -10.315293      -280.6934
  54   2.0000     -10.314402      -280.6692
  55   2.0000     -10.312146      -280.6078
  56   2.0000     -10.311310      -280.5850
  57   2.0000     -10.309491      -280.5355
  58   2.0000     -10.307468      -280.4805
  59   2.0000     -10.306423      -280.4520
  60   2.0000     -10.306323      -280.4493
  61   2.0000     -10.305934      -280.4387
  62   2.0000     -10.305914      -280.4382
  63   2.0000     -10.305899      -280.4378
  64   2.0000     -10.305007      -280.4135
  65   2.0000     -10.299863      -280.2735
  66   2.0000     -10.299743      -280.2702
  67   2.0000     -10.299453      -280.2624
  68   2.0000     -10.299451      -280.2623
  69   2.0000     -10.299223      -280.2561
  70   2.0000     -10.298959      -280.2489
  71   2.0000     -10.298850      -280.2459
  72   2.0000     -10.298216      -280.2287
  73   2.0000     -10.292236      -280.0660
  74   2.0000     -10.290301      -280.0133
  75   2.0000     -10.288144      -279.9546
  76   2.0000     -10.288054      -279.9522
  77   2.0000     -10.287671      -279.9418
  78   2.0000     -10.287482      -279.9366
  79   2.0000     -10.287335      -279.9326
  80   2.0000     -10.287312      -279.9320
  81   2.0000     -10.286888      -279.9205
  82   2.0000     -10.286730      -279.9162
  83   2.0000      -8.099226      -220.3912
  84   2.0000      -8.099176      -220.3898
  85   2.0000      -8.097398      -220.3414
  86   2.0000      -8.097186      -220.3356
  87   2.0000      -8.076509      -219.7730
  88   2.0000      -6.068556      -165.1338
  89   2.0000      -6.068457      -165.1311
  90   2.0000      -6.066471      -165.0771
  91   2.0000      -6.066366      -165.0742
  92   2.0000      -6.064175      -165.0146
  93   2.0000      -6.064165      -165.0143
  94   2.0000      -6.062339      -164.9646
  95   2.0000      -6.062148      -164.9594
  96   2.0000      -6.061661      -164.9462
  97   2.0000      -6.061619      -164.9450
  98   2.0000      -6.059989      -164.9007
  99   2.0000      -6.059688      -164.8925
 100   2.0000      -6.046112      -164.5231
 101   2.0000      -6.042010      -164.4115
 102   2.0000      -6.037844      -164.2981
 103   2.0000      -1.137668       -30.9575
 104   2.0000      -1.133958       -30.8566
 105   2.0000      -1.059050       -28.8182
 106   2.0000      -1.057460       -28.7750
 107   2.0000      -1.033294       -28.1174
 108   2.0000      -1.030265       -28.0349
 109   2.0000      -1.028444       -27.9854
 110   2.0000      -1.022970       -27.8364
 111   2.0000      -1.022453       -27.8224
 112   2.0000      -1.016638       -27.6641
 113   2.0000      -1.013115       -27.5683
 114   2.0000      -1.010018       -27.4840
 115   2.0000      -1.008791       -27.4506
 116   2.0000      -1.002262       -27.2729
 117   2.0000      -1.002142       -27.2697
 118   2.0000      -0.996964       -27.1288
 119   2.0000      -0.996404       -27.1135
 120   2.0000      -0.994048       -27.0494
 121   2.0000      -0.976391       -26.5689
 122   2.0000      -0.975199       -26.5365
 123   2.0000      -0.971171       -26.4269
 124   2.0000      -0.968626       -26.3576
 125   2.0000      -0.956307       -26.0224
 126   2.0000      -0.933474       -25.4011
 127   2.0000      -0.932184       -25.3660
 128   2.0000      -0.924518       -25.1574
 129   2.0000      -0.923036       -25.1171
 130   2.0000      -0.907075       -24.6828
 131   2.0000      -0.904234       -24.6054
 132   2.0000      -0.896717       -24.4009
 133   2.0000      -0.885695       -24.1010
 134   2.0000      -0.884290       -24.0628
 135   2.0000      -0.883830       -24.0502
 136   2.0000      -0.882031       -24.0013
 137   2.0000      -0.879558       -23.9340
 138   2.0000      -0.871597       -23.7174
 139   2.0000      -0.869548       -23.6616
 140   2.0000      -0.867135       -23.5960
 141   2.0000      -0.858844       -23.3703
 142   2.0000      -0.846851       -23.0440
 143   2.0000      -0.830596       -22.6017
 144   2.0000      -0.830262       -22.5926
 145   2.0000      -0.822655       -22.3856
 146   2.0000      -0.818312       -22.2674
 147   2.0000      -0.798362       -21.7245
 148   2.0000      -0.788665       -21.4607
 149   2.0000      -0.786415       -21.3994
 150   2.0000      -0.780406       -21.2359
 151   2.0000      -0.765753       -20.8372
 152   2.0000      -0.765592       -20.8328
 153   2.0000      -0.751930       -20.4610
 154   2.0000      -0.741424       -20.1752
 155   2.0000      -0.727041       -19.7838
 156   2.0000      -0.726502       -19.7691
 157   2.0000      -0.717907       -19.5352
 158   2.0000      -0.711257       -19.3543
 159   2.0000      -0.707568       -19.2539
 160   2.0000      -0.706159       -19.2156
 161   2.0000      -0.703661       -19.1476
 162   2.0000      -0.701384       -19.0856
 163   2.0000      -0.697196       -18.9717
 164   2.0000      -0.693695       -18.8764
 165   2.0000      -0.691898       -18.8275
 166   2.0000      -0.684626       -18.6296
 167   2.0000      -0.678946       -18.4750
 168   2.0000      -0.675367       -18.3777
 169   2.0000      -0.665746       -18.1159
 170   2.0000      -0.659365       -17.9422
 171   2.0000      -0.653048       -17.7703
 172   2.0000      -0.642994       -17.4968
 173   2.0000      -0.641571       -17.4580
 174   2.0000      -0.635970       -17.3056
 175   2.0000      -0.635569       -17.2947
 176   2.0000      -0.629806       -17.1379
 177   2.0000      -0.627750       -17.0819
 178   2.0000      -0.619218       -16.8498
 179   2.0000      -0.613724       -16.7003
 180   2.0000      -0.609549       -16.5867
 181   2.0000      -0.609176       -16.5765
 182   2.0000      -0.608227       -16.5507
 183   2.0000      -0.605888       -16.4871
 184   2.0000      -0.594469       -16.1763
 185   2.0000      -0.593215       -16.1422
 186   2.0000      -0.582173       -15.8417
 187   2.0000      -0.570057       -15.5120
 188   2.0000      -0.567191       -15.4341
 189   2.0000      -0.563091       -15.3225
 190   2.0000      -0.562175       -15.2976
 191   2.0000      -0.560007       -15.2386
 192   2.0000      -0.559626       -15.2282
 193   2.0000      -0.549682       -14.9576
 194   2.0000      -0.549204       -14.9446
 195   2.0000      -0.548394       -14.9226
 196   2.0000      -0.546983       -14.8842
 197   2.0000      -0.544632       -14.8202
 198   2.0000      -0.541308       -14.7298
 199   2.0000      -0.540451       -14.7064
 200   2.0000      -0.539158       -14.6712
 201   2.0000      -0.538309       -14.6481
 202   2.0000      -0.534832       -14.5535
 203   2.0000      -0.530259       -14.4291
 204   2.0000      -0.527907       -14.3651
 205   2.0000      -0.523331       -14.2405
 206   2.0000      -0.521483       -14.1903
 207   2.0000      -0.520525       -14.1642
 208   2.0000      -0.516610       -14.0577
 209   2.0000      -0.514854       -14.0099
 210   2.0000      -0.513762       -13.9802
 211   2.0000      -0.513515       -13.9734
 212   2.0000      -0.512997       -13.9594
 213   2.0000      -0.510785       -13.8992
 214   2.0000      -0.509962       -13.8768
 215   2.0000      -0.508789       -13.8449
 216   2.0000      -0.506505       -13.7827
 217   2.0000      -0.505774       -13.7628
 218   2.0000      -0.499789       -13.5999
 219   2.0000      -0.497471       -13.5369
 220   2.0000      -0.496412       -13.5080
 221   2.0000      -0.495426       -13.4812
 222   2.0000      -0.492300       -13.3962
 223   2.0000      -0.488554       -13.2942
 224   2.0000      -0.487117       -13.2551
 225   2.0000      -0.483594       -13.1593
 226   2.0000      -0.483404       -13.1541
 227   2.0000      -0.477375       -12.9900
 228   2.0000      -0.471570       -12.8321
 229   2.0000      -0.469528       -12.7765
 230   2.0000      -0.467696       -12.7267
 231   2.0000      -0.467571       -12.7233
 232   2.0000      -0.467207       -12.7134
 233   2.0000      -0.466394       -12.6912
 234   2.0000      -0.465516       -12.6673
 235   2.0000      -0.464480       -12.6391
 236   2.0000      -0.460792       -12.5388
 237   2.0000      -0.457122       -12.4389
 238   2.0000      -0.454957       -12.3800
 239   2.0000      -0.453906       -12.3514
 240   2.0000      -0.453485       -12.3400
 241   2.0000      -0.452591       -12.3156
 242   2.0000      -0.449014       -12.2183
 243   2.0000      -0.448243       -12.1973
 244   2.0000      -0.447521       -12.1777
 245   2.0000      -0.447226       -12.1696
 246   2.0000      -0.445547       -12.1240
 247   2.0000      -0.445167       -12.1136
 248   2.0000      -0.442642       -12.0449
 249   2.0000      -0.441912       -12.0250
 250   2.0000      -0.441519       -12.0144
 251   2.0000      -0.440455       -11.9854
 252   2.0000      -0.436815       -11.8863
 253   2.0000      -0.436378       -11.8745
 254   2.0000      -0.435800       -11.8587
 255   2.0000      -0.435445       -11.8491
 256   2.0000      -0.434444       -11.8218
 257   2.0000      -0.433637       -11.7999
 258   2.0000      -0.431602       -11.7445
 259   2.0000      -0.431106       -11.7310
 260   2.0000      -0.429371       -11.6838
 261   2.0000      -0.427125       -11.6227
 262   2.0000      -0.422632       -11.5004
 263   2.0000      -0.422399       -11.4941
 264   2.0000      -0.414382       -11.2759
 265   2.0000      -0.413743       -11.2585
 266   2.0000      -0.412680       -11.2296
 267   2.0000      -0.410410       -11.1678
 268   2.0000      -0.408663       -11.1203
 269   2.0000      -0.406595       -11.0640
 270   2.0000      -0.392426       -10.6785
 271   2.0000      -0.385235       -10.4828
 272   2.0000      -0.384508       -10.4630
 273   2.0000      -0.376000       -10.2315
 274   2.0000      -0.374938       -10.2026
 275   2.0000      -0.367195        -9.9919
 276   2.0000      -0.357885        -9.7386
 277   2.0000      -0.354176        -9.6376
 278   2.0000      -0.347546        -9.4572
 279   2.0000      -0.341742        -9.2993
 280   2.0000      -0.339900        -9.2492
 281   2.0000      -0.334506        -9.1024
 282   2.0000      -0.328769        -8.9462
 283   2.0000      -0.321727        -8.7546
 284   2.0000      -0.319892        -8.7047
 285   2.0000      -0.317316        -8.6346
 286   2.0000      -0.310998        -8.4627
 287   2.0000      -0.297707        -8.1010
 288   2.0000      -0.296532        -8.0691
 289   2.0000      -0.281362        -7.6563
 290   2.0000      -0.266787        -7.2597
 291   0.0000      -0.122630        -3.3369
 292   0.0000      -0.115156        -3.1336
 293   0.0000      -0.095464        -2.5977
 294   0.0000      -0.093927        -2.5559
 295   0.0000      -0.063862        -1.7378

MULLIKEN ATOMIC CHARGES
-----------------------
   0 C :   -0.017113
   1 C :    0.036215
   2 C :    0.036156
   3 C :   -0.018393
   4 C :    0.094745
   5 C :   -0.078700
   6 C :    0.028756
   7 C :    0.017100
   8 C :   -0.082493
   9 C :    0.095945
  10 C :    0.134544
  11 O :   -0.140756
  12 C :   -0.131099
  13 C :    0.266875
  14 C :   -0.335855
  15 C :   -0.198122
  16 N :    0.165226
  17 C :   -0.170537
  18 N :    0.161728
  19 C :    0.080319
  20 C :   -0.113321
  21 C :   -0.000058
  22 C :   -0.004287
  23 C :   -0.069589
  24 S :    0.220463
  25 C :   -0.100542
  26 C :    0.035033
  27 C :    0.304208
  28 C :   -0.289211
  29 C :   -0.188705
  30 N :    0.179806
  31 C :   -0.186582
  32 N :    0.176737
  33 C :   -0.056814
  34 C :   -0.092252
  35 S :    0.200278
  36 C :   -0.074502
  37 C :    0.099250
  38 C :    0.125473
  39 C :   -0.049568
  40 C :   -0.094916
  41 C :    0.043422
  42 C :    0.007816
  43 C :   -0.058001
  44 S :    0.153851
  45 C :   -0.141651
  46 N :    0.109980
  47 C :   -0.240279
  48 C :    0.012149
  49 C :    0.006337
  50 C :   -0.105980
  51 S :    0.226538
  52 C :   -0.085084
  53 C :   -0.000610
  54 C :    0.307462
  55 C :   -0.292008
  56 C :   -0.191188
  57 N :    0.198273
  58 C :   -0.195205
  59 N :    0.181323
  60 C :   -0.011029
  61 C :   -0.114631
  62 S :    0.207069
  63 C :    0.034132
  64 C :   -0.083509
  65 C :    0.320930
  66 C :   -0.363070
  67 C :   -0.182402
  68 N :    0.150824
  69 C :   -0.191420
  70 N :    0.151663
  71 C :    0.048398
  72 C :   -0.002847
  73 C :   -0.083703
  74 C :    0.101617
  75 C :   -0.018543
  76 C :    0.037536
  77 C :    0.038429
  78 C :   -0.022931
  79 C :    0.100317
  80 C :   -0.087279
  81 C :    0.158630
  82 O :   -0.147149
  83 H :   -0.015827
  84 H :   -0.004141
  85 H :   -0.002457
  86 H :   -0.007203
  87 H :    0.001806
  88 H :   -0.009860
  89 H :    0.023316
  90 H :    0.026552
  91 H :    0.021584
  92 H :   -0.000804
  93 H :    0.004661
  94 H :   -0.005925
  95 H :    0.020220
  96 H :    0.042812
  97 H :    0.005903
  98 H :   -0.007013
  99 H :   -0.014097
 100 H :   -0.004290
 101 H :   -0.004331
 102 H :   -0.007463
 103 H :   -0.007065
Sum of atomic charges:   -0.0000000

LOEWDIN ATOMIC CHARGES
----------------------
   0 C :   -0.009149
   1 C :   -0.011935
   2 C :   -0.011799
   3 C :   -0.005012
   4 C :   -0.004640
   5 C :    0.019709
   6 C :   -0.023385
   7 C :   -0.058335
   8 C :    0.033745
   9 C :   -0.008690
  10 C :    0.083508
  11 O :   -0.141909
  12 C :   -0.084767
  13 C :    0.066211
  14 C :   -0.135709
  15 C :   -0.015454
  16 N :   -0.048791
  17 C :   -0.018672
  18 N :   -0.045260
  19 C :    0.041635
  20 C :   -0.178409
  21 C :    0.005870
  22 C :   -0.063113
  23 C :   -0.163393
  24 S :    0.503330
  25 C :   -0.177984
  26 C :   -0.061400
  27 C :    0.081720
  28 C :   -0.095411
  29 C :   -0.016990
  30 N :   -0.027399
  31 C :   -0.013715
  32 N :   -0.028878
  33 C :   -0.026754
  34 C :   -0.186964
  35 S :    0.494669
  36 C :   -0.156785
  37 C :   -0.088912
  38 C :   -0.034925
  39 C :    0.015635
  40 C :   -0.068214
  41 C :    0.010581
  42 C :   -0.027875
  43 C :   -0.141745
  44 S :    0.438422
  45 C :   -0.030437
  46 N :   -0.052708
  47 C :   -0.176660
  48 C :   -0.024486
  49 C :   -0.060258
  50 C :   -0.185628
  51 S :    0.486560
  52 C :   -0.164328
  53 C :   -0.072409
  54 C :    0.072995
  55 C :   -0.089730
  56 C :   -0.023516
  57 N :   -0.010588
  58 C :   -0.016265
  59 N :   -0.026026
  60 C :    0.016237
  61 C :   -0.173764
  62 S :    0.499037
  63 C :    0.040805
  64 C :   -0.091186
  65 C :    0.077998
  66 C :   -0.142528
  67 C :   -0.017076
  68 N :   -0.053157
  69 C :   -0.023690
  70 N :   -0.055087
  71 C :   -0.027400
  72 C :   -0.056039
  73 C :    0.034654
  74 C :   -0.007707
  75 C :   -0.008596
  76 C :   -0.010970
  77 C :   -0.012477
  78 C :   -0.005351
  79 C :   -0.006027
  80 C :    0.020321
  81 C :    0.087576
  82 O :   -0.135510
  83 H :    0.032227
  84 H :    0.033217
  85 H :    0.033872
  86 H :    0.035500
  87 H :    0.040839
  88 H :    0.039917
  89 H :    0.046626
  90 H :    0.043068
  91 H :    0.037957
  92 H :    0.040297
  93 H :    0.042659
  94 H :    0.038076
  95 H :    0.045557
  96 H :    0.043810
  97 H :    0.042256
  98 H :    0.040991
  99 H :    0.032965
 100 H :    0.033236
 101 H :    0.033524
 102 H :    0.035037
 103 H :    0.039129

  Mayer bond orders larger than 0.100000
B(  0-C ,  1-C ) :   1.4908 B(  0-C ,  9-C ) :   1.2443 B(  0-C , 83-H ) :   0.9977
B(  1-C ,  2-C ) :   1.2598 B(  1-C , 84-H ) :   0.9884 B(  2-C ,  3-C ) :   1.4902
B(  2-C , 85-H ) :   0.9885 B(  3-C ,  4-C ) :   1.2413 B(  3-C , 86-H ) :   0.9979
B(  4-C ,  5-C ) :   1.2060 B(  4-C ,  9-C ) :   1.2547 B(  5-C ,  6-C ) :   1.4572
B(  5-C , 87-H ) :   0.9941 B(  6-C ,  7-C ) :   1.2142 B(  6-C , 13-C ) :   1.0004
B(  7-C ,  8-C ) :   1.4717 B(  7-C , 10-C ) :   0.9230 B(  8-C ,  9-C ) :   1.1864
B(  8-C , 88-H ) :   1.0163 B( 10-C , 11-O ) :   2.2721 B( 10-C , 12-C ) :   0.9352
B( 12-C , 13-C ) :   1.0281 B( 12-C , 19-C ) :   1.6921 B( 13-C , 14-C ) :   1.6529
B( 14-C , 15-C ) :   1.1732 B( 14-C , 17-C ) :   1.1286 B( 15-C , 16-N ) :   2.9952
B( 17-C , 18-N ) :   2.9929 B( 19-C , 20-C ) :   1.1142 B( 19-C , 89-H ) :   0.9304
B( 20-C , 21-C ) :   1.4099 B( 20-C , 24-S ) :   1.0964 B( 21-C , 22-C ) :   1.3488
B( 21-C , 90-H ) :   0.9817 B( 22-C , 23-C ) :   1.4186 B( 22-C , 27-C ) :   1.0007
B( 23-C , 24-S ) :   1.1502 B( 23-C , 25-C ) :   1.1841 B( 25-C , 26-C ) :   1.4342
B( 25-C , 35-S ) :   1.1314 B( 26-C , 27-C ) :   0.9931 B( 26-C , 33-C ) :   1.2981
B( 27-C , 28-C ) :   1.7177 B( 28-C , 29-C ) :   1.1347 B( 28-C , 31-C ) :   1.1363
B( 29-C , 30-N ) :   2.9913 B( 31-C , 32-N ) :   2.9830 B( 33-C , 34-C ) :   1.4462
B( 33-C , 91-H ) :   0.9863 B( 34-C , 35-S ) :   1.1146 B( 34-C , 36-C ) :   1.1469
B( 36-C , 37-C ) :   1.5640 B( 36-C , 44-S ) :   1.0984 B( 37-C , 38-C ) :   1.1558
B( 37-C , 47-C ) :   0.9862 B( 38-C , 39-C ) :   1.3045 B( 38-C , 43-C ) :   1.3109
B( 39-C , 40-C ) :   1.4189 B( 39-C , 92-H ) :   0.9915 B( 40-C , 41-C ) :   1.3281
B( 40-C , 45-C ) :   1.0567 B( 41-C , 42-C ) :   1.4276 B( 41-C , 93-H ) :   0.9923
B( 42-C , 43-C ) :   1.3362 B( 42-C , 94-H ) :   0.9961 B( 43-C , 44-S ) :   1.0638
B( 45-C , 46-N ) :   3.0552 B( 47-C , 48-C ) :   1.4980 B( 47-C , 51-S ) :   1.1318
B( 48-C , 49-C ) :   1.2589 B( 48-C , 95-H ) :   1.0028 B( 49-C , 50-C ) :   1.4530
B( 49-C , 54-C ) :   0.9888 B( 50-C , 51-S ) :   1.1131 B( 50-C , 52-C ) :   1.1893
B( 52-C , 53-C ) :   1.3958 B( 52-C , 62-S ) :   1.1660 B( 53-C , 54-C ) :   0.9928
B( 53-C , 60-C ) :   1.3012 B( 54-C , 55-C ) :   1.7222 B( 55-C , 56-C ) :   1.1344
B( 55-C , 58-C ) :   1.1372 B( 56-C , 57-N ) :   2.9981 B( 58-C , 59-N ) :   2.9893
B( 60-C , 61-C ) :   1.4092 B( 60-C , 96-H ) :   0.9694 B( 61-C , 62-S ) :   1.0814
B( 61-C , 63-C ) :   1.2062 B( 63-C , 64-C ) :   1.6069 B( 63-C , 97-H ) :   0.9085
B( 64-C , 65-C ) :   1.0755 B( 64-C , 81-C ) :   0.9328 B( 65-C , 66-C ) :   1.6204
B( 65-C , 71-C ) :   0.9857 B( 66-C , 67-C ) :   1.1516 B( 66-C , 69-C ) :   1.1414
B( 67-C , 68-N ) :   2.9635 B( 69-C , 70-N ) :   2.9697 B( 71-C , 72-C ) :   1.2160
B( 71-C , 80-C ) :   1.4454 B( 72-C , 73-C ) :   1.4694 B( 72-C , 81-C ) :   0.9563
B( 73-C , 74-C ) :   1.1760 B( 73-C , 98-H ) :   1.0177 B( 74-C , 75-C ) :   1.2437
B( 74-C , 79-C ) :   1.2557 B( 75-C , 76-C ) :   1.4889 B( 75-C , 99-H ) :   0.9983
B( 76-C , 77-C ) :   1.2601 B( 76-C ,100-H ) :   0.9884 B( 77-C , 78-C ) :   1.4895
B( 77-C ,101-H ) :   0.9880 B( 78-C , 79-C ) :   1.2391 B( 78-C ,102-H ) :   0.9977
B( 79-C , 80-C ) :   1.2072 B( 80-C ,103-H ) :   0.9901 B( 81-C , 82-O ) :   2.1695

-----------------------------------------------------------------------------
         ABSORPTION SPECTRUM VIA TRANSITION ELECTRIC DIPOLE MOMENTS
-----------------------------------------------------------------------------
State   Energy  Wavelength   fosc         T2         TX        TY        TZ
        (cm-1)    (nm)                  (au**2)     (au)      (au)      (au)
-----------------------------------------------------------------------------
   0   13912.2    718.8   0.224145985   5.30407   1.10412  -1.14251  -1.66723
   1   15734.5    635.5   0.183265374   3.83445  -1.65314  -1.04744   0.06654
   2   19924.6    501.9   0.060159170   0.99400  -0.22031   0.67164   0.70312
   3   20581.4    485.9   0.743457037  11.89207  -1.83037   1.77631   2.32090
   4   22283.4    448.8   0.233762671   3.45358  -1.04063  -1.48783  -0.39628
   5   23050.3    433.8   0.898396837  12.83119  -3.24969  -1.49971   0.14678
   6   24717.4    404.6   0.015093075   0.20102   0.01743   0.13920   0.42584
   7   25184.9    397.1   0.103587871   1.35408  -0.90769  -0.54171   0.48655
   8   26428.2    378.4   0.083400736   1.03891  -0.44283   0.19624   0.89683
   9   27049.6    369.7   0.000393281   0.00479   0.01643  -0.02268   0.06326
  10   27673.1    361.4   0.136161461   1.61984   0.32125   0.66106   1.03906
  11   27828.3    359.3   0.052775079   0.62434  -0.17367  -0.51509  -0.57346
  12   28055.2    356.4   0.072642816   0.85242  -0.52347  -0.55423  -0.52080
  13   28412.5    352.0   0.050694467   0.58739   0.62114   0.43707   0.10271
  14   28514.0    350.7   0.005117933   0.05909  -0.06954   0.19819  -0.12238
  15   28812.3    347.1   0.374409550   4.27804  -0.04117   0.86464   1.87850
  16   29096.0    343.7   0.108764418   1.23064  -0.07196   0.96052   0.55032
  17   29588.6    338.0   0.029698795   0.33044   0.41880   0.34486   0.19003
  18   29625.1    337.6   0.072580259   0.80656   0.44573  -0.13629  -0.76766
  19   29837.5    335.1   0.793448750   8.75451  -0.60391  -0.37576   2.87204
  20   30286.6    330.2   0.288126645   3.13191  -0.10033   1.41370   1.05986
  21   30528.6    327.6   0.385719981   4.15950  -1.55870  -0.89834   0.96070
  22   30666.4    326.1   0.337253544   3.62050  -0.36597  -0.96653   1.59762
  23   30889.8    323.7   0.132276582   1.40976   0.81561   0.62922   0.59043
  24   31353.8    318.9   0.202075630   2.12177   1.03778   0.04399  -1.02120
  25   31599.0    316.5   0.023025435   0.23989  -0.05013  -0.40472   0.27125
  26   31832.2    314.1   0.029801341   0.30821   0.42110   0.33156  -0.14475
  27   32055.9    312.0   0.015837384   0.16265  -0.12202  -0.38202  -0.04263
  28   32170.3    310.8   0.179830075   1.84028  -0.40476   1.28725   0.13941
  29   32410.8    308.5   0.033959941   0.34495  -0.09630   0.55712   0.15901
  30   32698.6    305.8   0.153021293   1.54063   0.74326   0.90961  -0.40101
  31   33200.6    301.2   0.016025411   0.15891  -0.13276  -0.37243   0.05080
  32   33369.8    299.7   0.054276538   0.53547   0.24749   0.46023   0.51226
  33   33546.0    298.1   0.063435040   0.62254   0.12206   0.63711  -0.44915
  34   34013.2    294.0   0.225054582   2.17829  -0.16905  -0.71981   1.27734
  35   34225.6    292.2   0.458415168   4.40944  -0.43829  -0.94556  -1.82298
  36   34491.7    289.9   0.042266386   0.40342   0.05921   0.16183  -0.61133
  37   34568.3    289.3   0.420482619   4.00448  -0.25772  -0.72532   1.84715
  38   34684.4    288.3   0.059117664   0.56112  -0.29386  -0.25329  -0.64079
  39   34982.5    285.9   0.115187271   1.08400   0.61924   0.70637   0.44898
  40   35012.3    285.6   0.109956148   1.03389  -0.79988   0.20146   0.59456
  41   35414.0    282.4   0.070381954   0.65428  -0.42978  -0.37386   0.57427
  42   35789.7    279.4   0.219170505   2.01604   0.02424  -0.58191  -1.29493
  43   35884.6    278.7   0.123949708   1.13714  -0.25217  -0.82264   0.62993
  44   36075.9    277.2   0.029946417   0.27328  -0.49439  -0.10105   0.13652
  45   36264.6    275.8   0.018056505   0.16392   0.12068   0.23520  -0.30666
  46   36556.0    273.6   0.014030607   0.12636   0.07202   0.20462  -0.28160
  47   36703.0    272.5   0.132868225   1.19178   0.39941   0.28109   0.97634
  48   36846.7    271.4   0.012464174   0.11136  -0.18366   0.25131   0.12032
  49   37301.2    268.1   0.065222819   0.57564  -0.42531  -0.61651  -0.12109
  50   37517.1    266.5   0.002700110   0.02369   0.10038  -0.02093   0.11480
  51   37631.7    265.7   0.009712267   0.08497  -0.07675   0.06078   0.27455
  52   38154.3    262.1   0.019616373   0.16926  -0.17667   0.04562   0.36873
  53   38561.0    259.3   0.174868270   1.49293  -0.59112  -1.06753  -0.06233
  54   38619.5    258.9   0.024707695   0.21062  -0.41884  -0.11248  -0.15014
  55   38801.8    257.7   0.000894589   0.00759   0.08709   0.00131  -0.00196
  56   38876.9    257.2   0.041883486   0.35467  -0.33688  -0.31230  -0.37901
  57   38918.7    256.9   0.017247558   0.14590   0.35229  -0.14657   0.01756
  58   39155.8    255.4   0.248506503   2.08938   0.95987   0.52959   0.94210
  59   39307.0    254.4   0.122334674   1.02460  -0.36474  -0.35456  -0.87513
  60   39565.6    252.7   0.007619949   0.06340   0.22126   0.08400   0.08598
  61   39598.9    252.5   0.068489535   0.56940  -0.73949   0.04439   0.14347
  62   39623.9    252.4   0.085019430   0.70638  -0.76501  -0.24404  -0.24817
  63   39896.7    250.6   0.117798345   0.97203   0.95116   0.25265   0.05902
  64   40098.6    249.4   0.038119549   0.31296  -0.40413   0.08145  -0.37817

FINAL SINGLE POINT ENERGY     -5195.076909575103

DIPOLE MOMENT
-------------
                                X             Y             Z
Electronic contribution:    -15.64140     -26.12268      -6.72644
Nuclear contribution   :     16.72303      26.66675       7.96889
                        -----------------------------------------
Total Dipole Moment    :      1.08163       0.54407       1.24245
                        -----------------------------------------
Magnitude (a.u.)       :      1.73482
Magnitude (Debye)      :      4.40957

Rotational constants in cm-1:     0.000733     0.000282     0.000217
Rotational constants in MHz :    21.962311     8.450145     6.500019

                             ****ORCA TERMINATED NORMALLY****
TOTAL RUN TIME: 0 days 0 hours 11 minutes 59 seconds 543 msec
