                         Program Version 4.2.0 -  RELEASE  -
|  1> # ORCA input file
|  2> # SCF done       -205.471553546054          0.000635719597
|  3> ! CAM-B3LYP def2-SVP def2/J RIJCOSX Grid4 TightSCF
|  4> %maxcore 5000
|  5> %tddft
|  6>     Mode sTDDFT
|  7>     Ethresh 5.0
|  8>     maxcore 5000
|  9> end
| 10>
| 11> %pal
| 12>   nprocs 6
| 13>   end
| 14> * xyz 0 1
| 15>    C       -5.03224        -2.28190         0.18678
| 16>    C       -3.87367        -2.79135         0.71220
| 17>    C       -3.59367        -4.16966         0.82507
| 18>    N       -3.30580        -5.27476         0.93917
| 19>    C       -2.79115        -2.01033         1.16691
| 20>    N       -1.87727        -1.42419         1.54105
| 21>    C       -6.15110        -3.05298        -0.33566
| 22>    C       -7.08318        -2.16950        -0.94079
| 23>    C       -8.24754        -2.60803        -1.52305
| 24>    C       -8.51416        -3.97967        -1.49597
| 25>    C       -7.57942        -4.85465        -0.88836
| 26>    C       -6.39702        -4.41388        -0.30787
| 27>    S       -8.11428        -6.50308        -0.97454
| 28>    C       -9.55266        -6.01896        -1.80378
| 29>    C       -9.63698        -4.68643        -2.01055
| 30>    C       -6.58108        -0.79244        -0.84543
| 31>    O       -6.95388         0.17547        -1.46435
| 32>    C       -5.37533        -0.87633         0.04371
| 33>    C       -4.74796         0.19583         0.58577
| 34>    C       -5.33563         1.49394         0.64377
| 35>    C       -6.67291         1.82220         0.82579
| 36>    C       -6.77262         3.22897         0.94035
| 37>    C       -5.44462         3.79002         0.78490
| 38>    O       -5.02992         4.92868         0.74408
| 39>    N       -4.61378         2.65628         0.66169
| 40>    C       -3.19088         2.76168         0.48817
| 41>    C       -8.11905         3.55337         1.08749
| 42>    N       -8.83586         2.39468         1.10515
| 43>    C       -7.99906         1.26312         0.98144
| 44>    O       -8.40278         0.12161         1.03551
| 45>    C      -10.24363         2.25549         1.36070
| 46>    C       -8.61814         4.89764         1.14790
| 47>    C       -7.84837         5.85148         1.85220
| 48>    C       -8.09131         7.26106         1.75736
| 49>    N       -7.29083         8.12015         2.43295
| 50>    C       -6.32514         7.64175         3.14413
| 51>    C       -6.13876         6.23946         3.30131
| 52>    N       -6.89371         5.39184         2.68837
| 53>    F       -5.22397         5.76736         4.14017
| 54>    F       -5.53686         8.50942         3.77148
| 55>    C       -9.17311         7.76046         1.01312
| 56>    C       -9.99014         6.80886         0.37401
| 57>    C       -9.72597         5.38822         0.43646
| 58>    N      -10.59256         4.69964        -0.31422
| 59>    S      -11.61871         5.72709        -1.00051
| 60>    N      -11.01898         7.08468        -0.42828
| 61>    C       -9.55493         9.14372         0.90168
| 62>    C      -10.86211         9.60651         0.99075
| 63>    C      -10.85568        11.00668         0.77875
| 64>    C       -9.48333        11.40375         0.55299
| 65>    O       -8.98178        12.48072         0.29472
| 66>    N       -8.74468        10.20889         0.64964
| 67>    C       -7.33313        10.18805         0.37721
| 68>    C      -12.16887        11.46975         0.87508
| 69>    N      -12.95745        10.38710         1.18875
| 70>    C      -12.22082         9.19086         1.27024
| 71>    O      -12.71603         8.11815         1.53930
| 72>    C      -14.38585        10.40114         1.34591
| 73>    C      -12.70612        12.77676         0.81179
| 74>    C      -12.19305        13.92038         0.28046
| 75>    C      -11.09065        14.21655        -0.60070
| 76>    C      -10.54876        13.38281        -1.54440
| 77>    C       -9.51242        13.75039        -2.42799
| 78>    N       -8.67456        13.98648        -3.17529
| 79>    C      -11.05419        12.10115        -1.83436
| 80>    N      -11.45224        11.06701        -2.13426
| 81>    C      -10.78669        15.63513        -0.45366
| 82>    C      -11.81328        16.24919         0.31123
| 83>    C      -12.77974        15.22550         0.73027
| 84>    O      -13.81354        15.36542         1.34235
| 85>    C      -11.82015        17.59658         0.58612
| 86>    C      -10.76229        18.36798         0.09622
| 87>    C       -9.73351        17.74070        -0.64846
| 88>    C       -9.72957        16.37983        -0.93513
| 89>    S       -8.52613        18.88429        -1.13800
| 90>    C       -9.39111        20.16766        -0.36448
| 91>    C      -10.53133        19.76572         0.23778
| 92>    H       -8.93482        -1.90967        -1.97356
| 93>    H       -5.71846        -5.11836         0.14396
| 94>    H      -10.25800        -6.77497        -2.08969
| 95>    H      -10.45891        -4.20502        -2.50861
| 96>    H       -3.78175         0.08634         1.06101
| 97>    H       -2.94929         3.82415         0.46733
| 98>    H       -2.87670         2.29849        -0.44864
| 99>    H       -2.66086         2.28953         1.31791
|100>    H      -10.51015         2.73568         2.30384
|101>    H      -10.44960         1.18716         1.42173
|102>    H      -10.82483         2.70277         0.55406
|103>    H       -7.08339        11.13482        -0.10238
|104>    H       -7.08839         9.35958        -0.28704
|105>    H       -6.76144        10.08848         1.30027
|106>    H      -14.87391        10.77336         0.44377
|107>    H      -14.68364        11.01340         2.19974
|108>    H      -14.69174         9.37024         1.52432
|109>    H      -13.64616        12.92263         1.33747
|110>    H      -12.61658        18.04075         1.16287
|111>    H       -8.92145        15.93983        -1.49516
|112>    H       -8.98437        21.15923        -0.40871
|113>    H      -11.19649        20.42286         0.76812
|114> *
|115>
|116>                          ****END OF INPUT****

CARTESIAN COORDINATES (ANGSTROEM)
---------------------------------
  C     -5.032240   -2.281900    0.186780
  C     -3.873670   -2.791350    0.712200
  C     -3.593670   -4.169660    0.825070
  N     -3.305800   -5.274760    0.939170
  C     -2.791150   -2.010330    1.166910
  N     -1.877270   -1.424190    1.541050
  C     -6.151100   -3.052980   -0.335660
  C     -7.083180   -2.169500   -0.940790
  C     -8.247540   -2.608030   -1.523050
  C     -8.514160   -3.979670   -1.495970
  C     -7.579420   -4.854650   -0.888360
  C     -6.397020   -4.413880   -0.307870
  S     -8.114280   -6.503080   -0.974540
  C     -9.552660   -6.018960   -1.803780
  C     -9.636980   -4.686430   -2.010550
  C     -6.581080   -0.792440   -0.845430
  O     -6.953880    0.175470   -1.464350
  C     -5.375330   -0.876330    0.043710
  C     -4.747960    0.195830    0.585770
  C     -5.335630    1.493940    0.643770
  C     -6.672910    1.822200    0.825790
  C     -6.772620    3.228970    0.940350
  C     -5.444620    3.790020    0.784900
  O     -5.029920    4.928680    0.744080
  N     -4.613780    2.656280    0.661690
  C     -3.190880    2.761680    0.488170
  C     -8.119050    3.553370    1.087490
  N     -8.835860    2.394680    1.105150
  C     -7.999060    1.263120    0.981440
  O     -8.402780    0.121610    1.035510
  C    -10.243630    2.255490    1.360700
  C     -8.618140    4.897640    1.147900
  C     -7.848370    5.851480    1.852200
  C     -8.091310    7.261060    1.757360
  N     -7.290830    8.120150    2.432950
  C     -6.325140    7.641750    3.144130
  C     -6.138760    6.239460    3.301310
  N     -6.893710    5.391840    2.688370
  F     -5.223970    5.767360    4.140170
  F     -5.536860    8.509420    3.771480
  C     -9.173110    7.760460    1.013120
  C     -9.990140    6.808860    0.374010
  C     -9.725970    5.388220    0.436460
  N    -10.592560    4.699640   -0.314220
  S    -11.618710    5.727090   -1.000510
  N    -11.018980    7.084680   -0.428280
  C     -9.554930    9.143720    0.901680
  C    -10.862110    9.606510    0.990750
  C    -10.855680   11.006680    0.778750
  C     -9.483330   11.403750    0.552990
  O     -8.981780   12.480720    0.294720
  N     -8.744680   10.208890    0.649640
  C     -7.333130   10.188050    0.377210
  C    -12.168870   11.469750    0.875080
  N    -12.957450   10.387100    1.188750
  C    -12.220820    9.190860    1.270240
  O    -12.716030    8.118150    1.539300
  C    -14.385850   10.401140    1.345910
  C    -12.706120   12.776760    0.811790
  C    -12.193050   13.920380    0.280460
  C    -11.090650   14.216550   -0.600700
  C    -10.548760   13.382810   -1.544400
  C     -9.512420   13.750390   -2.427990
  N     -8.674560   13.986480   -3.175290
  C    -11.054190   12.101150   -1.834360
  N    -11.452240   11.067010   -2.134260
  C    -10.786690   15.635130   -0.453660
  C    -11.813280   16.249190    0.311230
  C    -12.779740   15.225500    0.730270
  O    -13.813540   15.365420    1.342350
  C    -11.820150   17.596580    0.586120
  C    -10.762290   18.367980    0.096220
  C     -9.733510   17.740700   -0.648460
  C     -9.729570   16.379830   -0.935130
  S     -8.526130   18.884290   -1.138000
  C     -9.391110   20.167660   -0.364480
  C    -10.531330   19.765720    0.237780
  H     -8.934820   -1.909670   -1.973560
  H     -5.718460   -5.118360    0.143960
  H    -10.258000   -6.774970   -2.089690
  H    -10.458910   -4.205020   -2.508610
  H     -3.781750    0.086340    1.061010
  H     -2.949290    3.824150    0.467330
  H     -2.876700    2.298490   -0.448640
  H     -2.660860    2.289530    1.317910
  H    -10.510150    2.735680    2.303840
  H    -10.449600    1.187160    1.421730
  H    -10.824830    2.702770    0.554060
  H     -7.083390   11.134820   -0.102380
  H     -7.088390    9.359580   -0.287040
  H     -6.761440   10.088480    1.300270
  H    -14.873910   10.773360    0.443770
  H    -14.683640   11.013400    2.199740
  H    -14.691740    9.370240    1.524320
  H    -13.646160   12.922630    1.337470
  H    -12.616580   18.040750    1.162870
  H     -8.921450   15.939830   -1.495160
  H     -8.984370   21.159230   -0.408710
  H    -11.196490   20.422860    0.768120

 Total Charge           Charge          ....    0
 Multiplicity           Mult            ....    1
 Number of Electrons    NEL             ....  544
 Basis Dimension        Dim             .... 1200

ORBITAL ENERGIES
----------------

  NO   OCC          E(Eh)            E(eV)
   0   2.0000     -89.045764     -2423.0584
   1   2.0000     -88.966788     -2420.9094
   2   2.0000     -88.963635     -2420.8236
   3   2.0000     -24.819831      -675.3819
   4   2.0000     -24.814947      -675.2490
   5   2.0000     -19.219401      -522.9865
   6   2.0000     -19.214731      -522.8594
   7   2.0000     -19.209370      -522.7135
   8   2.0000     -19.204711      -522.5868
   9   2.0000     -19.199056      -522.4329
  10   2.0000     -19.192502      -522.2545
  11   2.0000     -14.467819      -393.6894
  12   2.0000     -14.464674      -393.6038
  13   2.0000     -14.462064      -393.5328
  14   2.0000     -14.458916      -393.4471
  15   2.0000     -14.458313      -393.4307
  16   2.0000     -14.452807      -393.2809
  17   2.0000     -14.452428      -393.2706
  18   2.0000     -14.450899      -393.2290
  19   2.0000     -14.421575      -392.4310
  20   2.0000     -14.418249      -392.3405
  21   2.0000     -14.415813      -392.2742
  22   2.0000     -14.411139      -392.1470
  23   2.0000     -10.436000      -283.9780
  24   2.0000     -10.431150      -283.8460
  25   2.0000     -10.386141      -282.6213
  26   2.0000     -10.384195      -282.5683
  27   2.0000     -10.382100      -282.5113
  28   2.0000     -10.377910      -282.3973
  29   2.0000     -10.368286      -282.1354
  30   2.0000     -10.368092      -282.1301
  31   2.0000     -10.356537      -281.8157
  32   2.0000     -10.354824      -281.7691
  33   2.0000     -10.354454      -281.7590
  34   2.0000     -10.354178      -281.7515
  35   2.0000     -10.349526      -281.6249
  36   2.0000     -10.348246      -281.5901
  37   2.0000     -10.347378      -281.5665
  38   2.0000     -10.347302      -281.5644
  39   2.0000     -10.345902      -281.5263
  40   2.0000     -10.344273      -281.4820
  41   2.0000     -10.342930      -281.4454
  42   2.0000     -10.332191      -281.1532
  43   2.0000     -10.326516      -280.9988
  44   2.0000     -10.326345      -280.9941
  45   2.0000     -10.324103      -280.9331
  46   2.0000     -10.321322      -280.8575
  47   2.0000     -10.321001      -280.8487
  48   2.0000     -10.320674      -280.8398
  49   2.0000     -10.317974      -280.7664
  50   2.0000     -10.316072      -280.7146
  51   2.0000     -10.315853      -280.7086
  52   2.0000     -10.314931      -280.6835
  53   2.0000     -10.313652      -280.6487
  54   2.0000     -10.311473      -280.5894
  55   2.0000     -10.310618      -280.5662
  56   2.0000     -10.308612      -280.5116
  57   2.0000     -10.308536      -280.5095
  58   2.0000     -10.308483      -280.5081
  59   2.0000     -10.307930      -280.4930
  60   2.0000     -10.304068      -280.3879
  61   2.0000     -10.303404      -280.3699
  62   2.0000     -10.302541      -280.3464
  63   2.0000     -10.300331      -280.2863
  64   2.0000     -10.298186      -280.2279
  65   2.0000     -10.298002      -280.2229
  66   2.0000     -10.297979      -280.2223
  67   2.0000     -10.297800      -280.2174
  68   2.0000     -10.297109      -280.1986
  69   2.0000     -10.290747      -280.0255
  70   2.0000     -10.289383      -279.9884
  71   2.0000     -10.288516      -279.9647
  72   2.0000     -10.286361      -279.9061
  73   2.0000     -10.280260      -279.7401
  74   2.0000     -10.274269      -279.5771
  75   2.0000     -10.273770      -279.5635
  76   2.0000     -10.271782      -279.5094
  77   2.0000      -8.136853      -221.4150
  78   2.0000      -8.063134      -219.4090
  79   2.0000      -8.059941      -219.3221
  80   2.0000      -6.107826      -166.2024
  81   2.0000      -6.100025      -165.9901
  82   2.0000      -6.099904      -165.9868
  83   2.0000      -6.032655      -164.1569
  84   2.0000      -6.029437      -164.0693
  85   2.0000      -6.028339      -164.0395
  86   2.0000      -6.025142      -163.9524
  87   2.0000      -6.024768      -163.9423
  88   2.0000      -6.021621      -163.8566
  89   2.0000      -1.346199       -36.6319
  90   2.0000      -1.331432       -36.2301
  91   2.0000      -1.147229       -31.2177
  92   2.0000      -1.145155       -31.1613
  93   2.0000      -1.142825       -31.0978
  94   2.0000      -1.136479       -30.9252
  95   2.0000      -1.133811       -30.8526
  96   2.0000      -1.132402       -30.8142
  97   2.0000      -1.130497       -30.7624
  98   2.0000      -1.116777       -30.3890
  99   2.0000      -1.075935       -29.2777
 100   2.0000      -1.074717       -29.2445
 101   2.0000      -1.065360       -28.9899
 102   2.0000      -1.063129       -28.9292
 103   2.0000      -1.040243       -28.3065
 104   2.0000      -1.023163       -27.8417
 105   2.0000      -1.017093       -27.6765
 106   2.0000      -1.010150       -27.4876
 107   2.0000      -1.005610       -27.3640
 108   2.0000      -0.998247       -27.1637
 109   2.0000      -0.996323       -27.1113
 110   2.0000      -0.991573       -26.9821
 111   2.0000      -0.987407       -26.8687
 112   2.0000      -0.982743       -26.7418
 113   2.0000      -0.979956       -26.6659
 114   2.0000      -0.934630       -25.4326
 115   2.0000      -0.930970       -25.3330
 116   2.0000      -0.928869       -25.2758
 117   2.0000      -0.927001       -25.2250
 118   2.0000      -0.911357       -24.7993
 119   2.0000      -0.906215       -24.6594
 120   2.0000      -0.902320       -24.5534
 121   2.0000      -0.887386       -24.1470
 122   2.0000      -0.882137       -24.0042
 123   2.0000      -0.878540       -23.9063
 124   2.0000      -0.878151       -23.8957
 125   2.0000      -0.874947       -23.8085
 126   2.0000      -0.853534       -23.2258
 127   2.0000      -0.847236       -23.0545
 128   2.0000      -0.834357       -22.7040
 129   2.0000      -0.823962       -22.4212
 130   2.0000      -0.820517       -22.3274
 131   2.0000      -0.814409       -22.1612
 132   2.0000      -0.813974       -22.1494
 133   2.0000      -0.807695       -21.9785
 134   2.0000      -0.791159       -21.5285
 135   2.0000      -0.772648       -21.0248
 136   2.0000      -0.769835       -20.9483
 137   2.0000      -0.766731       -20.8638
 138   2.0000      -0.765593       -20.8328
 139   2.0000      -0.759729       -20.6733
 140   2.0000      -0.755099       -20.5473
 141   2.0000      -0.751458       -20.4482
 142   2.0000      -0.746977       -20.3263
 143   2.0000      -0.715254       -19.4631
 144   2.0000      -0.710203       -19.3256
 145   2.0000      -0.700413       -19.0592
 146   2.0000      -0.696454       -18.9515
 147   2.0000      -0.692845       -18.8533
 148   2.0000      -0.689977       -18.7752
 149   2.0000      -0.685435       -18.6516
 150   2.0000      -0.682181       -18.5631
 151   2.0000      -0.679506       -18.4903
 152   2.0000      -0.675031       -18.3685
 153   2.0000      -0.673434       -18.3251
 154   2.0000      -0.671746       -18.2791
 155   2.0000      -0.667874       -18.1738
 156   2.0000      -0.663772       -18.0622
 157   2.0000      -0.662807       -18.0359
 158   2.0000      -0.658561       -17.9204
 159   2.0000      -0.640661       -17.4333
 160   2.0000      -0.625838       -17.0299
 161   2.0000      -0.622480       -16.9385
 162   2.0000      -0.620320       -16.8798
 163   2.0000      -0.619422       -16.8553
 164   2.0000      -0.617424       -16.8010
 165   2.0000      -0.616319       -16.7709
 166   2.0000      -0.608147       -16.5485
 167   2.0000      -0.603630       -16.4256
 168   2.0000      -0.599950       -16.3255
 169   2.0000      -0.593461       -16.1489
 170   2.0000      -0.590915       -16.0796
 171   2.0000      -0.588314       -16.0088
 172   2.0000      -0.582912       -15.8618
 173   2.0000      -0.580480       -15.7957
 174   2.0000      -0.577102       -15.7038
 175   2.0000      -0.573991       -15.6191
 176   2.0000      -0.572512       -15.5789
 177   2.0000      -0.567943       -15.4545
 178   2.0000      -0.563932       -15.3454
 179   2.0000      -0.561805       -15.2875
 180   2.0000      -0.558522       -15.1981
 181   2.0000      -0.556137       -15.1333
 182   2.0000      -0.552918       -15.0457
 183   2.0000      -0.551043       -14.9946
 184   2.0000      -0.550177       -14.9711
 185   2.0000      -0.544306       -14.8113
 186   2.0000      -0.543376       -14.7860
 187   2.0000      -0.539198       -14.6723
 188   2.0000      -0.538033       -14.6406
 189   2.0000      -0.533869       -14.5273
 190   2.0000      -0.531206       -14.4549
 191   2.0000      -0.528493       -14.3810
 192   2.0000      -0.527052       -14.3418
 193   2.0000      -0.526304       -14.3215
 194   2.0000      -0.524570       -14.2743
 195   2.0000      -0.522866       -14.2279
 196   2.0000      -0.519702       -14.1418
 197   2.0000      -0.515496       -14.0274
 198   2.0000      -0.514365       -13.9966
 199   2.0000      -0.512630       -13.9494
 200   2.0000      -0.511848       -13.9281
 201   2.0000      -0.507738       -13.8163
 202   2.0000      -0.506835       -13.7917
 203   2.0000      -0.503661       -13.7053
 204   2.0000      -0.502635       -13.6774
 205   2.0000      -0.500214       -13.6115
 206   2.0000      -0.497927       -13.5493
 207   2.0000      -0.494707       -13.4617
 208   2.0000      -0.493580       -13.4310
 209   2.0000      -0.489977       -13.3330
 210   2.0000      -0.489380       -13.3167
 211   2.0000      -0.487190       -13.2571
 212   2.0000      -0.484893       -13.1946
 213   2.0000      -0.483508       -13.1569
 214   2.0000      -0.479782       -13.0555
 215   2.0000      -0.478287       -13.0148
 216   2.0000      -0.477181       -12.9848
 217   2.0000      -0.474325       -12.9070
 218   2.0000      -0.471659       -12.8345
 219   2.0000      -0.471157       -12.8208
 220   2.0000      -0.469897       -12.7865
 221   2.0000      -0.468131       -12.7385
 222   2.0000      -0.458954       -12.4888
 223   2.0000      -0.455660       -12.3991
 224   2.0000      -0.453603       -12.3432
 225   2.0000      -0.452535       -12.3141
 226   2.0000      -0.451805       -12.2943
 227   2.0000      -0.447612       -12.1801
 228   2.0000      -0.447441       -12.1755
 229   2.0000      -0.444506       -12.0956
 230   2.0000      -0.440389       -11.9836
 231   2.0000      -0.437222       -11.8974
 232   2.0000      -0.434971       -11.8362
 233   2.0000      -0.433916       -11.8074
 234   2.0000      -0.431362       -11.7379
 235   2.0000      -0.430300       -11.7091
 236   2.0000      -0.428900       -11.6710
 237   2.0000      -0.428486       -11.6597
 238   2.0000      -0.425037       -11.5658
 239   2.0000      -0.423463       -11.5230
 240   2.0000      -0.421346       -11.4654
 241   2.0000      -0.419638       -11.4189
 242   2.0000      -0.417060       -11.3488
 243   2.0000      -0.414126       -11.2690
 244   2.0000      -0.411973       -11.2103
 245   2.0000      -0.406691       -11.0666
 246   2.0000      -0.405830       -11.0432
 247   2.0000      -0.404806       -11.0153
 248   2.0000      -0.394728       -10.7411
 249   2.0000      -0.392164       -10.6713
 250   2.0000      -0.378941       -10.3115
 251   2.0000      -0.377774       -10.2798
 252   2.0000      -0.375618       -10.2211
 253   2.0000      -0.372117       -10.1258
 254   2.0000      -0.360810        -9.8181
 255   2.0000      -0.358492        -9.7551
 256   2.0000      -0.346451        -9.4274
 257   2.0000      -0.345203        -9.3934
 258   2.0000      -0.344068        -9.3626
 259   2.0000      -0.338811        -9.2195
 260   2.0000      -0.337686        -9.1889
 261   2.0000      -0.337419        -9.1816
 262   2.0000      -0.330173        -8.9845
 263   2.0000      -0.321883        -8.7589
 264   2.0000      -0.320091        -8.7101
 265   2.0000      -0.315227        -8.5778
 266   2.0000      -0.312637        -8.5073
 267   2.0000      -0.307481        -8.3670
 268   2.0000      -0.295318        -8.0360
 269   2.0000      -0.288561        -7.8521
 270   2.0000      -0.263544        -7.1714
 271   2.0000      -0.246527        -6.7083
 272   0.0000      -0.127439        -3.4678
 273   0.0000      -0.098870        -2.6904
 274   0.0000      -0.088750        -2.4150
 275   0.0000      -0.062807        -1.7091
 276   0.0000      -0.061525        -1.6742

MULLIKEN ATOMIC CHARGES
-----------------------
   0 C :    0.292984
   1 C :   -0.345300
   2 C :   -0.181509
   3 N :    0.153704
   4 C :   -0.181043
   5 N :    0.148684
   6 C :    0.022980
   7 C :    0.010719
   8 C :   -0.054578
   9 C :    0.109248
  10 C :   -0.092266
  11 C :   -0.024917
  12 S :    0.141510
  13 C :   -0.047907
  14 C :    0.026628
  15 C :    0.146253
  16 O :   -0.139991
  17 C :   -0.049104
  18 C :   -0.075211
  19 C :    0.135946
  20 C :   -0.032604
  21 C :   -0.038731
  22 C :    0.152960
  23 O :   -0.198783
  24 N :   -0.267248
  25 C :    0.111706
  26 C :    0.036289
  27 N :   -0.246129
  28 C :    0.167592
  29 O :   -0.186549
  30 C :    0.121162
  31 C :    0.049340
  32 C :   -0.067422
  33 C :   -0.040719
  34 N :   -0.001765
  35 C :    0.153861
  36 C :    0.159608
  37 N :    0.029284
  38 F :   -0.135520
  39 F :   -0.138047
  40 C :    0.069345
  41 C :   -0.023513
  42 C :    0.047582
  43 N :   -0.291335
  44 S :    0.568402
  45 N :   -0.226971
  46 C :    0.027633
  47 C :   -0.013937
  48 C :   -0.071560
  49 C :    0.157347
  50 O :   -0.178580
  51 N :   -0.237863
  52 C :    0.130390
  53 C :    0.172549
  54 N :   -0.277404
  55 C :    0.139061
  56 O :   -0.190736
  57 C :    0.115758
  58 C :   -0.044961
  59 C :   -0.095452
  60 C :    0.310196
  61 C :   -0.283005
  62 C :   -0.185916
  63 N :    0.157625
  64 C :   -0.243568
  65 N :    0.181778
  66 C :    0.006578
  67 C :    0.002658
  68 C :    0.127163
  69 O :   -0.143064
  70 C :   -0.068172
  71 C :    0.105275
  72 C :   -0.087860
  73 C :   -0.025447
  74 S :    0.140203
  75 C :   -0.054053
  76 C :    0.029033
  77 H :   -0.010147
  78 H :   -0.005933
  79 H :    0.039628
  80 H :   -0.005778
  81 H :    0.023441
  82 H :    0.059686
  83 H :    0.040947
  84 H :    0.049153
  85 H :    0.028465
  86 H :    0.050449
  87 H :    0.050384
  88 H :    0.055472
  89 H :    0.033943
  90 H :    0.052480
  91 H :    0.040642
  92 H :    0.041015
  93 H :    0.058943
  94 H :    0.010822
  95 H :   -0.012265
  96 H :   -0.001480
  97 H :    0.037345
  98 H :   -0.007504
Sum of atomic charges:   -0.0000000

LOEWDIN ATOMIC CHARGES
----------------------
   0 C :    0.075271
   1 C :   -0.135109
   2 C :   -0.018772
   3 N :   -0.047685
   4 C :   -0.017609
   5 N :   -0.051863
   6 C :   -0.019823
   7 C :   -0.041754
   8 C :    0.029956
   9 C :   -0.031504
  10 C :   -0.143594
  11 C :   -0.009082
  12 S :    0.429887
  13 C :   -0.147515
  14 C :   -0.057165
  15 C :    0.088746
  16 O :   -0.129375
  17 C :   -0.044457
  18 C :    0.031501
  19 C :    0.070230
  20 C :   -0.091390
  21 C :   -0.100813
  22 C :    0.084112
  23 O :   -0.199404
  24 N :   -0.001480
  25 C :    0.030274
  26 C :    0.092905
  27 N :    0.009629
  28 C :    0.091809
  29 O :   -0.175294
  30 C :    0.022760
  31 C :   -0.036412
  32 C :    0.011686
  33 C :    0.000526
  34 N :   -0.042926
  35 C :    0.070876
  36 C :    0.064611
  37 N :   -0.021602
  38 F :   -0.023359
  39 F :   -0.024647
  40 C :   -0.032705
  41 C :   -0.033717
  42 C :   -0.035814
  43 N :   -0.287985
  44 S :    0.703289
  45 N :   -0.250594
  46 C :    0.092222
  47 C :   -0.100660
  48 C :   -0.089168
  49 C :    0.082415
  50 O :   -0.166962
  51 N :    0.017933
  52 C :    0.028165
  53 C :    0.068280
  54 N :   -0.003601
  55 C :    0.083596
  56 O :   -0.196252
  57 C :    0.029087
  58 C :    0.017822
  59 C :   -0.042899
  60 C :    0.058285
  61 C :   -0.110036
  62 C :   -0.014906
  63 N :   -0.050535
  64 C :   -0.017853
  65 N :   -0.044259
  66 C :   -0.010144
  67 C :   -0.061280
  68 C :    0.086537
  69 O :   -0.138597
  70 C :    0.026189
  71 C :   -0.039548
  72 C :   -0.141956
  73 C :   -0.011196
  74 S :    0.430215
  75 C :   -0.152360
  76 C :   -0.057385
  77 H :    0.041850
  78 H :    0.040648
  79 H :    0.029849
  80 H :    0.035752
  81 H :    0.046550
  82 H :    0.042237
  83 H :    0.030833
  84 H :    0.031891
  85 H :    0.026177
  86 H :    0.036750
  87 H :    0.023450
  88 H :    0.038504
  89 H :    0.029862
  90 H :    0.027020
  91 H :    0.030690
  92 H :    0.027940
  93 H :    0.041656
  94 H :    0.046832
  95 H :    0.040185
  96 H :    0.041939
  97 H :    0.028802
  98 H :    0.034812

  Mayer bond orders larger than 0.100000
B(  0-C ,  1-C ) :   1.6381 B(  0-C ,  6-C ) :   1.0184 B(  0-C , 17-C ) :   1.0596
B(  1-C ,  2-C ) :   1.1359 B(  1-C ,  4-C ) :   1.1472 B(  2-C ,  3-N ) :   2.9761
B(  4-C ,  5-N ) :   2.9697 B(  6-C ,  7-C ) :   1.2648 B(  6-C , 11-C ) :   1.3985
B(  7-C ,  8-C ) :   1.4253 B(  7-C , 15-C ) :   0.9376 B(  8-C ,  9-C ) :   1.2537
B(  8-C , 77-H ) :   1.0148 B(  9-C , 10-C ) :   1.2929 B(  9-C , 14-C ) :   1.1737
B( 10-C , 11-C ) :   1.3361 B( 10-C , 12-S ) :   1.0985 B( 11-C , 78-H ) :   0.9826
B( 12-S , 13-C ) :   1.1265 B( 13-C , 14-C ) :   1.6278 B( 13-C , 79-H ) :   0.9680
B( 14-C , 80-H ) :   0.9990 B( 15-C , 16-O ) :   2.2468 B( 15-C , 17-C ) :   0.9018
B( 17-C , 18-C ) :   1.6718 B( 18-C , 19-C ) :   1.0960 B( 18-C , 81-H ) :   0.9237
B( 19-C , 20-C ) :   1.3908 B( 19-C , 24-N ) :   1.1830 B( 20-C , 21-C ) :   1.2615
B( 20-C , 28-C ) :   0.9690 B( 21-C , 22-C ) :   0.9629 B( 21-C , 26-C ) :   1.4067
B( 22-C , 23-O ) :   2.1150 B( 22-C , 24-N ) :   1.0424 B( 24-N , 25-C ) :   0.9626
B( 25-C , 82-H ) :   0.9531 B( 25-C , 83-H ) :   0.9741 B( 25-C , 84-H ) :   0.9699
B( 26-C , 27-N ) :   1.2589 B( 26-C , 31-C ) :   1.0150 B( 27-N , 28-C ) :   1.0214
B( 27-N , 30-C ) :   0.9551 B( 28-C , 29-O ) :   2.1150 B( 30-C , 85-H ) :   0.9733
B( 30-C , 86-H ) :   0.9510 B( 30-C , 87-H ) :   0.9516 B( 31-C , 32-C ) :   1.3387
B( 31-C , 40-C ) :   0.1487 B( 31-C , 42-C ) :   1.2357 B( 32-C , 33-C ) :   1.1015
B( 32-C , 37-N ) :   1.4288 B( 33-C , 34-N ) :   1.4223 B( 33-C , 40-C ) :   1.3411
B( 34-N , 35-C ) :   1.6696 B( 35-C , 36-C ) :   1.0920 B( 35-C , 39-F ) :   1.1710
B( 36-C , 37-N ) :   1.6711 B( 36-C , 38-F ) :   1.1845 B( 40-C , 41-C ) :   1.2632
B( 40-C , 46-C ) :   0.9766 B( 41-C , 42-C ) :   1.0991 B( 41-C , 45-N ) :   1.5239
B( 42-C , 43-N ) :   1.4867 B( 43-N , 44-S ) :   1.2757 B( 43-N , 45-N ) :   0.1511
B( 44-S , 45-N ) :   1.3180 B( 46-C , 47-C ) :   1.4255 B( 46-C , 51-N ) :   1.2561
B( 47-C , 48-C ) :   1.2507 B( 47-C , 55-C ) :   0.9575 B( 48-C , 49-C ) :   0.9726
B( 48-C , 53-C ) :   1.3440 B( 49-C , 50-O ) :   2.0656 B( 49-C , 51-N ) :   1.0476
B( 51-N , 52-C ) :   0.9539 B( 52-C , 88-H ) :   0.9519 B( 52-C , 89-H ) :   0.9711
B( 52-C , 90-H ) :   0.9637 B( 53-C , 54-N ) :   1.1740 B( 53-C , 58-C ) :   1.1146
B( 54-N , 55-C ) :   1.0426 B( 54-N , 57-C ) :   0.9688 B( 55-C , 56-O ) :   2.1551
B( 57-C , 91-H ) :   0.9735 B( 57-C , 92-H ) :   0.9686 B( 57-C , 93-H ) :   0.9508
B( 58-C , 59-C ) :   1.6477 B( 58-C , 94-H ) :   0.9243 B( 59-C , 60-C ) :   1.0579
B( 59-C , 68-C ) :   0.9238 B( 60-C , 61-C ) :   1.6234 B( 60-C , 66-C ) :   1.0113
B( 61-C , 62-C ) :   1.1308 B( 61-C , 64-C ) :   1.1741 B( 62-C , 63-N ) :   2.9930
B( 64-C , 65-N ) :   2.9959 B( 66-C , 67-C ) :   1.2618 B( 66-C , 73-C ) :   1.4287
B( 67-C , 68-C ) :   0.9332 B( 67-C , 70-C ) :   1.4181 B( 68-C , 69-O ) :   2.2498
B( 70-C , 71-C ) :   1.2562 B( 70-C , 95-H ) :   1.0161 B( 71-C , 72-C ) :   1.3046
B( 71-C , 76-C ) :   1.1704 B( 72-C , 73-C ) :   1.3104 B( 72-C , 74-S ) :   1.1007
B( 73-C , 96-H ) :   0.9854 B( 74-S , 75-C ) :   1.1249 B( 75-C , 76-C ) :   1.6301
B( 75-C , 97-H ) :   0.9691 B( 76-C , 98-H ) :   0.9996

-----------------------------------------------------------------------------
         ABSORPTION SPECTRUM VIA TRANSITION ELECTRIC DIPOLE MOMENTS
-----------------------------------------------------------------------------
State   Energy  Wavelength   fosc         T2         TX        TY        TZ
        (cm-1)    (nm)                  (au**2)     (au)      (au)      (au)
-----------------------------------------------------------------------------
   0    9961.2   1003.9   0.675708421  22.33175  -2.32765   4.10971   0.15525
   1   13264.8    753.9   0.014289348   0.35464   0.07059  -0.34750   0.47844
   2   16538.8    604.6   0.038664611   0.76964  -0.47989   0.58765   0.44046
   3   17833.3    560.7   0.174744104   3.22587  -0.71674   1.57789  -0.47161
   4   21039.3    475.3   0.054321015   0.84999   0.24378  -0.71803   0.52440
   5   21921.9    456.2   0.008091282   0.12151   0.00858   0.33227   0.10503
   6   22883.9    437.0   0.029887537   0.42997  -0.59356  -0.26588   0.08345
   7   22987.8    435.0   0.020199082   0.28927  -0.08074   0.53142   0.01858
   8   23505.0    425.4   0.062236828   0.87169  -0.37428   0.82105   0.23974
   9   23625.6    423.3   0.033464733   0.46632   0.51543  -0.22852   0.38526
  10   24058.1    415.7   0.068383733   0.93577  -0.27679  -0.92652   0.02664
  11   24771.6    403.7   0.061851261   0.82200   0.73552   0.22938  -0.47791
  12   25011.3    399.8   0.132481206   1.74378   0.15064  -1.31111  -0.04550
  13   25141.0    397.8   0.004002711   0.05241   0.10447  -0.00024  -0.20372
  14   25618.6    390.3   0.007956009   0.10224  -0.28297   0.04602  -0.14160
  15   25788.6    387.8   0.029111159   0.37163  -0.26266  -0.51704  -0.18789
  16   26353.9    379.4   0.012924447   0.16145   0.05727  -0.33942  -0.20727
  17   26442.8    378.2   0.064143967   0.79859   0.66159   0.39574   0.45197
  18   27369.7    365.4   0.009446881   0.11363  -0.28076   0.14126   0.12186
  19   28175.2    354.9   0.024935483   0.29136  -0.11227  -0.48011  -0.21964
  20   28384.1    352.3   0.032060433   0.37185   0.55036   0.17523  -0.19557
  21   28871.2    346.4   0.001594791   0.01819   0.07698  -0.10856  -0.02178
  22   28954.9    345.4   0.034423461   0.39139   0.29770   0.26418   0.48267
  23   29071.7    344.0   0.001643485   0.01861  -0.03076   0.08676   0.10069
  24   29404.8    340.1   0.033789921   0.37831   0.25425  -0.25073   0.50080
  25   29901.5    334.4   0.064652094   0.71181  -0.55232  -0.58568  -0.25245
  26   30070.3    332.6   0.224553918   2.45843   1.23548   0.21690   0.94073
  27   30365.1    329.3   0.090074299   0.97657   0.96440   0.15848  -0.14622
  28   30907.8    323.5   0.240187494   2.55833   0.15000  -1.59227  -0.02225
  29   31395.4    318.5   0.056887880   0.59653  -0.37057  -0.55901  -0.38303
  30   31571.1    316.7   0.034714504   0.36199  -0.05288  -0.54726  -0.24435
  31   31693.9    315.5   0.037083751   0.38520  -0.55613   0.02524  -0.27437
  32   31966.8    312.8   0.043254906   0.44546  -0.55685   0.26578  -0.25445
  33   32160.3    310.9   0.006778238   0.06939  -0.00707   0.25982   0.04275
  34   32368.3    308.9   0.750076596   7.62888   0.88949   2.59138   0.34991
  35   32557.9    307.1   0.022585392   0.22837  -0.30422  -0.23907   0.28049
  36   32696.7    305.8   0.159412316   1.60507  -0.06254  -1.26523   0.01896
  37   32867.4    304.3   0.043646591   0.43718  -0.53727  -0.31524  -0.22167
  38   33327.8    300.1   0.091605601   0.90488   0.48137   0.16084  -0.80455
  39   33491.5    298.6   0.066331196   0.65202  -0.39290  -0.64060  -0.29544
  40   33544.9    298.1   0.116544079   1.14377   0.15758   0.85080  -0.62856
  41   33664.9    297.0   0.054304701   0.53105   0.49481  -0.45749   0.27734
  42   33854.9    295.4   0.483111973   4.69788   1.51564   1.46541   0.50328
  43   34094.8    293.3   0.110135123   1.06344   0.58886  -0.82785  -0.17707
  44   34220.5    292.2   0.089925946   0.86512  -0.82855  -0.06219  -0.41804
  45   35012.3    285.6   0.020255656   0.19046  -0.05675  -0.41599  -0.11912
  46   35049.8    285.3   0.012859420   0.12078   0.16571  -0.29237  -0.08857
  47   35159.4    284.4   0.039350696   0.36846   0.50689  -0.16076  -0.29270
  48   35209.8    284.0   0.041017490   0.38351   0.32201  -0.47687  -0.22895
  49   36116.5    276.9   0.114657305   1.04513  -0.56644  -0.06132  -0.84884
  50   36476.5    274.1   0.140228231   1.26560  -0.41950  -0.98689   0.34010
  51   36532.6    273.7   0.132837658   1.19706   0.73119  -0.73025   0.35939
  52   36917.7    270.9   0.041747479   0.37228   0.46209   0.15039  -0.36896
  53   37179.9    269.0   0.091298591   0.80841   0.58968   0.67845   0.01965
  54   37270.3    268.3   0.022031384   0.19461  -0.43281  -0.08413  -0.01422
  55   37435.0    267.1   0.067190302   0.59089  -0.00058   0.75968  -0.11733
  56   37618.2    265.8   0.003072007   0.02688   0.08650   0.13196   0.04461
  57   37759.5    264.8   0.087243988   0.76065  -0.71219  -0.40406  -0.30029
  58   37786.1    264.6   0.062460898   0.54419  -0.28294  -0.59710   0.32804
  59   37877.6    264.0   0.015193792   0.13206   0.35605  -0.06767   0.02650
  60   38107.5    262.4   0.007382454   0.06378   0.07280   0.21859  -0.10341
  61   38451.1    260.1   0.160060223   1.37041  -0.59365   1.00886  -0.01373
  62   38751.6    258.1   0.054969634   0.46699  -0.45166  -0.48665   0.16176
  63   38826.5    257.6   0.095884004   0.81301   0.26435   0.44845  -0.73622
  64   39073.7    255.9   0.026933392   0.22693  -0.29709   0.25255   0.27364
  65   39329.1    254.3   0.032893532   0.27534   0.11703   0.50858  -0.05472
  66   39369.1    254.0   0.025151092   0.21032   0.20023  -0.01388   0.41235
  67   39512.0    253.1   0.045773060   0.38138  -0.09290  -0.59894   0.11842
  68   39626.7    252.4   0.003820135   0.03174   0.17065  -0.05059   0.00760
  69   39844.4    251.0   0.117352852   0.96962  -0.65673   0.73350   0.01762
  70   39926.8    250.5   0.005468182   0.04509  -0.17204   0.10304  -0.06980
  71   40042.9    249.7   0.170464653   1.40147  -0.94362  -0.12543  -0.70379
  72   40310.3    248.1   0.062047244   0.50674  -0.41838  -0.37752  -0.43495

FINAL SINGLE POINT ENERGY     -4569.050032958748

DIPOLE MOMENT
-------------
                                X             Y             Z
Electronic contribution:     14.34286      -4.57338       7.38857
Nuclear contribution   :    -16.72945       5.53469      -7.29471
                        -----------------------------------------
Total Dipole Moment    :     -2.38659       0.96132       0.09386
                        -----------------------------------------
Magnitude (a.u.)       :      2.57464
Magnitude (Debye)      :      6.54421

Rotational constants in cm-1:     0.002221     0.000275     0.000259
Rotational constants in MHz :    66.593057     8.242057     7.757595

                             ****ORCA TERMINATED NORMALLY****
TOTAL RUN TIME: 0 days 0 hours 11 minutes 46 seconds 219 msec
