                         Program Version 4.2.0 -  RELEASE  -
|  1> # ORCA input file
|  2> # SCF done       -204.025868477820          0.000500665822
|  3> ! CAM-B3LYP def2-SVP def2/J RIJCOSX Grid4 TightSCF
|  4> %maxcore 5000
|  5> %tddft
|  6>     Mode sTDDFT
|  7>     Ethresh 5.0
|  8>     maxcore 5000
|  9> end
| 10>
| 11> %pal
| 12>   nprocs 6
| 13>   end
| 14> * xyz 0 1
| 15>    C       -0.05211         5.45567         4.51871
| 16>    C        0.67642         6.42640         3.88195
| 17>    C        2.01633         6.73897         4.19418
| 18>    N        3.10223         7.04215         4.40877
| 19>    C        0.21089         7.21512         2.80838
| 20>    N       -0.09191         7.87676         1.92005
| 21>    C        0.44710         4.55899         5.55229
| 22>    C       -0.55088         3.59478         5.83481
| 23>    C       -0.38041         2.60128         6.76829
| 24>    C        0.83473         2.55864         7.45914
| 25>    C        1.82558         3.52966         7.17440
| 26>    C        1.65302         4.53255         6.22855
| 27>    S        3.24477         3.29829         8.14879
| 28>    C        2.50031         1.91910         8.91351
| 29>    C        1.25260         1.64409         8.46378
| 30>   Br        3.43854         0.97595        10.23443
| 31>    C       -1.73963         3.84862         4.99946
| 32>    O       -2.77164         3.21430         5.01617
| 33>    C       -1.42326         5.07550         4.22372
| 34>    C       -2.31013         5.84871         3.52911
| 35>    C       -3.62519         5.53673         3.12266
| 36>    C       -4.26123         4.31738         2.93083
| 37>    C       -5.57299         4.47554         2.50384
| 38>    C       -5.95468         5.82832         2.36901
| 39>    S       -4.68200         6.89641         2.72345
| 40>    C       -7.32102         5.87927         1.99588
| 41>    C       -7.79964         4.55706         1.88567
| 42>    C       -6.71483         3.63485         2.17888
| 43>    C       -6.75810         2.27282         2.14125
| 44>    C       -5.62839         1.46490         2.39691
| 45>    N       -4.71996         0.78955         2.57626
| 46>    C       -7.93913         1.57059         1.81645
| 47>    N       -8.89512         0.99372         1.55643
| 48>    C       -9.15002         4.50142         1.54950
| 49>    C       -9.68668         5.76796         1.41238
| 50>    S       -8.52636         7.04729         1.68438
| 51>    C      -11.03619         6.12589         1.12322
| 52>    N      -11.32516         7.41806         1.07026
| 53>    N      -12.52099         7.86739         0.86189
| 54>    C      -13.57060         7.07793         0.68584
| 55>    C      -13.39351         5.66479         0.69421
| 56>    C      -12.07051         5.16797         0.92028
| 57>    N      -12.02732         3.83896         0.90819
| 58>    S      -13.50733         3.27407         0.63703
| 59>    N      -14.27356         4.68247         0.52397
| 60>    C      -14.83946         7.70491         0.51256
| 61>    C      -16.07444         7.10423         0.35387
| 62>    C      -17.08822         8.05280         0.24433
| 63>    C      -16.60532         9.37558         0.31839
| 64>    S      -14.91317         9.45162         0.52522
| 65>    C      -17.70995        10.25684         0.21046
| 66>    C      -18.88699         9.49589         0.06418
| 67>    C      -18.53231         8.08515         0.08143
| 68>    C      -19.37458         7.01877        -0.02951
| 69>    C      -18.91018         5.68618         0.00751
| 70>    N      -18.54137         4.60115         0.03489
| 71>    C      -20.76760         7.17493        -0.19535
| 72>    N      -21.89790         7.29842        -0.34101
| 73>    C      -20.02581        10.28394        -0.05654
| 74>    C      -19.74049        11.63882         0.03372
| 75>    S      -18.01189        11.93008         0.21584
| 76>    C      -20.68392        12.68316        -0.10805
| 77>    C      -20.58369        14.00109         0.20990
| 78>    C      -19.65650        14.74825         1.03430
| 79>    C      -19.04838        14.29580         2.17607
| 80>    C      -18.24057        15.10042         3.00472
| 81>    N      -17.56413        15.71507         3.69854
| 82>    C      -19.25301        13.00080         2.69490
| 83>    N      -19.43241        11.96749         3.16174
| 84>    C      -19.73444        16.14285         0.61588
| 85>    C      -20.85321        16.29600        -0.24278
| 86>    C      -21.48865        14.98091        -0.45734
| 87>    O      -22.49156        14.72955        -1.08208
| 88>    C      -21.21767        17.51313        -0.76559
| 89>    C      -20.43536        18.62522        -0.43660
| 90>    C      -19.31175        18.45776         0.40937
| 91>    C      -18.94832        17.22921         0.94740
| 92>    S      -18.48142        19.95983         0.67355
| 93>    C      -19.63997        20.78340        -0.33686
| 94>    C      -20.59956        19.97590        -0.84837
| 95>   Br      -19.47113        22.62850        -0.62262
| 96>    H       -1.16002         1.88025         6.95764
| 97>    H        2.43482         5.25216         6.05184
| 98>    H        0.64991         0.83103         8.82520
| 99>    H       -1.99937         6.85733         3.28165
|100>    H       -3.77884         3.37292         3.09749
|101>    H       -9.73509         3.60977         1.41425
|102>    H      -16.19711         6.03654         0.32754
|103>    H      -21.02755         9.91229        -0.17596
|104>    H      -21.59964        12.40602        -0.62315
|105>    H      -22.07927        17.60565        -1.40785
|106>    H      -18.08210        17.14457         1.58284
|107>    H      -21.39106        20.31687        -1.49036
|108> *
|109>
|110>                          ****END OF INPUT****

CARTESIAN COORDINATES (ANGSTROEM)
---------------------------------
  C     -0.052110    5.455670    4.518710
  C      0.676420    6.426400    3.881950
  C      2.016330    6.738970    4.194180
  N      3.102230    7.042150    4.408770
  C      0.210890    7.215120    2.808380
  N     -0.091910    7.876760    1.920050
  C      0.447100    4.558990    5.552290
  C     -0.550880    3.594780    5.834810
  C     -0.380410    2.601280    6.768290
  C      0.834730    2.558640    7.459140
  C      1.825580    3.529660    7.174400
  C      1.653020    4.532550    6.228550
  S      3.244770    3.298290    8.148790
  C      2.500310    1.919100    8.913510
  C      1.252600    1.644090    8.463780
  Br     3.438540    0.975950   10.234430
  C     -1.739630    3.848620    4.999460
  O     -2.771640    3.214300    5.016170
  C     -1.423260    5.075500    4.223720
  C     -2.310130    5.848710    3.529110
  C     -3.625190    5.536730    3.122660
  C     -4.261230    4.317380    2.930830
  C     -5.572990    4.475540    2.503840
  C     -5.954680    5.828320    2.369010
  S     -4.682000    6.896410    2.723450
  C     -7.321020    5.879270    1.995880
  C     -7.799640    4.557060    1.885670
  C     -6.714830    3.634850    2.178880
  C     -6.758100    2.272820    2.141250
  C     -5.628390    1.464900    2.396910
  N     -4.719960    0.789550    2.576260
  C     -7.939130    1.570590    1.816450
  N     -8.895120    0.993720    1.556430
  C     -9.150020    4.501420    1.549500
  C     -9.686680    5.767960    1.412380
  S     -8.526360    7.047290    1.684380
  C    -11.036190    6.125890    1.123220
  N    -11.325160    7.418060    1.070260
  N    -12.520990    7.867390    0.861890
  C    -13.570600    7.077930    0.685840
  C    -13.393510    5.664790    0.694210
  C    -12.070510    5.167970    0.920280
  N    -12.027320    3.838960    0.908190
  S    -13.507330    3.274070    0.637030
  N    -14.273560    4.682470    0.523970
  C    -14.839460    7.704910    0.512560
  C    -16.074440    7.104230    0.353870
  C    -17.088220    8.052800    0.244330
  C    -16.605320    9.375580    0.318390
  S    -14.913170    9.451620    0.525220
  C    -17.709950   10.256840    0.210460
  C    -18.886990    9.495890    0.064180
  C    -18.532310    8.085150    0.081430
  C    -19.374580    7.018770   -0.029510
  C    -18.910180    5.686180    0.007510
  N    -18.541370    4.601150    0.034890
  C    -20.767600    7.174930   -0.195350
  N    -21.897900    7.298420   -0.341010
  C    -20.025810   10.283940   -0.056540
  C    -19.740490   11.638820    0.033720
  S    -18.011890   11.930080    0.215840
  C    -20.683920   12.683160   -0.108050
  C    -20.583690   14.001090    0.209900
  C    -19.656500   14.748250    1.034300
  C    -19.048380   14.295800    2.176070
  C    -18.240570   15.100420    3.004720
  N    -17.564130   15.715070    3.698540
  C    -19.253010   13.000800    2.694900
  N    -19.432410   11.967490    3.161740
  C    -19.734440   16.142850    0.615880
  C    -20.853210   16.296000   -0.242780
  C    -21.488650   14.980910   -0.457340
  O    -22.491560   14.729550   -1.082080
  C    -21.217670   17.513130   -0.765590
  C    -20.435360   18.625220   -0.436600
  C    -19.311750   18.457760    0.409370
  C    -18.948320   17.229210    0.947400
  S    -18.481420   19.959830    0.673550
  C    -19.639970   20.783400   -0.336860
  C    -20.599560   19.975900   -0.848370
  Br   -19.471130   22.628500   -0.622620
  H     -1.160020    1.880250    6.957640
  H      2.434820    5.252160    6.051840
  H      0.649910    0.831030    8.825200
  H     -1.999370    6.857330    3.281650
  H     -3.778840    3.372920    3.097490
  H     -9.735090    3.609770    1.414250
  H    -16.197110    6.036540    0.327540
  H    -21.027550    9.912290   -0.175960
  H    -21.599640   12.406020   -0.623150
  H    -22.079270   17.605650   -1.407850
  H    -18.082100   17.144570    1.582840
  H    -21.391060   20.316870   -1.490360

 Total Charge           Charge          ....    0
 Multiplicity           Mult            ....    1
 Number of Electrons    NEL             ....  642
 Basis Dimension        Dim             .... 1258

ORBITAL ENERGIES
----------------

  NO   OCC          E(Eh)            E(eV)
   0   2.0000    -482.890036    -13140.1059
   1   2.0000    -482.887842    -13140.0462
   2   2.0000     -89.061474     -2423.4859
   3   2.0000     -89.001988     -2421.8672
   4   2.0000     -89.000709     -2421.8324
   5   2.0000     -88.998472     -2421.7715
   6   2.0000     -88.998124     -2421.7621
   7   2.0000     -88.981118     -2421.2993
   8   2.0000     -88.978334     -2421.2236
   9   2.0000     -62.567745     -1702.5549
  10   2.0000     -62.565554     -1702.4953
  11   2.0000     -56.401702     -1534.7683
  12   2.0000     -56.399507     -1534.7086
  13   2.0000     -56.398975     -1534.6941
  14   2.0000     -56.398943     -1534.6933
  15   2.0000     -56.396785     -1534.6345
  16   2.0000     -56.396753     -1534.6337
  17   2.0000     -19.222979      -523.0839
  18   2.0000     -19.221740      -523.0501
  19   2.0000     -14.476006      -393.9121
  20   2.0000     -14.475886      -393.9089
  21   2.0000     -14.463586      -393.5742
  22   2.0000     -14.463477      -393.5712
  23   2.0000     -14.436353      -392.8331
  24   2.0000     -14.436281      -392.8312
  25   2.0000     -14.435571      -392.8119
  26   2.0000     -14.433145      -392.7458
  27   2.0000     -14.423196      -392.4751
  28   2.0000     -14.421913      -392.4402
  29   2.0000     -14.419976      -392.3875
  30   2.0000     -14.418611      -392.3503
  31   2.0000     -10.374779      -282.3121
  32   2.0000     -10.373462      -282.2762
  33   2.0000     -10.372448      -282.2487
  34   2.0000     -10.371495      -282.2227
  35   2.0000     -10.364157      -282.0230
  36   2.0000     -10.361734      -281.9571
  37   2.0000     -10.360356      -281.9196
  38   2.0000     -10.360049      -281.9113
  39   2.0000     -10.359845      -281.9057
  40   2.0000     -10.358359      -281.8653
  41   2.0000     -10.357768      -281.8492
  42   2.0000     -10.357614      -281.8450
  43   2.0000     -10.351858      -281.6884
  44   2.0000     -10.350877      -281.6617
  45   2.0000     -10.349424      -281.6222
  46   2.0000     -10.349339      -281.6198
  47   2.0000     -10.346804      -281.5509
  48   2.0000     -10.345834      -281.5244
  49   2.0000     -10.342666      -281.4383
  50   2.0000     -10.342593      -281.4363
  51   2.0000     -10.336283      -281.2646
  52   2.0000     -10.336234      -281.2632
  53   2.0000     -10.335504      -281.2434
  54   2.0000     -10.335502      -281.2433
  55   2.0000     -10.333253      -281.1821
  56   2.0000     -10.332900      -281.1725
  57   2.0000     -10.332675      -281.1664
  58   2.0000     -10.332605      -281.1645
  59   2.0000     -10.332369      -281.1581
  60   2.0000     -10.332149      -281.1521
  61   2.0000     -10.330908      -281.1183
  62   2.0000     -10.329041      -281.0675
  63   2.0000     -10.325411      -280.9687
  64   2.0000     -10.323710      -280.9224
  65   2.0000     -10.322837      -280.8987
  66   2.0000     -10.321363      -280.8586
  67   2.0000     -10.319180      -280.7992
  68   2.0000     -10.316145      -280.7166
  69   2.0000     -10.315042      -280.6866
  70   2.0000     -10.314486      -280.6714
  71   2.0000     -10.314279      -280.6658
  72   2.0000     -10.313921      -280.6561
  73   2.0000     -10.313680      -280.6495
  74   2.0000     -10.312970      -280.6302
  75   2.0000     -10.312827      -280.6263
  76   2.0000     -10.312103      -280.6066
  77   2.0000     -10.311061      -280.5782
  78   2.0000     -10.311059      -280.5782
  79   2.0000     -10.310820      -280.5717
  80   2.0000     -10.309414      -280.5334
  81   2.0000     -10.307763      -280.4885
  82   2.0000     -10.306916      -280.4654
  83   2.0000     -10.306349      -280.4500
  84   2.0000     -10.304480      -280.3992
  85   2.0000     -10.301742      -280.3247
  86   2.0000     -10.300022      -280.2778
  87   2.0000     -10.299235      -280.2564
  88   2.0000     -10.296366      -280.1784
  89   2.0000      -8.797175      -239.3833
  90   2.0000      -8.794985      -239.3237
  91   2.0000      -8.152853      -221.8504
  92   2.0000      -8.096197      -220.3087
  93   2.0000      -8.095581      -220.2920
  94   2.0000      -8.092239      -220.2010
  95   2.0000      -8.091985      -220.1941
  96   2.0000      -8.077147      -219.7903
  97   2.0000      -8.074413      -219.7160
  98   2.0000      -6.633508      -180.5069
  99   2.0000      -6.631302      -180.4469
 100   2.0000      -6.618886      -180.1090
 101   2.0000      -6.618695      -180.1039
 102   2.0000      -6.616708      -180.0498
 103   2.0000      -6.616510      -180.0444
 104   2.0000      -6.124017      -166.6430
 105   2.0000      -6.116034      -166.4258
 106   2.0000      -6.115528      -166.4120
 107   2.0000      -6.065413      -165.0483
 108   2.0000      -6.064676      -165.0282
 109   2.0000      -6.061519      -164.9423
 110   2.0000      -6.061271      -164.9356
 111   2.0000      -6.061208      -164.9339
 112   2.0000      -6.060563      -164.9163
 113   2.0000      -6.058646      -164.8641
 114   2.0000      -6.058095      -164.8491
 115   2.0000      -6.057132      -164.8229
 116   2.0000      -6.056901      -164.8167
 117   2.0000      -6.054797      -164.7594
 118   2.0000      -6.054491      -164.7511
 119   2.0000      -6.046856      -164.5433
 120   2.0000      -6.044104      -164.4684
 121   2.0000      -6.042538      -164.4258
 122   2.0000      -6.039818      -164.3518
 123   2.0000      -6.038362      -164.3122
 124   2.0000      -6.035606      -164.2372
 125   2.0000      -2.749374       -74.8143
 126   2.0000      -2.747195       -74.7550
 127   2.0000      -2.745282       -74.7029
 128   2.0000      -2.745110       -74.6982
 129   2.0000      -2.743100       -74.6436
 130   2.0000      -2.742883       -74.6376
 131   2.0000      -2.733502       -74.3824
 132   2.0000      -2.733494       -74.3822
 133   2.0000      -2.731327       -74.3232
 134   2.0000      -2.731309       -74.3227
 135   2.0000      -1.165864       -31.7248
 136   2.0000      -1.140773       -31.0420
 137   2.0000      -1.138993       -30.9936
 138   2.0000      -1.137667       -30.9575
 139   2.0000      -1.055714       -28.7274
 140   2.0000      -1.054480       -28.6939
 141   2.0000      -1.030823       -28.0501
 142   2.0000      -1.028801       -27.9951
 143   2.0000      -1.027340       -27.9553
 144   2.0000      -1.026817       -27.9411
 145   2.0000      -1.023061       -27.8389
 146   2.0000      -1.019842       -27.7513
 147   2.0000      -1.017115       -27.6771
 148   2.0000      -1.013779       -27.5863
 149   2.0000      -1.011532       -27.5252
 150   2.0000      -1.008452       -27.4414
 151   2.0000      -1.006414       -27.3859
 152   2.0000      -1.000451       -27.2237
 153   2.0000      -0.998094       -27.1595
 154   2.0000      -0.996735       -27.1225
 155   2.0000      -0.993852       -27.0441
 156   2.0000      -0.975690       -26.5499
 157   2.0000      -0.968925       -26.3658
 158   2.0000      -0.950419       -25.8622
 159   2.0000      -0.949289       -25.8315
 160   2.0000      -0.947083       -25.7714
 161   2.0000      -0.940460       -25.5912
 162   2.0000      -0.924024       -25.1440
 163   2.0000      -0.920955       -25.0605
 164   2.0000      -0.915125       -24.9018
 165   2.0000      -0.912074       -24.8188
 166   2.0000      -0.900715       -24.5097
 167   2.0000      -0.896981       -24.4081
 168   2.0000      -0.892483       -24.2857
 169   2.0000      -0.889374       -24.2011
 170   2.0000      -0.881133       -23.9768
 171   2.0000      -0.878495       -23.9051
 172   2.0000      -0.868911       -23.6443
 173   2.0000      -0.865644       -23.5554
 174   2.0000      -0.863641       -23.5009
 175   2.0000      -0.862366       -23.4662
 176   2.0000      -0.838521       -22.8173
 177   2.0000      -0.835185       -22.7265
 178   2.0000      -0.832630       -22.6570
 179   2.0000      -0.810917       -22.0662
 180   2.0000      -0.802022       -21.8241
 181   2.0000      -0.787228       -21.4216
 182   2.0000      -0.785671       -21.3792
 183   2.0000      -0.780874       -21.2487
 184   2.0000      -0.775368       -21.0988
 185   2.0000      -0.766777       -20.8651
 186   2.0000      -0.764054       -20.7910
 187   2.0000      -0.754492       -20.5308
 188   2.0000      -0.743624       -20.2350
 189   2.0000      -0.726731       -19.7754
 190   2.0000      -0.719092       -19.5675
 191   2.0000      -0.710651       -19.3378
 192   2.0000      -0.709353       -19.3025
 193   2.0000      -0.700325       -19.0568
 194   2.0000      -0.698093       -18.9961
 195   2.0000      -0.695957       -18.9380
 196   2.0000      -0.693907       -18.8822
 197   2.0000      -0.692101       -18.8330
 198   2.0000      -0.686619       -18.6839
 199   2.0000      -0.678374       -18.4595
 200   2.0000      -0.671563       -18.2742
 201   2.0000      -0.664631       -18.0855
 202   2.0000      -0.661632       -18.0039
 203   2.0000      -0.657036       -17.8789
 204   2.0000      -0.646459       -17.5911
 205   2.0000      -0.643917       -17.5219
 206   2.0000      -0.636419       -17.3178
 207   2.0000      -0.631796       -17.1921
 208   2.0000      -0.629617       -17.1328
 209   2.0000      -0.626301       -17.0425
 210   2.0000      -0.625031       -17.0080
 211   2.0000      -0.623576       -16.9684
 212   2.0000      -0.622354       -16.9351
 213   2.0000      -0.607407       -16.5284
 214   2.0000      -0.605744       -16.4831
 215   2.0000      -0.604119       -16.4389
 216   2.0000      -0.594944       -16.1892
 217   2.0000      -0.592279       -16.1167
 218   2.0000      -0.588252       -16.0072
 219   2.0000      -0.585353       -15.9283
 220   2.0000      -0.574952       -15.6452
 221   2.0000      -0.572271       -15.5723
 222   2.0000      -0.558315       -15.1925
 223   2.0000      -0.557350       -15.1663
 224   2.0000      -0.556738       -15.1496
 225   2.0000      -0.554462       -15.0877
 226   2.0000      -0.549564       -14.9544
 227   2.0000      -0.546159       -14.8617
 228   2.0000      -0.545747       -14.8505
 229   2.0000      -0.543768       -14.7967
 230   2.0000      -0.541478       -14.7344
 231   2.0000      -0.538067       -14.6416
 232   2.0000      -0.535655       -14.5759
 233   2.0000      -0.533360       -14.5135
 234   2.0000      -0.531684       -14.4678
 235   2.0000      -0.524028       -14.2595
 236   2.0000      -0.521201       -14.1826
 237   2.0000      -0.520015       -14.1503
 238   2.0000      -0.516791       -14.0626
 239   2.0000      -0.514585       -14.0026
 240   2.0000      -0.513672       -13.9777
 241   2.0000      -0.512990       -13.9592
 242   2.0000      -0.511747       -13.9254
 243   2.0000      -0.511177       -13.9098
 244   2.0000      -0.507378       -13.8065
 245   2.0000      -0.506354       -13.7786
 246   2.0000      -0.504332       -13.7236
 247   2.0000      -0.504248       -13.7213
 248   2.0000      -0.503627       -13.7044
 249   2.0000      -0.497735       -13.5440
 250   2.0000      -0.496895       -13.5212
 251   2.0000      -0.495926       -13.4948
 252   2.0000      -0.494615       -13.4592
 253   2.0000      -0.487465       -13.2646
 254   2.0000      -0.485795       -13.2191
 255   2.0000      -0.481454       -13.1010
 256   2.0000      -0.477781       -13.0011
 257   2.0000      -0.476515       -12.9666
 258   2.0000      -0.467100       -12.7104
 259   2.0000      -0.465927       -12.6785
 260   2.0000      -0.465391       -12.6639
 261   2.0000      -0.463837       -12.6216
 262   2.0000      -0.462728       -12.5915
 263   2.0000      -0.461796       -12.5661
 264   2.0000      -0.460946       -12.5430
 265   2.0000      -0.459210       -12.4957
 266   2.0000      -0.458345       -12.4722
 267   2.0000      -0.455811       -12.4032
 268   2.0000      -0.454970       -12.3804
 269   2.0000      -0.452886       -12.3236
 270   2.0000      -0.452558       -12.3147
 271   2.0000      -0.451033       -12.2732
 272   2.0000      -0.450824       -12.2675
 273   2.0000      -0.449364       -12.2278
 274   2.0000      -0.447926       -12.1887
 275   2.0000      -0.447119       -12.1667
 276   2.0000      -0.446292       -12.1442
 277   2.0000      -0.444838       -12.1046
 278   2.0000      -0.444557       -12.0970
 279   2.0000      -0.443884       -12.0787
 280   2.0000      -0.442535       -12.0420
 281   2.0000      -0.442154       -12.0316
 282   2.0000      -0.436302       -11.8724
 283   2.0000      -0.434660       -11.8277
 284   2.0000      -0.432668       -11.7735
 285   2.0000      -0.431870       -11.7518
 286   2.0000      -0.430723       -11.7206
 287   2.0000      -0.428629       -11.6636
 288   2.0000      -0.427881       -11.6432
 289   2.0000      -0.426455       -11.6044
 290   2.0000      -0.417266       -11.3544
 291   2.0000      -0.416077       -11.3220
 292   2.0000      -0.412402       -11.2220
 293   2.0000      -0.412140       -11.2149
 294   2.0000      -0.410133       -11.1603
 295   2.0000      -0.403497       -10.9797
 296   2.0000      -0.400413       -10.8958
 297   2.0000      -0.400050       -10.8859
 298   2.0000      -0.393401       -10.7050
 299   2.0000      -0.391521       -10.6538
 300   2.0000      -0.388791       -10.5795
 301   2.0000      -0.382806       -10.4167
 302   2.0000      -0.379365       -10.3230
 303   2.0000      -0.377087       -10.2611
 304   2.0000      -0.369746       -10.0613
 305   2.0000      -0.361466        -9.8360
 306   2.0000      -0.358726        -9.7614
 307   2.0000      -0.356120        -9.6905
 308   2.0000      -0.348465        -9.4822
 309   2.0000      -0.345587        -9.4039
 310   2.0000      -0.336874        -9.1668
 311   2.0000      -0.330609        -8.9963
 312   2.0000      -0.328183        -8.9303
 313   2.0000      -0.326402        -8.8819
 314   2.0000      -0.321425        -8.7464
 315   2.0000      -0.319218        -8.6864
 316   2.0000      -0.318215        -8.6591
 317   2.0000      -0.300211        -8.1691
 318   2.0000      -0.297271        -8.0892
 319   2.0000      -0.284146        -7.7320
 320   2.0000      -0.263661        -7.1746
 321   0.0000      -0.127510        -3.4697
 322   0.0000      -0.115934        -3.1547
 323   0.0000      -0.099736        -2.7140
 324   0.0000      -0.092909        -2.5282
 325   0.0000      -0.090403        -2.4600

MULLIKEN ATOMIC CHARGES
-----------------------
   0 C :    0.294324
   1 C :   -0.337348
   2 C :   -0.183570
   3 N :    0.154787
   4 C :   -0.206800
   5 N :    0.158046
   6 C :    0.016599
   7 C :   -0.020397
   8 C :   -0.067873
   9 C :    0.116489
  10 C :   -0.089746
  11 C :   -0.019979
  12 S :    0.188989
  13 C :   -0.122012
  14 C :    0.038706
  15 Br:    0.027369
  16 C :    0.153458
  17 O :   -0.148849
  18 C :   -0.093623
  19 C :    0.027603
  20 C :   -0.112722
  21 C :    0.032445
  22 C :   -0.015192
  23 C :   -0.091849
  24 S :    0.213844
  25 C :   -0.087620
  26 C :    0.015577
  27 C :    0.307483
  28 C :   -0.293803
  29 C :   -0.187513
  30 N :    0.185193
  31 C :   -0.188991
  32 N :    0.175158
  33 C :   -0.055159
  34 C :   -0.123565
  35 S :    0.254484
  36 C :    0.015045
  37 N :   -0.059287
  38 N :   -0.059233
  39 C :    0.015670
  40 C :    0.029552
  41 C :    0.027308
  42 N :   -0.252709
  43 S :    0.575523
  44 N :   -0.253057
  45 C :   -0.127136
  46 C :   -0.053256
  47 C :    0.013507
  48 C :   -0.084603
  49 S :    0.256669
  50 C :   -0.088652
  51 C :    0.028279
  52 C :    0.302283
  53 C :   -0.290856
  54 C :   -0.187098
  55 N :    0.176810
  56 C :   -0.191304
  57 N :    0.177930
  58 C :    0.001457
  59 C :   -0.086698
  60 S :    0.212414
  61 C :    0.040699
  62 C :   -0.129270
  63 C :    0.240873
  64 C :   -0.319256
  65 C :   -0.175409
  66 N :    0.157900
  67 C :   -0.211496
  68 N :    0.175182
  69 C :    0.004043
  70 C :    0.004241
  71 C :    0.136691
  72 O :   -0.139109
  73 C :   -0.069717
  74 C :    0.110498
  75 C :   -0.085376
  76 C :   -0.019879
  77 S :    0.187999
  78 C :   -0.125791
  79 C :    0.042101
  80 Br:    0.027848
  81 H :   -0.006195
  82 H :   -0.003775
  83 H :   -0.001189
  84 H :    0.024901
  85 H :    0.032159
  86 H :    0.020350
  87 H :    0.021747
  88 H :    0.020206
  89 H :    0.034512
  90 H :   -0.005853
  91 H :   -0.001367
  92 H :   -0.000770
Sum of atomic charges:   -0.0000000

LOEWDIN ATOMIC CHARGES
----------------------
   0 C :    0.075078
   1 C :   -0.140127
   2 C :   -0.018813
   3 N :   -0.050560
   4 C :   -0.025519
   5 N :   -0.050885
   6 C :   -0.021542
   7 C :   -0.050639
   8 C :    0.024533
   9 C :   -0.031396
  10 C :   -0.143289
  11 C :   -0.009169
  12 S :    0.434593
  13 C :   -0.270583
  14 C :   -0.069553
  15 Br:    0.139641
  16 C :    0.085097
  17 O :   -0.136186
  18 C :   -0.091988
  19 C :    0.042383
  20 C :   -0.175434
  21 C :    0.022831
  22 C :   -0.069365
  23 C :   -0.163605
  24 S :    0.498808
  25 C :   -0.178131
  26 C :   -0.062561
  27 C :    0.076065
  28 C :   -0.094191
  29 C :   -0.019683
  30 N :   -0.020306
  31 C :   -0.016365
  32 N :   -0.029282
  33 C :   -0.011042
  34 C :   -0.174549
  35 S :    0.525217
  36 C :   -0.026721
  37 N :   -0.062628
  38 N :   -0.063154
  39 C :   -0.026123
  40 C :   -0.054097
  41 C :   -0.054079
  42 N :   -0.262004
  43 S :    0.698397
  44 N :   -0.262166
  45 C :   -0.175156
  46 C :   -0.010185
  47 C :   -0.063200
  48 C :   -0.176070
  49 S :    0.527764
  50 C :   -0.155786
  51 C :   -0.067619
  52 C :    0.078775
  53 C :   -0.096378
  54 C :   -0.016942
  55 N :   -0.028042
  56 C :   -0.017554
  57 N :   -0.026899
  58 C :    0.012703
  59 C :   -0.175422
  60 S :    0.515246
  61 C :    0.049672
  62 C :   -0.097471
  63 C :    0.060767
  64 C :   -0.143942
  65 C :   -0.020984
  66 N :   -0.047347
  67 C :   -0.037824
  68 N :   -0.046162
  69 C :   -0.018616
  70 C :   -0.052632
  71 C :    0.084029
  72 O :   -0.138764
  73 C :    0.024351
  74 C :   -0.032252
  75 C :   -0.142701
  76 C :   -0.011671
  77 S :    0.434450
  78 C :   -0.270760
  79 C :   -0.069614
  80 Br:    0.140211
  81 H :    0.042604
  82 H :    0.041521
  83 H :    0.039755
  84 H :    0.044566
  85 H :    0.045485
  86 H :    0.041831
  87 H :    0.042100
  88 H :    0.047711
  89 H :    0.055870
  90 H :    0.042643
  91 H :    0.041220
  92 H :    0.039809

  Mayer bond orders larger than 0.100000
B(  0-C ,  1-C ) :   1.6411 B(  0-C ,  6-C ) :   1.0067 B(  0-C , 18-C ) :   1.0665
B(  1-C ,  2-C ) :   1.1380 B(  1-C ,  4-C ) :   1.1381 B(  2-C ,  3-N ) :   2.9746
B(  4-C ,  5-N ) :   2.9938 B(  6-C ,  7-C ) :   1.2713 B(  6-C , 11-C ) :   1.4087
B(  7-C ,  8-C ) :   1.4247 B(  7-C , 16-C ) :   0.9473 B(  8-C ,  9-C ) :   1.2459
B(  8-C , 81-H ) :   1.0167 B(  9-C , 10-C ) :   1.3033 B(  9-C , 14-C ) :   1.1640
B( 10-C , 11-C ) :   1.3315 B( 10-C , 12-S ) :   1.0871 B( 11-C , 82-H ) :   0.9801
B( 12-S , 13-C ) :   1.0865 B( 13-C , 14-C ) :   1.6171 B( 13-C , 15-Br) :   1.0215
B( 14-C , 83-H ) :   1.0005 B( 16-C , 17-O ) :   2.1991 B( 16-C , 18-C ) :   0.9420
B( 18-C , 19-C ) :   1.6128 B( 19-C , 20-C ) :   1.1845 B( 19-C , 84-H ) :   0.9267
B( 20-C , 21-C ) :   1.4131 B( 20-C , 24-S ) :   1.0807 B( 21-C , 22-C ) :   1.3330
B( 21-C , 85-H ) :   0.9763 B( 22-C , 23-C ) :   1.3933 B( 22-C , 27-C ) :   0.9911
B( 23-C , 24-S ) :   1.1637 B( 23-C , 25-C ) :   1.1984 B( 25-C , 26-C ) :   1.4267
B( 25-C , 35-S ) :   1.1210 B( 26-C , 27-C ) :   0.9980 B( 26-C , 33-C ) :   1.2686
B( 27-C , 28-C ) :   1.7179 B( 28-C , 29-C ) :   1.1330 B( 28-C , 31-C ) :   1.1378
B( 29-C , 30-N ) :   2.9931 B( 31-C , 32-N ) :   2.9874 B( 33-C , 34-C ) :   1.4805
B( 33-C , 86-H ) :   0.9825 B( 34-C , 35-S ) :   1.0934 B( 34-C , 36-C ) :   1.1624
B( 36-C , 37-N ) :   1.7125 B( 36-C , 39-C ) :   0.1192 B( 36-C , 41-C ) :   1.1246
B( 37-N , 38-N ) :   1.2351 B( 38-N , 39-C ) :   1.7119 B( 39-C , 40-C ) :   1.1255
B( 39-C , 45-C ) :   1.1643 B( 40-C , 41-C ) :   1.1896 B( 40-C , 44-N ) :   1.5484
B( 41-C , 42-N ) :   1.5485 B( 42-N , 43-S ) :   1.2804 B( 42-N , 44-N ) :   0.1410
B( 43-S , 44-N ) :   1.2800 B( 45-C , 46-C ) :   1.4802 B( 45-C , 49-S ) :   1.0931
B( 46-C , 47-C ) :   1.2718 B( 46-C , 87-H ) :   0.9823 B( 47-C , 48-C ) :   1.4224
B( 47-C , 52-C ) :   1.0003 B( 48-C , 49-S ) :   1.1227 B( 48-C , 50-C ) :   1.2067
B( 50-C , 51-C ) :   1.4052 B( 50-C , 60-S ) :   1.1578 B( 51-C , 52-C ) :   0.9902
B( 51-C , 58-C ) :   1.3020 B( 52-C , 53-C ) :   1.7161 B( 53-C , 54-C ) :   1.1367
B( 53-C , 56-C ) :   1.1322 B( 54-C , 55-N ) :   2.9884 B( 56-C , 57-N ) :   2.9929
B( 58-C , 59-C ) :   1.3987 B( 58-C , 88-H ) :   1.0023 B( 59-C , 60-S ) :   1.0906
B( 59-C , 61-C ) :   1.1418 B( 61-C , 62-C ) :   1.6483 B( 61-C , 89-H ) :   0.9447
B( 62-C , 63-C ) :   1.0307 B( 62-C , 71-C ) :   0.9371 B( 63-C , 64-C ) :   1.6554
B( 63-C , 69-C ) :   1.0185 B( 64-C , 65-C ) :   1.1304 B( 64-C , 67-C ) :   1.1541
B( 65-C , 66-N ) :   2.9942 B( 67-C , 68-N ) :   3.0226 B( 69-C , 70-C ) :   1.2745
B( 69-C , 76-C ) :   1.4137 B( 70-C , 71-C ) :   0.9230 B( 70-C , 73-C ) :   1.4244
B( 71-C , 72-O ) :   2.2705 B( 73-C , 74-C ) :   1.2533 B( 73-C , 90-H ) :   1.0166
B( 74-C , 75-C ) :   1.3062 B( 74-C , 79-C ) :   1.1633 B( 75-C , 76-C ) :   1.3272
B( 75-C , 77-S ) :   1.0845 B( 76-C , 91-H ) :   0.9845 B( 77-S , 78-C ) :   1.0877
B( 78-C , 79-C ) :   1.6187 B( 78-C , 80-Br) :   1.0217 B( 79-C , 92-H ) :   1.0001

-----------------------------------------------------------------------------
         ABSORPTION SPECTRUM VIA TRANSITION ELECTRIC DIPOLE MOMENTS
-----------------------------------------------------------------------------
State   Energy  Wavelength   fosc         T2         TX        TY        TZ
        (cm-1)    (nm)                  (au**2)     (au)      (au)      (au)
-----------------------------------------------------------------------------
   0   13644.8    732.9   1.014744308  24.48305   4.33578  -2.25345   0.77848
   1   15133.1    660.8   0.124862750   2.71631   1.34585   0.68540   0.65972
   2   18360.5    544.6   0.852358383  15.28313   3.45865  -1.69890   0.65924
   3   20718.4    482.7   0.003751519   0.05961  -0.19681   0.14148  -0.02932
   4   21385.5    467.6   0.490844020   7.55612  -1.30916  -2.13243  -1.13795
   5   22201.4    450.4   0.091100795   1.35088  -0.04478   1.11741   0.31665
   6   23044.4    433.9   0.355137570   5.07349  -2.12900  -0.06359  -0.73266
   7   24430.6    409.3   0.034131721   0.45994  -0.06897  -0.52872   0.41909
   8   25172.1    397.3   0.059549743   0.77882  -0.06151  -0.82760   0.30018
   9   25563.4    391.2   0.090799640   1.16934   0.26222  -0.69804   0.78315
  10   26958.1    370.9   0.022028411   0.26901  -0.40343   0.18770  -0.26651
  11   27491.4    363.8   0.018344411   0.21968  -0.02515  -0.10736   0.45554
  12   28116.6    355.7   0.041120068   0.48147   0.34592   0.57659   0.17134
  13   28444.8    351.6   0.070120077   0.81155  -0.42961   0.73425  -0.29641
  14   28767.9    347.6   0.044462115   0.50881   0.29097  -0.60779   0.23397
  15   28895.3    346.1   0.126451916   1.44070   0.82511   0.85247   0.18220
  16   29092.6    343.7   0.002230648   0.02524  -0.00253  -0.11280   0.11186
  17   29162.0    342.9   0.341679470   3.85724   0.22132  -1.94367   0.17436
  18   29213.5    342.3   0.051188088   0.57685   0.62594  -0.42125  -0.08714
  19   29294.9    341.4   0.013807254   0.15516  -0.19525   0.05633  -0.33745
  20   29739.6    336.3   0.316385527   3.50233   1.15307  -1.13711   0.93795
  21   30469.6    328.2   0.138050551   1.49158  -0.41848   0.51127  -1.02716
  22   30711.3    325.6   0.007566344   0.08111   0.04997  -0.24872   0.12942
  23   30860.8    324.0   0.560628695   5.98058   0.81278  -1.91471   1.28602
  24   31114.7    321.4   0.106891838   1.13098   0.77810  -0.62373   0.36946
  25   31255.1    319.9   0.366238472   3.85761  -0.20691  -1.95311  -0.01285
  26   31753.8    314.9   0.118879570   1.23250  -0.49888  -0.30131   0.94490
  27   32053.2    312.0   0.226968202   2.33114  -1.39197  -0.43931  -0.44784
  28   32136.7    311.2   0.227408025   2.32959  -0.58960  -1.38179  -0.26946
  29   32257.0    310.0   0.215092830   2.19522   0.60938  -1.18836   0.64163
  30   32567.8    307.1   0.008915322   0.09012  -0.21928  -0.18573   0.08685
  31   32699.4    305.8   0.289691217   2.91656  -1.61828  -0.02707  -0.54498
  32   32860.2    304.3   0.258205608   2.58685   0.93156  -1.30557   0.12049
  33   32948.9    303.5   0.156043996   1.55913   0.00093   1.16671  -0.44489
  34   33494.5    298.6   0.062511844   0.61442  -0.18554   0.73125  -0.21275
  35   33523.0    298.3   0.009690209   0.09516  -0.19717  -0.23386   0.03996
  36   33633.9    297.3   0.009571795   0.09369   0.12821   0.11958   0.25090
  37   34119.6    293.1   0.031407161   0.30304   0.49761   0.20343   0.11848
  38   34545.6    289.5   0.258410701   2.46259  -0.01540  -1.22464   0.98113
  39   34879.9    286.7   0.306903185   2.89669  -1.58559  -0.61514   0.06467
  40   35062.2    285.2   0.169102474   1.58776   0.39509   1.19164  -0.10795
  41   35151.6    284.5   0.019653642   0.18407   0.37249   0.01008   0.21264
  42   35499.4    281.7   0.190424641   1.76595  -0.32168   1.19628  -0.48103
  43   35595.0    280.9   0.056093662   0.51880  -0.07082   0.23405   0.67750
  44   36026.4    277.6   0.092193175   0.84247   0.18487   0.89213  -0.11137
  45   36324.1    275.3   0.020440566   0.18526  -0.28180  -0.31797   0.06886
  46   36575.3    273.4   0.053832477   0.48454  -0.62976   0.21051  -0.20887
  47   36803.6    271.7   0.004839134   0.04329   0.14365   0.15027   0.00834
  48   36919.1    270.9   0.022499544   0.20063   0.22319   0.36217  -0.14018
  49   37351.8    267.7   0.046637266   0.41105   0.60552  -0.15239   0.14550
  50   37434.7    267.1   0.002865520   0.02520   0.14599   0.02315   0.05789
  51   37551.5    266.3   0.003664778   0.03213   0.05770  -0.14508   0.08804
  52   37693.7    265.3   0.001035678   0.00905  -0.02183   0.05035   0.07768
  53   37908.7    263.8   0.217657365   1.89021  -0.95593   0.76261  -0.62836
  54   38051.1    262.8   0.046730747   0.40431  -0.44164  -0.03943  -0.45575
  55   38134.5    262.2   0.006926853   0.05980   0.10644   0.14814  -0.16286
  56   38207.6    261.7   0.001538028   0.01325   0.01765  -0.11371  -0.00329
  57   38389.7    260.5   0.013604665   0.11667  -0.11499   0.31889  -0.04187
  58   38432.3    260.2   0.041437563   0.35495  -0.30953  -0.49788  -0.10613
  59   38702.6    258.4   0.007387570   0.06284  -0.17264   0.08916   0.15839
  60   38884.6    257.2   0.000902999   0.00765   0.00657   0.05149  -0.07036
  61   39145.7    255.5   0.025971272   0.21842  -0.22960  -0.37370  -0.16140
  62   39426.5    253.6   0.018084543   0.15101  -0.17087   0.34495  -0.05310
  63   39462.3    253.4   0.062578502   0.52206   0.19957   0.68356  -0.12237
  64   39780.8    251.4   0.017776351   0.14711   0.36798  -0.10657  -0.01851
  65   39843.1    251.0   0.140066461   1.15733  -1.03693  -0.25570  -0.12931
  66   40018.7    249.9   0.008494140   0.06988   0.08847  -0.24430  -0.04867

FINAL SINGLE POINT ENERGY    -10955.235712970929

DIPOLE MOMENT
-------------
                                X             Y             Z
Electronic contribution:     54.98125      58.16802      45.25587
Nuclear contribution   :    -55.47492     -57.20954     -45.59883
                        -----------------------------------------
Total Dipole Moment    :     -0.49367       0.95848      -0.34296
                        -----------------------------------------
Magnitude (a.u.)       :      1.13138
Magnitude (Debye)      :      2.87573

Rotational constants in cm-1:     0.000808     0.000118     0.000107
Rotational constants in MHz :    24.229639     3.544839     3.202915

                             ****ORCA TERMINATED NORMALLY****
TOTAL RUN TIME: 0 days 0 hours 11 minutes 9 seconds 923 msec
