                         Program Version 4.2.0 -  RELEASE  -
|  1> # ORCA input file
|  2> # SCF done       -211.899313841510          0.000774133184
|  3> ! CAM-B3LYP def2-SVP def2/J RIJCOSX Grid4 TightSCF
|  4> %maxcore 5000
|  5> %tddft
|  6>     Mode sTDDFT
|  7>     Ethresh 5.0
|  8>     maxcore 5000
|  9> end
| 10>
| 11> %pal
| 12>   nprocs 6
| 13>   end
| 14> * xyz 0 1
| 15>    C        7.24888        -5.55183        -6.00853
| 16>    C        8.16622        -6.48192        -6.41026
| 17>    F        9.28101        -6.09772        -7.04521
| 18>    C        7.95339        -7.85295        -6.16224
| 19>    F        8.86905        -8.74245        -6.56847
| 20>    C        6.82678        -8.27483        -5.51323
| 21>    C        5.86461        -7.34041        -5.08376
| 22>    C        6.07671        -5.95426        -5.33752
| 23>    C        5.12441        -4.99719        -4.91737
| 24>    C        3.99908        -5.41264        -4.25593
| 25>    C        3.80214        -6.79828        -3.99713
| 26>    C        4.69742        -7.74681        -4.39925
| 27>    C        2.54668        -6.97419        -3.24645
| 28>    O        2.06423        -8.02963        -2.87878
| 29>    C        2.00955        -5.62501        -3.02764
| 30>    C        2.87016        -4.66943        -3.69980
| 31>    C        2.67695        -3.31802        -3.82278
| 32>    C        1.57452        -2.59442        -3.32148
| 33>    N        0.70967        -1.93504        -2.95142
| 34>    C        3.56566        -2.45217        -4.49528
| 35>    N        4.24842        -1.69533        -5.02284
| 36>    C        0.92457        -5.31862        -2.24842
| 37>    C        0.08305        -6.15036        -1.49224
| 38>    C       -0.89084        -5.61151        -0.64596
| 39>    C       -1.56165        -6.58352         0.06659
| 40>    C       -1.13783        -7.89263        -0.24226
| 41>    S        0.12412        -7.90796        -1.41398
| 42>    C       -1.80161        -8.84743         0.53209
| 43>    C       -2.70670        -8.26354         1.43836
| 44>    S       -2.78457        -6.52944         1.30959
| 45>    C       -3.32477        -9.18019         2.27692
| 46>    C       -2.91063       -10.47475         2.00313
| 47>    S       -1.76016       -10.56689         0.68439
| 48>    C       -3.27162       -11.64942         2.68848
| 49>    C       -2.94125       -12.95749         2.31824
| 50>    C       -3.39674       -13.94876         3.25570
| 51>    N       -3.15936       -15.24571         3.04355
| 52>    C       -2.50108       -15.56204         1.94985
| 53>    C       -2.25003       -17.00802         1.72034
| 54>    O       -2.61012       -17.86348         2.50101
| 55>    C       -1.53169       -17.32614         0.47462
| 56>    C       -1.10940       -16.40167        -0.39386
| 57>    C       -1.30975       -14.95252        -0.21143
| 58>    O       -0.90101       -14.13642        -1.00896
| 59>    C       -2.04812       -14.57240         1.01924
| 60>    N       -2.27159       -13.29141         1.21547
| 61>    C       -4.05603       -13.38832         4.35760
| 62>    S       -4.14185       -11.66114         4.18757
| 63>    C       -4.52701       -14.05902         5.50411
| 64>    C       -4.53668       -15.42755         5.71775
| 65>    C       -4.98871       -15.74008         6.99606
| 66>    C       -5.32228       -14.61520         7.77166
| 67>    S       -5.10165       -13.14965         6.89472
| 68>    C       -5.71480       -14.95885         9.06237
| 69>    C       -5.69134       -16.34806         9.27581
| 70>    S       -5.19057       -17.23539         7.86253
| 71>    C       -6.02021       -16.71240        10.57611
| 72>    C       -6.32478       -15.61840        11.37006
| 73>    S       -6.17098       -14.10532        10.48190
| 74>    C       -6.56955       -15.65624        12.76169
| 75>    C       -7.00791       -14.66412        13.58428
| 76>    C       -6.67272       -14.70767        15.03505
| 77>    O       -6.28861       -15.66491        15.66416
| 78>    C       -6.83749       -13.31458        15.50332
| 79>    C       -6.51062       -12.77025        16.71176
| 80>    C       -6.71450       -11.38722        16.91975
| 81>    C       -7.25644       -10.59198        15.86807
| 82>    C       -7.44395        -9.21129        16.07939
| 83>    C       -7.11148        -8.64640        17.27851
| 84>    C       -6.57796        -9.43376        18.31873
| 85>    C       -6.38409       -10.77547        18.14482
| 86>    F       -6.25896        -8.85291        19.48298
| 87>    F       -7.28841        -7.33373        17.47648
| 88>    C       -7.59889       -11.18550        14.63150
| 89>    C       -7.39401       -12.52693        14.45475
| 90>    C       -7.65948       -13.40024        13.31604
| 91>    C       -8.58247       -13.16836        12.33113
| 92>    C       -8.99840       -14.16911        11.42770
| 93>    N       -9.38393       -14.98077        10.71386
| 94>    C       -9.27432       -11.95014        12.18131
| 95>    N       -9.84650       -10.96875        12.01792
| 96>    H        7.42666        -4.50635        -6.20697
| 97>    H        6.67898        -9.32762        -5.33017
| 98>    H        5.31635        -3.95707        -5.12447
| 99>    H        4.52046        -8.79120        -4.19190
|100>    H        0.67876        -4.26846        -2.14597
|101>    H       -1.06680        -4.55459        -0.55985
|102>    H       -4.03316        -8.93736         3.04767
|103>    H       -1.36032       -18.38023         0.30248
|104>    H       -0.58221       -16.67817        -1.29706
|105>    H       -4.21127       -16.13084         4.97330
|106>    H       -6.05200       -17.72367        10.93766
|107>    H       -6.25699       -16.56843        13.26109
|108>    H       -6.09682       -13.38388        17.49739
|109>    H       -7.85449        -8.59514        15.29472
|110>    H       -5.97440       -11.36375        18.95093
|111>    H       -7.99993       -10.56332        13.84705
|112> *
|113>
|114>                          ****END OF INPUT****

CARTESIAN COORDINATES (ANGSTROEM)
---------------------------------
  C      7.248880   -5.551830   -6.008530
  C      8.166220   -6.481920   -6.410260
  F      9.281010   -6.097720   -7.045210
  C      7.953390   -7.852950   -6.162240
  F      8.869050   -8.742450   -6.568470
  C      6.826780   -8.274830   -5.513230
  C      5.864610   -7.340410   -5.083760
  C      6.076710   -5.954260   -5.337520
  C      5.124410   -4.997190   -4.917370
  C      3.999080   -5.412640   -4.255930
  C      3.802140   -6.798280   -3.997130
  C      4.697420   -7.746810   -4.399250
  C      2.546680   -6.974190   -3.246450
  O      2.064230   -8.029630   -2.878780
  C      2.009550   -5.625010   -3.027640
  C      2.870160   -4.669430   -3.699800
  C      2.676950   -3.318020   -3.822780
  C      1.574520   -2.594420   -3.321480
  N      0.709670   -1.935040   -2.951420
  C      3.565660   -2.452170   -4.495280
  N      4.248420   -1.695330   -5.022840
  C      0.924570   -5.318620   -2.248420
  C      0.083050   -6.150360   -1.492240
  C     -0.890840   -5.611510   -0.645960
  C     -1.561650   -6.583520    0.066590
  C     -1.137830   -7.892630   -0.242260
  S      0.124120   -7.907960   -1.413980
  C     -1.801610   -8.847430    0.532090
  C     -2.706700   -8.263540    1.438360
  S     -2.784570   -6.529440    1.309590
  C     -3.324770   -9.180190    2.276920
  C     -2.910630  -10.474750    2.003130
  S     -1.760160  -10.566890    0.684390
  C     -3.271620  -11.649420    2.688480
  C     -2.941250  -12.957490    2.318240
  C     -3.396740  -13.948760    3.255700
  N     -3.159360  -15.245710    3.043550
  C     -2.501080  -15.562040    1.949850
  C     -2.250030  -17.008020    1.720340
  O     -2.610120  -17.863480    2.501010
  C     -1.531690  -17.326140    0.474620
  C     -1.109400  -16.401670   -0.393860
  C     -1.309750  -14.952520   -0.211430
  O     -0.901010  -14.136420   -1.008960
  C     -2.048120  -14.572400    1.019240
  N     -2.271590  -13.291410    1.215470
  C     -4.056030  -13.388320    4.357600
  S     -4.141850  -11.661140    4.187570
  C     -4.527010  -14.059020    5.504110
  C     -4.536680  -15.427550    5.717750
  C     -4.988710  -15.740080    6.996060
  C     -5.322280  -14.615200    7.771660
  S     -5.101650  -13.149650    6.894720
  C     -5.714800  -14.958850    9.062370
  C     -5.691340  -16.348060    9.275810
  S     -5.190570  -17.235390    7.862530
  C     -6.020210  -16.712400   10.576110
  C     -6.324780  -15.618400   11.370060
  S     -6.170980  -14.105320   10.481900
  C     -6.569550  -15.656240   12.761690
  C     -7.007910  -14.664120   13.584280
  C     -6.672720  -14.707670   15.035050
  O     -6.288610  -15.664910   15.664160
  C     -6.837490  -13.314580   15.503320
  C     -6.510620  -12.770250   16.711760
  C     -6.714500  -11.387220   16.919750
  C     -7.256440  -10.591980   15.868070
  C     -7.443950   -9.211290   16.079390
  C     -7.111480   -8.646400   17.278510
  C     -6.577960   -9.433760   18.318730
  C     -6.384090  -10.775470   18.144820
  F     -6.258960   -8.852910   19.482980
  F     -7.288410   -7.333730   17.476480
  C     -7.598890  -11.185500   14.631500
  C     -7.394010  -12.526930   14.454750
  C     -7.659480  -13.400240   13.316040
  C     -8.582470  -13.168360   12.331130
  C     -8.998400  -14.169110   11.427700
  N     -9.383930  -14.980770   10.713860
  C     -9.274320  -11.950140   12.181310
  N     -9.846500  -10.968750   12.017920
  H      7.426660   -4.506350   -6.206970
  H      6.678980   -9.327620   -5.330170
  H      5.316350   -3.957070   -5.124470
  H      4.520460   -8.791200   -4.191900
  H      0.678760   -4.268460   -2.145970
  H     -1.066800   -4.554590   -0.559850
  H     -4.033160   -8.937360    3.047670
  H     -1.360320  -18.380230    0.302480
  H     -0.582210  -16.678170   -1.297060
  H     -4.211270  -16.130840    4.973300
  H     -6.052000  -17.723670   10.937660
  H     -6.256990  -16.568430   13.261090
  H     -6.096820  -13.383880   17.497390
  H     -7.854490   -8.595140   15.294720
  H     -5.974400  -11.363750   18.950930
  H     -7.999930  -10.563320   13.847050

 Total Charge           Charge          ....    0
 Multiplicity           Mult            ....    1
 Number of Electrons    NEL             ....  598
 Basis Dimension        Dim             .... 1242

ORBITAL ENERGIES
----------------

  NO   OCC          E(Eh)            E(eV)
   0   2.0000     -89.007567     -2422.0190
   1   2.0000     -88.982594     -2421.3395
   2   2.0000     -88.979491     -2421.2550
   3   2.0000     -88.975348     -2421.1423
   4   2.0000     -88.974667     -2421.1238
   5   2.0000     -88.970652     -2421.0145
   6   2.0000     -88.969697     -2420.9885
   7   2.0000     -24.799371      -674.8252
   8   2.0000     -24.798922      -674.8130
   9   2.0000     -24.798765      -674.8087
  10   2.0000     -24.797466      -674.7734
  11   2.0000     -19.235304      -523.4192
  12   2.0000     -19.233793      -523.3781
  13   2.0000     -19.222938      -523.0827
  14   2.0000     -19.217384      -522.9316
  15   2.0000     -14.459434      -393.4612
  16   2.0000     -14.458136      -393.4259
  17   2.0000     -14.419081      -392.3631
  18   2.0000     -14.418181      -392.3386
  19   2.0000     -14.414961      -392.2510
  20   2.0000     -14.414563      -392.2402
  21   2.0000     -10.384246      -282.5697
  22   2.0000     -10.383491      -282.5491
  23   2.0000     -10.382575      -282.5242
  24   2.0000     -10.382192      -282.5138
  25   2.0000     -10.381630      -282.4985
  26   2.0000     -10.380777      -282.4753
  27   2.0000     -10.371143      -282.2132
  28   2.0000     -10.369835      -282.1776
  29   2.0000     -10.350480      -281.6509
  30   2.0000     -10.349908      -281.6353
  31   2.0000     -10.346587      -281.5450
  32   2.0000     -10.344668      -281.4927
  33   2.0000     -10.344287      -281.4823
  34   2.0000     -10.343021      -281.4479
  35   2.0000     -10.342882      -281.4441
  36   2.0000     -10.342661      -281.4381
  37   2.0000     -10.341746      -281.4132
  38   2.0000     -10.341702      -281.4120
  39   2.0000     -10.336112      -281.2599
  40   2.0000     -10.334085      -281.2047
  41   2.0000     -10.331354      -281.1304
  42   2.0000     -10.327515      -281.0260
  43   2.0000     -10.327387      -281.0225
  44   2.0000     -10.326182      -280.9897
  45   2.0000     -10.325680      -280.9760
  46   2.0000     -10.324442      -280.9423
  47   2.0000     -10.322148      -280.8799
  48   2.0000     -10.322059      -280.8775
  49   2.0000     -10.321431      -280.8604
  50   2.0000     -10.321274      -280.8561
  51   2.0000     -10.321195      -280.8540
  52   2.0000     -10.318872      -280.7908
  53   2.0000     -10.317909      -280.7646
  54   2.0000     -10.317220      -280.7458
  55   2.0000     -10.316805      -280.7345
  56   2.0000     -10.316591      -280.7287
  57   2.0000     -10.315878      -280.7093
  58   2.0000     -10.315637      -280.7028
  59   2.0000     -10.313103      -280.6338
  60   2.0000     -10.312241      -280.6104
  61   2.0000     -10.311801      -280.5984
  62   2.0000     -10.310616      -280.5661
  63   2.0000     -10.310265      -280.5566
  64   2.0000     -10.309867      -280.5458
  65   2.0000     -10.307439      -280.4797
  66   2.0000     -10.306966      -280.4668
  67   2.0000     -10.304451      -280.3984
  68   2.0000     -10.304205      -280.3917
  69   2.0000     -10.304117      -280.3893
  70   2.0000     -10.303025      -280.3596
  71   2.0000     -10.302441      -280.3437
  72   2.0000     -10.302224      -280.3378
  73   2.0000     -10.301702      -280.3236
  74   2.0000     -10.301379      -280.3148
  75   2.0000     -10.300514      -280.2912
  76   2.0000     -10.300337      -280.2864
  77   2.0000     -10.299889      -280.2742
  78   2.0000     -10.298427      -280.2345
  79   2.0000     -10.295940      -280.1668
  80   2.0000     -10.293773      -280.1078
  81   2.0000      -8.102198      -220.4720
  82   2.0000      -8.077951      -219.8122
  83   2.0000      -8.074271      -219.7121
  84   2.0000      -8.070499      -219.6094
  85   2.0000      -8.068596      -219.5577
  86   2.0000      -8.064961      -219.4588
  87   2.0000      -8.063536      -219.4200
  88   2.0000      -6.071241      -165.2069
  89   2.0000      -6.067127      -165.0949
  90   2.0000      -6.064891      -165.0341
  91   2.0000      -6.047595      -164.5634
  92   2.0000      -6.043891      -164.4626
  93   2.0000      -6.043481      -164.4515
  94   2.0000      -6.040275      -164.3642
  95   2.0000      -6.039750      -164.3500
  96   2.0000      -6.039319      -164.3382
  97   2.0000      -6.038269      -164.3097
  98   2.0000      -6.036357      -164.2576
  99   2.0000      -6.035746      -164.2410
 100   2.0000      -6.034757      -164.2141
 101   2.0000      -6.033933      -164.1917
 102   2.0000      -6.033271      -164.1736
 103   2.0000      -6.031396      -164.1226
 104   2.0000      -6.030895      -164.1090
 105   2.0000      -6.030143      -164.0885
 106   2.0000      -6.028669      -164.0484
 107   2.0000      -6.025801      -163.9704
 108   2.0000      -6.025230      -163.9548
 109   2.0000      -1.322161       -35.9778
 110   2.0000      -1.321114       -35.9493
 111   2.0000      -1.307312       -35.5738
 112   2.0000      -1.306219       -35.5440
 113   2.0000      -1.152083       -31.3498
 114   2.0000      -1.147377       -31.2217
 115   2.0000      -1.138936       -30.9920
 116   2.0000      -1.133321       -30.8392
 117   2.0000      -1.109804       -30.1993
 118   2.0000      -1.040464       -28.3125
 119   2.0000      -1.037714       -28.2376
 120   2.0000      -1.031396       -28.0657
 121   2.0000      -1.022629       -27.8272
 122   2.0000      -1.020571       -27.7711
 123   2.0000      -1.017804       -27.6959
 124   2.0000      -1.005433       -27.3592
 125   2.0000      -1.005140       -27.3513
 126   2.0000      -0.998980       -27.1836
 127   2.0000      -0.995137       -27.0790
 128   2.0000      -0.994306       -27.0565
 129   2.0000      -0.988901       -26.9094
 130   2.0000      -0.982749       -26.7419
 131   2.0000      -0.981291       -26.7023
 132   2.0000      -0.950484       -25.8640
 133   2.0000      -0.947267       -25.7764
 134   2.0000      -0.941462       -25.6185
 135   2.0000      -0.931593       -25.3499
 136   2.0000      -0.929459       -25.2919
 137   2.0000      -0.906857       -24.6768
 138   2.0000      -0.904443       -24.6111
 139   2.0000      -0.896430       -24.3931
 140   2.0000      -0.894391       -24.3376
 141   2.0000      -0.893000       -24.2998
 142   2.0000      -0.886653       -24.1271
 143   2.0000      -0.884629       -24.0720
 144   2.0000      -0.882073       -24.0024
 145   2.0000      -0.869086       -23.6490
 146   2.0000      -0.857275       -23.3276
 147   2.0000      -0.853184       -23.2163
 148   2.0000      -0.848884       -23.0993
 149   2.0000      -0.842240       -22.9185
 150   2.0000      -0.840825       -22.8800
 151   2.0000      -0.825826       -22.4719
 152   2.0000      -0.818840       -22.2818
 153   2.0000      -0.811546       -22.0833
 154   2.0000      -0.805461       -21.9177
 155   2.0000      -0.801189       -21.8015
 156   2.0000      -0.795570       -21.6486
 157   2.0000      -0.789140       -21.4736
 158   2.0000      -0.773538       -21.0490
 159   2.0000      -0.768880       -20.9223
 160   2.0000      -0.767249       -20.8779
 161   2.0000      -0.754169       -20.5220
 162   2.0000      -0.752450       -20.4752
 163   2.0000      -0.734360       -19.9830
 164   2.0000      -0.729092       -19.8396
 165   2.0000      -0.719481       -19.5781
 166   2.0000      -0.716931       -19.5087
 167   2.0000      -0.708771       -19.2866
 168   2.0000      -0.700848       -19.0711
 169   2.0000      -0.690296       -18.7839
 170   2.0000      -0.686886       -18.6911
 171   2.0000      -0.686620       -18.6839
 172   2.0000      -0.679273       -18.4840
 173   2.0000      -0.675071       -18.3696
 174   2.0000      -0.671768       -18.2797
 175   2.0000      -0.667283       -18.1577
 176   2.0000      -0.662683       -18.0325
 177   2.0000      -0.660616       -17.9763
 178   2.0000      -0.655835       -17.8462
 179   2.0000      -0.653699       -17.7881
 180   2.0000      -0.646679       -17.5970
 181   2.0000      -0.644000       -17.5241
 182   2.0000      -0.642919       -17.4947
 183   2.0000      -0.639675       -17.4064
 184   2.0000      -0.633907       -17.2495
 185   2.0000      -0.629727       -17.1357
 186   2.0000      -0.623316       -16.9613
 187   2.0000      -0.618177       -16.8214
 188   2.0000      -0.615964       -16.7612
 189   2.0000      -0.613881       -16.7045
 190   2.0000      -0.605602       -16.4793
 191   2.0000      -0.594412       -16.1748
 192   2.0000      -0.592234       -16.1155
 193   2.0000      -0.590162       -16.0591
 194   2.0000      -0.586651       -15.9636
 195   2.0000      -0.585893       -15.9430
 196   2.0000      -0.585633       -15.9359
 197   2.0000      -0.580161       -15.7870
 198   2.0000      -0.577524       -15.7152
 199   2.0000      -0.576340       -15.6830
 200   2.0000      -0.572253       -15.5718
 201   2.0000      -0.570699       -15.5295
 202   2.0000      -0.567967       -15.4552
 203   2.0000      -0.559526       -15.2255
 204   2.0000      -0.556572       -15.1451
 205   2.0000      -0.555521       -15.1165
 206   2.0000      -0.553873       -15.0716
 207   2.0000      -0.548294       -14.9198
 208   2.0000      -0.548223       -14.9179
 209   2.0000      -0.547310       -14.8931
 210   2.0000      -0.542678       -14.7670
 211   2.0000      -0.541308       -14.7297
 212   2.0000      -0.539085       -14.6692
 213   2.0000      -0.538437       -14.6516
 214   2.0000      -0.537949       -14.6383
 215   2.0000      -0.533965       -14.5299
 216   2.0000      -0.533353       -14.5133
 217   2.0000      -0.532604       -14.4929
 218   2.0000      -0.531324       -14.4581
 219   2.0000      -0.529402       -14.4058
 220   2.0000      -0.525765       -14.3068
 221   2.0000      -0.523830       -14.2541
 222   2.0000      -0.522795       -14.2260
 223   2.0000      -0.518251       -14.1023
 224   2.0000      -0.516917       -14.0660
 225   2.0000      -0.515836       -14.0366
 226   2.0000      -0.514714       -14.0061
 227   2.0000      -0.507599       -13.8125
 228   2.0000      -0.506596       -13.7852
 229   2.0000      -0.504909       -13.7393
 230   2.0000      -0.504240       -13.7211
 231   2.0000      -0.499907       -13.6032
 232   2.0000      -0.499265       -13.5857
 233   2.0000      -0.498313       -13.5598
 234   2.0000      -0.494870       -13.4661
 235   2.0000      -0.492285       -13.3958
 236   2.0000      -0.490875       -13.3574
 237   2.0000      -0.488711       -13.2985
 238   2.0000      -0.486126       -13.2282
 239   2.0000      -0.483484       -13.1563
 240   2.0000      -0.481961       -13.1148
 241   2.0000      -0.480854       -13.0847
 242   2.0000      -0.474932       -12.9236
 243   2.0000      -0.470666       -12.8075
 244   2.0000      -0.468673       -12.7532
 245   2.0000      -0.467118       -12.7109
 246   2.0000      -0.465216       -12.6592
 247   2.0000      -0.463858       -12.6222
 248   2.0000      -0.462535       -12.5862
 249   2.0000      -0.458688       -12.4815
 250   2.0000      -0.454694       -12.3728
 251   2.0000      -0.452798       -12.3213
 252   2.0000      -0.450700       -12.2642
 253   2.0000      -0.450693       -12.2640
 254   2.0000      -0.447257       -12.1705
 255   2.0000      -0.447163       -12.1679
 256   2.0000      -0.444416       -12.0932
 257   2.0000      -0.444185       -12.0869
 258   2.0000      -0.438648       -11.9362
 259   2.0000      -0.437357       -11.9011
 260   2.0000      -0.432984       -11.7821
 261   2.0000      -0.432573       -11.7709
 262   2.0000      -0.430073       -11.7029
 263   2.0000      -0.428945       -11.6722
 264   2.0000      -0.428556       -11.6616
 265   2.0000      -0.428267       -11.6537
 266   2.0000      -0.425711       -11.5842
 267   2.0000      -0.422159       -11.4875
 268   2.0000      -0.419394       -11.4123
 269   2.0000      -0.412070       -11.2130
 270   2.0000      -0.409510       -11.1433
 271   2.0000      -0.406859       -11.0712
 272   2.0000      -0.406328       -11.0567
 273   2.0000      -0.399124       -10.8607
 274   2.0000      -0.398967       -10.8564
 275   2.0000      -0.391169       -10.6442
 276   2.0000      -0.388746       -10.5783
 277   2.0000      -0.382755       -10.4153
 278   2.0000      -0.380510       -10.3542
 279   2.0000      -0.374091       -10.1795
 280   2.0000      -0.371764       -10.1162
 281   2.0000      -0.358881        -9.7657
 282   2.0000      -0.358526        -9.7560
 283   2.0000      -0.354785        -9.6542
 284   2.0000      -0.349792        -9.5183
 285   2.0000      -0.346218        -9.4211
 286   2.0000      -0.343666        -9.3516
 287   2.0000      -0.341880        -9.3030
 288   2.0000      -0.337596        -9.1864
 289   2.0000      -0.334830        -9.1112
 290   2.0000      -0.319136        -8.6841
 291   2.0000      -0.318618        -8.6700
 292   2.0000      -0.309905        -8.4330
 293   2.0000      -0.303039        -8.2461
 294   2.0000      -0.301038        -8.1917
 295   2.0000      -0.298128        -8.1125
 296   2.0000      -0.293896        -7.9973
 297   2.0000      -0.275391        -7.4938
 298   2.0000      -0.242231        -6.5915
 299   0.0000      -0.119409        -3.2493
 300   0.0000      -0.101750        -2.7688
 301   0.0000      -0.091846        -2.4993
 302   0.0000      -0.089290        -2.4297
 303   0.0000      -0.061633        -1.6771

MULLIKEN ATOMIC CHARGES
-----------------------
   0 C :   -0.113910
   1 C :    0.245148
   2 F :   -0.171215
   3 C :    0.240410
   4 F :   -0.171513
   5 C :   -0.110478
   6 C :    0.120671
   7 C :    0.118852
   8 C :   -0.090143
   9 C :    0.047518
  10 C :    0.001173
  11 C :   -0.087768
  12 C :    0.168203
  13 O :   -0.175452
  14 C :   -0.098226
  15 C :    0.329981
  16 C :   -0.356392
  17 C :   -0.189137
  18 N :    0.144353
  19 C :   -0.184196
  20 N :    0.147584
  21 C :   -0.023154
  22 C :   -0.053296
  23 C :   -0.052509
  24 C :    0.003903
  25 C :   -0.056313
  26 S :    0.219313
  27 C :   -0.078432
  28 C :   -0.001375
  29 S :    0.163663
  30 C :   -0.080467
  31 C :   -0.069056
  32 S :    0.222533
  33 C :   -0.113297
  34 C :    0.011892
  35 C :    0.033554
  36 N :    0.062559
  37 C :   -0.116364
  38 C :    0.144823
  39 O :   -0.108156
  40 C :   -0.017039
  41 C :   -0.016911
  42 C :    0.142391
  43 O :   -0.099720
  44 C :   -0.119918
  45 N :    0.047923
  46 C :   -0.114206
  47 S :    0.213382
  48 C :   -0.084857
  49 C :   -0.052767
  50 C :   -0.011805
  51 C :   -0.067655
  52 S :    0.151265
  53 C :   -0.061341
  54 C :   -0.015302
  55 S :    0.185244
  56 C :   -0.001685
  57 C :   -0.079019
  58 S :    0.166873
  59 C :    0.050724
  60 C :   -0.142194
  61 C :    0.144774
  62 O :   -0.141032
  63 C :    0.014451
  64 C :   -0.084262
  65 C :    0.112240
  66 C :    0.111694
  67 C :   -0.106659
  68 C :    0.241308
  69 C :    0.238304
  70 C :   -0.102829
  71 F :   -0.171830
  72 F :   -0.170874
  73 C :   -0.080531
  74 C :    0.039670
  75 C :    0.239878
  76 C :   -0.311267
  77 C :   -0.209214
  78 N :    0.175034
  79 C :   -0.174691
  80 N :    0.152352
  81 H :    0.007980
  82 H :   -0.000721
  83 H :   -0.006615
  84 H :   -0.009742
  85 H :    0.011543
  86 H :    0.010463
  87 H :   -0.006142
  88 H :    0.019483
  89 H :    0.019308
  90 H :    0.017222
  91 H :    0.003918
  92 H :    0.025691
  93 H :   -0.008626
  94 H :    0.004317
  95 H :    0.000354
  96 H :   -0.003619
Sum of atomic charges:   -0.0000000

LOEWDIN ATOMIC CHARGES
----------------------
   0 C :   -0.029188
   1 C :    0.066280
   2 F :   -0.048948
   3 C :    0.067128
   4 F :   -0.049503
   5 C :   -0.033617
   6 C :   -0.009000
   7 C :   -0.006674
   8 C :    0.017459
   9 C :   -0.021866
  10 C :   -0.051179
  11 C :    0.029164
  12 C :    0.083811
  13 O :   -0.164318
  14 C :   -0.112278
  15 C :    0.077253
  16 C :   -0.144639
  17 C :   -0.021167
  18 N :   -0.055502
  19 C :   -0.017718
  20 N :   -0.056144
  21 C :    0.057793
  22 C :   -0.177864
  23 C :   -0.022815
  24 C :   -0.194960
  25 C :   -0.201292
  26 S :    0.501661
  27 C :   -0.221062
  28 C :   -0.176802
  29 S :    0.404049
  30 C :   -0.068837
  31 C :   -0.170933
  32 S :    0.488279
  33 C :   -0.188758
  34 C :   -0.051664
  35 C :   -0.043004
  36 N :    0.008129
  37 C :   -0.040535
  38 C :    0.056705
  39 O :   -0.103401
  40 C :   -0.012919
  41 C :   -0.010423
  42 C :    0.055282
  43 O :   -0.097104
  44 C :   -0.039569
  45 N :   -0.003765
  46 C :   -0.188092
  47 S :    0.509641
  48 C :   -0.173424
  49 C :   -0.041140
  50 C :   -0.176845
  51 C :   -0.214286
  52 S :    0.420812
  53 C :   -0.192796
  54 C :   -0.192710
  55 S :    0.427115
  56 C :   -0.015296
  57 C :   -0.171066
  58 S :    0.460261
  59 C :    0.052088
  60 C :   -0.101085
  61 C :    0.083265
  62 O :   -0.142791
  63 C :   -0.053165
  64 C :    0.030096
  65 C :   -0.009635
  66 C :   -0.005724
  67 C :   -0.030812
  68 C :    0.066906
  69 C :    0.066538
  70 C :   -0.032793
  71 F :   -0.049398
  72 F :   -0.048710
  73 C :    0.012908
  74 C :   -0.019187
  75 C :    0.057776
  76 C :   -0.141604
  77 C :   -0.037910
  78 N :   -0.044845
  79 C :   -0.019486
  80 N :   -0.051099
  81 H :    0.047858
  82 H :    0.044628
  83 H :    0.039963
  84 H :    0.040368
  85 H :    0.051250
  86 H :    0.042568
  87 H :    0.031895
  88 H :    0.046471
  89 H :    0.046602
  90 H :    0.042181
  91 H :    0.042481
  92 H :    0.052590
  93 H :    0.040760
  94 H :    0.046818
  95 H :    0.045005
  96 H :    0.039509

  Mayer bond orders larger than 0.100000
B(  0-C ,  1-C ) :   1.4386 B(  0-C ,  5-C ) :   0.1089 B(  0-C ,  7-C ) :   1.1879
B(  0-C , 81-H ) :   1.0080 B(  1-C ,  2-F ) :   1.1340 B(  1-C ,  3-C ) :   1.1922
B(  3-C ,  4-F ) :   1.1341 B(  3-C ,  5-C ) :   1.4414 B(  5-C ,  6-C ) :   1.1908
B(  5-C , 82-H ) :   1.0083 B(  6-C ,  7-C ) :   1.2583 B(  6-C , 11-C ) :   1.1843
B(  7-C ,  8-C ) :   1.2111 B(  8-C ,  9-C ) :   1.4538 B(  8-C , 83-H ) :   0.9909
B(  9-C , 10-C ) :   1.2218 B(  9-C , 15-C ) :   0.9800 B( 10-C , 11-C ) :   1.4686
B( 10-C , 12-C ) :   0.9534 B( 11-C , 84-H ) :   1.0181 B( 12-C , 13-O ) :   2.1368
B( 12-C , 14-C ) :   0.9790 B( 14-C , 15-C ) :   1.0849 B( 14-C , 21-C ) :   1.4832
B( 15-C , 16-C ) :   1.6205 B( 16-C , 17-C ) :   1.1436 B( 16-C , 19-C ) :   1.1485
B( 17-C , 18-N ) :   2.9615 B( 19-C , 20-N ) :   2.9613 B( 21-C , 22-C ) :   1.2789
B( 21-C , 85-H ) :   0.9406 B( 22-C , 23-C ) :   1.3596 B( 22-C , 26-S ) :   1.0713
B( 23-C , 24-C ) :   1.3378 B( 23-C , 86-H ) :   1.0124 B( 24-C , 25-C ) :   1.3716
B( 24-C , 29-S ) :   1.0324 B( 25-C , 26-S ) :   1.0642 B( 25-C , 27-C ) :   1.3277
B( 27-C , 28-C ) :   1.4209 B( 27-C , 32-S ) :   1.0485 B( 28-C , 29-S ) :   1.0480
B( 28-C , 30-C ) :   1.3051 B( 30-C , 31-C ) :   1.4307 B( 30-C , 87-H ) :   1.0016
B( 31-C , 32-S ) :   1.1206 B( 31-C , 33-C ) :   1.2307 B( 33-C , 34-C ) :   1.3206
B( 33-C , 46-C ) :   0.1312 B( 33-C , 47-S ) :   1.1598 B( 34-C , 35-C ) :   1.1844
B( 34-C , 45-N ) :   1.4266 B( 35-C , 36-N ) :   1.4368 B( 35-C , 46-C ) :   1.3639
B( 36-N , 37-C ) :   1.7141 B( 37-C , 38-C ) :   0.8955 B( 37-C , 44-C ) :   1.0969
B( 38-C , 39-O ) :   2.2298 B( 38-C , 40-C ) :   1.0289 B( 40-C , 41-C ) :   1.6781
B( 40-C , 88-H ) :   0.9991 B( 41-C , 42-C ) :   1.0197 B( 41-C , 89-H ) :   0.9982
B( 42-C , 43-O ) :   2.2538 B( 42-C , 44-C ) :   0.8939 B( 44-C , 45-N ) :   1.7056
B( 46-C , 47-S ) :   1.1604 B( 46-C , 48-C ) :   1.1934 B( 48-C , 49-C ) :   1.5095
B( 48-C , 52-S ) :   1.0733 B( 49-C , 50-C ) :   1.2512 B( 49-C , 90-H ) :   0.9927
B( 50-C , 51-C ) :   1.4274 B( 50-C , 55-S ) :   1.0624 B( 51-C , 52-S ) :   1.0714
B( 51-C , 53-C ) :   1.3367 B( 53-C , 54-C ) :   1.4083 B( 53-C , 58-S ) :   1.0979
B( 54-C , 55-S ) :   1.0440 B( 54-C , 56-C ) :   1.2989 B( 56-C , 57-C ) :   1.4372
B( 56-C , 91-H ) :   1.0067 B( 57-C , 58-S ) :   1.0755 B( 57-C , 59-C ) :   1.1707
B( 59-C , 60-C ) :   1.6224 B( 59-C , 92-H ) :   0.9480 B( 60-C , 61-C ) :   0.9430
B( 60-C , 75-C ) :   1.0387 B( 61-C , 62-O ) :   2.2728 B( 61-C , 63-C ) :   0.9159
B( 63-C , 64-C ) :   1.4757 B( 63-C , 74-C ) :   1.2234 B( 64-C , 65-C ) :   1.1959
B( 64-C , 93-H ) :   1.0153 B( 65-C , 66-C ) :   1.2587 B( 65-C , 70-C ) :   1.1928
B( 66-C , 67-C ) :   1.1920 B( 66-C , 73-C ) :   1.2107 B( 67-C , 68-C ) :   1.4407
B( 67-C , 70-C ) :   0.1089 B( 67-C , 94-H ) :   1.0061 B( 68-C , 69-C ) :   1.1930
B( 68-C , 72-F ) :   1.1348 B( 69-C , 70-C ) :   1.4438 B( 69-C , 71-F ) :   1.1334
B( 70-C , 95-H ) :   1.0059 B( 73-C , 74-C ) :   1.4622 B( 73-C , 96-H ) :   0.9948
B( 74-C , 75-C ) :   0.9978 B( 75-C , 76-C ) :   1.6587 B( 76-C , 77-C ) :   1.1444
B( 76-C , 79-C ) :   1.1381 B( 77-C , 78-N ) :   3.0301 B( 79-C , 80-N ) :   2.9893

-----------------------------------------------------------------------------
         ABSORPTION SPECTRUM VIA TRANSITION ELECTRIC DIPOLE MOMENTS
-----------------------------------------------------------------------------
State   Energy  Wavelength   fosc         T2         TX        TY        TZ
        (cm-1)    (nm)                  (au**2)     (au)      (au)      (au)
-----------------------------------------------------------------------------
   0   11705.6    854.3   1.307821060  36.78170  -2.69566  -2.79903   4.65624
   1   16448.5    608.0   0.292291051   5.85011  -0.10919   2.04703   1.28369
   2   18728.5    533.9   0.623165353  10.95406   1.73892   0.05962  -2.81543
   3   19800.9    505.0   0.525063808   8.72976   1.82100   2.02872  -1.13932
   4   20929.9    477.8   0.061652339   0.96975  -0.34006   0.42836   0.81891
   5   23013.7    434.5   0.016110227   0.23046  -0.15917   0.44492   0.08469
   6   24042.6    415.9   0.032153399   0.44027   0.29891   0.56981   0.16197
   7   24844.1    402.5   0.002239186   0.02967  -0.13176  -0.10156  -0.04471
   8   25430.5    393.2   0.107012916   1.38534   0.87412  -0.55399  -0.56067
   9   26019.9    384.3   0.062947186   0.79643  -0.48010  -0.21293   0.72152
  10   26028.0    384.2   0.000647788   0.00819   0.05137  -0.06900  -0.02816
  11   26362.4    379.3   0.032280846   0.40312   0.09951   0.61773  -0.10786
  12   26610.2    375.8   0.006505309   0.08048   0.10650   0.24671  -0.09097
  13   26908.8    371.6   0.164446913   2.01190   0.05416  -0.68517   1.24077
  14   27109.1    368.9   0.040815129   0.49566  -0.18277   0.08475   0.67459
  15   27563.5    362.8   0.025937728   0.30979  -0.23251  -0.49768   0.08972
  16   27680.7    361.3   0.190200661   2.26209   0.10405  -0.22059   1.48412
  17   28133.8    355.4   0.123671432   1.44716  -1.02826   0.26140   0.56702
  18   28454.8    351.4   0.003379288   0.03910   0.18610  -0.06680   0.00063
  19   28531.9    350.5   0.087663673   1.01150   0.25687   0.79616  -0.55825
  20   28814.5    347.0   0.060100108   0.68666   0.48163   0.28767   0.60987
  21   28956.6    345.3   0.262231846   2.98135   0.88270  -0.91701  -1.16674
  22   29574.8    338.1   0.009682782   0.10778  -0.26515   0.07893   0.17677
  23   29824.6    335.3   0.067135505   0.74106   0.39475  -0.69229  -0.32552
  24   29835.4    335.2   0.019208432   0.21195  -0.21822  -0.15880  -0.37298
  25   30420.7    328.7   0.218591866   2.36560  -0.30039  -1.45697   0.39065
  26   31023.2    322.3   0.001522948   0.01616  -0.00691  -0.11054   0.06240
  27   31407.2    318.4   0.002804237   0.02939   0.02252   0.02451  -0.16818
  28   32126.7    311.3   0.047429051   0.48602  -0.63099  -0.29642  -0.00254
  29   32486.6    307.8   0.016069835   0.16285  -0.29045  -0.22918   0.16114
  30   33050.0    302.6   0.219984672   2.19127  -1.07236   0.91934   0.44286
  31   33186.7    301.3   0.073508908   0.72921  -0.68523   0.45055   0.23806
  32   33304.3    300.3   0.012633013   0.12488  -0.25127  -0.19378  -0.15553
  33   33412.5    299.3   0.506540494   4.99092  -0.26179  -1.13371  -1.90711
  34   33851.6    295.4   0.102424328   0.99609   0.67694   0.06898   0.73013
  35   33961.4    294.5   0.303092382   2.93809   1.13864  -1.03234  -0.75886
  36   34114.5    293.1   0.007568752   0.07304  -0.24801   0.09728   0.04545
  37   34193.7    292.5   0.147831717   1.42330   0.97706  -0.64934  -0.21681
  38   34604.1    289.0   0.159314279   1.51566  -0.03119   0.97560   0.75027
  39   34718.0    288.0   0.033111565   0.31398   0.06792  -0.55119  -0.07451
  40   34875.6    286.7   0.023336973   0.22029  -0.29100  -0.28696  -0.23078
  41   35049.8    285.3   0.004761412   0.04472  -0.10778   0.16900   0.06741
  42   35153.4    284.5   0.180460381   1.69001   0.68326  -1.09548  -0.15200
  43   35212.0    284.0   0.016244449   0.15188  -0.03029  -0.21270   0.32514
  44   35450.4    282.1   0.014133001   0.13125  -0.03803  -0.21027  -0.29255
  45   35769.6    279.6   0.153297361   1.41090   0.43425  -0.61979  -0.91553
  46   35988.8    277.9   0.096852277   0.88597   0.05190  -0.79358  -0.50349
  47   36040.2    277.5   0.019167857   0.17509   0.30340  -0.24738  -0.14779
  48   36159.4    276.6   0.011078715   0.10087   0.03239  -0.22196   0.22484
  49   36373.9    274.9   0.018722034   0.16945   0.37105   0.06148   0.16730
  50   36473.4    274.2   0.045094369   0.40703  -0.15171   0.45099   0.42499
  51   37013.7    270.2   0.087765487   0.78061  -0.55825  -0.31096  -0.61015
  52   37170.3    269.0   0.141526718   1.25348   0.00675   0.79909   0.78416
  53   37264.6    268.4   0.276096212   2.43915   0.55344  -1.41656  -0.35527
  54   37364.7    267.6   0.105251582   0.92735  -0.87787   0.33122   0.21675
  55   37605.0    265.9   0.166569448   1.45823  -0.14231  -0.03062  -1.19876
  56   37712.4    265.2   0.036800852   0.32125  -0.27639   0.05841   0.49138
  57   37810.7    264.5   0.068281126   0.59451  -0.31429   0.62768   0.31900
  58   37884.4    264.0   0.012878902   0.11192  -0.06504   0.08725  -0.31634
  59   38295.9    261.1   0.033794593   0.29052  -0.00280  -0.46628   0.27035
  60   38500.7    259.7   0.003557988   0.03042  -0.07714   0.12979   0.08733
  61   38785.9    257.8   0.004646978   0.03944  -0.12226  -0.07865   0.13532
  62   39201.7    255.1   0.006367177   0.05347   0.01385  -0.20021   0.11487
  63   39292.5    254.5   0.116715260   0.97790  -0.20483  -0.80803   0.53200
  64   39549.9    252.8   0.012895529   0.10734  -0.31064  -0.02323  -0.10152
  65   39786.4    251.3   0.053873351   0.44577  -0.59253   0.03045   0.30619
  66   39875.8    250.8   0.026819919   0.22142  -0.28824   0.35338  -0.11603
  67   39982.4    250.1   0.063283827   0.52107   0.65602   0.15879  -0.25591
  68   40209.2    248.7   0.029442904   0.24106   0.35745  -0.30891  -0.13365

FINAL SINGLE POINT ENERGY     -6107.115479052016

DIPOLE MOMENT
-------------
                                X             Y             Z
Electronic contribution:      4.40287      10.26135       3.07797
Nuclear contribution   :     -3.38668     -12.62922      -2.27603
                        -----------------------------------------
Total Dipole Moment    :      1.01619      -2.36787       0.80194
                        -----------------------------------------
Magnitude (a.u.)       :      2.69862
Magnitude (Debye)      :      6.85936

Rotational constants in cm-1:     0.000955     0.000165     0.000149
Rotational constants in MHz :    28.633998     4.938498     4.464250

                             ****ORCA TERMINATED NORMALLY****
TOTAL RUN TIME: 0 days 0 hours 10 minutes 4 seconds 909 msec
