                         Program Version 4.2.0 -  RELEASE  -
|  1> # ORCA input file
|  2> # SCF done       -195.857213818805          0.000546553433
|  3> ! CAM-B3LYP def2-SVP def2/J RIJCOSX Grid4 TightSCF
|  4> %maxcore 5000
|  5> %tddft
|  6>     Mode sTDDFT
|  7>     Ethresh 5.0
|  8>     maxcore 5000
|  9> end
| 10>
| 11> %pal
| 12>   nprocs 6
| 13>   end
| 14> * xyz 0 1
| 15>    C        3.06477        -1.92312        -1.59643
| 16>    O        2.50821        -2.64622        -2.39285
| 17>    C        3.80651        -0.68841        -1.92973
| 18>    C        4.29149        -0.09013        -0.75518
| 19>    C        5.00843         1.09265        -0.83696
| 20>    C        5.23084         1.65082        -2.09075
| 21>    C        4.74932         1.04347        -3.25292
| 22>    C        4.02588        -0.13936        -3.17572
| 23>   Br        5.07178         1.82407        -4.94275
| 24>   Br        6.20584         3.26661        -2.20172
| 25>    C        3.90829        -0.91870         0.38576
| 26>    C        4.30852        -0.70537         1.67872
| 27>    C        5.09907         0.39077         2.08841
| 28>    N        5.73492         1.25930         2.48561
| 29>    C        4.03220        -1.54270         2.78126
| 30>    N        3.87142        -2.17386         3.72706
| 31>    C        3.11324        -2.02573        -0.12006
| 32>    C        2.44744        -2.91528         0.68274
| 33>    C        1.73160        -4.08443         0.37010
| 34>    C        1.59976        -4.82479        -0.80095
| 35>    C        0.83484        -5.96534        -0.61595
| 36>    C        0.35917        -6.10928         0.70970
| 37>    S        0.87454        -4.84796         1.72160
| 38>    C       -0.40981        -7.29362         0.78411
| 39>    C       -0.41834        -7.90564        -0.48336
| 40>    C        0.36483        -7.09479        -1.40303
| 41>    C        0.61269        -7.35673        -2.71715
| 42>    C        0.08501        -8.49611        -3.36395
| 43>    N       -0.34189        -9.41727        -3.89620
| 44>    C        1.42243        -6.53086        -3.52839
| 45>    N        2.08840        -5.89107        -4.20676
| 46>    C       -1.13976        -9.09655        -0.50506
| 47>    C       -1.68493        -9.39543         0.73083
| 48>    S       -1.29892        -8.18266         1.94085
| 49>    C       -2.46974       -10.54091         1.06797
| 50>    C       -3.03138       -10.72933         2.33072
| 51>    N       -3.75114       -11.77068         2.70774
| 52>    C       -4.00403       -12.76895         1.87387
| 53>    C       -3.50691       -12.71714         0.54318
| 54>    C       -2.72879       -11.58083         0.13578
| 55>    N       -2.33840       -11.68448        -1.13424
| 56>    S       -2.89260       -13.06044        -1.74640
| 57>    N       -3.65474       -13.60041        -0.44205
| 58>    C       -4.77024       -13.86280         2.37230
| 59>    C       -5.12099       -15.03704         1.73038
| 60>    C       -5.86508       -15.86770         2.56336
| 61>    C       -6.07839       -15.30995         3.84237
| 62>    S       -5.35795       -13.77350         4.01740
| 63>    C       -6.83597       -16.22887         4.61071
| 64>    C       -7.09952       -17.36492         3.81630
| 65>    C       -6.48603       -17.17984         2.51168
| 66>    C       -6.46411       -18.07966         1.48701
| 67>    C       -7.08391       -19.34139         1.61172
| 68>    N       -7.59482       -20.36038         1.73652
| 69>    C       -5.82185       -17.81291         0.25915
| 70>    N       -5.30676       -17.59815        -0.74213
| 71>    C       -7.81350       -18.34364         4.49075
| 72>    C       -8.09902       -17.97718         5.80010
| 73>    S       -7.49230       -16.36687         6.17298
| 74>    C       -8.81590       -18.69180         6.78161
| 75>    C       -9.11125       -20.02246         6.82493
| 76>    C      -10.22385       -20.47612         7.70523
| 77>    O      -10.77868       -19.83151         8.56236
| 78>    C      -10.52790       -21.85291         7.25962
| 79>    C       -9.59421       -22.24653         6.28330
| 80>    C       -8.61040       -21.17785         6.10994
| 81>    C       -7.35106       -21.35743         5.60202
| 82>    C       -6.33096       -20.38739         5.66265
| 83>    N       -5.46302       -19.63795         5.71363
| 84>    C       -6.89408       -22.57303         5.04770
| 85>    N       -6.47528       -23.54039         4.59617
| 86>    C       -9.70628       -23.48728         5.68060
| 87>    C      -10.74414       -24.32487         6.07456
| 88>    C      -11.65453       -23.93579         7.06035
| 89>    C      -11.55169       -22.68657         7.65936
| 90>   Br      -13.04493       -25.10081         7.58819
| 91>   Br      -10.91017       -26.01428         5.24566
| 92>    H        5.39442         1.59381         0.03558
| 93>    H        3.64547        -0.62055        -4.06342
| 94>    H        2.45998        -2.69782         1.74447
| 95>    H        2.04477        -4.52039        -1.73081
| 96>    H       -1.27728        -9.73615        -1.35759
| 97>    H       -2.88703        -9.97982         3.09852
| 98>    H       -4.83481       -15.24611         0.71558
| 99>    H       -8.15698       -19.26239         4.05175
|100>    H       -9.25276       -18.10354         7.58294
|101>    H       -9.02545       -23.81400         4.91102
|102>    H      -12.25352       -22.37495         8.41721
|103> *
|104>
|105>                          ****END OF INPUT****

CARTESIAN COORDINATES (ANGSTROEM)
---------------------------------
  C      3.064770   -1.923120   -1.596430
  O      2.508210   -2.646220   -2.392850
  C      3.806510   -0.688410   -1.929730
  C      4.291490   -0.090130   -0.755180
  C      5.008430    1.092650   -0.836960
  C      5.230840    1.650820   -2.090750
  C      4.749320    1.043470   -3.252920
  C      4.025880   -0.139360   -3.175720
  Br     5.071780    1.824070   -4.942750
  Br     6.205840    3.266610   -2.201720
  C      3.908290   -0.918700    0.385760
  C      4.308520   -0.705370    1.678720
  C      5.099070    0.390770    2.088410
  N      5.734920    1.259300    2.485610
  C      4.032200   -1.542700    2.781260
  N      3.871420   -2.173860    3.727060
  C      3.113240   -2.025730   -0.120060
  C      2.447440   -2.915280    0.682740
  C      1.731600   -4.084430    0.370100
  C      1.599760   -4.824790   -0.800950
  C      0.834840   -5.965340   -0.615950
  C      0.359170   -6.109280    0.709700
  S      0.874540   -4.847960    1.721600
  C     -0.409810   -7.293620    0.784110
  C     -0.418340   -7.905640   -0.483360
  C      0.364830   -7.094790   -1.403030
  C      0.612690   -7.356730   -2.717150
  C      0.085010   -8.496110   -3.363950
  N     -0.341890   -9.417270   -3.896200
  C      1.422430   -6.530860   -3.528390
  N      2.088400   -5.891070   -4.206760
  C     -1.139760   -9.096550   -0.505060
  C     -1.684930   -9.395430    0.730830
  S     -1.298920   -8.182660    1.940850
  C     -2.469740  -10.540910    1.067970
  C     -3.031380  -10.729330    2.330720
  N     -3.751140  -11.770680    2.707740
  C     -4.004030  -12.768950    1.873870
  C     -3.506910  -12.717140    0.543180
  C     -2.728790  -11.580830    0.135780
  N     -2.338400  -11.684480   -1.134240
  S     -2.892600  -13.060440   -1.746400
  N     -3.654740  -13.600410   -0.442050
  C     -4.770240  -13.862800    2.372300
  C     -5.120990  -15.037040    1.730380
  C     -5.865080  -15.867700    2.563360
  C     -6.078390  -15.309950    3.842370
  S     -5.357950  -13.773500    4.017400
  C     -6.835970  -16.228870    4.610710
  C     -7.099520  -17.364920    3.816300
  C     -6.486030  -17.179840    2.511680
  C     -6.464110  -18.079660    1.487010
  C     -7.083910  -19.341390    1.611720
  N     -7.594820  -20.360380    1.736520
  C     -5.821850  -17.812910    0.259150
  N     -5.306760  -17.598150   -0.742130
  C     -7.813500  -18.343640    4.490750
  C     -8.099020  -17.977180    5.800100
  S     -7.492300  -16.366870    6.172980
  C     -8.815900  -18.691800    6.781610
  C     -9.111250  -20.022460    6.824930
  C    -10.223850  -20.476120    7.705230
  O    -10.778680  -19.831510    8.562360
  C    -10.527900  -21.852910    7.259620
  C     -9.594210  -22.246530    6.283300
  C     -8.610400  -21.177850    6.109940
  C     -7.351060  -21.357430    5.602020
  C     -6.330960  -20.387390    5.662650
  N     -5.463020  -19.637950    5.713630
  C     -6.894080  -22.573030    5.047700
  N     -6.475280  -23.540390    4.596170
  C     -9.706280  -23.487280    5.680600
  C    -10.744140  -24.324870    6.074560
  C    -11.654530  -23.935790    7.060350
  C    -11.551690  -22.686570    7.659360
  Br   -13.044930  -25.100810    7.588190
  Br   -10.910170  -26.014280    5.245660
  H      5.394420    1.593810    0.035580
  H      3.645470   -0.620550   -4.063420
  H      2.459980   -2.697820    1.744470
  H      2.044770   -4.520390   -1.730810
  H     -1.277280   -9.736150   -1.357590
  H     -2.887030   -9.979820    3.098520
  H     -4.834810  -15.246110    0.715580
  H     -8.156980  -19.262390    4.051750
  H     -9.252760  -18.103540    7.582940
  H     -9.025450  -23.814000    4.911020
  H    -12.253520  -22.374950    8.417210

 Total Charge           Charge          ....    0
 Multiplicity           Mult            ....    1
 Number of Electrons    NEL             ....  654
 Basis Dimension        Dim             .... 1225

ORBITAL ENERGIES
----------------

  NO   OCC          E(Eh)            E(eV)
   0   2.0000    -482.879833    -13139.8283
   1   2.0000    -482.878403    -13139.7894
   2   2.0000    -482.878224    -13139.7845
   3   2.0000    -482.876865    -13139.7475
   4   2.0000     -89.054995     -2423.3096
   5   2.0000     -89.005591     -2421.9653
   6   2.0000     -89.004058     -2421.9236
   7   2.0000     -89.003257     -2421.9017
   8   2.0000     -89.000103     -2421.8159
   9   2.0000     -62.557453     -1702.2748
  10   2.0000     -62.555989     -1702.2350
  11   2.0000     -62.555862     -1702.2315
  12   2.0000     -62.554497     -1702.1944
  13   2.0000     -56.391404     -1534.4881
  14   2.0000     -56.389941     -1534.4483
  15   2.0000     -56.389828     -1534.4452
  16   2.0000     -56.388745     -1534.4158
  17   2.0000     -56.388655     -1534.4133
  18   2.0000     -56.388459     -1534.4080
  19   2.0000     -56.387289     -1534.3761
  20   2.0000     -56.387187     -1534.3734
  21   2.0000     -56.387149     -1534.3723
  22   2.0000     -56.387049     -1534.3696
  23   2.0000     -56.385786     -1534.3352
  24   2.0000     -56.385689     -1534.3326
  25   2.0000     -19.229406      -523.2588
  26   2.0000     -19.228419      -523.2319
  27   2.0000     -14.470700      -393.7678
  28   2.0000     -14.465085      -393.6150
  29   2.0000     -14.440109      -392.9353
  30   2.0000     -14.440101      -392.9351
  31   2.0000     -14.437975      -392.8773
  32   2.0000     -14.437831      -392.8734
  33   2.0000     -14.435413      -392.8076
  34   2.0000     -14.428324      -392.6146
  35   2.0000     -14.426368      -392.5614
  36   2.0000     -14.422657      -392.4604
  37   2.0000     -14.421810      -392.4374
  38   2.0000     -10.380715      -282.4736
  39   2.0000     -10.379714      -282.4464
  40   2.0000     -10.375296      -282.3262
  41   2.0000     -10.374688      -282.3096
  42   2.0000     -10.361720      -281.9567
  43   2.0000     -10.361007      -281.9373
  44   2.0000     -10.360739      -281.9300
  45   2.0000     -10.357844      -281.8513
  46   2.0000     -10.357221      -281.8343
  47   2.0000     -10.356491      -281.8144
  48   2.0000     -10.355860      -281.7973
  49   2.0000     -10.355684      -281.7925
  50   2.0000     -10.355492      -281.7873
  51   2.0000     -10.355212      -281.7797
  52   2.0000     -10.354890      -281.7709
  53   2.0000     -10.352680      -281.7107
  54   2.0000     -10.352294      -281.7003
  55   2.0000     -10.351881      -281.6890
  56   2.0000     -10.351686      -281.6837
  57   2.0000     -10.345403      -281.5127
  58   2.0000     -10.345049      -281.5031
  59   2.0000     -10.341453      -281.4052
  60   2.0000     -10.340421      -281.3772
  61   2.0000     -10.340314      -281.3742
  62   2.0000     -10.338169      -281.3159
  63   2.0000     -10.337668      -281.3022
  64   2.0000     -10.337644      -281.3016
  65   2.0000     -10.336971      -281.2833
  66   2.0000     -10.336644      -281.2744
  67   2.0000     -10.335965      -281.2559
  68   2.0000     -10.334269      -281.2098
  69   2.0000     -10.332563      -281.1633
  70   2.0000     -10.329121      -281.0697
  71   2.0000     -10.328972      -281.0656
  72   2.0000     -10.327425      -281.0235
  73   2.0000     -10.324366      -280.9403
  74   2.0000     -10.324344      -280.9397
  75   2.0000     -10.323270      -280.9105
  76   2.0000     -10.322064      -280.8776
  77   2.0000     -10.320469      -280.8342
  78   2.0000     -10.318894      -280.7914
  79   2.0000     -10.317629      -280.7570
  80   2.0000     -10.316669      -280.7308
  81   2.0000     -10.316357      -280.7224
  82   2.0000     -10.316263      -280.7198
  83   2.0000     -10.315534      -280.6999
  84   2.0000     -10.315038      -280.6865
  85   2.0000     -10.313738      -280.6511
  86   2.0000     -10.313524      -280.6453
  87   2.0000     -10.311981      -280.6033
  88   2.0000     -10.311821      -280.5989
  89   2.0000     -10.310332      -280.5584
  90   2.0000     -10.308916      -280.5199
  91   2.0000     -10.307453      -280.4801
  92   2.0000     -10.305851      -280.4365
  93   2.0000      -8.786787      -239.1006
  94   2.0000      -8.785294      -239.0600
  95   2.0000      -8.785202      -239.0575
  96   2.0000      -8.783833      -239.0202
  97   2.0000      -8.146286      -221.6717
  98   2.0000      -8.100314      -220.4207
  99   2.0000      -8.098853      -220.3810
 100   2.0000      -8.097684      -220.3492
 101   2.0000      -8.094118      -220.2521
 102   2.0000      -6.622939      -180.2193
 103   2.0000      -6.621424      -180.1781
 104   2.0000      -6.621406      -180.1776
 105   2.0000      -6.620015      -180.1398
 106   2.0000      -6.608899      -179.8373
 107   2.0000      -6.608118      -179.8160
 108   2.0000      -6.607421      -179.7971
 109   2.0000      -6.607306      -179.7939
 110   2.0000      -6.606636      -179.7757
 111   2.0000      -6.606484      -179.7716
 112   2.0000      -6.605920      -179.7562
 113   2.0000      -6.605153      -179.7354
 114   2.0000      -6.117471      -166.4649
 115   2.0000      -6.109498      -166.2479
 116   2.0000      -6.108971      -166.2335
 117   2.0000      -6.069438      -165.1578
 118   2.0000      -6.067933      -165.1168
 119   2.0000      -6.066983      -165.0910
 120   2.0000      -6.065294      -165.0450
 121   2.0000      -6.063820      -165.0049
 122   2.0000      -6.063308      -164.9910
 123   2.0000      -6.062843      -164.9784
 124   2.0000      -6.062748      -164.9758
 125   2.0000      -6.061394      -164.9389
 126   2.0000      -6.060046      -164.9022
 127   2.0000      -6.059045      -164.8750
 128   2.0000      -6.056683      -164.8107
 129   2.0000      -2.738795       -74.5264
 130   2.0000      -2.737341       -74.4868
 131   2.0000      -2.737273       -74.4850
 132   2.0000      -2.735887       -74.4473
 133   2.0000      -2.735079       -74.4253
 134   2.0000      -2.734488       -74.4092
 135   2.0000      -2.733577       -74.3844
 136   2.0000      -2.733498       -74.3823
 137   2.0000      -2.732937       -74.3670
 138   2.0000      -2.732918       -74.3665
 139   2.0000      -2.732136       -74.3452
 140   2.0000      -2.731526       -74.3286
 141   2.0000      -2.723302       -74.1048
 142   2.0000      -2.723284       -74.1043
 143   2.0000      -2.721814       -74.0643
 144   2.0000      -2.721808       -74.0642
 145   2.0000      -2.721673       -74.0605
 146   2.0000      -2.721655       -74.0600
 147   2.0000      -2.720321       -74.0237
 148   2.0000      -2.720303       -74.0232
 149   2.0000      -1.155517       -31.4432
 150   2.0000      -1.145494       -31.1705
 151   2.0000      -1.144426       -31.1414
 152   2.0000      -1.076914       -29.3043
 153   2.0000      -1.058046       -28.7909
 154   2.0000      -1.056974       -28.7617
 155   2.0000      -1.032660       -28.1001
 156   2.0000      -1.030702       -28.0468
 157   2.0000      -1.030380       -28.0381
 158   2.0000      -1.029269       -28.0078
 159   2.0000      -1.017861       -27.6974
 160   2.0000      -1.016298       -27.6549
 161   2.0000      -1.015204       -27.6251
 162   2.0000      -1.013880       -27.5891
 163   2.0000      -1.013293       -27.5731
 164   2.0000      -1.009600       -27.4726
 165   2.0000      -1.004615       -27.3370
 166   2.0000      -1.002424       -27.2774
 167   2.0000      -1.002246       -27.2725
 168   2.0000      -0.983504       -26.7625
 169   2.0000      -0.981986       -26.7212
 170   2.0000      -0.971538       -26.4369
 171   2.0000      -0.969375       -26.3780
 172   2.0000      -0.939186       -25.5566
 173   2.0000      -0.933508       -25.4020
 174   2.0000      -0.926746       -25.2181
 175   2.0000      -0.925657       -25.1884
 176   2.0000      -0.922078       -25.0910
 177   2.0000      -0.916568       -24.9411
 178   2.0000      -0.914414       -24.8825
 179   2.0000      -0.910667       -24.7805
 180   2.0000      -0.903690       -24.5907
 181   2.0000      -0.894606       -24.3435
 182   2.0000      -0.882336       -24.0096
 183   2.0000      -0.880843       -23.9689
 184   2.0000      -0.870878       -23.6978
 185   2.0000      -0.868468       -23.6322
 186   2.0000      -0.865556       -23.5530
 187   2.0000      -0.861559       -23.4442
 188   2.0000      -0.857408       -23.3313
 189   2.0000      -0.855382       -23.2761
 190   2.0000      -0.831820       -22.6350
 191   2.0000      -0.810579       -22.0570
 192   2.0000      -0.802874       -21.8473
 193   2.0000      -0.788971       -21.4690
 194   2.0000      -0.786684       -21.4068
 195   2.0000      -0.779743       -21.2179
 196   2.0000      -0.775487       -21.1021
 197   2.0000      -0.770626       -20.9698
 198   2.0000      -0.767870       -20.8948
 199   2.0000      -0.748005       -20.3542
 200   2.0000      -0.743635       -20.2353
 201   2.0000      -0.731529       -19.9059
 202   2.0000      -0.724199       -19.7065
 203   2.0000      -0.712601       -19.3909
 204   2.0000      -0.710885       -19.3442
 205   2.0000      -0.702818       -19.1247
 206   2.0000      -0.701987       -19.1020
 207   2.0000      -0.697630       -18.9835
 208   2.0000      -0.695456       -18.9243
 209   2.0000      -0.688743       -18.7417
 210   2.0000      -0.687677       -18.7126
 211   2.0000      -0.680931       -18.5291
 212   2.0000      -0.666230       -18.1290
 213   2.0000      -0.658825       -17.9276
 214   2.0000      -0.658025       -17.9058
 215   2.0000      -0.646805       -17.6004
 216   2.0000      -0.643630       -17.5141
 217   2.0000      -0.638481       -17.3740
 218   2.0000      -0.628749       -17.1091
 219   2.0000      -0.627514       -17.0755
 220   2.0000      -0.626264       -17.0415
 221   2.0000      -0.623818       -16.9749
 222   2.0000      -0.621122       -16.9016
 223   2.0000      -0.612142       -16.6572
 224   2.0000      -0.608739       -16.5646
 225   2.0000      -0.600788       -16.3483
 226   2.0000      -0.593352       -16.1459
 227   2.0000      -0.587059       -15.9747
 228   2.0000      -0.586146       -15.9498
 229   2.0000      -0.582424       -15.8486
 230   2.0000      -0.574126       -15.6228
 231   2.0000      -0.567045       -15.4301
 232   2.0000      -0.561725       -15.2853
 233   2.0000      -0.559802       -15.2330
 234   2.0000      -0.558707       -15.2032
 235   2.0000      -0.556852       -15.1527
 236   2.0000      -0.554475       -15.0880
 237   2.0000      -0.551802       -15.0153
 238   2.0000      -0.550032       -14.9671
 239   2.0000      -0.549444       -14.9511
 240   2.0000      -0.542114       -14.7517
 241   2.0000      -0.538793       -14.6613
 242   2.0000      -0.537854       -14.6358
 243   2.0000      -0.534808       -14.5529
 244   2.0000      -0.528037       -14.3686
 245   2.0000      -0.526620       -14.3301
 246   2.0000      -0.521642       -14.1946
 247   2.0000      -0.519886       -14.1468
 248   2.0000      -0.515376       -14.0241
 249   2.0000      -0.514716       -14.0061
 250   2.0000      -0.513530       -13.9739
 251   2.0000      -0.511098       -13.9077
 252   2.0000      -0.509530       -13.8650
 253   2.0000      -0.507501       -13.8098
 254   2.0000      -0.506602       -13.7853
 255   2.0000      -0.504141       -13.7184
 256   2.0000      -0.501591       -13.6490
 257   2.0000      -0.498773       -13.5723
 258   2.0000      -0.497063       -13.5258
 259   2.0000      -0.496079       -13.4990
 260   2.0000      -0.494172       -13.4471
 261   2.0000      -0.491741       -13.3810
 262   2.0000      -0.486884       -13.2488
 263   2.0000      -0.484166       -13.1748
 264   2.0000      -0.481026       -13.0894
 265   2.0000      -0.469965       -12.7884
 266   2.0000      -0.467905       -12.7323
 267   2.0000      -0.467742       -12.7279
 268   2.0000      -0.466864       -12.7040
 269   2.0000      -0.466253       -12.6874
 270   2.0000      -0.465093       -12.6558
 271   2.0000      -0.463977       -12.6255
 272   2.0000      -0.463598       -12.6151
 273   2.0000      -0.463439       -12.6108
 274   2.0000      -0.460644       -12.5348
 275   2.0000      -0.459881       -12.5140
 276   2.0000      -0.457960       -12.4617
 277   2.0000      -0.457434       -12.4474
 278   2.0000      -0.454527       -12.3683
 279   2.0000      -0.453213       -12.3326
 280   2.0000      -0.450168       -12.2497
 281   2.0000      -0.449972       -12.2444
 282   2.0000      -0.448692       -12.2095
 283   2.0000      -0.447217       -12.1694
 284   2.0000      -0.446037       -12.1373
 285   2.0000      -0.445320       -12.1178
 286   2.0000      -0.439100       -11.9485
 287   2.0000      -0.438183       -11.9236
 288   2.0000      -0.436857       -11.8875
 289   2.0000      -0.435600       -11.8533
 290   2.0000      -0.435409       -11.8481
 291   2.0000      -0.433808       -11.8045
 292   2.0000      -0.433368       -11.7926
 293   2.0000      -0.431682       -11.7467
 294   2.0000      -0.426516       -11.6061
 295   2.0000      -0.424668       -11.5558
 296   2.0000      -0.423888       -11.5346
 297   2.0000      -0.419103       -11.4044
 298   2.0000      -0.416721       -11.3395
 299   2.0000      -0.408777       -11.1234
 300   2.0000      -0.406171       -11.0525
 301   2.0000      -0.402654       -10.9568
 302   2.0000      -0.401525       -10.9260
 303   2.0000      -0.395758       -10.7691
 304   2.0000      -0.392927       -10.6921
 305   2.0000      -0.391455       -10.6520
 306   2.0000      -0.389821       -10.6076
 307   2.0000      -0.381925       -10.3927
 308   2.0000      -0.377040       -10.2598
 309   2.0000      -0.368168       -10.0184
 310   2.0000      -0.366328        -9.9683
 311   2.0000      -0.362068        -9.8524
 312   2.0000      -0.359014        -9.7693
 313   2.0000      -0.354694        -9.6517
 314   2.0000      -0.352596        -9.5946
 315   2.0000      -0.349954        -9.5227
 316   2.0000      -0.347127        -9.4458
 317   2.0000      -0.346045        -9.4164
 318   2.0000      -0.340159        -9.2562
 319   2.0000      -0.336825        -9.1655
 320   2.0000      -0.333399        -9.0722
 321   2.0000      -0.331438        -9.0189
 322   2.0000      -0.319635        -8.6977
 323   2.0000      -0.316202        -8.6043
 324   2.0000      -0.313295        -8.5252
 325   2.0000      -0.286224        -7.7886
 326   2.0000      -0.261863        -7.1256
 327   0.0000      -0.129132        -3.5139
 328   0.0000      -0.117986        -3.2106
 329   0.0000      -0.099691        -2.7127
 330   0.0000      -0.096072        -2.6143
 331   0.0000      -0.091677        -2.4947

MULLIKEN ATOMIC CHARGES
-----------------------
   0 C :    0.157029
   1 O :   -0.141524
   2 C :   -0.018633
   3 C :    0.033138
   4 C :   -0.008461
   5 C :   -0.025351
   6 C :   -0.013311
   7 C :   -0.018606
   8 Br:    0.017542
   9 Br:    0.022997
  10 C :    0.308742
  11 C :   -0.346995
  12 C :   -0.187044
  13 N :    0.158015
  14 C :   -0.193988
  15 N :    0.157834
  16 C :   -0.092750
  17 C :    0.037178
  18 C :   -0.114162
  19 C :   -0.000515
  20 C :   -0.007896
  21 C :   -0.080112
  22 S :    0.209490
  23 C :   -0.095313
  24 C :    0.038049
  25 C :    0.312920
  26 C :   -0.296916
  27 C :   -0.188897
  28 N :    0.179676
  29 C :   -0.191917
  30 N :    0.195191
  31 C :   -0.063877
  32 C :   -0.090664
  33 S :    0.181617
  34 C :    0.077734
  35 C :   -0.055926
  36 N :   -0.057067
  37 C :    0.026607
  38 C :    0.002912
  39 C :    0.052191
  40 N :   -0.287150
  41 S :    0.569546
  42 N :   -0.257427
  43 C :   -0.117808
  44 C :   -0.046560
  45 C :    0.015695
  46 C :   -0.090197
  47 S :    0.247197
  48 C :   -0.077595
  49 C :    0.000026
  50 C :    0.310546
  51 C :   -0.291557
  52 C :   -0.184792
  53 N :    0.170584
  54 C :   -0.184776
  55 N :    0.181344
  56 C :   -0.005046
  57 C :   -0.110703
  58 S :    0.222127
  59 C :    0.082938
  60 C :   -0.135592
  61 C :    0.138103
  62 O :   -0.135365
  63 C :    0.003442
  64 C :    0.015860
  65 C :    0.265054
  66 C :   -0.327437
  67 C :   -0.198353
  68 N :    0.173767
  69 C :   -0.173315
  70 N :    0.172652
  71 C :   -0.008754
  72 C :   -0.024435
  73 C :   -0.014837
  74 C :   -0.023200
  75 Br:    0.016803
  76 Br:    0.025891
  77 H :    0.007423
  78 H :    0.010104
  79 H :    0.012344
  80 H :    0.039682
  81 H :    0.025621
  82 H :    0.012279
  83 H :    0.021741
  84 H :    0.025335
  85 H :    0.024484
  86 H :    0.017287
  87 H :    0.008092
Sum of atomic charges:   -0.0000000

LOEWDIN ATOMIC CHARGES
----------------------
   0 C :    0.086254
   1 O :   -0.130212
   2 C :   -0.041444
   3 C :   -0.013093
   4 C :   -0.006692
   5 C :   -0.118823
   6 C :   -0.122208
   7 C :    0.008270
   8 Br:    0.140207
   9 Br:    0.142183
  10 C :    0.075340
  11 C :   -0.136505
  12 C :   -0.020016
  13 N :   -0.044438
  14 C :   -0.024060
  15 N :   -0.048382
  16 C :   -0.100565
  17 C :    0.044634
  18 C :   -0.177590
  19 C :    0.021214
  20 C :   -0.073206
  21 C :   -0.156528
  22 S :    0.498358
  23 C :   -0.187943
  24 C :   -0.052452
  25 C :    0.073827
  26 C :   -0.089566
  27 C :   -0.016206
  28 N :   -0.025883
  29 C :   -0.022537
  30 N :   -0.013403
  31 C :   -0.021990
  32 C :   -0.149038
  33 S :    0.480907
  34 C :   -0.070158
  35 C :    0.014290
  36 N :   -0.081966
  37 C :    0.001920
  38 C :   -0.060917
  39 C :   -0.029263
  40 N :   -0.276550
  41 S :    0.692502
  42 N :   -0.263373
  43 C :   -0.173846
  44 C :   -0.006808
  45 C :   -0.063371
  46 C :   -0.175310
  47 S :    0.521685
  48 C :   -0.160441
  49 C :   -0.061115
  50 C :    0.080241
  51 C :   -0.095540
  52 C :   -0.012391
  53 N :   -0.031719
  54 C :   -0.017860
  55 N :   -0.024956
  56 C :    0.009382
  57 C :   -0.180146
  58 S :    0.505166
  59 C :    0.044982
  60 C :   -0.091931
  61 C :    0.083843
  62 O :   -0.135004
  63 C :   -0.045135
  64 C :   -0.008631
  65 C :    0.063395
  66 C :   -0.128899
  67 C :   -0.015283
  68 N :   -0.040781
  69 C :   -0.021026
  70 N :   -0.035515
  71 C :   -0.006272
  72 C :   -0.117300
  73 C :   -0.123337
  74 C :    0.007558
  75 Br:    0.139417
  76 Br:    0.145546
  77 H :    0.044617
  78 H :    0.047832
  79 H :    0.043263
  80 H :    0.044105
  81 H :    0.040439
  82 H :    0.020220
  83 H :    0.042255
  84 H :    0.042662
  85 H :    0.047363
  86 H :    0.046835
  87 H :    0.046911

  Mayer bond orders larger than 0.100000
B(  0-C ,  1-O ) :   2.1826 B(  0-C ,  2-C ) :   0.9501 B(  0-C , 16-C ) :   0.9456
B(  2-C ,  3-C ) :   1.3307 B(  2-C ,  7-C ) :   1.3717 B(  3-C ,  4-C ) :   1.3622
B(  3-C , 10-C ) :   0.9874 B(  4-C ,  5-C ) :   1.3704 B(  4-C , 77-H ) :   0.9800
B(  5-C ,  6-C ) :   1.4204 B(  5-C ,  9-Br) :   1.0587 B(  6-C ,  7-C ) :   1.3480
B(  6-C ,  8-Br) :   1.0355 B(  7-C , 78-H ) :   1.0093 B( 10-C , 11-C ) :   1.6320
B( 10-C , 16-C ) :   1.0866 B( 11-C , 12-C ) :   1.1427 B( 11-C , 14-C ) :   1.1396
B( 12-C , 13-N ) :   2.9708 B( 14-C , 15-N ) :   2.9772 B( 16-C , 17-C ) :   1.5791
B( 17-C , 18-C ) :   1.2257 B( 17-C , 79-H ) :   0.9138 B( 18-C , 19-C ) :   1.3879
B( 18-C , 22-S ) :   1.0738 B( 19-C , 20-C ) :   1.3279 B( 19-C , 80-H ) :   0.9709
B( 20-C , 21-C ) :   1.3733 B( 20-C , 25-C ) :   0.9910 B( 21-C , 22-S ) :   1.1688
B( 21-C , 23-C ) :   1.2049 B( 23-C , 24-C ) :   1.4310 B( 23-C , 33-S ) :   1.1127
B( 24-C , 25-C ) :   0.9951 B( 24-C , 31-C ) :   1.2536 B( 25-C , 26-C ) :   1.7189
B( 26-C , 27-C ) :   1.1390 B( 26-C , 29-C ) :   1.1344 B( 27-C , 28-N ) :   2.9860
B( 29-C , 30-N ) :   2.9963 B( 31-C , 32-C ) :   1.4740 B( 31-C , 81-H ) :   0.9830
B( 32-C , 33-S ) :   1.1048 B( 32-C , 34-C ) :   1.1178 B( 34-C , 35-C ) :   1.4069
B( 34-C , 37-C ) :   0.1093 B( 34-C , 39-C ) :   1.2086 B( 35-C , 36-N ) :   1.4611
B( 35-C , 82-H ) :   0.9757 B( 36-N , 37-C ) :   1.6607 B( 37-C , 38-C ) :   1.1708
B( 37-C , 43-C ) :   1.1348 B( 38-C , 39-C ) :   1.1884 B( 38-C , 42-N ) :   1.5419
B( 39-C , 40-N ) :   1.5078 B( 40-N , 41-S ) :   1.2705 B( 40-N , 42-N ) :   0.1445
B( 41-S , 42-N ) :   1.2861 B( 43-C , 44-C ) :   1.4743 B( 43-C , 47-S ) :   1.0988
B( 44-C , 45-C ) :   1.2710 B( 44-C , 83-H ) :   0.9820 B( 45-C , 46-C ) :   1.4207
B( 45-C , 50-C ) :   0.9974 B( 46-C , 47-S ) :   1.1261 B( 46-C , 48-C ) :   1.1977
B( 48-C , 49-C ) :   1.4093 B( 48-C , 58-S ) :   1.1559 B( 49-C , 50-C ) :   0.9950
B( 49-C , 56-C ) :   1.3641 B( 50-C , 51-C ) :   1.7173 B( 51-C , 52-C ) :   1.1348
B( 51-C , 54-C ) :   1.1361 B( 52-C , 53-N ) :   2.9802 B( 54-C , 55-N ) :   2.9905
B( 56-C , 57-C ) :   1.3891 B( 56-C , 84-H ) :   0.9792 B( 57-C , 58-S ) :   1.0929
B( 57-C , 59-C ) :   1.1405 B( 59-C , 60-C ) :   1.6662 B( 59-C , 85-H ) :   0.9291
B( 60-C , 61-C ) :   0.9467 B( 60-C , 65-C ) :   1.0383 B( 61-C , 62-O ) :   2.2707
B( 61-C , 63-C ) :   0.9208 B( 63-C , 64-C ) :   1.3280 B( 63-C , 74-C ) :   1.3716
B( 64-C , 65-C ) :   1.0006 B( 64-C , 71-C ) :   1.3706 B( 65-C , 66-C ) :   1.6616
B( 66-C , 67-C ) :   1.1716 B( 66-C , 69-C ) :   1.1248 B( 67-C , 68-N ) :   2.9979
B( 69-C , 70-N ) :   2.9971 B( 71-C , 72-C ) :   1.3667 B( 71-C , 86-H ) :   0.9843
B( 72-C , 73-C ) :   1.4205 B( 72-C , 76-Br) :   1.0555 B( 73-C , 74-C ) :   1.3553
B( 73-C , 75-Br) :   1.0350 B( 74-C , 87-H ) :   1.0093

-----------------------------------------------------------------------------
         ABSORPTION SPECTRUM VIA TRANSITION ELECTRIC DIPOLE MOMENTS
-----------------------------------------------------------------------------
State   Energy  Wavelength   fosc         T2         TX        TY        TZ
        (cm-1)    (nm)                  (au**2)     (au)      (au)      (au)
-----------------------------------------------------------------------------
   0   13171.9    759.2   1.141282792  28.52463  -2.79457  -4.32554   1.41589
   1   14577.7    686.0   0.023671520   0.53458   0.05711   0.13661  -0.71600
   2   18359.9    544.7   1.257976894  22.55687   2.39857   3.87470  -1.33806
   3   21152.2    472.8   0.110793525   1.72439  -0.80342  -0.25446  -1.00705
   4   21791.9    458.9   0.018268331   0.27598  -0.37602  -0.36200   0.05955
   5   22459.8    445.2   0.339601613   4.97783  -0.91198  -1.96588  -0.53049
   6   24022.4    416.3   0.034490493   0.47267   0.17533   0.64260   0.17029
   7   26428.2    378.4   0.038567379   0.48043  -0.22950  -0.64972   0.07502
   8   26825.7    372.8   0.033920805   0.41628   0.16808   0.48182  -0.39482
   9   27249.8    367.0   0.043753691   0.52860   0.66534   0.25962  -0.13609
  10   27926.2    358.1   0.227044969   2.67655   0.72570   0.84394  -1.19903
  11   28371.4    352.5   0.060647691   0.70374   0.70469  -0.10692  -0.44240
  12   28903.0    346.0   0.062136710   0.70775   0.35316   0.40829  -0.64524
  13   29201.1    342.5   0.125581916   1.41580  -0.00050  -0.77994  -0.89861
  14   29445.3    339.6   0.263451119   2.94551  -0.74358  -1.54626   0.04085
  15   29636.4    337.4   0.234833683   2.60862  -0.64362  -0.45639   1.40928
  16   30050.5    332.8   0.028016883   0.30693   0.32765   0.02696  -0.44593
  17   30340.6    329.6   0.063231488   0.68610   0.45811   0.35794   0.59001
  18   30653.5    326.2   0.046814393   0.50278  -0.07853   0.32150   0.62710
  19   30694.7    325.8   0.057700500   0.61886  -0.03158  -0.40717  -0.67236
  20   30927.5    323.3   0.107618333   1.14556  -0.28774  -0.44269  -0.93101
  21   31653.6    315.9   0.201425065   2.09492  -0.94521  -0.82221   0.72490
  22   32069.9    311.8   0.323841723   3.32438   0.82009   1.38305  -0.85966
  23   32642.4    306.4   0.039618682   0.39957  -0.32370   0.37019   0.39718
  24   32813.8    304.8   0.000590065   0.00592  -0.06673  -0.03563  -0.01406
  25   33027.5    302.8   0.142890106   1.42430  -0.04506  -0.78337  -0.89922
  26   33055.3    302.5   0.145615370   1.45025   0.86666   0.81766   0.17487
  27   33289.0    300.4   0.182097840   1.80086  -0.92442  -0.97120   0.05543
  28   33420.7    299.2   0.121173310   1.19362  -0.41046  -0.49905   0.88096
  29   33448.5    299.0   0.133127348   1.31028   0.14310   1.07797  -0.35747
  30   33905.8    294.9   0.139145956   1.35105   0.58135  -0.13729  -0.99711
  31   34565.4    289.3   0.104053161   0.99104  -0.14472   0.20615  -0.96312
  32   34609.9    288.9   0.083734539   0.79649   0.41722   0.76155   0.20605
  33   34712.3    288.1   0.423819019   4.01951   0.72685   0.21647  -1.85589
  34   35049.8    285.3   0.338069430   3.17538   0.73079   0.38374   1.57926
  35   35090.2    285.0   0.044147663   0.41419  -0.20972  -0.60745  -0.03477
  36   35388.0    282.6   0.051610086   0.48012   0.42740   0.47615  -0.26595
  37   35595.7    280.9   0.195632070   1.80933   0.17344  -0.22156  -1.31536
  38   35782.4    279.5   0.421753825   3.88030   1.61285   0.20530  -1.11214
  39   35967.1    278.0   0.006734812   0.06164  -0.17773   0.15768  -0.07207
  40   36017.1    277.6   0.052911266   0.48363   0.38721   0.56913   0.09896
  41   36348.4    275.1   0.014677595   0.13294   0.01865  -0.23438   0.27867
  42   36460.8    274.3   0.032662589   0.29492  -0.12756  -0.50004  -0.16912
  43   37012.7    270.2   0.160441227   1.42705   0.72780   0.94615  -0.04639
  44   37206.0    268.8   0.011640940   0.10300   0.21078   0.23930   0.03621
  45   37249.3    268.5   0.033743116   0.29822  -0.37460  -0.21134   0.33650
  46   37325.2    267.9   0.095175195   0.83946   0.14368  -0.23908  -0.87273
  47   37444.3    267.1   0.123158967   1.08282   0.47130   0.84720   0.37809
  48   38001.2    263.1   0.022783899   0.19738   0.02779   0.01823  -0.44303
  49   38088.6    262.5   0.000963371   0.00833  -0.02174  -0.05396  -0.07030
  50   38229.7    261.6   0.066003591   0.56838  -0.12135   0.40381   0.62498
  51   38401.7    260.4   0.067076809   0.57504   0.27135  -0.47173  -0.52809
  52   38410.7    260.3   0.011238939   0.09633   0.07364  -0.25533   0.16035
  53   38670.8    258.6   0.055541292   0.47283  -0.38049  -0.57273   0.00639
  54   38964.6    256.6   0.025152866   0.21252  -0.00194   0.01211  -0.46083
  55   39266.3    254.7   0.042381819   0.35533   0.35833   0.39898  -0.26029
  56   39407.9    253.8   0.018680382   0.15606  -0.29639   0.19918   0.16892
  57   39558.1    252.8   0.019610279   0.16320  -0.17499   0.17767   0.31783
  58   39861.2    250.9   0.024986859   0.20637   0.04765   0.40680   0.19650
  59   39947.3    250.3   0.024609967   0.20281  -0.01203   0.07327   0.44419
  60   40150.3    249.1   0.000381005   0.00312   0.00878  -0.03592   0.04192
  61   40164.5    249.0   0.000213820   0.00175   0.01860   0.01137   0.03574
  62   40204.6    248.7   0.007379764   0.06043  -0.10800   0.21137   0.06394
  63   40317.7    248.0   0.010243578   0.08364   0.11030   0.17723  -0.20017

FINAL SINGLE POINT ENERGY    -15137.578696988236

DIPOLE MOMENT
-------------
                                X             Y             Z
Electronic contribution:     -9.56571       0.71440     -16.64724
Nuclear contribution   :      7.12931      -0.03797      17.30815
                        -----------------------------------------
Total Dipole Moment    :     -2.43640       0.67643       0.66091
                        -----------------------------------------
Magnitude (a.u.)       :      2.61351
Magnitude (Debye)      :      6.64301

Rotational constants in cm-1:     0.002534     0.000091     0.000089
Rotational constants in MHz :    75.964014     2.741344     2.670061

                             ****ORCA TERMINATED NORMALLY****
TOTAL RUN TIME: 0 days 0 hours 10 minutes 23 seconds 519 msec
