                         Program Version 4.2.0 -  RELEASE  -
|  1> # ORCA input file
|  2> # SCF done       -185.387407058112          0.000322054622
|  3> ! CAM-B3LYP def2-SVP def2/J RIJCOSX Grid4 TightSCF
|  4> %maxcore 5000
|  5> %tddft
|  6>     Mode sTDDFT
|  7>     Ethresh 5.0
|  8>     maxcore 5000
|  9> end
| 10>
| 11> %pal
| 12>   nprocs 6
| 13>   end
| 14> * xyz 0 1
| 15>    C        3.79068       -19.99006         1.09218
| 16>    N        5.10881       -20.27223         1.11512
| 17>    C        5.74580       -21.51845         0.78872
| 18>    C        5.84505       -21.71628        -0.72244
| 19>    N        5.82973       -19.20438         1.43854
| 20>    C        4.97104       -18.21517         1.63644
| 21>    C        3.64769       -18.66086         1.42923
| 22>    C        2.37877       -17.88240         1.53781
| 23>    C        2.15060       -16.99187         0.31550
| 24>    C        5.43571       -16.84761         2.00122
| 25>    C        6.04821       -16.13549         0.77985
| 26>    C        6.39649       -14.72650         1.11377
| 27>    C        5.78557       -13.67090         0.58168
| 28>    N        6.07241       -12.36622         0.93401
| 29>    C        5.46402       -11.26246         0.45178
| 30>    S        4.22419       -11.36991        -0.75458
| 31>    C        4.03238        -9.64094        -0.69462
| 32>    N        3.08936        -9.07107        -1.53686
| 33>    O        2.94448        -7.85840        -1.50026
| 34>    O        2.46386        -9.83284        -2.26394
| 35>    C        4.87452        -9.03714         0.20478
| 36>    C        5.70959        -9.94544         0.87102
| 37>    C        6.70028        -9.59971         1.86363
| 38>    C        6.68362        -8.47737         2.59803
| 39>    C        7.66297        -8.13522         3.61000
| 40>    C        8.97294        -8.63308         3.57510
| 41>    C        9.84593        -8.31269         4.58531
| 42>    C        9.43397        -7.50796         5.66164
| 43>    C        8.14850        -6.98730         5.69265
| 44>    C        7.28271        -7.29384         4.66188
| 45>    C       10.53795        -7.37572         6.58642
| 46>    C       11.64353        -8.07294         6.06823
| 47>    C       11.29269        -8.71855         4.74731
| 48>    C       12.15944        -8.16317         3.60185
| 49>    C       12.06293        -6.64828         3.46845
| 50>    C       11.44591       -10.24902         4.81423
| 51>    C       10.60342       -10.87870         5.91711
| 52>    C       12.83214        -8.10342         6.75185
| 53>    C       12.93891        -7.46529         8.00088
| 54>    C       11.82143        -6.78136         8.50582
| 55>    C       10.63360        -6.72427         7.80838
| 56>    C       14.18621        -7.53062         8.71180
| 57>    C       14.36500        -7.26052        10.03058
| 58>    C       15.60717        -7.31922        10.68957
| 59>    C       15.76359        -7.13034        12.03897
| 60>    C       16.97186        -7.12951        12.77773
| 61>    C       16.81342        -6.92416        14.11533
| 62>    C       15.46953        -6.76606        14.51716
| 63>    S       14.40812        -6.86161        13.12771
| 64>    C       14.97323        -6.58533        15.79385
| 65>    C       15.69338        -6.45503        17.00169
| 66>    C       14.90298        -6.30605        18.10000
| 67>    C       13.50984        -6.32105        17.83409
| 68>    S       13.25324        -6.51089        16.10562
| 69>    C       12.51803        -6.22049        18.77434
| 70>    C       11.12010        -6.28109        18.58701
| 71>    C       10.19171        -6.18269        19.68494
| 72>    C        8.90684        -6.30525        19.20270
| 73>    C        7.65308        -6.29094        19.85611
| 74>    C        6.53502        -6.45766        19.08809
| 75>    C        5.14332        -6.50228        19.42251
| 76>    C        4.41401        -6.70361        18.26839
| 77>    C        5.33343        -6.78814        17.17035
| 78>    C        6.62355        -6.64116        17.64896
| 79>    C        7.86971        -6.65031        16.99508
| 80>    C        8.99745        -6.48486        17.76341
| 81>    C       10.37541        -6.46011        17.42168
| 82>    C        2.97686        -6.81024        18.20088
| 83>    C        2.26562        -7.01688        17.09567
| 84>    H        3.05742       -20.73577         0.85758
| 85>    H        5.17651       -22.33663         1.24028
| 86>    H        6.74416       -21.48944         1.23004
| 87>    H        4.85427       -21.73416        -1.17062
| 88>    H        6.34511       -22.65525        -0.94295
| 89>    H        6.41248       -20.90294        -1.16745
| 90>    H        2.40581       -17.26046         2.43652
| 91>    H        1.54413       -18.57976         1.63690
| 92>    H        2.94518       -16.25532         0.22598
| 93>    H        1.20212       -16.46649         0.40094
| 94>    H        2.13364       -17.59205        -0.59167
| 95>    H        6.19120       -16.91858         2.78591
| 96>    H        4.59341       -16.26459         2.37703
| 97>    H        5.33902       -16.15855        -0.04894
| 98>    H        6.94132       -16.68818         0.48127
| 99>    H        7.15880       -14.58743         1.86933
|100>    H        5.01809       -13.77239        -0.17181
|101>    H        6.76807       -12.23097         1.65602
|102>    H        4.88805        -7.97232         0.34702
|103>    H        7.49099       -10.32201         2.02261
|104>    H        5.85536        -7.78986         2.49357
|105>    H        9.29504        -9.24331         2.74401
|106>    H        7.82982        -6.35213         6.50556
|107>    H        6.27720        -6.89769         4.67293
|108>    H       11.84479        -8.62988         2.66563
|109>    H       13.19888        -8.44558         3.78291
|110>    H       11.03851        -6.34535         3.26341
|111>    H       12.69401        -6.30337         2.65249
|112>    H       12.38734        -6.16106         4.38523
|113>    H       12.49813       -10.48856         4.98152
|114>    H       11.15802       -10.67257         3.84911
|115>    H       10.88937       -10.48356         6.88916
|116>    H       10.74456       -11.95730         5.92880
|117>    H        9.54722       -10.66930         5.76097
|118>    H       13.68805        -8.63095         6.35416
|119>    H       11.90010        -6.26935         9.45231
|120>    H        9.79011        -6.18227         8.20988
|121>    H       15.04362        -7.85824         8.13578
|122>    H       13.51464        -6.99846        10.64641
|123>    H       16.49542        -7.52117        10.10521
|124>    H       17.92126        -7.27835        12.29364
|125>    H       17.62327        -6.89325        14.82245
|126>    H       16.76836        -6.47077        17.02665
|127>    H       15.27518        -6.19283        19.10346
|128>    H       12.85328        -6.09582        19.79738
|129>    H       10.47873        -6.03953        20.71200
|130>    H        7.59685        -6.15511        20.92744
|131>    H        4.74490        -6.39725        20.41531
|132>    H        5.05949        -6.94190        16.14270
|133>    H        7.92889        -6.78714        15.92467
|134>    H       10.75622        -6.56963        16.42489
|135>    H        2.46831        -6.70970        19.15215
|136>    H        2.72524        -7.12477        16.12820
|137>    H        1.19187        -7.08638        17.12163
|138> *
|139>
|140>                          ****END OF INPUT****

CARTESIAN COORDINATES (ANGSTROEM)
---------------------------------
  C      3.790680  -19.990060    1.092180
  N      5.108810  -20.272230    1.115120
  C      5.745800  -21.518450    0.788720
  C      5.845050  -21.716280   -0.722440
  N      5.829730  -19.204380    1.438540
  C      4.971040  -18.215170    1.636440
  C      3.647690  -18.660860    1.429230
  C      2.378770  -17.882400    1.537810
  C      2.150600  -16.991870    0.315500
  C      5.435710  -16.847610    2.001220
  C      6.048210  -16.135490    0.779850
  C      6.396490  -14.726500    1.113770
  C      5.785570  -13.670900    0.581680
  N      6.072410  -12.366220    0.934010
  C      5.464020  -11.262460    0.451780
  S      4.224190  -11.369910   -0.754580
  C      4.032380   -9.640940   -0.694620
  N      3.089360   -9.071070   -1.536860
  O      2.944480   -7.858400   -1.500260
  O      2.463860   -9.832840   -2.263940
  C      4.874520   -9.037140    0.204780
  C      5.709590   -9.945440    0.871020
  C      6.700280   -9.599710    1.863630
  C      6.683620   -8.477370    2.598030
  C      7.662970   -8.135220    3.610000
  C      8.972940   -8.633080    3.575100
  C      9.845930   -8.312690    4.585310
  C      9.433970   -7.507960    5.661640
  C      8.148500   -6.987300    5.692650
  C      7.282710   -7.293840    4.661880
  C     10.537950   -7.375720    6.586420
  C     11.643530   -8.072940    6.068230
  C     11.292690   -8.718550    4.747310
  C     12.159440   -8.163170    3.601850
  C     12.062930   -6.648280    3.468450
  C     11.445910  -10.249020    4.814230
  C     10.603420  -10.878700    5.917110
  C     12.832140   -8.103420    6.751850
  C     12.938910   -7.465290    8.000880
  C     11.821430   -6.781360    8.505820
  C     10.633600   -6.724270    7.808380
  C     14.186210   -7.530620    8.711800
  C     14.365000   -7.260520   10.030580
  C     15.607170   -7.319220   10.689570
  C     15.763590   -7.130340   12.038970
  C     16.971860   -7.129510   12.777730
  C     16.813420   -6.924160   14.115330
  C     15.469530   -6.766060   14.517160
  S     14.408120   -6.861610   13.127710
  C     14.973230   -6.585330   15.793850
  C     15.693380   -6.455030   17.001690
  C     14.902980   -6.306050   18.100000
  C     13.509840   -6.321050   17.834090
  S     13.253240   -6.510890   16.105620
  C     12.518030   -6.220490   18.774340
  C     11.120100   -6.281090   18.587010
  C     10.191710   -6.182690   19.684940
  C      8.906840   -6.305250   19.202700
  C      7.653080   -6.290940   19.856110
  C      6.535020   -6.457660   19.088090
  C      5.143320   -6.502280   19.422510
  C      4.414010   -6.703610   18.268390
  C      5.333430   -6.788140   17.170350
  C      6.623550   -6.641160   17.648960
  C      7.869710   -6.650310   16.995080
  C      8.997450   -6.484860   17.763410
  C     10.375410   -6.460110   17.421680
  C      2.976860   -6.810240   18.200880
  C      2.265620   -7.016880   17.095670
  H      3.057420  -20.735770    0.857580
  H      5.176510  -22.336630    1.240280
  H      6.744160  -21.489440    1.230040
  H      4.854270  -21.734160   -1.170620
  H      6.345110  -22.655250   -0.942950
  H      6.412480  -20.902940   -1.167450
  H      2.405810  -17.260460    2.436520
  H      1.544130  -18.579760    1.636900
  H      2.945180  -16.255320    0.225980
  H      1.202120  -16.466490    0.400940
  H      2.133640  -17.592050   -0.591670
  H      6.191200  -16.918580    2.785910
  H      4.593410  -16.264590    2.377030
  H      5.339020  -16.158550   -0.048940
  H      6.941320  -16.688180    0.481270
  H      7.158800  -14.587430    1.869330
  H      5.018090  -13.772390   -0.171810
  H      6.768070  -12.230970    1.656020
  H      4.888050   -7.972320    0.347020
  H      7.490990  -10.322010    2.022610
  H      5.855360   -7.789860    2.493570
  H      9.295040   -9.243310    2.744010
  H      7.829820   -6.352130    6.505560
  H      6.277200   -6.897690    4.672930
  H     11.844790   -8.629880    2.665630
  H     13.198880   -8.445580    3.782910
  H     11.038510   -6.345350    3.263410
  H     12.694010   -6.303370    2.652490
  H     12.387340   -6.161060    4.385230
  H     12.498130  -10.488560    4.981520
  H     11.158020  -10.672570    3.849110
  H     10.889370  -10.483560    6.889160
  H     10.744560  -11.957300    5.928800
  H      9.547220  -10.669300    5.760970
  H     13.688050   -8.630950    6.354160
  H     11.900100   -6.269350    9.452310
  H      9.790110   -6.182270    8.209880
  H     15.043620   -7.858240    8.135780
  H     13.514640   -6.998460   10.646410
  H     16.495420   -7.521170   10.105210
  H     17.921260   -7.278350   12.293640
  H     17.623270   -6.893250   14.822450
  H     16.768360   -6.470770   17.026650
  H     15.275180   -6.192830   19.103460
  H     12.853280   -6.095820   19.797380
  H     10.478730   -6.039530   20.712000
  H      7.596850   -6.155110   20.927440
  H      4.744900   -6.397250   20.415310
  H      5.059490   -6.941900   16.142700
  H      7.928890   -6.787140   15.924670
  H     10.756220   -6.569630   16.424890
  H      2.468310   -6.709700   19.152150
  H      2.725240   -7.124770   16.128200
  H      1.191870   -7.086380   17.121630

 Total Charge           Charge          ....    0
 Multiplicity           Mult            ....    1
 Number of Electrons    NEL             ....  506
 Basis Dimension        Dim             .... 1248

ORBITAL ENERGIES
----------------

  NO   OCC          E(Eh)            E(eV)
   0   2.0000     -88.969452     -2420.9819
   1   2.0000     -88.937492     -2420.1122
   2   2.0000     -88.935521     -2420.0586
   3   2.0000     -19.216130      -522.8975
   4   2.0000     -19.215284      -522.8745
   5   2.0000     -14.628110      -398.0511
   6   2.0000     -14.469523      -393.7357
   7   2.0000     -14.467582      -393.6829
   8   2.0000     -14.400208      -391.8496
   9   2.0000     -10.357599      -281.8446
  10   2.0000     -10.321578      -280.8644
  11   2.0000     -10.315415      -280.6967
  12   2.0000     -10.306325      -280.4494
  13   2.0000     -10.302062      -280.3334
  14   2.0000     -10.301549      -280.3194
  15   2.0000     -10.298576      -280.2385
  16   2.0000     -10.295579      -280.1569
  17   2.0000     -10.293842      -280.1097
  18   2.0000     -10.292560      -280.0748
  19   2.0000     -10.290635      -280.0224
  20   2.0000     -10.283169      -279.8192
  21   2.0000     -10.281405      -279.7713
  22   2.0000     -10.281278      -279.7678
  23   2.0000     -10.280473      -279.7459
  24   2.0000     -10.278075      -279.6806
  25   2.0000     -10.277535      -279.6659
  26   2.0000     -10.277477      -279.6644
  27   2.0000     -10.277324      -279.6602
  28   2.0000     -10.276676      -279.6426
  29   2.0000     -10.274510      -279.5836
  30   2.0000     -10.273986      -279.5694
  31   2.0000     -10.272657      -279.5332
  32   2.0000     -10.272020      -279.5159
  33   2.0000     -10.271940      -279.5137
  34   2.0000     -10.270411      -279.4721
  35   2.0000     -10.269136      -279.4374
  36   2.0000     -10.267948      -279.4051
  37   2.0000     -10.267740      -279.3994
  38   2.0000     -10.267220      -279.3853
  39   2.0000     -10.267156      -279.3835
  40   2.0000     -10.266130      -279.3556
  41   2.0000     -10.266008      -279.3523
  42   2.0000     -10.265969      -279.3512
  43   2.0000     -10.265706      -279.3441
  44   2.0000     -10.265583      -279.3407
  45   2.0000     -10.265512      -279.3388
  46   2.0000     -10.264639      -279.3150
  47   2.0000     -10.264557      -279.3128
  48   2.0000     -10.264305      -279.3059
  49   2.0000     -10.264218      -279.3036
  50   2.0000     -10.263864      -279.2939
  51   2.0000     -10.263181      -279.2754
  52   2.0000     -10.262679      -279.2617
  53   2.0000     -10.262632      -279.2604
  54   2.0000     -10.262336      -279.2524
  55   2.0000     -10.262118      -279.2464
  56   2.0000     -10.261819      -279.2383
  57   2.0000     -10.261396      -279.2268
  58   2.0000     -10.261312      -279.2245
  59   2.0000     -10.260074      -279.1908
  60   2.0000     -10.259941      -279.1872
  61   2.0000     -10.259723      -279.1813
  62   2.0000     -10.259209      -279.1673
  63   2.0000     -10.259055      -279.1631
  64   2.0000     -10.253571      -279.0139
  65   2.0000     -10.250757      -278.9373
  66   2.0000     -10.246947      -278.8336
  67   2.0000     -10.244959      -278.7795
  68   2.0000     -10.242333      -278.7080
  69   2.0000      -8.064838      -219.4554
  70   2.0000      -8.033264      -218.5962
  71   2.0000      -8.031805      -218.5565
  72   2.0000      -6.034588      -164.2095
  73   2.0000      -6.030186      -164.0897
  74   2.0000      -6.026169      -163.9804
  75   2.0000      -6.002993      -163.3497
  76   2.0000      -6.001523      -163.3098
  77   2.0000      -5.998955      -163.2399
  78   2.0000      -5.997609      -163.2032
  79   2.0000      -5.994277      -163.1126
  80   2.0000      -5.992650      -163.0683
  81   2.0000      -1.294842       -35.2344
  82   2.0000      -1.130421       -30.7603
  83   2.0000      -1.113257       -30.2933
  84   2.0000      -1.074952       -29.2509
  85   2.0000      -0.987189       -26.8628
  86   2.0000      -0.986690       -26.8492
  87   2.0000      -0.982891       -26.7458
  88   2.0000      -0.979989       -26.6668
  89   2.0000      -0.964757       -26.2524
  90   2.0000      -0.953114       -25.9356
  91   2.0000      -0.942338       -25.6423
  92   2.0000      -0.935099       -25.4453
  93   2.0000      -0.919545       -25.0221
  94   2.0000      -0.904177       -24.6039
  95   2.0000      -0.897641       -24.4261
  96   2.0000      -0.892752       -24.2930
  97   2.0000      -0.891128       -24.2488
  98   2.0000      -0.879811       -23.9409
  99   2.0000      -0.876310       -23.8456
 100   2.0000      -0.868379       -23.6298
 101   2.0000      -0.860631       -23.4190
 102   2.0000      -0.856671       -23.3112
 103   2.0000      -0.847770       -23.0690
 104   2.0000      -0.845449       -23.0058
 105   2.0000      -0.839612       -22.8470
 106   2.0000      -0.834492       -22.7077
 107   2.0000      -0.833789       -22.6885
 108   2.0000      -0.828600       -22.5474
 109   2.0000      -0.826530       -22.4910
 110   2.0000      -0.825045       -22.4506
 111   2.0000      -0.818412       -22.2701
 112   2.0000      -0.812361       -22.1055
 113   2.0000      -0.802229       -21.8298
 114   2.0000      -0.796369       -21.6703
 115   2.0000      -0.790737       -21.5170
 116   2.0000      -0.778240       -21.1770
 117   2.0000      -0.763431       -20.7740
 118   2.0000      -0.757319       -20.6077
 119   2.0000      -0.753936       -20.5156
 120   2.0000      -0.742218       -20.1968
 121   2.0000      -0.733575       -19.9616
 122   2.0000      -0.726720       -19.7751
 123   2.0000      -0.718583       -19.5536
 124   2.0000      -0.716751       -19.5038
 125   2.0000      -0.709052       -19.2943
 126   2.0000      -0.703208       -19.1353
 127   2.0000      -0.690986       -18.8027
 128   2.0000      -0.683275       -18.5928
 129   2.0000      -0.677169       -18.4267
 130   2.0000      -0.671606       -18.2753
 131   2.0000      -0.669848       -18.2275
 132   2.0000      -0.665618       -18.1124
 133   2.0000      -0.662454       -18.0263
 134   2.0000      -0.655856       -17.8467
 135   2.0000      -0.648150       -17.6371
 136   2.0000      -0.647049       -17.6071
 137   2.0000      -0.641774       -17.4636
 138   2.0000      -0.639336       -17.3972
 139   2.0000      -0.629808       -17.1380
 140   2.0000      -0.628939       -17.1143
 141   2.0000      -0.623159       -16.9570
 142   2.0000      -0.618069       -16.8185
 143   2.0000      -0.617433       -16.8012
 144   2.0000      -0.612735       -16.6734
 145   2.0000      -0.610842       -16.6219
 146   2.0000      -0.609286       -16.5795
 147   2.0000      -0.603375       -16.4187
 148   2.0000      -0.598484       -16.2856
 149   2.0000      -0.596785       -16.2393
 150   2.0000      -0.593255       -16.1433
 151   2.0000      -0.588214       -16.0061
 152   2.0000      -0.587581       -15.9889
 153   2.0000      -0.572184       -15.5699
 154   2.0000      -0.571357       -15.5474
 155   2.0000      -0.569981       -15.5100
 156   2.0000      -0.563558       -15.3352
 157   2.0000      -0.561463       -15.2782
 158   2.0000      -0.551621       -15.0104
 159   2.0000      -0.545431       -14.8419
 160   2.0000      -0.542921       -14.7736
 161   2.0000      -0.539708       -14.6862
 162   2.0000      -0.538464       -14.6523
 163   2.0000      -0.536638       -14.6027
 164   2.0000      -0.532382       -14.4869
 165   2.0000      -0.530531       -14.4365
 166   2.0000      -0.529700       -14.4139
 167   2.0000      -0.527924       -14.3655
 168   2.0000      -0.522660       -14.2223
 169   2.0000      -0.521960       -14.2033
 170   2.0000      -0.520340       -14.1592
 171   2.0000      -0.514989       -14.0136
 172   2.0000      -0.513939       -13.9850
 173   2.0000      -0.512003       -13.9323
 174   2.0000      -0.510738       -13.8979
 175   2.0000      -0.507930       -13.8215
 176   2.0000      -0.504057       -13.7161
 177   2.0000      -0.501063       -13.6346
 178   2.0000      -0.498435       -13.5631
 179   2.0000      -0.493305       -13.4235
 180   2.0000      -0.492755       -13.4085
 181   2.0000      -0.490888       -13.3577
 182   2.0000      -0.490543       -13.3484
 183   2.0000      -0.486034       -13.2257
 184   2.0000      -0.482988       -13.1428
 185   2.0000      -0.482389       -13.1265
 186   2.0000      -0.481598       -13.1050
 187   2.0000      -0.474846       -12.9212
 188   2.0000      -0.473690       -12.8898
 189   2.0000      -0.471031       -12.8174
 190   2.0000      -0.467898       -12.7322
 191   2.0000      -0.466476       -12.6934
 192   2.0000      -0.464807       -12.6480
 193   2.0000      -0.461946       -12.5702
 194   2.0000      -0.461553       -12.5595
 195   2.0000      -0.459162       -12.4944
 196   2.0000      -0.458298       -12.4709
 197   2.0000      -0.457683       -12.4542
 198   2.0000      -0.453427       -12.3384
 199   2.0000      -0.450732       -12.2651
 200   2.0000      -0.450219       -12.2511
 201   2.0000      -0.447106       -12.1664
 202   2.0000      -0.445476       -12.1220
 203   2.0000      -0.443392       -12.0653
 204   2.0000      -0.442086       -12.0298
 205   2.0000      -0.439074       -11.9478
 206   2.0000      -0.437410       -11.9025
 207   2.0000      -0.434218       -11.8157
 208   2.0000      -0.432737       -11.7754
 209   2.0000      -0.432191       -11.7605
 210   2.0000      -0.430632       -11.7181
 211   2.0000      -0.427838       -11.6421
 212   2.0000      -0.425304       -11.5731
 213   2.0000      -0.422120       -11.4865
 214   2.0000      -0.421147       -11.4600
 215   2.0000      -0.417324       -11.3560
 216   2.0000      -0.416392       -11.3306
 217   2.0000      -0.415510       -11.3066
 218   2.0000      -0.414601       -11.2819
 219   2.0000      -0.413049       -11.2396
 220   2.0000      -0.409790       -11.1510
 221   2.0000      -0.407913       -11.0999
 222   2.0000      -0.406004       -11.0479
 223   2.0000      -0.404402       -11.0043
 224   2.0000      -0.398312       -10.8386
 225   2.0000      -0.395492       -10.7619
 226   2.0000      -0.387392       -10.5415
 227   2.0000      -0.385752       -10.4968
 228   2.0000      -0.382861       -10.4182
 229   2.0000      -0.382461       -10.4073
 230   2.0000      -0.378480       -10.2990
 231   2.0000      -0.365998        -9.9593
 232   2.0000      -0.365399        -9.9430
 233   2.0000      -0.360169        -9.8007
 234   2.0000      -0.357309        -9.7229
 235   2.0000      -0.347764        -9.4631
 236   2.0000      -0.345118        -9.3911
 237   2.0000      -0.344875        -9.3845
 238   2.0000      -0.334696        -9.1076
 239   2.0000      -0.331619        -9.0238
 240   2.0000      -0.326255        -8.8779
 241   2.0000      -0.316112        -8.6018
 242   2.0000      -0.315510        -8.5855
 243   2.0000      -0.310588        -8.4515
 244   2.0000      -0.307698        -8.3729
 245   2.0000      -0.300035        -8.1644
 246   2.0000      -0.290662        -7.9093
 247   2.0000      -0.286879        -7.8064
 248   2.0000      -0.267281        -7.2731
 249   2.0000      -0.262387        -7.1399
 250   2.0000      -0.245481        -6.6799
 251   2.0000      -0.236024        -6.4225
 252   2.0000      -0.196139        -5.3372
 253   0.0000      -0.091329        -2.4852
 254   0.0000      -0.066000        -1.7960
 255   0.0000      -0.038208        -1.0397
 256   0.0000      -0.026650        -0.7252
 257   0.0000      -0.005913        -0.1609

MULLIKEN ATOMIC CHARGES
-----------------------
   0 C :    0.034132
   1 N :   -0.134516
   2 C :    0.130746
   3 C :   -0.003088
   4 N :   -0.104133
   5 C :   -0.160895
   6 C :   -0.117106
   7 C :    0.098231
   8 C :    0.021926
   9 C :    0.146961
  10 C :    0.056733
  11 C :   -0.072866
  12 C :    0.069316
  13 N :   -0.037286
  14 C :   -0.109905
  15 S :    0.137291
  16 C :   -0.019030
  17 N :    0.281374
  18 O :   -0.268837
  19 O :   -0.282543
  20 C :    0.009024
  21 C :    0.113446
  22 C :   -0.037606
  23 C :   -0.007283
  24 C :    0.110692
  25 C :   -0.099870
  26 C :    0.014557
  27 C :    0.108108
  28 C :   -0.051407
  29 C :   -0.013515
  30 C :    0.105539
  31 C :    0.021154
  32 C :   -0.142379
  33 C :    0.072602
  34 C :    0.024669
  35 C :    0.070420
  36 C :    0.023959
  37 C :   -0.107911
  38 C :    0.125264
  39 C :   -0.014919
  40 C :   -0.045312
  41 C :   -0.014101
  42 C :    0.017379
  43 C :   -0.017616
  44 C :   -0.017108
  45 C :    0.035094
  46 C :    0.024603
  47 C :   -0.046002
  48 S :    0.058094
  49 C :   -0.032962
  50 C :    0.020047
  51 C :    0.034873
  52 C :   -0.019556
  53 S :    0.053897
  54 C :   -0.015723
  55 C :    0.059196
  56 C :   -0.039200
  57 C :    0.061915
  58 C :   -0.006769
  59 C :    0.059364
  60 C :   -0.032644
  61 C :    0.064897
  62 C :   -0.026993
  63 C :    0.052372
  64 C :   -0.004277
  65 C :    0.052872
  66 C :   -0.044954
  67 C :    0.011645
  68 C :   -0.027775
  69 H :   -0.018895
  70 H :    0.017179
  71 H :    0.028714
  72 H :    0.015923
  73 H :    0.019173
  74 H :    0.030126
  75 H :    0.007516
  76 H :   -0.009773
  77 H :    0.000336
  78 H :    0.012392
  79 H :    0.008558
  80 H :    0.003468
  81 H :   -0.017727
  82 H :    0.001646
  83 H :    0.019850
  84 H :   -0.010311
  85 H :    0.022035
  86 H :    0.130447
  87 H :    0.007609
  88 H :   -0.028348
  89 H :   -0.014448
  90 H :   -0.043392
  91 H :   -0.036153
  92 H :   -0.030483
  93 H :   -0.004708
  94 H :   -0.003903
  95 H :    0.022601
  96 H :    0.007228
  97 H :    0.022088
  98 H :   -0.003141
  99 H :   -0.010390
 100 H :    0.024825
 101 H :    0.006891
 102 H :    0.018113
 103 H :   -0.045612
 104 H :   -0.029187
 105 H :   -0.038445
 106 H :   -0.026276
 107 H :    0.000372
 108 H :   -0.020926
 109 H :   -0.016541
 110 H :   -0.015046
 111 H :   -0.016891
 112 H :   -0.016717
 113 H :   -0.028277
 114 H :   -0.026258
 115 H :   -0.028362
 116 H :   -0.031294
 117 H :   -0.026324
 118 H :   -0.026728
 119 H :   -0.014932
 120 H :   -0.021081
 121 H :    0.007065
 122 H :    0.020116
Sum of atomic charges:   -0.0000000

LOEWDIN ATOMIC CHARGES
----------------------
   0 C :   -0.021596
   1 N :    0.093441
   2 C :    0.036614
   3 C :   -0.060475
   4 N :   -0.114110
   5 C :   -0.055880
   6 C :   -0.094984
   7 C :   -0.029227
   8 C :   -0.052435
   9 C :   -0.027399
  10 C :   -0.021498
  11 C :   -0.061866
  12 C :    0.002075
  13 N :    0.029716
  14 C :   -0.090405
  15 S :    0.444617
  16 C :   -0.223888
  17 N :    0.274612
  18 O :   -0.234311
  19 O :   -0.249151
  20 C :    0.007285
  21 C :   -0.117867
  22 C :   -0.034517
  23 C :   -0.015548
  24 C :   -0.025645
  25 C :   -0.025202
  26 C :    0.004817
  27 C :   -0.018144
  28 C :   -0.019064
  29 C :   -0.019945
  30 C :   -0.020390
  31 C :    0.001390
  32 C :   -0.035491
  33 C :   -0.011368
  34 C :   -0.057347
  35 C :   -0.012287
  36 C :   -0.058387
  37 C :   -0.023108
  38 C :   -0.024152
  39 C :   -0.015079
  40 C :   -0.017841
  41 C :   -0.019008
  42 C :   -0.031122
  43 C :   -0.057767
  44 C :   -0.144539
  45 C :   -0.037362
  46 C :   -0.032542
  47 C :   -0.180650
  48 S :    0.361260
  49 C :   -0.178803
  50 C :   -0.044333
  51 C :   -0.030564
  52 C :   -0.150854
  53 S :    0.381255
  54 C :   -0.051174
  55 C :   -0.064437
  56 C :    0.038790
  57 C :   -0.063213
  58 C :    0.063887
  59 C :   -0.055448
  60 C :    0.006272
  61 C :   -0.057019
  62 C :    0.039130
  63 C :   -0.058655
  64 C :    0.062137
  65 C :   -0.051104
  66 C :   -0.011617
  67 C :   -0.020447
  68 C :   -0.056593
  69 H :    0.018008
  70 H :    0.025505
  71 H :    0.034062
  72 H :    0.023693
  73 H :    0.028252
  74 H :    0.030771
  75 H :    0.026514
  76 H :    0.026791
  77 H :    0.017729
  78 H :    0.023016
  79 H :    0.023031
  80 H :    0.032077
  81 H :    0.024224
  82 H :    0.024578
  83 H :    0.032907
  84 H :    0.020526
  85 H :    0.022617
  86 H :    0.092478
  87 H :    0.043521
  88 H :    0.017747
  89 H :    0.027973
  90 H :    0.020819
  91 H :    0.026562
  92 H :    0.025956
  93 H :    0.018825
  94 H :    0.019245
  95 H :    0.025939
  96 H :    0.023403
  97 H :    0.025954
  98 H :    0.019806
  99 H :    0.016719
 100 H :    0.027147
 101 H :    0.022575
 102 H :    0.024083
 103 H :    0.022238
 104 H :    0.025988
 105 H :    0.026203
 106 H :    0.025291
 107 H :    0.019715
 108 H :    0.030707
 109 H :    0.031964
 110 H :    0.031042
 111 H :    0.030061
 112 H :    0.031660
 113 H :    0.031703
 114 H :    0.023794
 115 H :    0.033371
 116 H :    0.022585
 117 H :    0.023882
 118 H :    0.033965
 119 H :    0.011313
 120 H :    0.028683
 121 H :    0.017433
 122 H :    0.023906

  Mayer bond orders larger than 0.100000
B(  0-C ,  1-N ) :   1.2304 B(  0-C ,  4-N ) :   0.1119 B(  0-C ,  6-C ) :   1.4509
B(  0-C , 69-H ) :   0.9863 B(  1-N ,  2-C ) :   0.9550 B(  1-N ,  4-N ) :   1.1561
B(  2-C ,  3-C ) :   1.1106 B(  2-C , 70-H ) :   0.9529 B(  2-C , 71-H ) :   0.9452
B(  3-C , 72-H ) :   0.9686 B(  3-C , 73-H ) :   0.9680 B(  3-C , 74-H ) :   0.9685
B(  4-N ,  5-C ) :   1.5865 B(  5-C ,  6-C ) :   1.3474 B(  5-C ,  9-C ) :   1.0801
B(  6-C ,  7-C ) :   1.0657 B(  7-C ,  8-C ) :   1.1023 B(  7-C , 75-H ) :   0.9289
B(  7-C , 76-H ) :   0.9211 B(  8-C , 77-H ) :   0.9718 B(  8-C , 78-H ) :   0.9651
B(  8-C , 79-H ) :   0.9682 B(  9-C , 10-C ) :   1.0828 B(  9-C , 80-H ) :   0.9052
B(  9-C , 81-H ) :   0.9140 B( 10-C , 11-C ) :   1.0550 B( 10-C , 82-H ) :   0.9486
B( 10-C , 83-H ) :   0.9201 B( 11-C , 12-C ) :   1.8472 B( 11-C , 84-H ) :   0.9607
B( 12-C , 13-N ) :   1.0606 B( 12-C , 85-H ) :   0.9594 B( 13-N , 14-C ) :   1.2636
B( 13-N , 86-H ) :   0.9165 B( 14-C , 15-S ) :   1.1362 B( 14-C , 21-C ) :   1.3346
B( 15-S , 16-C ) :   1.0526 B( 16-C , 17-N ) :   1.0005 B( 16-C , 20-C ) :   1.4619
B( 17-N , 18-O ) :   1.5163 B( 17-N , 19-O ) :   1.4938 B( 18-O , 19-O ) :   0.2449
B( 20-C , 21-C ) :   1.2601 B( 20-C , 87-H ) :   1.0015 B( 21-C , 22-C ) :   1.0439
B( 22-C , 23-C ) :   1.7745 B( 22-C , 88-H ) :   0.9592 B( 23-C , 24-C ) :   1.0400
B( 23-C , 89-H ) :   0.9779 B( 24-C , 25-C ) :   1.3055 B( 24-C , 29-C ) :   1.3477
B( 25-C , 26-C ) :   1.3960 B( 25-C , 90-H ) :   1.0009 B( 26-C , 27-C ) :   1.3602
B( 26-C , 32-C ) :   0.9159 B( 27-C , 28-C ) :   1.3442 B( 27-C , 30-C ) :   0.9975
B( 28-C , 29-C ) :   1.3742 B( 28-C , 91-H ) :   0.9920 B( 29-C , 92-H ) :   0.9919
B( 30-C , 31-C ) :   1.3652 B( 30-C , 40-C ) :   1.3291 B( 31-C , 32-C ) :   0.9151
B( 31-C , 37-C ) :   1.3851 B( 32-C , 33-C ) :   1.0355 B( 32-C , 35-C ) :   1.0398
B( 33-C , 34-C ) :   1.1012 B( 33-C , 93-H ) :   0.9393 B( 33-C , 94-H ) :   0.9392
B( 34-C , 95-H ) :   0.9645 B( 34-C , 96-H ) :   0.9639 B( 34-C , 97-H ) :   0.9648
B( 35-C , 36-C ) :   1.0998 B( 35-C , 98-H ) :   0.9390 B( 35-C , 99-H ) :   0.9384
B( 36-C ,100-H ) :   0.9648 B( 36-C ,101-H ) :   0.9643 B( 36-C ,102-H ) :   0.9641
B( 37-C , 38-C ) :   1.2802 B( 37-C ,103-H ) :   1.0124 B( 38-C , 39-C ) :   1.3402
B( 38-C , 41-C ) :   1.0644 B( 39-C , 40-C ) :   1.3997 B( 39-C ,104-H ) :   0.9839
B( 40-C ,105-H ) :   0.9906 B( 41-C , 42-C ) :   1.6564 B( 41-C ,106-H ) :   0.9861
B( 42-C , 43-C ) :   1.1483 B( 42-C ,107-H ) :   0.9632 B( 43-C , 44-C ) :   1.5664
B( 43-C ,108-H ) :   0.9849 B( 44-C , 45-C ) :   1.1415 B( 44-C , 48-S ) :   1.0285
B( 45-C , 46-C ) :   1.5858 B( 45-C ,109-H ) :   0.9993 B( 46-C , 47-C ) :   1.1931
B( 46-C ,110-H ) :   0.9940 B( 47-C , 48-S ) :   1.0411 B( 47-C , 49-C ) :   1.5049
B( 49-C , 50-C ) :   1.1881 B( 49-C , 53-S ) :   1.0405 B( 50-C , 51-C ) :   1.5856
B( 50-C ,111-H ) :   0.9934 B( 51-C , 52-C ) :   1.1453 B( 51-C ,112-H ) :   0.9990
B( 52-C , 53-S ) :   1.0311 B( 52-C , 54-C ) :   1.5704 B( 54-C , 55-C ) :   1.1376
B( 54-C ,113-H ) :   0.9691 B( 55-C , 56-C ) :   1.1104 B( 55-C , 66-C ) :   1.4553
B( 56-C , 57-C ) :   1.4544 B( 56-C ,114-H ) :   1.0158 B( 57-C , 58-C ) :   1.1116
B( 57-C , 65-C ) :   1.1244 B( 58-C , 59-C ) :   1.4829 B( 58-C ,115-H ) :   1.0049
B( 59-C , 60-C ) :   1.0795 B( 59-C , 63-C ) :   1.1219 B( 60-C , 61-C ) :   1.5171
B( 60-C ,116-H ) :   1.0173 B( 61-C , 62-C ) :   1.1338 B( 61-C , 67-C ) :   1.0858
B( 62-C , 63-C ) :   1.4509 B( 62-C ,117-H ) :   1.0081 B( 63-C , 64-C ) :   1.1271
B( 64-C , 65-C ) :   1.4503 B( 64-C ,118-H ) :   1.0037 B( 65-C , 66-C ) :   1.1272
B( 66-C ,119-H ) :   0.9960 B( 67-C , 68-C ) :   1.9308 B( 67-C ,120-H ) :   0.9669
B( 68-C ,121-H ) :   0.9523 B( 68-C ,122-H ) :   0.9500

-----------------------------------------------------------------------------
         ABSORPTION SPECTRUM VIA TRANSITION ELECTRIC DIPOLE MOMENTS
-----------------------------------------------------------------------------
State   Energy  Wavelength   fosc         T2         TX        TY        TZ
        (cm-1)    (nm)                  (au**2)     (au)      (au)      (au)
-----------------------------------------------------------------------------
   0    7089.7   1410.5   0.055721849   2.58745   1.12451  -0.11021  -1.14489
   1   14326.2    698.0   1.072442963  24.64452  -1.78212   0.54748   4.60096
   2   15301.1    653.5   0.242863609   5.22535  -0.46482   0.29282   2.21891
   3   22593.6    442.6   0.101561417   1.47985  -1.21320  -0.08255  -0.03429
   4   22908.9    436.5   0.086091875   1.23718  -0.32719  -0.14984  -1.05246
   5   24648.1    405.7   0.872563648  11.65440  -3.14771  -0.31913  -1.28239
   6   25184.4    397.1   1.688926052  22.07775   4.22980   0.38579   2.00941
   7   26756.3    373.7   0.151281717   1.86139   0.05554  -1.17017   0.69928
   8   27090.8    369.1   0.086455942   1.05063   0.76602   0.29211   0.61524
   9   28135.1    355.4   0.103377067   1.20963   0.91785   0.15037   0.58700
  10   28671.6    348.8   0.101776778   1.16862  -0.61861   0.23515  -0.85477
  11   29099.0    343.7   0.082908253   0.93798   0.20751   0.94034  -0.10339
  12   29360.9    340.6   0.302129096   3.38765  -1.53128   0.98496  -0.26962
  13   30638.9    326.4   0.044135406   0.47423  -0.36178  -0.28273  -0.51324
  14   31854.0    313.9   0.006003071   0.06204   0.11751   0.21431  -0.04798
  15   32236.2    310.2   0.206834306   2.11229   0.36182  -1.36032  -0.36181
  16   32972.6    303.3   0.410467391   4.09828   1.41758   0.80574   1.19981
  17   33310.3    300.2   0.001924915   0.01902  -0.13536  -0.01028   0.02444
  18   33909.8    294.9   0.020616227   0.20015  -0.44380   0.04605   0.03270
  19   34185.3    292.5   0.028131669   0.27091   0.32449   0.30831   0.26564
  20   35132.6    284.6   0.099098397   0.92861  -0.66745  -0.34578  -0.60295
  21   35253.2    283.7   0.072829763   0.68012  -0.76580  -0.10607  -0.28708
  22   35593.3    281.0   0.108437434   1.00297   0.04106  -0.88505   0.46688
  23   35989.5    277.9   0.046111701   0.42180  -0.13125  -0.41695  -0.48034
  24   36718.5    272.3   0.012237323   0.10972   0.18341  -0.08501   0.26240
  25   37019.1    270.1   0.032257849   0.28687  -0.27998  -0.16171  -0.42700
  26   37271.9    268.3   0.049369636   0.43607   0.65764   0.02645  -0.05365
  27   37365.7    267.6   0.078095722   0.68807  -0.79507   0.22630  -0.06872
  28   38076.9    262.6   0.000963423   0.00833   0.05761  -0.01592  -0.06897
  29   38539.1    259.5   0.093291233   0.79692  -0.81447   0.04398  -0.36279
  30   38802.8    257.7   0.058944981   0.50010  -0.59324  -0.01616  -0.38460
  31   39026.6    256.2   0.090779157   0.76577   0.65974   0.27696   0.50380
  32   39180.5    255.2   0.299622343   2.51756   1.25723   0.19557   0.94799
  33   39828.2    251.1   0.171703888   1.41927   0.91069  -0.34218   0.68762
  34   40065.5    249.6   0.011660025   0.09581  -0.29663  -0.08667   0.01756
  35   40181.5    248.9   0.007897239   0.06470   0.13855   0.02317  -0.21206

FINAL SINGLE POINT ENERGY     -3878.891689313672

DIPOLE MOMENT
-------------
                                X             Y             Z
Electronic contribution:     17.23123      67.16635      57.67547
Nuclear contribution   :    -15.22412     -69.45004     -55.69531
                        -----------------------------------------
Total Dipole Moment    :      2.00711      -2.28369       1.98016
                        -----------------------------------------
Magnitude (a.u.)       :      3.62833
Magnitude (Debye)      :      9.22248

Rotational constants in cm-1:     0.000821     0.000224     0.000211
Rotational constants in MHz :    24.611358     6.720249     6.312922

                             ****ORCA TERMINATED NORMALLY****
TOTAL RUN TIME: 0 days 0 hours 12 minutes 43 seconds 39 msec
