                         Program Version 4.2.0 -  RELEASE  -
|  1> # ORCA input file
|  2> # SCF done       -202.958633281052          0.000693635063
|  3> ! CAM-B3LYP def2-SVP def2/J RIJCOSX Grid4 TightSCF
|  4> %maxcore 5000
|  5> %tddft
|  6>     Mode sTDDFT
|  7>     Ethresh 5.0
|  8>     maxcore 5000
|  9> end
| 10>
| 11> %pal
| 12>   nprocs 6
| 13>   end
| 14> * xyz 0 1
| 15>    C      -17.71271        -4.64544        -3.33324
| 16>    C      -16.71855        -5.58709        -3.18422
| 17>    C      -16.75788        -6.87640        -3.74938
| 18>    N      -16.71733        -7.94232        -4.17750
| 19>    C      -15.52354        -5.42256        -2.45779
| 20>    N      -14.52288        -5.38469        -1.89247
| 21>    C      -18.94493        -4.84064        -4.09470
| 22>    C      -19.71969        -3.65709        -4.01333
| 23>    C      -20.93843        -3.52555        -4.63149
| 24>    C      -21.41836        -4.61345        -5.36852
| 25>    C      -20.63855        -5.79026        -5.44447
| 26>    C      -19.40447        -5.92413        -4.81694
| 27>    S      -21.42342        -7.00275        -6.40819
| 28>    C      -22.76134        -5.94363        -6.69496
| 29>    C      -22.63346        -4.73795        -6.09990
| 30>    C      -19.00224        -2.66184        -3.19269
| 31>    O      -19.38822        -1.54032        -2.92085
| 32>    C      -17.74114        -3.31432        -2.78664
| 33>    C      -16.76307        -2.71747        -2.01463
| 34>    C      -16.82324        -1.42302        -1.51231
| 35>    C      -15.81274        -0.86521        -0.74887
| 36>    C      -15.78270         0.43526        -0.20332
| 37>    C      -14.65029         0.71497         0.51057
| 38>    C      -13.73785        -0.35508         0.56002
| 39>    S      -14.35120        -1.72899        -0.32619
| 40>    C      -12.50666        -0.41125         1.20209
| 41>    C      -11.86674         0.58517         1.96274
| 42>    C      -10.66170         0.19208         2.47331
| 43>    C      -10.29599        -1.13081         2.14084
| 44>    S      -11.53367        -1.85898         1.14330
| 45>    C       -9.14702        -1.77853         2.55117
| 46>    C       -8.76751        -3.08611         2.25844
| 47>    S       -9.69824        -4.14344         1.23148
| 48>    C       -8.57924        -5.47932         1.44827
| 49>    C       -7.52305        -5.08144         2.28321
| 50>    C       -7.62754        -3.76773         2.71763
| 51>    C       -6.54269        -3.21666         3.58015
| 52>    C       -6.21499        -4.19367         4.72789
| 53>    C       -4.84012        -3.83981         5.27710
| 54>    F       -4.76068        -2.55026         5.64752
| 55>    F       -4.51932        -4.56351         6.35869
| 56>    F       -3.86084        -4.03618         4.38130
| 57>    C       -6.25215        -5.67355         4.29952
| 58>    C       -6.33798        -5.84582         2.77743
| 59>    C       -8.90793        -6.65754         0.76895
| 60>    C       -8.30882        -7.89445         0.83506
| 61>    C       -8.74477        -8.98317         0.08727
| 62>    C       -8.21041       -10.25447         0.19422
| 63>    C       -8.57403       -11.40092        -0.53829
| 64>    C       -7.88526       -12.53030        -0.18922
| 65>    C       -6.95288       -12.32816         0.84519
| 66>    S       -6.95139       -10.65909         1.34665
| 67>    C       -6.13867       -13.27070         1.46266
| 68>    C       -6.01489       -14.63945         1.16192
| 69>    C       -5.15366       -15.30663         1.98822
| 70>    C       -4.56326       -14.49565         2.97906
| 71>    S       -5.12418       -12.84912         2.82101
| 72>    C       -3.70640       -14.90780         3.98409
| 73>    C       -3.17245       -14.04911         4.93679
| 74>    C       -2.41084       -14.37026         6.04049
| 75>    C       -2.15877       -15.61877         6.70305
| 76>    C       -2.96678       -16.73449         6.70570
| 77>    C       -2.66951       -17.91971         7.40440
| 78>    N       -2.47019       -18.92157         7.93084
| 79>    C       -4.24265       -16.79531         6.11361
| 80>    N       -5.31015       -16.89016         5.69873
| 81>    C       -0.99890       -15.42580         7.57349
| 82>    C       -0.67443       -14.04521         7.59408
| 83>    C       -1.58206       -13.32338         6.68028
| 84>    O       -1.62266       -12.13022         6.46379
| 85>    C        0.34489       -13.53925         8.36218
| 86>    C        1.08626       -14.43665         9.13854
| 87>    C        0.76444       -15.81286         9.09850
| 88>    C       -0.27317       -16.32581         8.32672
| 89>    S        1.81562       -16.73443        10.12760
| 90>    C        2.65622       -15.29682        10.59747
| 91>    C        2.17932       -14.17655        10.01317
| 92>    H      -21.50409        -2.61027        -4.54976
| 93>    H      -18.84981        -6.84307        -4.90670
| 94>    H      -23.57261        -6.29670        -7.30143
| 95>    H      -23.36469        -3.95267        -6.16701
| 96>    H      -15.87461        -3.29084        -1.77875
| 97>    H      -17.69271        -0.81756        -1.72395
| 98>    H      -16.59490         1.12404        -0.35298
| 99>    H      -14.45742         1.65485         0.99584
|100>    H      -12.30206         1.55548         2.11896
|101>    H      -10.02894         0.81440         3.08129
|102>    H       -8.48006        -1.20353         3.17989
|103>    H       -6.80150        -2.24240         3.99240
|104>    H       -5.64587        -3.09047         2.96344
|105>    H       -6.91765        -4.02920         5.55020
|106>    H       -7.12378        -6.15210         4.74764
|107>    H       -5.36616        -6.19089         4.67026
|108>    H       -6.39066        -6.90423         2.54454
|109>    H       -5.43267        -5.44338         2.31359
|110>    H       -9.77425        -6.57396         0.12254
|111>    H       -7.47541        -8.06841         1.49843
|112>    H       -9.55214        -8.84314        -0.61925
|113>    H       -9.33297       -11.36449        -1.29961
|114>    H       -8.03699       -13.49384        -0.64074
|115>    H       -6.55497       -15.09954         0.35423
|116>    H       -4.93910       -16.35821         1.92384
|117>    H       -3.44861       -15.95678         3.99748
|118>    H       -3.29829       -12.98262         4.77084
|119>    H        0.56303       -12.48254         8.36629
|120>    H       -0.47849       -17.38350         8.32712
|121>    H        3.46794       -15.38305        11.29338
|122>    H        2.57594       -13.19216        10.18484
|123> *
|124>
|125>                          ****END OF INPUT****

CARTESIAN COORDINATES (ANGSTROEM)
---------------------------------
  C    -17.712710   -4.645440   -3.333240
  C    -16.718550   -5.587090   -3.184220
  C    -16.757880   -6.876400   -3.749380
  N    -16.717330   -7.942320   -4.177500
  C    -15.523540   -5.422560   -2.457790
  N    -14.522880   -5.384690   -1.892470
  C    -18.944930   -4.840640   -4.094700
  C    -19.719690   -3.657090   -4.013330
  C    -20.938430   -3.525550   -4.631490
  C    -21.418360   -4.613450   -5.368520
  C    -20.638550   -5.790260   -5.444470
  C    -19.404470   -5.924130   -4.816940
  S    -21.423420   -7.002750   -6.408190
  C    -22.761340   -5.943630   -6.694960
  C    -22.633460   -4.737950   -6.099900
  C    -19.002240   -2.661840   -3.192690
  O    -19.388220   -1.540320   -2.920850
  C    -17.741140   -3.314320   -2.786640
  C    -16.763070   -2.717470   -2.014630
  C    -16.823240   -1.423020   -1.512310
  C    -15.812740   -0.865210   -0.748870
  C    -15.782700    0.435260   -0.203320
  C    -14.650290    0.714970    0.510570
  C    -13.737850   -0.355080    0.560020
  S    -14.351200   -1.728990   -0.326190
  C    -12.506660   -0.411250    1.202090
  C    -11.866740    0.585170    1.962740
  C    -10.661700    0.192080    2.473310
  C    -10.295990   -1.130810    2.140840
  S    -11.533670   -1.858980    1.143300
  C     -9.147020   -1.778530    2.551170
  C     -8.767510   -3.086110    2.258440
  S     -9.698240   -4.143440    1.231480
  C     -8.579240   -5.479320    1.448270
  C     -7.523050   -5.081440    2.283210
  C     -7.627540   -3.767730    2.717630
  C     -6.542690   -3.216660    3.580150
  C     -6.214990   -4.193670    4.727890
  C     -4.840120   -3.839810    5.277100
  F     -4.760680   -2.550260    5.647520
  F     -4.519320   -4.563510    6.358690
  F     -3.860840   -4.036180    4.381300
  C     -6.252150   -5.673550    4.299520
  C     -6.337980   -5.845820    2.777430
  C     -8.907930   -6.657540    0.768950
  C     -8.308820   -7.894450    0.835060
  C     -8.744770   -8.983170    0.087270
  C     -8.210410  -10.254470    0.194220
  C     -8.574030  -11.400920   -0.538290
  C     -7.885260  -12.530300   -0.189220
  C     -6.952880  -12.328160    0.845190
  S     -6.951390  -10.659090    1.346650
  C     -6.138670  -13.270700    1.462660
  C     -6.014890  -14.639450    1.161920
  C     -5.153660  -15.306630    1.988220
  C     -4.563260  -14.495650    2.979060
  S     -5.124180  -12.849120    2.821010
  C     -3.706400  -14.907800    3.984090
  C     -3.172450  -14.049110    4.936790
  C     -2.410840  -14.370260    6.040490
  C     -2.158770  -15.618770    6.703050
  C     -2.966780  -16.734490    6.705700
  C     -2.669510  -17.919710    7.404400
  N     -2.470190  -18.921570    7.930840
  C     -4.242650  -16.795310    6.113610
  N     -5.310150  -16.890160    5.698730
  C     -0.998900  -15.425800    7.573490
  C     -0.674430  -14.045210    7.594080
  C     -1.582060  -13.323380    6.680280
  O     -1.622660  -12.130220    6.463790
  C      0.344890  -13.539250    8.362180
  C      1.086260  -14.436650    9.138540
  C      0.764440  -15.812860    9.098500
  C     -0.273170  -16.325810    8.326720
  S      1.815620  -16.734430   10.127600
  C      2.656220  -15.296820   10.597470
  C      2.179320  -14.176550   10.013170
  H    -21.504090   -2.610270   -4.549760
  H    -18.849810   -6.843070   -4.906700
  H    -23.572610   -6.296700   -7.301430
  H    -23.364690   -3.952670   -6.167010
  H    -15.874610   -3.290840   -1.778750
  H    -17.692710   -0.817560   -1.723950
  H    -16.594900    1.124040   -0.352980
  H    -14.457420    1.654850    0.995840
  H    -12.302060    1.555480    2.118960
  H    -10.028940    0.814400    3.081290
  H     -8.480060   -1.203530    3.179890
  H     -6.801500   -2.242400    3.992400
  H     -5.645870   -3.090470    2.963440
  H     -6.917650   -4.029200    5.550200
  H     -7.123780   -6.152100    4.747640
  H     -5.366160   -6.190890    4.670260
  H     -6.390660   -6.904230    2.544540
  H     -5.432670   -5.443380    2.313590
  H     -9.774250   -6.573960    0.122540
  H     -7.475410   -8.068410    1.498430
  H     -9.552140   -8.843140   -0.619250
  H     -9.332970  -11.364490   -1.299610
  H     -8.036990  -13.493840   -0.640740
  H     -6.554970  -15.099540    0.354230
  H     -4.939100  -16.358210    1.923840
  H     -3.448610  -15.956780    3.997480
  H     -3.298290  -12.982620    4.770840
  H      0.563030  -12.482540    8.366290
  H     -0.478490  -17.383500    8.327120
  H      3.467940  -15.383050   11.293380
  H      2.575940  -13.192160   10.184840

 Total Charge           Charge          ....    0
 Multiplicity           Mult            ....    1
 Number of Electrons    NEL             ....  580
 Basis Dimension        Dim             .... 1261

ORBITAL ENERGIES
----------------

  NO   OCC          E(Eh)            E(eV)
   0   2.0000     -88.969370     -2420.9796
   1   2.0000     -88.968776     -2420.9635
   2   2.0000     -88.963580     -2420.8221
   3   2.0000     -88.960965     -2420.7509
   4   2.0000     -88.957771     -2420.6640
   5   2.0000     -88.956672     -2420.6341
   6   2.0000     -88.952797     -2420.5287
   7   2.0000     -24.805279      -674.9860
   8   2.0000     -24.802161      -674.9011
   9   2.0000     -24.800965      -674.8686
  10   2.0000     -19.200654      -522.4764
  11   2.0000     -19.192955      -522.2669
  12   2.0000     -14.403373      -391.9357
  13   2.0000     -14.399966      -391.8430
  14   2.0000     -14.396361      -391.7449
  15   2.0000     -14.394185      -391.6857
  16   2.0000     -10.514087      -286.1028
  17   2.0000     -10.350763      -281.6586
  18   2.0000     -10.343586      -281.4633
  19   2.0000     -10.336325      -281.2657
  20   2.0000     -10.333289      -281.1831
  21   2.0000     -10.327575      -281.0276
  22   2.0000     -10.327562      -281.0272
  23   2.0000     -10.325294      -280.9655
  24   2.0000     -10.324956      -280.9563
  25   2.0000     -10.323741      -280.9233
  26   2.0000     -10.323284      -280.9109
  27   2.0000     -10.323082      -280.9053
  28   2.0000     -10.322577      -280.8916
  29   2.0000     -10.321885      -280.8728
  30   2.0000     -10.320742      -280.8417
  31   2.0000     -10.320377      -280.8317
  32   2.0000     -10.319997      -280.8214
  33   2.0000     -10.313679      -280.6495
  34   2.0000     -10.310308      -280.5578
  35   2.0000     -10.308840      -280.5178
  36   2.0000     -10.308312      -280.5034
  37   2.0000     -10.307610      -280.4843
  38   2.0000     -10.306986      -280.4674
  39   2.0000     -10.305539      -280.4280
  40   2.0000     -10.305045      -280.4145
  41   2.0000     -10.304486      -280.3993
  42   2.0000     -10.304471      -280.3989
  43   2.0000     -10.304332      -280.3951
  44   2.0000     -10.303087      -280.3613
  45   2.0000     -10.302609      -280.3483
  46   2.0000     -10.301228      -280.3107
  47   2.0000     -10.300801      -280.2991
  48   2.0000     -10.300399      -280.2881
  49   2.0000     -10.300341      -280.2865
  50   2.0000     -10.300238      -280.2837
  51   2.0000     -10.299770      -280.2710
  52   2.0000     -10.298847      -280.2459
  53   2.0000     -10.297968      -280.2219
  54   2.0000     -10.297493      -280.2090
  55   2.0000     -10.296265      -280.1756
  56   2.0000     -10.295153      -280.1454
  57   2.0000     -10.294766      -280.1348
  58   2.0000     -10.292819      -280.0818
  59   2.0000     -10.291654      -280.0502
  60   2.0000     -10.290407      -280.0162
  61   2.0000     -10.290396      -280.0159
  62   2.0000     -10.290006      -280.0053
  63   2.0000     -10.289086      -279.9803
  64   2.0000     -10.289025      -279.9786
  65   2.0000     -10.286482      -279.9094
  66   2.0000     -10.286090      -279.8987
  67   2.0000     -10.285587      -279.8851
  68   2.0000     -10.282619      -279.8043
  69   2.0000     -10.279886      -279.7299
  70   2.0000     -10.278337      -279.6878
  71   2.0000     -10.278044      -279.6798
  72   2.0000     -10.276418      -279.6355
  73   2.0000     -10.276163      -279.6286
  74   2.0000     -10.275992      -279.6239
  75   2.0000     -10.272756      -279.5359
  76   2.0000     -10.271815      -279.5103
  77   2.0000      -8.064823      -219.4550
  78   2.0000      -8.064631      -219.4498
  79   2.0000      -8.059804      -219.3184
  80   2.0000      -8.057043      -219.2433
  81   2.0000      -8.054113      -219.1636
  82   2.0000      -8.052862      -219.1295
  83   2.0000      -8.049014      -219.0248
  84   2.0000      -6.034500      -164.2071
  85   2.0000      -6.033951      -164.1922
  86   2.0000      -6.030286      -164.0924
  87   2.0000      -6.029802      -164.0793
  88   2.0000      -6.029405      -164.0684
  89   2.0000      -6.026657      -163.9937
  90   2.0000      -6.026621      -163.9927
  91   2.0000      -6.025953      -163.9745
  92   2.0000      -6.025450      -163.9608
  93   2.0000      -6.023704      -163.9133
  94   2.0000      -6.022577      -163.8826
  95   2.0000      -6.022367      -163.8769
  96   2.0000      -6.020919      -163.8375
  97   2.0000      -6.019683      -163.8039
  98   2.0000      -6.018502      -163.7718
  99   2.0000      -6.018250      -163.7649
 100   2.0000      -6.018096      -163.7607
 101   2.0000      -6.015262      -163.6836
 102   2.0000      -6.014552      -163.6643
 103   2.0000      -6.014267      -163.6565
 104   2.0000      -6.010710      -163.5597
 105   2.0000      -1.392746       -37.8986
 106   2.0000      -1.295907       -35.2634
 107   2.0000      -1.293615       -35.2011
 108   2.0000      -1.113696       -30.3052
 109   2.0000      -1.106954       -30.1218
 110   2.0000      -1.018038       -27.7022
 111   2.0000      -1.011198       -27.5161
 112   2.0000      -1.008563       -27.4444
 113   2.0000      -1.006236       -27.3811
 114   2.0000      -1.001384       -27.2490
 115   2.0000      -0.996441       -27.1145
 116   2.0000      -0.991572       -26.9821
 117   2.0000      -0.991098       -26.9692
 118   2.0000      -0.988075       -26.8869
 119   2.0000      -0.980462       -26.6797
 120   2.0000      -0.974156       -26.5081
 121   2.0000      -0.971068       -26.4241
 122   2.0000      -0.966273       -26.2936
 123   2.0000      -0.950748       -25.8712
 124   2.0000      -0.932881       -25.3850
 125   2.0000      -0.921602       -25.0781
 126   2.0000      -0.917094       -24.9554
 127   2.0000      -0.912207       -24.8224
 128   2.0000      -0.902876       -24.5685
 129   2.0000      -0.897310       -24.4171
 130   2.0000      -0.883207       -24.0333
 131   2.0000      -0.877928       -23.8896
 132   2.0000      -0.871994       -23.7282
 133   2.0000      -0.870672       -23.6922
 134   2.0000      -0.868601       -23.6358
 135   2.0000      -0.865061       -23.5395
 136   2.0000      -0.864616       -23.5274
 137   2.0000      -0.862690       -23.4750
 138   2.0000      -0.851817       -23.1791
 139   2.0000      -0.843111       -22.9422
 140   2.0000      -0.839432       -22.8421
 141   2.0000      -0.836956       -22.7747
 142   2.0000      -0.830706       -22.6046
 143   2.0000      -0.815770       -22.1982
 144   2.0000      -0.811374       -22.0786
 145   2.0000      -0.807253       -21.9665
 146   2.0000      -0.800749       -21.7895
 147   2.0000      -0.788945       -21.4683
 148   2.0000      -0.781563       -21.2674
 149   2.0000      -0.772324       -21.0160
 150   2.0000      -0.755339       -20.5538
 151   2.0000      -0.746305       -20.3080
 152   2.0000      -0.744309       -20.2537
 153   2.0000      -0.741949       -20.1894
 154   2.0000      -0.734726       -19.9929
 155   2.0000      -0.726736       -19.7755
 156   2.0000      -0.713650       -19.4194
 157   2.0000      -0.708088       -19.2681
 158   2.0000      -0.696470       -18.9519
 159   2.0000      -0.687392       -18.7049
 160   2.0000      -0.683213       -18.5912
 161   2.0000      -0.680851       -18.5269
 162   2.0000      -0.679177       -18.4813
 163   2.0000      -0.675716       -18.3872
 164   2.0000      -0.673085       -18.3156
 165   2.0000      -0.670615       -18.2484
 166   2.0000      -0.665863       -18.1190
 167   2.0000      -0.663437       -18.0530
 168   2.0000      -0.658328       -17.9140
 169   2.0000      -0.652284       -17.7495
 170   2.0000      -0.648495       -17.6464
 171   2.0000      -0.644876       -17.5480
 172   2.0000      -0.642950       -17.4956
 173   2.0000      -0.637728       -17.3535
 174   2.0000      -0.634452       -17.2643
 175   2.0000      -0.631215       -17.1762
 176   2.0000      -0.624864       -17.0034
 177   2.0000      -0.621354       -16.9079
 178   2.0000      -0.617079       -16.7916
 179   2.0000      -0.614320       -16.7165
 180   2.0000      -0.606752       -16.5106
 181   2.0000      -0.604428       -16.4473
 182   2.0000      -0.602023       -16.3819
 183   2.0000      -0.595777       -16.2119
 184   2.0000      -0.591996       -16.1090
 185   2.0000      -0.585086       -15.9210
 186   2.0000      -0.581067       -15.8116
 187   2.0000      -0.579202       -15.7609
 188   2.0000      -0.576102       -15.6765
 189   2.0000      -0.572103       -15.5677
 190   2.0000      -0.562898       -15.3172
 191   2.0000      -0.555731       -15.1222
 192   2.0000      -0.553568       -15.0633
 193   2.0000      -0.551483       -15.0066
 194   2.0000      -0.546002       -14.8575
 195   2.0000      -0.540615       -14.7109
 196   2.0000      -0.536748       -14.6057
 197   2.0000      -0.534708       -14.5501
 198   2.0000      -0.533188       -14.5088
 199   2.0000      -0.531521       -14.4634
 200   2.0000      -0.526963       -14.3394
 201   2.0000      -0.525303       -14.2942
 202   2.0000      -0.524676       -14.2772
 203   2.0000      -0.522667       -14.2225
 204   2.0000      -0.518227       -14.1017
 205   2.0000      -0.516927       -14.0663
 206   2.0000      -0.516282       -14.0487
 207   2.0000      -0.513458       -13.9719
 208   2.0000      -0.512983       -13.9590
 209   2.0000      -0.512027       -13.9330
 210   2.0000      -0.511123       -13.9084
 211   2.0000      -0.510553       -13.8929
 212   2.0000      -0.507613       -13.8129
 213   2.0000      -0.505449       -13.7540
 214   2.0000      -0.502838       -13.6829
 215   2.0000      -0.500679       -13.6242
 216   2.0000      -0.497300       -13.5322
 217   2.0000      -0.493963       -13.4414
 218   2.0000      -0.492721       -13.4076
 219   2.0000      -0.490305       -13.3419
 220   2.0000      -0.488696       -13.2981
 221   2.0000      -0.487936       -13.2774
 222   2.0000      -0.487391       -13.2626
 223   2.0000      -0.486298       -13.2328
 224   2.0000      -0.485257       -13.2045
 225   2.0000      -0.483428       -13.1548
 226   2.0000      -0.482556       -13.1310
 227   2.0000      -0.480347       -13.0709
 228   2.0000      -0.479771       -13.0552
 229   2.0000      -0.477976       -13.0064
 230   2.0000      -0.475398       -12.9362
 231   2.0000      -0.474880       -12.9222
 232   2.0000      -0.473805       -12.8929
 233   2.0000      -0.470967       -12.8157
 234   2.0000      -0.469310       -12.7706
 235   2.0000      -0.467690       -12.7265
 236   2.0000      -0.465798       -12.6750
 237   2.0000      -0.457658       -12.4535
 238   2.0000      -0.453082       -12.3290
 239   2.0000      -0.452223       -12.3056
 240   2.0000      -0.447525       -12.1778
 241   2.0000      -0.446012       -12.1366
 242   2.0000      -0.442023       -12.0280
 243   2.0000      -0.441473       -12.0131
 244   2.0000      -0.438779       -11.9398
 245   2.0000      -0.438203       -11.9241
 246   2.0000      -0.435149       -11.8410
 247   2.0000      -0.432967       -11.7816
 248   2.0000      -0.431012       -11.7284
 249   2.0000      -0.430441       -11.7129
 250   2.0000      -0.425242       -11.5714
 251   2.0000      -0.424364       -11.5475
 252   2.0000      -0.422666       -11.5013
 253   2.0000      -0.421659       -11.4739
 254   2.0000      -0.421484       -11.4692
 255   2.0000      -0.420366       -11.4387
 256   2.0000      -0.417392       -11.3578
 257   2.0000      -0.416475       -11.3329
 258   2.0000      -0.415444       -11.3048
 259   2.0000      -0.413839       -11.2611
 260   2.0000      -0.410982       -11.1834
 261   2.0000      -0.410131       -11.1602
 262   2.0000      -0.409741       -11.1496
 263   2.0000      -0.405483       -11.0337
 264   2.0000      -0.401020       -10.9123
 265   2.0000      -0.400735       -10.9046
 266   2.0000      -0.394640       -10.7387
 267   2.0000      -0.394192       -10.7265
 268   2.0000      -0.386928       -10.5288
 269   2.0000      -0.379345       -10.3225
 270   2.0000      -0.369363       -10.0509
 271   2.0000      -0.363286        -9.8855
 272   2.0000      -0.357516        -9.7285
 273   2.0000      -0.356145        -9.6912
 274   2.0000      -0.349834        -9.5195
 275   2.0000      -0.346226        -9.4213
 276   2.0000      -0.339451        -9.2369
 277   2.0000      -0.334187        -9.0937
 278   2.0000      -0.328133        -8.9290
 279   2.0000      -0.324045        -8.8177
 280   2.0000      -0.320961        -8.7338
 281   2.0000      -0.316465        -8.6114
 282   2.0000      -0.303560        -8.2603
 283   2.0000      -0.300352        -8.1730
 284   2.0000      -0.296658        -8.0725
 285   2.0000      -0.284532        -7.7425
 286   2.0000      -0.280231        -7.6255
 287   2.0000      -0.273673        -7.4470
 288   2.0000      -0.235515        -6.4087
 289   2.0000      -0.211270        -5.7489
 290   0.0000      -0.125315        -3.4100
 291   0.0000      -0.098637        -2.6841
 292   0.0000      -0.064450        -1.7538
 293   0.0000      -0.053406        -1.4533
 294   0.0000      -0.043034        -1.1710

MULLIKEN ATOMIC CHARGES
-----------------------
   0 C :    0.335491
   1 C :   -0.370957
   2 C :   -0.189129
   3 N :    0.134236
   4 C :   -0.187167
   5 N :    0.123284
   6 C :    0.014461
   7 C :   -0.010485
   8 C :   -0.076344
   9 C :    0.118674
  10 C :   -0.097382
  11 C :   -0.030226
  12 S :    0.132723
  13 C :   -0.052701
  14 C :    0.022456
  15 C :    0.135597
  16 O :   -0.166466
  17 C :   -0.086297
  18 C :   -0.045009
  19 C :   -0.019243
  20 C :    0.001708
  21 C :    0.027654
  22 C :    0.041020
  23 C :   -0.050025
  24 S :    0.107915
  25 C :   -0.018617
  26 C :    0.027588
  27 C :    0.037412
  28 C :   -0.046488
  29 S :    0.098741
  30 C :   -0.010821
  31 C :   -0.087835
  32 S :    0.113724
  33 C :   -0.124120
  34 C :   -0.058945
  35 C :   -0.075616
  36 C :    0.207817
  37 C :   -0.203615
  38 C :    0.484252
  39 F :   -0.172571
  40 F :   -0.161096
  41 F :   -0.171367
  42 C :    0.044510
  43 C :    0.172643
  44 C :    0.061832
  45 C :   -0.020991
  46 C :    0.011850
  47 C :   -0.034969
  48 C :    0.047562
  49 C :    0.022960
  50 C :   -0.022979
  51 S :    0.079877
  52 C :   -0.056304
  53 C :    0.037081
  54 C :    0.037676
  55 C :   -0.017658
  56 S :    0.105632
  57 C :    0.001913
  58 C :    0.014010
  59 C :   -0.125034
  60 C :    0.287304
  61 C :   -0.352388
  62 C :   -0.174969
  63 N :    0.131685
  64 C :   -0.221319
  65 N :    0.155870
  66 C :    0.006132
  67 C :   -0.005277
  68 C :    0.134391
  69 O :   -0.160257
  70 C :   -0.073480
  71 C :    0.109767
  72 C :   -0.095180
  73 C :   -0.027372
  74 S :    0.130938
  75 C :   -0.054888
  76 C :    0.025785
  77 H :   -0.017703
  78 H :   -0.011308
  79 H :    0.034654
  80 H :   -0.009476
  81 H :    0.012770
  82 H :    0.016963
  83 H :    0.000598
  84 H :   -0.006533
  85 H :   -0.007979
  86 H :   -0.002315
  87 H :   -0.008564
  88 H :    0.009715
  89 H :    0.029684
  90 H :    0.035714
  91 H :    0.020303
  92 H :    0.033305
  93 H :    0.004581
  94 H :    0.017086
  95 H :    0.002490
  96 H :    0.000602
  97 H :    0.002523
  98 H :    0.002038
  99 H :   -0.005015
 100 H :   -0.004676
 101 H :    0.001525
 102 H :    0.009092
 103 H :    0.013150
 104 H :   -0.016741
 105 H :   -0.007712
 106 H :    0.034348
 107 H :   -0.011707
Sum of atomic charges:   -0.0000000

LOEWDIN ATOMIC CHARGES
----------------------
   0 C :    0.073784
   1 C :   -0.158703
   2 C :   -0.018929
   3 N :   -0.071392
   4 C :   -0.019679
   5 N :   -0.073788
   6 C :   -0.019978
   7 C :   -0.051520
   8 C :    0.018332
   9 C :   -0.038113
  10 C :   -0.147535
  11 C :   -0.013133
  12 S :    0.422809
  13 C :   -0.154330
  14 C :   -0.059177
  15 C :    0.081993
  16 O :   -0.159566
  17 C :   -0.105021
  18 C :    0.045526
  19 C :   -0.068401
  20 C :   -0.106842
  21 C :   -0.039692
  22 C :   -0.011073
  23 C :   -0.189170
  24 S :    0.413000
  25 C :   -0.152994
  26 C :   -0.041861
  27 C :   -0.015534
  28 C :   -0.162069
  29 S :    0.401678
  30 C :   -0.048527
  31 C :   -0.174989
  32 S :    0.439300
  33 C :   -0.159572
  34 C :   -0.046576
  35 C :   -0.043349
  36 C :   -0.016785
  37 C :   -0.060138
  38 C :    0.158059
  39 F :   -0.066181
  40 F :   -0.059146
  41 F :   -0.063982
  42 C :   -0.016150
  43 C :   -0.018140
  44 C :   -0.024010
  45 C :   -0.035673
  46 C :   -0.023100
  47 C :   -0.154187
  48 C :   -0.014368
  49 C :   -0.036501
  50 C :   -0.151223
  51 S :    0.390808
  52 C :   -0.191157
  53 C :   -0.009810
  54 C :   -0.035772
  55 C :   -0.102857
  56 S :    0.402843
  57 C :   -0.066371
  58 C :    0.047131
  59 C :   -0.106758
  60 C :    0.068385
  61 C :   -0.156270
  62 C :   -0.019914
  63 N :   -0.067786
  64 C :   -0.023908
  65 N :   -0.065658
  66 C :   -0.017251
  67 C :   -0.053397
  68 C :    0.077716
  69 O :   -0.160617
  70 C :    0.018336
  71 C :   -0.039959
  72 C :   -0.147134
  73 C :   -0.016191
  74 S :    0.421704
  75 C :   -0.156135
  76 C :   -0.059020
  77 H :    0.037968
  78 H :    0.039333
  79 H :    0.027546
  80 H :    0.033818
  81 H :    0.030777
  82 H :    0.038858
  83 H :    0.038994
  84 H :    0.035115
  85 H :    0.034514
  86 H :    0.037131
  87 H :    0.040695
  88 H :    0.031501
  89 H :    0.041931
  90 H :    0.043888
  91 H :    0.034127
  92 H :    0.033419
  93 H :    0.030624
  94 H :    0.038670
  95 H :    0.036341
  96 H :    0.019718
  97 H :    0.040624
  98 H :    0.039585
  99 H :    0.035401
 100 H :    0.035730
 101 H :    0.039980
 102 H :    0.038132
 103 H :    0.033512
 104 H :    0.038179
 105 H :    0.039289
 106 H :    0.027026
 107 H :    0.033235

  Mayer bond orders larger than 0.100000
B(  0-C ,  1-C ) :   1.5731 B(  0-C ,  6-C ) :   0.9889 B(  0-C , 17-C ) :   1.1169
B(  1-C ,  2-C ) :   1.1508 B(  1-C ,  4-C ) :   1.1571 B(  2-C ,  3-N ) :   2.9620
B(  4-C ,  5-N ) :   2.9532 B(  6-C ,  7-C ) :   1.2725 B(  6-C , 11-C ) :   1.4218
B(  7-C ,  8-C ) :   1.4312 B(  7-C , 15-C ) :   0.9388 B(  8-C ,  9-C ) :   1.2378
B(  8-C , 77-H ) :   1.0165 B(  9-C , 10-C ) :   1.3114 B(  9-C , 14-C ) :   1.1705
B( 10-C , 11-C ) :   1.3138 B( 10-C , 12-S ) :   1.0964 B( 11-C , 78-H ) :   0.9820
B( 12-S , 13-C ) :   1.1253 B( 13-C , 14-C ) :   1.6285 B( 13-C , 79-H ) :   0.9688
B( 14-C , 80-H ) :   0.9990 B( 15-C , 16-O ) :   2.1836 B( 15-C , 17-C ) :   0.9623
B( 17-C , 18-C ) :   1.4751 B( 18-C , 19-C ) :   1.2651 B( 18-C , 81-H ) :   0.9431
B( 19-C , 20-C ) :   1.4062 B( 19-C , 82-H ) :   0.9774 B( 20-C , 21-C ) :   1.1903
B( 20-C , 24-S ) :   1.0843 B( 21-C , 22-C ) :   1.5260 B( 21-C , 83-H ) :   1.0018
B( 22-C , 23-C ) :   1.2304 B( 22-C , 84-H ) :   0.9950 B( 23-C , 24-S ) :   1.0536
B( 23-C , 25-C ) :   1.4405 B( 25-C , 26-C ) :   1.2152 B( 25-C , 29-S ) :   1.0771
B( 26-C , 27-C ) :   1.5516 B( 26-C , 85-H ) :   0.9944 B( 27-C , 28-C ) :   1.1746
B( 27-C , 86-H ) :   1.0002 B( 28-C , 29-S ) :   1.0416 B( 28-C , 30-C ) :   1.5134
B( 30-C , 31-C ) :   1.2428 B( 30-C , 87-H ) :   0.9640 B( 31-C , 32-S ) :   1.0922
B( 31-C , 35-C ) :   1.3851 B( 32-S , 33-C ) :   1.1148 B( 33-C , 34-C ) :   1.3900
B( 33-C , 44-C ) :   1.2010 B( 34-C , 35-C ) :   1.4046 B( 34-C , 43-C ) :   1.0654
B( 35-C , 36-C ) :   1.0834 B( 36-C , 37-C ) :   1.0307 B( 36-C , 88-H ) :   0.9048
B( 36-C , 89-H ) :   0.8877 B( 37-C , 38-C ) :   0.9905 B( 37-C , 42-C ) :   1.0243
B( 37-C , 90-H ) :   0.9029 B( 38-C , 39-F ) :   1.1321 B( 38-C , 40-F ) :   1.1570
B( 38-C , 41-F ) :   1.1402 B( 42-C , 43-C ) :   1.1189 B( 42-C , 91-H ) :   0.9278
B( 42-C , 92-H ) :   0.9346 B( 43-C , 93-H ) :   0.9165 B( 43-C , 94-H ) :   0.8826
B( 44-C , 45-C ) :   1.5544 B( 44-C , 95-H ) :   0.9509 B( 45-C , 46-C ) :   1.2319
B( 45-C , 96-H ) :   0.9725 B( 46-C , 47-C ) :   1.4845 B( 46-C , 97-H ) :   0.9887
B( 47-C , 48-C ) :   1.1794 B( 47-C , 51-S ) :   1.0359 B( 48-C , 49-C ) :   1.5437
B( 48-C , 98-H ) :   1.0013 B( 49-C , 50-C ) :   1.2222 B( 49-C , 99-H ) :   0.9953
B( 50-C , 51-S ) :   1.0829 B( 50-C , 52-C ) :   1.4358 B( 52-C , 53-C ) :   1.2332
B( 52-C , 56-S ) :   1.0489 B( 53-C , 54-C ) :   1.5292 B( 53-C ,100-H ) :   0.9954
B( 54-C , 55-C ) :   1.1942 B( 54-C ,101-H ) :   1.0000 B( 55-C , 56-S ) :   1.0834
B( 55-C , 57-C ) :   1.4867 B( 57-C , 58-C ) :   1.2290 B( 57-C ,102-H ) :   0.9620
B( 58-C , 59-C ) :   1.5189 B( 58-C ,103-H ) :   0.9396 B( 59-C , 60-C ) :   1.0954
B( 59-C , 68-C ) :   0.9660 B( 60-C , 61-C ) :   1.5888 B( 60-C , 66-C ) :   1.0029
B( 61-C , 62-C ) :   1.1340 B( 61-C , 64-C ) :   1.1700 B( 62-C , 63-N ) :   2.9733
B( 64-C , 65-N ) :   3.0107 B( 66-C , 67-C ) :   1.2718 B( 66-C , 73-C ) :   1.4255
B( 67-C , 68-C ) :   0.9216 B( 67-C , 70-C ) :   1.4375 B( 68-C , 69-O ) :   2.2426
B( 70-C , 71-C ) :   1.2423 B( 70-C ,104-H ) :   1.0156 B( 71-C , 72-C ) :   1.3155
B( 71-C , 76-C ) :   1.1709 B( 72-C , 73-C ) :   1.3110 B( 72-C , 74-S ) :   1.0944
B( 73-C ,105-H ) :   0.9838 B( 74-S , 75-C ) :   1.1243 B( 75-C , 76-C ) :   1.6288
B( 75-C ,106-H ) :   0.9691 B( 76-C ,107-H ) :   0.9994

-----------------------------------------------------------------------------
         ABSORPTION SPECTRUM VIA TRANSITION ELECTRIC DIPOLE MOMENTS
-----------------------------------------------------------------------------
State   Energy  Wavelength   fosc         T2         TX        TY        TZ
        (cm-1)    (nm)                  (au**2)     (au)      (au)      (au)
-----------------------------------------------------------------------------
   0    7178.4   1393.1   1.590906980  72.96100  -6.13223   4.87301  -3.40742
   1   12615.7    792.7   0.423705966  11.05679  -0.29372  -3.26635   0.54908
   2   12878.5    776.5   0.113469364   2.90061  -0.72029  -1.53255  -0.18188
   3   18496.5    540.6   0.340195393   6.05499   0.80829   1.52560   1.75334
   4   19968.8    500.8   0.508306992   8.38012   1.15107   1.73602   2.01032
   5   21355.4    468.3   0.351314416   5.41583  -0.07095  -1.82682  -1.43997
   6   21642.8    462.0   0.129038686   1.96283   0.36261  -1.27581  -0.45128
   7   22993.7    434.9   0.052443316   0.75086   0.21633  -0.77417  -0.32360
   8   23480.2    425.9   0.037799672   0.52998  -0.43253   0.46718  -0.35305
   9   24518.3    407.9   0.425711657   5.71610  -1.35832  -1.39194  -1.39053
  10   24615.3    406.3   0.340745135   4.55722  -1.25484  -1.10012  -1.33129
  11   26238.8    381.1   0.027260294   0.34203  -0.04929   0.58129  -0.04127
  12   26266.7    380.7   0.000034022   0.00043  -0.01012  -0.00929  -0.01542
  13   26557.0    376.5   0.053489672   0.66308  -0.68245   0.29641  -0.33088
  14   26648.9    375.2   0.032776181   0.40491   0.47051  -0.33963   0.26112
  15   26941.1    371.2   0.088443007   1.08075  -0.72249  -0.11926  -0.73792
  16   27444.8    364.4   0.004645268   0.05572  -0.19636  -0.10214  -0.08206
  17   27838.1    359.2   0.026136622   0.30909   0.34272  -0.26396   0.34923
  18   28317.6    353.1   0.002726299   0.03170  -0.01579  -0.17731  -0.00274
  19   29481.5    339.2   0.209548588   2.33997   1.24951   0.37815   0.79730
  20   29705.4    336.6   0.008824837   0.09780  -0.16354   0.24469  -0.10575
  21   29944.2    334.0   0.145516965   1.59984   0.84648   0.36339   0.86675
  22   30305.0    330.0   0.021400694   0.23248  -0.13249   0.44799  -0.11932
  23   30508.6    327.8   0.189045867   2.03995  -1.32277   0.00603  -0.53871
  24   30985.6    322.7   0.013629113   0.14480  -0.36829   0.03458  -0.08927
  25   31763.5    314.8   0.000159488   0.00165  -0.00061  -0.04061  -0.00196
  26   31905.4    313.4   0.024552870   0.25335  -0.36314  -0.33067  -0.11016
  27   32088.8    311.6   0.002457800   0.02522  -0.13475   0.01909  -0.08182
  28   32235.0    310.2   0.024768485   0.25296   0.36231   0.25148   0.24175
  29   32487.3    307.8   0.494466256   5.01070   1.76655   0.39719   1.31615
  30   32766.5    305.2   0.020482083   0.20579   0.41711   0.13177   0.12017
  31   33130.2    301.8   0.011943399   0.11868  -0.28877  -0.18294   0.04270
  32   33358.7    299.8   0.042900847   0.42338   0.55908  -0.21935   0.25040
  33   33686.6    296.9   0.020763415   0.20292   0.16121   0.35865   0.21977
  34   33938.0    294.7   0.001364229   0.01323   0.01209  -0.10441   0.04676
  35   34191.5    292.5   0.054297567   0.52280   0.64206   0.08987   0.32014
  36   34420.4    290.5   0.017261323   0.16509  -0.30734  -0.11779  -0.23825
  37   34671.5    288.4   0.144429298   1.37138  -0.76419  -0.71479  -0.52581
  38   35046.6    285.3   0.183104286   1.72000   1.15985   0.08112   0.60676
  39   35272.9    283.5   0.122150049   1.14006   0.78830  -0.65205   0.30573
  40   35496.2    281.7   0.007008826   0.06500  -0.16202  -0.13059  -0.14731
  41   35939.1    278.2   0.021135668   0.19361   0.32276  -0.17586   0.24188
  42   36405.7    274.7   0.115187863   1.04163  -0.83299  -0.33299  -0.48670
  43   36578.4    273.4   0.018969818   0.17073  -0.20046  -0.35661  -0.05809
  44   36850.4    271.4   0.018863479   0.16852   0.34917   0.13965   0.16462
  45   37393.3    267.4   0.056958111   0.50146  -0.60600  -0.34608  -0.12024
  46   37567.7    266.2   0.057092967   0.50031   0.48052  -0.51880   0.01646
  47   37871.3    264.1   0.000017646   0.00015   0.00820  -0.00905   0.00205
  48   38125.1    262.3   0.079036926   0.68249   0.73419   0.34801   0.14946
  49   38350.9    260.8   0.158785475   1.36305   0.64512  -0.97307  -0.00064
  50   38649.3    258.7   0.038257075   0.32587   0.00490  -0.56002  -0.11054
  51   38810.8    257.7   0.080825696   0.68560   0.34524   0.75191   0.03216
  52   39202.1    255.1   0.032947752   0.27669   0.24841   0.45671  -0.07998
  53   39260.9    254.7   0.004389259   0.03680  -0.02816   0.18267   0.05143
  54   39478.3    253.3   0.018990854   0.15837  -0.28292   0.27852  -0.02745
  55   39664.3    252.1   0.226345263   1.87866  -0.20840   1.35343  -0.05882
  56   39772.4    251.4   0.068863699   0.57001  -0.53111   0.53333   0.05915

FINAL SINGLE POINT ENERGY     -5794.753408032831

DIPOLE MOMENT
-------------
                                X             Y             Z
Electronic contribution:      8.58007      -5.33407       8.88215
Nuclear contribution   :     -8.96345      10.07765     -10.09421
                        -----------------------------------------
Total Dipole Moment    :     -0.38338       4.74358      -1.21206
                        -----------------------------------------
Magnitude (a.u.)       :      4.91097
Magnitude (Debye)      :     12.48269

Rotational constants in cm-1:     0.000952     0.000176     0.000152
Rotational constants in MHz :    28.554473     5.282960     4.546266

                             ****ORCA TERMINATED NORMALLY****
TOTAL RUN TIME: 0 days 0 hours 12 minutes 26 seconds 357 msec
