                         Program Version 4.2.0 -  RELEASE  -
|  1> # ORCA input file
|  2> # SCF done       -166.394524769315          0.000615589173
|  3> ! CAM-B3LYP def2-SVP def2/J RIJCOSX Grid4 TightSCF
|  4> %maxcore 5000
|  5> %tddft
|  6>     Mode sTDDFT
|  7>     Ethresh 5.0
|  8>     maxcore 5000
|  9> end
| 10>
| 11> %pal
| 12>   nprocs 6
| 13>   end
| 14> * xyz 0 1
| 15>    C       -8.95163        -0.70509        -7.45107
| 16>    C      -10.01781        -1.54544        -7.61612
| 17>    C       -9.94951        -2.77830        -8.30260
| 18>    N       -9.96386        -3.78783        -8.84840
| 19>    C      -11.32093        -1.35538        -7.10445
| 20>    N      -12.40321        -1.30957        -6.72506
| 21>    C       -7.59702        -0.95927        -7.91405
| 22>    C       -6.73923         0.03639        -7.38255
| 23>    C       -5.38668         0.05685        -7.62702
| 24>    C       -4.86052        -0.94185        -8.44884
| 25>    C       -5.72258        -1.93049        -8.98364
| 26>    C       -7.08689        -1.95812        -8.72733
| 27>    S       -4.84860        -3.06163        -9.97079
| 28>    C       -3.36213        -2.19699        -9.65368
| 29>    C       -3.50929        -1.11838        -8.85021
| 30>   Br       -1.76818        -2.81217       -10.42173
| 31>    C       -7.51534         0.97512        -6.55576
| 32>    O       -7.05168         1.83334        -5.84222
| 33>    C       -8.94852         0.57983        -6.74290
| 34>    C      -10.06290         1.26739        -6.41483
| 35>    C      -10.19159         2.58836        -5.82219
| 36>    N      -11.42987         2.89128        -5.41343
| 37>    C      -11.60384         4.08357        -4.87295
| 38>    C      -10.57203         4.99628        -4.72898
| 39>    C       -9.31164         4.60010        -5.20061
| 40>    N       -9.15153         3.39670        -5.75366
| 41>    C       -8.14281         5.44177        -5.11188
| 42>    C       -6.94045         4.94339        -5.45189
| 43>    N       -5.76869         5.63219        -5.40767
| 44>    C       -4.56105         5.13779        -5.77834
| 45>    S       -4.41555         3.52604        -6.38108
| 46>    C       -2.71039         3.78979        -6.62039
| 47>    N       -1.95930         2.74661        -7.14327
| 48>    O       -0.76437         2.91660        -7.31528
| 49>    O       -2.56060         1.70757        -7.40538
| 50>    C       -2.29514         5.04279        -6.24984
| 51>    C       -3.34239         5.84435        -5.75519
| 52>    C       -3.21231         7.18653        -5.28272
| 53>    C       -2.08950         7.95053        -5.38733
| 54>    C       -1.99833         9.26277        -4.90032
| 55>    C       -0.89444        10.07181        -5.04185
| 56>    C       -0.74684        11.39718        -4.57613
| 57>    C        0.45613        11.96805        -4.88092
| 58>    C        1.32121        11.12583        -5.60302
| 59>    S        0.56647         9.57321        -5.87936
| 60>    C        2.59576        11.41801        -6.07304
| 61>    C        3.30826        12.62143        -5.93899
| 62>    C        4.54469        12.59873        -6.52904
| 63>    C        4.86400        11.38133        -7.15135
| 64>    S        3.53948        10.25014        -6.96671
| 65>    C        6.03788        11.07216        -7.82569
| 66>    C        6.30744         9.85573        -8.41796
| 67>    C        7.47937         9.54643        -9.09365
| 68>    C        7.79800         8.32011        -9.70499
| 69>    C        9.02752         8.29167       -10.30186
| 70>    C        9.74156         9.50187       -10.19039
| 71>    S        8.79853        10.67902        -9.29958
| 72>    C       10.99920         9.79457       -10.68281
| 73>    C       11.85773         8.93168       -11.41244
| 74>    C       13.03817         9.49049       -11.77025
| 75>    C       13.20054        10.84917       -11.34583
| 76>    S       11.75135        11.35845       -10.46404
| 77>    C       14.25179        11.65680       -11.55137
| 78>    H       -4.73973         0.81250        -7.21256
| 79>    H       -7.70421        -2.72882        -9.15747
| 80>    H       -2.71897        -0.45721        -8.54318
| 81>    H      -11.03097         0.82519        -6.61292
| 82>    H      -12.61150         4.30911        -4.54694
| 83>    H      -10.72744         5.96319        -4.27828
| 84>    H       -8.27308         6.45318        -4.75333
| 85>    H       -6.88364         3.91194        -5.77238
| 86>    H       -5.79415         6.59514        -5.09300
| 87>    H       -1.26894         5.34999        -6.32875
| 88>    H       -4.07623         7.63037        -4.80364
| 89>    H       -1.21323         7.55315        -5.87982
| 90>    H       -2.85090         9.68117        -4.38077
| 91>    H       -1.53237        11.89075        -4.03146
| 92>    H        0.73518        12.96905        -4.60485
| 93>    H        2.90378        13.47155        -5.42000
| 94>    H        5.23008        13.42799        -6.53026
| 95>    H        6.78762        11.85159        -7.88277
| 96>    H        5.55898         9.07538        -8.35787
| 97>    H        7.11311         7.49064        -9.68832
| 98>    H        9.42951         7.43605       -10.81354
| 99>    H       11.57023         7.92236       -11.64764
|100>    H       13.81264         8.99137       -12.32482
|101>    H       15.11301        11.30810       -12.09330
|102>    H       14.26869        12.66743       -11.18705
|103> *
|104>
|105>                          ****END OF INPUT****

CARTESIAN COORDINATES (ANGSTROEM)
---------------------------------
  C     -8.951630   -0.705090   -7.451070
  C    -10.017810   -1.545440   -7.616120
  C     -9.949510   -2.778300   -8.302600
  N     -9.963860   -3.787830   -8.848400
  C    -11.320930   -1.355380   -7.104450
  N    -12.403210   -1.309570   -6.725060
  C     -7.597020   -0.959270   -7.914050
  C     -6.739230    0.036390   -7.382550
  C     -5.386680    0.056850   -7.627020
  C     -4.860520   -0.941850   -8.448840
  C     -5.722580   -1.930490   -8.983640
  C     -7.086890   -1.958120   -8.727330
  S     -4.848600   -3.061630   -9.970790
  C     -3.362130   -2.196990   -9.653680
  C     -3.509290   -1.118380   -8.850210
  Br    -1.768180   -2.812170  -10.421730
  C     -7.515340    0.975120   -6.555760
  O     -7.051680    1.833340   -5.842220
  C     -8.948520    0.579830   -6.742900
  C    -10.062900    1.267390   -6.414830
  C    -10.191590    2.588360   -5.822190
  N    -11.429870    2.891280   -5.413430
  C    -11.603840    4.083570   -4.872950
  C    -10.572030    4.996280   -4.728980
  C     -9.311640    4.600100   -5.200610
  N     -9.151530    3.396700   -5.753660
  C     -8.142810    5.441770   -5.111880
  C     -6.940450    4.943390   -5.451890
  N     -5.768690    5.632190   -5.407670
  C     -4.561050    5.137790   -5.778340
  S     -4.415550    3.526040   -6.381080
  C     -2.710390    3.789790   -6.620390
  N     -1.959300    2.746610   -7.143270
  O     -0.764370    2.916600   -7.315280
  O     -2.560600    1.707570   -7.405380
  C     -2.295140    5.042790   -6.249840
  C     -3.342390    5.844350   -5.755190
  C     -3.212310    7.186530   -5.282720
  C     -2.089500    7.950530   -5.387330
  C     -1.998330    9.262770   -4.900320
  C     -0.894440   10.071810   -5.041850
  C     -0.746840   11.397180   -4.576130
  C      0.456130   11.968050   -4.880920
  C      1.321210   11.125830   -5.603020
  S      0.566470    9.573210   -5.879360
  C      2.595760   11.418010   -6.073040
  C      3.308260   12.621430   -5.938990
  C      4.544690   12.598730   -6.529040
  C      4.864000   11.381330   -7.151350
  S      3.539480   10.250140   -6.966710
  C      6.037880   11.072160   -7.825690
  C      6.307440    9.855730   -8.417960
  C      7.479370    9.546430   -9.093650
  C      7.798000    8.320110   -9.704990
  C      9.027520    8.291670  -10.301860
  C      9.741560    9.501870  -10.190390
  S      8.798530   10.679020   -9.299580
  C     10.999200    9.794570  -10.682810
  C     11.857730    8.931680  -11.412440
  C     13.038170    9.490490  -11.770250
  C     13.200540   10.849170  -11.345830
  S     11.751350   11.358450  -10.464040
  C     14.251790   11.656800  -11.551370
  H     -4.739730    0.812500   -7.212560
  H     -7.704210   -2.728820   -9.157470
  H     -2.718970   -0.457210   -8.543180
  H    -11.030970    0.825190   -6.612920
  H    -12.611500    4.309110   -4.546940
  H    -10.727440    5.963190   -4.278280
  H     -8.273080    6.453180   -4.753330
  H     -6.883640    3.911940   -5.772380
  H     -5.794150    6.595140   -5.093000
  H     -1.268940    5.349990   -6.328750
  H     -4.076230    7.630370   -4.803640
  H     -1.213230    7.553150   -5.879820
  H     -2.850900    9.681170   -4.380770
  H     -1.532370   11.890750   -4.031460
  H      0.735180   12.969050   -4.604850
  H      2.903780   13.471550   -5.420000
  H      5.230080   13.427990   -6.530260
  H      6.787620   11.851590   -7.882770
  H      5.558980    9.075380   -8.357870
  H      7.113110    7.490640   -9.688320
  H      9.429510    7.436050  -10.813540
  H     11.570230    7.922360  -11.647640
  H     13.812640    8.991370  -12.324820
  H     15.113010   11.308100  -12.093300
  H     14.268690   12.667430  -11.187050

 Total Charge           Charge          ....    0
 Multiplicity           Mult            ....    1
 Number of Electrons    NEL             ....  504
 Basis Dimension        Dim             .... 1049

ORBITAL ENERGIES
----------------

  NO   OCC          E(Eh)            E(eV)
   0   2.0000    -482.875930    -13139.7221
   1   2.0000     -88.981676     -2421.3145
   2   2.0000     -88.967019     -2420.9157
   3   2.0000     -88.945399     -2420.3273
   4   2.0000     -88.944900     -2420.3138
   5   2.0000     -88.944389     -2420.2999
   6   2.0000     -88.940789     -2420.2019
   7   2.0000     -62.553646     -1702.1712
   8   2.0000     -56.387580     -1534.3840
   9   2.0000     -56.384889     -1534.3108
  10   2.0000     -56.384859     -1534.3100
  11   2.0000     -19.239436      -523.5317
  12   2.0000     -19.238330      -523.5016
  13   2.0000     -19.214994      -522.8666
  14   2.0000     -14.649599      -398.6359
  15   2.0000     -14.487437      -394.2232
  16   2.0000     -14.414019      -392.2254
  17   2.0000     -14.412670      -392.1887
  18   2.0000     -14.409506      -392.1026
  19   2.0000     -14.406727      -392.0270
  20   2.0000     -10.368728      -282.1474
  21   2.0000     -10.368720      -282.1472
  22   2.0000     -10.348923      -281.6085
  23   2.0000     -10.347770      -281.5771
  24   2.0000     -10.343046      -281.4486
  25   2.0000     -10.340541      -281.3804
  26   2.0000     -10.337614      -281.3008
  27   2.0000     -10.332920      -281.1730
  28   2.0000     -10.330576      -281.1093
  29   2.0000     -10.321778      -280.8698
  30   2.0000     -10.319256      -280.8012
  31   2.0000     -10.316392      -280.7233
  32   2.0000     -10.314586      -280.6742
  33   2.0000     -10.312106      -280.6067
  34   2.0000     -10.311428      -280.5882
  35   2.0000     -10.309434      -280.5340
  36   2.0000     -10.308010      -280.4952
  37   2.0000     -10.307830      -280.4903
  38   2.0000     -10.307692      -280.4865
  39   2.0000     -10.307304      -280.4760
  40   2.0000     -10.307299      -280.4759
  41   2.0000     -10.306945      -280.4662
  42   2.0000     -10.305869      -280.4369
  43   2.0000     -10.304307      -280.3944
  44   2.0000     -10.304284      -280.3938
  45   2.0000     -10.300611      -280.2939
  46   2.0000     -10.298396      -280.2336
  47   2.0000     -10.297835      -280.2183
  48   2.0000     -10.290491      -280.0185
  49   2.0000     -10.290267      -280.0124
  50   2.0000     -10.289047      -279.9792
  51   2.0000     -10.288215      -279.9566
  52   2.0000     -10.287685      -279.9422
  53   2.0000     -10.287250      -279.9303
  54   2.0000     -10.286710      -279.9156
  55   2.0000     -10.285794      -279.8907
  56   2.0000     -10.284563      -279.8572
  57   2.0000     -10.283722      -279.8343
  58   2.0000     -10.283238      -279.8211
  59   2.0000     -10.282872      -279.8112
  60   2.0000     -10.282289      -279.7953
  61   2.0000     -10.282031      -279.7883
  62   2.0000     -10.281655      -279.7781
  63   2.0000     -10.278350      -279.6881
  64   2.0000     -10.277526      -279.6657
  65   2.0000     -10.277189      -279.6565
  66   2.0000     -10.272310      -279.5238
  67   2.0000      -8.783079      -238.9997
  68   2.0000      -8.076300      -219.7673
  69   2.0000      -8.062970      -219.4046
  70   2.0000      -8.041631      -218.8239
  71   2.0000      -8.041149      -218.8108
  72   2.0000      -8.040691      -218.7983
  73   2.0000      -8.037518      -218.7120
  74   2.0000      -6.619331      -180.1212
  75   2.0000      -6.604870      -179.7276
  76   2.0000      -6.604611      -179.7206
  77   2.0000      -6.046005      -164.5202
  78   2.0000      -6.041641      -164.4014
  79   2.0000      -6.037679      -164.2936
  80   2.0000      -6.032707      -164.1583
  81   2.0000      -6.028395      -164.0410
  82   2.0000      -6.024157      -163.9256
  83   2.0000      -6.011261      -163.5747
  84   2.0000      -6.010812      -163.5625
  85   2.0000      -6.010374      -163.5506
  86   2.0000      -6.007299      -163.4669
  87   2.0000      -6.007293      -163.4668
  88   2.0000      -6.006870      -163.4552
  89   2.0000      -6.006451      -163.4439
  90   2.0000      -6.003393      -163.3606
  91   2.0000      -6.002738      -163.3428
  92   2.0000      -6.002158      -163.3270
  93   2.0000      -6.001620      -163.3124
  94   2.0000      -5.998117      -163.2171
  95   2.0000      -2.735240       -74.4297
  96   2.0000      -2.731151       -74.3184
  97   2.0000      -2.730977       -74.3137
  98   2.0000      -2.719474       -74.0007
  99   2.0000      -2.719452       -74.0001
 100   2.0000      -1.316436       -35.8220
 101   2.0000      -1.134696       -30.8766
 102   2.0000      -1.132080       -30.8055
 103   2.0000      -1.093017       -29.7425
 104   2.0000      -1.085157       -29.5286
 105   2.0000      -1.018525       -27.7155
 106   2.0000      -1.007892       -27.4261
 107   2.0000      -1.001819       -27.2609
 108   2.0000      -0.995235       -27.0817
 109   2.0000      -0.993301       -27.0291
 110   2.0000      -0.991432       -26.9782
 111   2.0000      -0.985479       -26.8162
 112   2.0000      -0.983043       -26.7500
 113   2.0000      -0.974087       -26.5063
 114   2.0000      -0.970017       -26.3955
 115   2.0000      -0.937756       -25.5177
 116   2.0000      -0.923306       -25.1244
 117   2.0000      -0.916235       -24.9320
 118   2.0000      -0.905265       -24.6335
 119   2.0000      -0.903039       -24.5729
 120   2.0000      -0.896764       -24.4022
 121   2.0000      -0.882374       -24.0106
 122   2.0000      -0.878585       -23.9075
 123   2.0000      -0.877137       -23.8681
 124   2.0000      -0.868608       -23.6360
 125   2.0000      -0.860434       -23.4136
 126   2.0000      -0.851680       -23.1754
 127   2.0000      -0.845047       -22.9949
 128   2.0000      -0.840174       -22.8623
 129   2.0000      -0.838882       -22.8271
 130   2.0000      -0.827939       -22.5294
 131   2.0000      -0.821041       -22.3417
 132   2.0000      -0.819876       -22.3100
 133   2.0000      -0.816216       -22.2104
 134   2.0000      -0.797501       -21.7011
 135   2.0000      -0.787591       -21.4314
 136   2.0000      -0.779690       -21.2165
 137   2.0000      -0.765717       -20.8362
 138   2.0000      -0.757150       -20.6031
 139   2.0000      -0.746149       -20.3037
 140   2.0000      -0.736446       -20.0397
 141   2.0000      -0.727496       -19.7962
 142   2.0000      -0.721201       -19.6249
 143   2.0000      -0.708104       -19.2685
 144   2.0000      -0.695292       -18.9199
 145   2.0000      -0.690028       -18.7766
 146   2.0000      -0.686024       -18.6677
 147   2.0000      -0.678525       -18.4636
 148   2.0000      -0.674811       -18.3625
 149   2.0000      -0.666842       -18.1457
 150   2.0000      -0.658973       -17.9316
 151   2.0000      -0.652124       -17.7452
 152   2.0000      -0.647924       -17.6309
 153   2.0000      -0.639056       -17.3896
 154   2.0000      -0.634689       -17.2708
 155   2.0000      -0.629784       -17.1373
 156   2.0000      -0.629495       -17.1294
 157   2.0000      -0.627521       -17.0757
 158   2.0000      -0.623048       -16.9540
 159   2.0000      -0.619567       -16.8593
 160   2.0000      -0.618876       -16.8405
 161   2.0000      -0.608123       -16.5479
 162   2.0000      -0.607407       -16.5284
 163   2.0000      -0.602792       -16.4028
 164   2.0000      -0.598540       -16.2871
 165   2.0000      -0.595370       -16.2008
 166   2.0000      -0.593723       -16.1560
 167   2.0000      -0.591873       -16.1057
 168   2.0000      -0.586460       -15.9584
 169   2.0000      -0.572652       -15.5826
 170   2.0000      -0.568065       -15.4578
 171   2.0000      -0.566709       -15.4209
 172   2.0000      -0.557954       -15.1827
 173   2.0000      -0.550702       -14.9854
 174   2.0000      -0.547417       -14.8960
 175   2.0000      -0.544677       -14.8214
 176   2.0000      -0.539266       -14.6742
 177   2.0000      -0.536595       -14.6015
 178   2.0000      -0.534097       -14.5335
 179   2.0000      -0.525248       -14.2927
 180   2.0000      -0.524139       -14.2626
 181   2.0000      -0.523090       -14.2340
 182   2.0000      -0.518159       -14.0998
 183   2.0000      -0.517753       -14.0888
 184   2.0000      -0.512480       -13.9453
 185   2.0000      -0.512119       -13.9355
 186   2.0000      -0.505121       -13.7450
 187   2.0000      -0.501832       -13.6555
 188   2.0000      -0.500527       -13.6200
 189   2.0000      -0.497985       -13.5509
 190   2.0000      -0.496772       -13.5178
 191   2.0000      -0.496156       -13.5011
 192   2.0000      -0.494667       -13.4606
 193   2.0000      -0.493888       -13.4394
 194   2.0000      -0.492263       -13.3951
 195   2.0000      -0.490879       -13.3575
 196   2.0000      -0.484086       -13.1726
 197   2.0000      -0.482630       -13.1330
 198   2.0000      -0.476743       -12.9728
 199   2.0000      -0.473167       -12.8755
 200   2.0000      -0.470630       -12.8065
 201   2.0000      -0.466658       -12.6984
 202   2.0000      -0.465167       -12.6578
 203   2.0000      -0.463829       -12.6214
 204   2.0000      -0.462878       -12.5955
 205   2.0000      -0.459072       -12.4920
 206   2.0000      -0.457295       -12.4436
 207   2.0000      -0.455972       -12.4076
 208   2.0000      -0.448455       -12.2031
 209   2.0000      -0.445613       -12.1257
 210   2.0000      -0.442251       -12.0343
 211   2.0000      -0.441305       -12.0085
 212   2.0000      -0.439746       -11.9661
 213   2.0000      -0.435491       -11.8503
 214   2.0000      -0.431854       -11.7514
 215   2.0000      -0.431191       -11.7333
 216   2.0000      -0.424705       -11.5568
 217   2.0000      -0.424582       -11.5535
 218   2.0000      -0.421123       -11.4593
 219   2.0000      -0.419396       -11.4124
 220   2.0000      -0.418733       -11.3943
 221   2.0000      -0.418062       -11.3760
 222   2.0000      -0.407313       -11.0836
 223   2.0000      -0.404795       -11.0150
 224   2.0000      -0.402039       -10.9400
 225   2.0000      -0.401485       -10.9250
 226   2.0000      -0.394606       -10.7378
 227   2.0000      -0.389085       -10.5875
 228   2.0000      -0.388358       -10.5677
 229   2.0000      -0.384113       -10.4523
 230   2.0000      -0.381579       -10.3833
 231   2.0000      -0.377595       -10.2749
 232   2.0000      -0.376078       -10.2336
 233   2.0000      -0.366982        -9.9861
 234   2.0000      -0.365010        -9.9324
 235   2.0000      -0.358465        -9.7543
 236   2.0000      -0.353165        -9.6101
 237   2.0000      -0.341521        -9.2932
 238   2.0000      -0.338993        -9.2245
 239   2.0000      -0.337589        -9.1863
 240   2.0000      -0.336923        -9.1681
 241   2.0000      -0.328701        -8.9444
 242   2.0000      -0.322981        -8.7887
 243   2.0000      -0.318960        -8.6793
 244   2.0000      -0.314947        -8.5701
 245   2.0000      -0.311587        -8.4787
 246   2.0000      -0.306284        -8.3344
 247   2.0000      -0.294111        -8.0032
 248   2.0000      -0.285776        -7.7764
 249   2.0000      -0.268874        -7.3164
 250   2.0000      -0.239104        -6.5064
 251   2.0000      -0.190600        -5.1865
 252   0.0000      -0.095954        -2.6111
 253   0.0000      -0.088463        -2.4072
 254   0.0000      -0.062058        -1.6887
 255   0.0000      -0.055732        -1.5165
 256   0.0000      -0.047704        -1.2981

MULLIKEN ATOMIC CHARGES
-----------------------
   0 C :    0.294696
   1 C :   -0.345588
   2 C :   -0.184780
   3 N :    0.153016
   4 C :   -0.193034
   5 N :    0.169385
   6 C :    0.019343
   7 C :    0.014958
   8 C :   -0.065291
   9 C :    0.097705
  10 C :   -0.088875
  11 C :   -0.023438
  12 S :    0.179857
  13 C :   -0.122886
  14 C :    0.047967
  15 Br:    0.022574
  16 C :    0.160914
  17 O :   -0.134189
  18 C :   -0.021897
  19 C :    0.018823
  20 C :   -0.113663
  21 N :   -0.067183
  22 C :    0.081751
  23 C :   -0.035835
  24 C :    0.051464
  25 N :   -0.036007
  26 C :   -0.051037
  27 C :    0.104096
  28 N :   -0.008658
  29 C :   -0.093724
  30 S :    0.145188
  31 C :   -0.007371
  32 N :    0.296803
  33 O :   -0.247933
  34 O :   -0.286632
  35 C :    0.000422
  36 C :    0.149653
  37 C :   -0.060481
  38 C :    0.016680
  39 C :   -0.023067
  40 C :   -0.013629
  41 C :    0.025299
  42 C :    0.027629
  43 C :   -0.048210
  44 S :    0.068418
  45 C :   -0.040863
  46 C :    0.015144
  47 C :    0.032491
  48 C :   -0.030138
  49 S :    0.080005
  50 C :   -0.005696
  51 C :   -0.016905
  52 C :   -0.022891
  53 C :    0.028575
  54 C :    0.023725
  55 C :   -0.047755
  56 S :    0.077791
  57 C :   -0.063270
  58 C :    0.029084
  59 C :    0.050224
  60 C :   -0.066928
  61 S :    0.083932
  62 C :   -0.025438
  63 H :   -0.026673
  64 H :   -0.006109
  65 H :    0.007733
  66 H :    0.022281
  67 H :    0.009543
  68 H :   -0.007938
  69 H :   -0.033758
  70 H :    0.058946
  71 H :    0.135078
  72 H :    0.011423
  73 H :   -0.043714
  74 H :   -0.002705
  75 H :   -0.025727
  76 H :   -0.017133
  77 H :   -0.014795
  78 H :   -0.016562
  79 H :   -0.011645
  80 H :   -0.005523
  81 H :   -0.005852
  82 H :   -0.010127
  83 H :   -0.014271
  84 H :   -0.010941
  85 H :   -0.010222
  86 H :    0.021428
  87 H :    0.022938
Sum of atomic charges:    0.0000000

LOEWDIN ATOMIC CHARGES
----------------------
   0 C :    0.075340
   1 C :   -0.129679
   2 C :   -0.016343
   3 N :   -0.048340
   4 C :   -0.026005
   5 N :   -0.038119
   6 C :   -0.024198
   7 C :   -0.055353
   8 C :    0.027545
   9 C :   -0.026379
  10 C :   -0.142282
  11 C :   -0.011392
  12 S :    0.424867
  13 C :   -0.271200
  14 C :   -0.060611
  15 Br:    0.136205
  16 C :    0.091062
  17 O :   -0.126758
  18 C :   -0.055593
  19 C :    0.057605
  20 C :    0.013019
  21 N :   -0.087402
  22 C :    0.049096
  23 C :   -0.060069
  24 C :    0.043772
  25 N :   -0.068357
  26 C :   -0.108948
  27 C :    0.068126
  28 N :    0.048854
  29 C :   -0.095180
  30 S :    0.480824
  31 C :   -0.217572
  32 N :    0.281987
  33 O :   -0.214949
  34 O :   -0.254521
  35 C :    0.009411
  36 C :   -0.101903
  37 C :   -0.048015
  38 C :   -0.021878
  39 C :   -0.071667
  40 C :   -0.139861
  41 C :   -0.045303
  42 C :   -0.028331
  43 C :   -0.187000
  44 S :    0.368046
  45 C :   -0.172203
  46 C :   -0.042120
  47 C :   -0.032200
  48 C :   -0.152567
  49 S :    0.378845
  50 C :   -0.053237
  51 C :   -0.068048
  52 C :   -0.140949
  53 C :   -0.037548
  54 C :   -0.032100
  55 C :   -0.181618
  56 S :    0.374631
  57 C :   -0.175053
  58 C :   -0.027120
  59 C :   -0.031167
  60 C :   -0.139778
  61 S :    0.356700
  62 C :   -0.073005
  63 H :    0.028565
  64 H :    0.040474
  65 H :    0.040871
  66 H :    0.049916
  67 H :    0.028204
  68 H :    0.032711
  69 H :    0.022140
  70 H :    0.030781
  71 H :    0.095864
  72 H :    0.044354
  73 H :    0.017602
  74 H :    0.022237
  75 H :    0.028825
  76 H :    0.031404
  77 H :    0.031688
  78 H :    0.030480
  79 H :    0.033933
  80 H :    0.028975
  81 H :    0.028454
  82 H :    0.034509
  83 H :    0.031317
  84 H :    0.032825
  85 H :    0.033756
  86 H :    0.029310
  87 H :    0.026788

  Mayer bond orders larger than 0.100000
B(  0-C ,  1-C ) :   1.6568 B(  0-C ,  6-C ) :   1.0168 B(  0-C , 18-C ) :   1.0308
B(  1-C ,  2-C ) :   1.1397 B(  1-C ,  4-C ) :   1.1332 B(  2-C ,  3-N ) :   2.9756
B(  4-C ,  5-N ) :   2.9878 B(  6-C ,  7-C ) :   1.2617 B(  6-C , 11-C ) :   1.3964
B(  7-C ,  8-C ) :   1.3771 B(  7-C , 16-C ) :   0.9471 B(  8-C ,  9-C ) :   1.2854
B(  8-C , 63-H ) :   1.0138 B(  9-C , 10-C ) :   1.2830 B(  9-C , 14-C ) :   1.1768
B( 10-C , 11-C ) :   1.3425 B( 10-C , 12-S ) :   1.0871 B( 11-C , 64-H ) :   0.9812
B( 12-S , 13-C ) :   1.0750 B( 13-C , 14-C ) :   1.6058 B( 13-C , 15-Br) :   1.0208
B( 14-C , 65-H ) :   0.9904 B( 16-C , 17-O ) :   2.1703 B( 16-C , 18-C ) :   0.9095
B( 18-C , 19-C ) :   1.6835 B( 19-C , 20-C ) :   1.0172 B( 19-C , 66-H ) :   0.9352
B( 20-C , 21-N ) :   1.5426 B( 20-C , 25-N ) :   1.5722 B( 21-N , 22-C ) :   1.5374
B( 22-C , 23-C ) :   1.3873 B( 22-C , 67-H ) :   0.9798 B( 23-C , 24-C ) :   1.3164
B( 23-C , 68-H ) :   0.9744 B( 24-C , 25-N ) :   1.5006 B( 24-C , 26-C ) :   1.1045
B( 26-C , 27-C ) :   1.6893 B( 26-C , 69-H ) :   0.9707 B( 27-C , 28-N ) :   1.1367
B( 27-C , 70-H ) :   0.9237 B( 28-N , 29-C ) :   1.2263 B( 28-N , 71-H ) :   0.9130
B( 29-C , 30-S ) :   1.1637 B( 29-C , 36-C ) :   1.3195 B( 30-S , 31-C ) :   1.0542
B( 31-C , 32-N ) :   1.0022 B( 31-C , 35-C ) :   1.4576 B( 32-N , 33-O ) :   1.5345
B( 32-N , 34-O ) :   1.4245 B( 33-O , 34-O ) :   0.2367 B( 35-C , 36-C ) :   1.2451
B( 35-C , 72-H ) :   1.0001 B( 36-C , 37-C ) :   1.0624 B( 37-C , 38-C ) :   1.6658
B( 37-C , 73-H ) :   0.9756 B( 38-C , 39-C ) :   1.1642 B( 38-C , 74-H ) :   0.9696
B( 39-C , 40-C ) :   1.5366 B( 39-C , 75-H ) :   0.9830 B( 40-C , 41-C ) :   1.1608
B( 40-C , 44-S ) :   1.0389 B( 41-C , 42-C ) :   1.5579 B( 41-C , 76-H ) :   0.9992
B( 42-C , 43-C ) :   1.2210 B( 42-C , 77-H ) :   0.9942 B( 43-C , 44-S ) :   1.0443
B( 43-C , 45-C ) :   1.4533 B( 45-C , 46-C ) :   1.2290 B( 45-C , 49-S ) :   1.0594
B( 46-C , 47-C ) :   1.5313 B( 46-C , 78-H ) :   0.9946 B( 47-C , 48-C ) :   1.1988
B( 47-C , 79-H ) :   0.9999 B( 48-C , 49-S ) :   1.0419 B( 48-C , 50-C ) :   1.4964
B( 50-C , 51-C ) :   1.2330 B( 50-C , 80-H ) :   0.9716 B( 51-C , 52-C ) :   1.5014
B( 51-C , 81-H ) :   0.9714 B( 52-C , 53-C ) :   1.1855 B( 52-C , 56-S ) :   1.0494
B( 53-C , 54-C ) :   1.5533 B( 53-C , 82-H ) :   1.0002 B( 54-C , 55-C ) :   1.2053
B( 54-C , 83-H ) :   0.9939 B( 55-C , 56-S ) :   1.0432 B( 55-C , 57-C ) :   1.5106
B( 57-C , 58-C ) :   1.1684 B( 57-C , 61-S ) :   1.0537 B( 58-C , 59-C ) :   1.6448
B( 58-C , 84-H ) :   0.9926 B( 59-C , 60-C ) :   1.0877 B( 59-C , 85-H ) :   0.9930
B( 60-C , 61-S ) :   1.0079 B( 60-C , 62-C ) :   1.8544 B( 62-C , 86-H ) :   0.9507
B( 62-C , 87-H ) :   0.9414

-----------------------------------------------------------------------------
         ABSORPTION SPECTRUM VIA TRANSITION ELECTRIC DIPOLE MOMENTS
-----------------------------------------------------------------------------
State   Energy  Wavelength   fosc         T2         TX        TY        TZ
        (cm-1)    (nm)                  (au**2)     (au)      (au)      (au)
-----------------------------------------------------------------------------
   0    9598.4   1041.8   1.772834257  60.80605   7.19358   1.31152  -2.70896
   1   14763.8    677.3   0.001750938   0.03904  -0.18573   0.05051   0.04470
   2   16415.3    609.2   0.072064399   1.44527  -1.08910   0.34568   0.37366
   3   16783.1    595.8   0.009271113   0.18186  -0.39898   0.09140   0.11967
   4   20683.0    483.5   0.437346750   6.96126  -0.15127  -2.36372  -1.16241
   5   21118.7    473.5   0.004159767   0.06485  -0.03160   0.22418   0.11657
   6   23228.9    430.5   0.013109096   0.18579   0.28788  -0.29044  -0.13624
   7   23551.9    424.6   0.009329825   0.13041   0.18339  -0.24191  -0.19560
   8   24016.8    416.4   0.010476397   0.14361  -0.20699   0.25754   0.18557
   9   25781.3    387.9   0.181433099   2.31679   1.50497  -0.09216  -0.20823
  10   26278.5    380.5   0.374032635   4.68581  -2.08854  -0.01953   0.56870
  11   27050.0    369.7   0.379993871   4.62471  -1.11727  -1.79860  -0.37610
  12   27984.3    357.3   0.050022400   0.58847  -0.43109   0.54529   0.32449
  13   28437.4    351.7   0.027746729   0.32122  -0.08466  -0.51548  -0.21984
  14   28809.7    347.1   0.014433965   0.16494   0.38497   0.12891  -0.01090
  15   29494.5    339.0   0.126103196   1.40754   0.66612   0.95438   0.23016
  16   29601.2    337.8   0.007768824   0.08640  -0.27575  -0.10125   0.01049
  17   29941.3    334.0   0.002479449   0.02726  -0.12605   0.09057   0.05633
  18   30556.2    327.3   0.083293934   0.89741   0.19846   0.91412   0.14968
  19   30752.1    325.2   0.125433722   1.34281  -0.69820  -0.92053  -0.08922
  20   31142.2    321.1   0.049100929   0.51906  -0.41549   0.48528   0.33306
  21   31355.8    318.9   0.000354504   0.00372   0.03139   0.05176   0.00763
  22   31499.5    317.5   0.044122008   0.46113   0.37008   0.56537   0.06732
  23   32282.3    309.8   0.116650607   1.18959  -0.94409   0.40528   0.36609
  24   32365.6    309.0   0.905455556   9.20998  -2.79776   0.72968   0.92198
  25   32486.9    307.8   0.025980082   0.26327   0.44916   0.24556   0.03512
  26   32805.8    304.8   0.045711016   0.45872   0.57329   0.31775   0.17056
  27   32910.4    303.9   0.267080430   2.67168   0.34346   1.54541   0.40673
  28   33355.7    299.8   0.001421186   0.01403   0.01345   0.11578   0.02101
  29   33475.2    298.7   0.001852118   0.01821   0.01434  -0.13210  -0.02361
  30   33615.1    297.5   0.011289405   0.11056  -0.13954  -0.29792  -0.04835
  31   33694.7    296.8   0.317470445   3.10182  -0.11038  -1.68083  -0.51425
  32   34235.0    292.1   0.001011657   0.00973  -0.08107   0.03354   0.04507
  33   34388.0    290.8   0.017777354   0.17019   0.23246  -0.29546  -0.16987
  34   34588.4    289.1   0.031721925   0.30193  -0.50413   0.00270   0.21857
  35   35314.0    283.2   0.080282256   0.74843   0.69039   0.51098   0.10341
  36   35782.8    279.5   0.002032648   0.01870   0.06383  -0.06708  -0.10063
  37   36532.9    273.7   0.066958756   0.60339   0.59113  -0.24650  -0.43954
  38   36859.5    271.3   0.162607718   1.45234   0.60653  -0.86896  -0.57390
  39   37048.9    269.9   0.408625206   3.63099  -0.86280   1.48219   0.83047
  40   37239.6    268.5   0.069130998   0.61114   0.39764  -0.56903  -0.35949
  41   37344.4    267.8   0.063383431   0.55876  -0.30280  -0.66305  -0.16563
  42   37940.1    263.6   0.094481069   0.81983  -0.55452  -0.61005  -0.37441
  43   38057.0    262.8   0.000155109   0.00134   0.02239   0.01438   0.02517
  44   38074.9    262.6   0.007391801   0.06391   0.02875  -0.19746  -0.15523
  45   38454.3    260.0   0.001868910   0.01600  -0.05344  -0.09224  -0.06808
  46   38687.5    258.5   0.007453368   0.06342  -0.03297   0.11686   0.22064
  47   38877.6    257.2   0.013802102   0.11688  -0.32048  -0.07337   0.09371
  48   39034.0    256.2   0.010445651   0.08810  -0.18019  -0.21000  -0.10737
  49   39327.5    254.3   0.003003172   0.02514   0.02481  -0.08387  -0.13225
  50   39535.5    252.9   0.004788597   0.03987   0.08113   0.02181   0.18115
  51   39721.5    251.8   0.121169750   1.00426   0.82735  -0.29473  -0.48258
  52   40028.0    249.8   0.040042395   0.32933   0.52914   0.19424  -0.10777
  53   40227.1    248.6   0.018186420   0.14883  -0.08601  -0.30205  -0.22406

FINAL SINGLE POINT ENERGY     -7319.401881559211

DIPOLE MOMENT
-------------
                                X             Y             Z
Electronic contribution:    -41.29697    -127.73164     -34.53112
Nuclear contribution   :     43.88798     132.10776      35.03753
                        -----------------------------------------
Total Dipole Moment    :      2.59101       4.37612       0.50642
                        -----------------------------------------
Magnitude (a.u.)       :      5.11079
Magnitude (Debye)      :     12.99061

Rotational constants in cm-1:     0.001197     0.000246     0.000205
Rotational constants in MHz :    35.888641     7.384498     6.157842

                             ****ORCA TERMINATED NORMALLY****
TOTAL RUN TIME: 0 days 0 hours 13 minutes 11 seconds 309 msec
