                         Program Version 4.2.0 -  RELEASE  -
|  1> # ORCA input file
|  2> # SCF done       -198.241042518043          0.000712986497
|  3> ! CAM-B3LYP def2-SVP def2/J RIJCOSX Grid4 TightSCF
|  4> %maxcore 5000
|  5> %tddft
|  6>     Mode sTDDFT
|  7>     Ethresh 5.0
|  8>     maxcore 5000
|  9> end
| 10>
| 11> %pal
| 12>   nprocs 6
| 13>   end
| 14> * xyz 0 1
| 15>    C      -11.64989         0.84256         1.40025
| 16>    C      -12.13426        -0.34198         1.89219
| 17>    C      -12.98049        -0.44849         3.01434
| 18>    N      -13.67140        -0.59328         3.91958
| 19>    C      -11.84481        -1.60351         1.33387
| 20>    N      -11.63298        -2.64859         0.90911
| 21>    C      -11.91985         2.17065         1.94693
| 22>    C      -11.24719         3.13985         1.15775
| 23>    C      -11.30684         4.48608         1.42593
| 24>    C      -12.06505         4.89839         2.52665
| 25>    C      -12.73182         3.92551         3.30874
| 26>    C      -12.67239         2.56318         3.03626
| 27>    S      -13.60751         4.65145         4.62077
| 28>    C      -13.07342         6.23064         4.10956
| 29>    C      -12.28030         6.21710         3.01167
| 30>   Br      -13.61204         7.74707         5.07232
| 31>    C      -10.52339         2.45329         0.08241
| 32>    O       -9.83044         2.96250        -0.79570
| 33>    C      -10.78509         1.02326         0.25814
| 34>    C      -10.23582         0.08528        -0.58488
| 35>    N       -9.44206         0.47699        -1.58528
| 36>    C       -8.80949        -0.30131        -2.49836
| 37>    S       -8.98619        -2.02852        -2.50632
| 38>    C       -7.90681        -2.10350        -3.85994
| 39>    N       -7.61489        -3.36461        -4.39859
| 40>    O       -6.85502        -3.40918        -5.34764
| 41>    O       -8.14893        -4.32389        -3.87192
| 42>    C       -7.44584        -0.88163        -4.26944
| 43>    C       -7.95381         0.18212        -3.49764
| 44>    C       -7.65982         1.57880        -3.68506
| 45>    C       -6.70552         2.05127        -4.50764
| 46>    C       -6.37849         3.44046        -4.72981
| 47>    C       -5.20852         3.73744        -5.44802
| 48>    C       -4.86029         5.04429        -5.67893
| 49>    C       -5.67645         6.09263        -5.21887
| 50>    C       -6.83800         5.81294        -4.51238
| 51>    C       -7.17626         4.49708        -4.26981
| 52>    C       -5.08055         7.34907        -5.61917
| 53>    C       -3.88997         7.07672        -6.31478
| 54>    C       -3.65169         5.58761        -6.40339
| 55>    C       -2.34685         5.18515        -5.69052
| 56>    C       -2.31251         5.61884        -4.22995
| 57>    C       -3.60821         5.11194        -7.86710
| 58>    C       -4.86920         5.47304        -8.64298
| 59>    C       -3.12014         8.10055        -6.80715
| 60>    C       -3.53020         9.43220        -6.63253
| 61>    C       -4.71935         9.68587        -5.93557
| 62>    C       -5.49138         8.66087        -5.42726
| 63>    C       -2.69464        10.47472        -7.18240
| 64>    C       -3.01398        11.77655        -7.29099
| 65>    C       -2.17856        12.80505        -7.85046
| 66>    C       -2.66629        14.10620        -7.98708
| 67>    C       -1.92924        15.18154        -8.53563
| 68>    N       -2.61214        16.36347        -8.56712
| 69>    C       -3.78815        16.25127        -8.09461
| 70>    S       -4.25079        14.66683        -7.52899
| 71>    C       -0.60216        15.01010        -8.97087
| 72>    C       -0.10603        13.71338        -8.82798
| 73>    C       -0.85476        12.62975        -8.30083
| 74>    N       -0.17953        11.44463        -8.28800
| 75>    C        0.99548        11.55230        -8.76770
| 76>    S        1.46847        13.13809        -9.30668
| 77>    C        0.16138        16.10565        -9.52432
| 78>    C        1.54505        16.24693        -9.53184
| 79>    C        1.87485        17.47029       -10.17777
| 80>    C        3.08898        18.06893       -10.43908
| 81>    C        3.07353        19.29742       -11.11079
| 82>    C        4.10325        20.14703       -11.51955
| 83>    C        3.54463        21.28003       -12.16870
| 84>    C        2.16189        21.13609       -12.16449
| 85>    C        1.82928        19.91292       -11.51413
| 86>    C        0.61709        19.31603       -11.25114
| 87>    C        0.63157        18.08552       -10.57670
| 88>    C       -0.40099        17.24483       -10.16536
| 89>    C        4.33191        22.36042       -12.71627
| 90>    C        3.84862        23.43916       -13.32544
| 91>    H      -10.78411         5.19936         0.80820
| 92>    H      -13.19766         1.86190         3.66274
| 93>    H      -11.86329         7.09966         2.56203
| 94>    H      -10.41472        -0.97629        -0.47346
| 95>    H       -9.30951         1.50484        -1.62874
| 96>    H       -6.77809        -0.77814        -5.10439
| 97>    H       -8.24861         2.27494        -3.10585
| 98>    H       -6.08837         1.34873        -5.05179
| 99>    H       -4.58659         2.92893        -5.80584
|100>    H       -7.47111         6.61222        -4.15707
|101>    H       -8.08312         4.28418        -3.72535
|102>    H       -1.50635         5.63659        -6.22151
|103>    H       -2.23556         4.10026        -5.74950
|104>    H       -2.40043         6.69992        -4.14853
|105>    H       -1.37460         5.31419        -3.77130
|106>    H       -3.13056         5.16552        -3.67424
|107>    H       -3.47175         4.02841        -7.87991
|108>    H       -2.74163         5.56298        -8.35478
|109>    H       -5.74553         5.01776        -8.18667
|110>    H       -4.79182         5.11907        -9.66837
|111>    H       -5.01311         6.55107        -8.66075
|112>    H       -2.20188         7.89809        -7.33981
|113>    H       -5.03583        10.70582        -5.78053
|114>    H       -6.40201         8.87873        -4.88891
|115>    H       -1.73207        10.15489        -7.55522
|116>    H       -3.98212        12.13120        -6.95973
|117>    H       -4.48435        17.06471        -8.03213
|118>    H        1.68310        10.73243        -8.84236
|119>    H        2.26317        15.58023        -9.09237
|120>    H        4.02214        17.61082       -10.14170
|121>    H        5.15564        19.97982       -11.37065
|122>    H        1.44722        21.82242       -12.57903
|123>    H       -0.31750        19.77266       -11.54575
|124>    H       -1.45204        17.40889       -10.30751
|125>    H        5.40318        22.24773       -12.60191
|126>    H        2.79220        23.59452       -13.46166
|127>    H        4.49673        24.20730       -13.71010
|128> *
|129>
|130>                          ****END OF INPUT****

CARTESIAN COORDINATES (ANGSTROEM)
---------------------------------
  C    -11.649890    0.842560    1.400250
  C    -12.134260   -0.341980    1.892190
  C    -12.980490   -0.448490    3.014340
  N    -13.671400   -0.593280    3.919580
  C    -11.844810   -1.603510    1.333870
  N    -11.632980   -2.648590    0.909110
  C    -11.919850    2.170650    1.946930
  C    -11.247190    3.139850    1.157750
  C    -11.306840    4.486080    1.425930
  C    -12.065050    4.898390    2.526650
  C    -12.731820    3.925510    3.308740
  C    -12.672390    2.563180    3.036260
  S    -13.607510    4.651450    4.620770
  C    -13.073420    6.230640    4.109560
  C    -12.280300    6.217100    3.011670
  Br   -13.612040    7.747070    5.072320
  C    -10.523390    2.453290    0.082410
  O     -9.830440    2.962500   -0.795700
  C    -10.785090    1.023260    0.258140
  C    -10.235820    0.085280   -0.584880
  N     -9.442060    0.476990   -1.585280
  C     -8.809490   -0.301310   -2.498360
  S     -8.986190   -2.028520   -2.506320
  C     -7.906810   -2.103500   -3.859940
  N     -7.614890   -3.364610   -4.398590
  O     -6.855020   -3.409180   -5.347640
  O     -8.148930   -4.323890   -3.871920
  C     -7.445840   -0.881630   -4.269440
  C     -7.953810    0.182120   -3.497640
  C     -7.659820    1.578800   -3.685060
  C     -6.705520    2.051270   -4.507640
  C     -6.378490    3.440460   -4.729810
  C     -5.208520    3.737440   -5.448020
  C     -4.860290    5.044290   -5.678930
  C     -5.676450    6.092630   -5.218870
  C     -6.838000    5.812940   -4.512380
  C     -7.176260    4.497080   -4.269810
  C     -5.080550    7.349070   -5.619170
  C     -3.889970    7.076720   -6.314780
  C     -3.651690    5.587610   -6.403390
  C     -2.346850    5.185150   -5.690520
  C     -2.312510    5.618840   -4.229950
  C     -3.608210    5.111940   -7.867100
  C     -4.869200    5.473040   -8.642980
  C     -3.120140    8.100550   -6.807150
  C     -3.530200    9.432200   -6.632530
  C     -4.719350    9.685870   -5.935570
  C     -5.491380    8.660870   -5.427260
  C     -2.694640   10.474720   -7.182400
  C     -3.013980   11.776550   -7.290990
  C     -2.178560   12.805050   -7.850460
  C     -2.666290   14.106200   -7.987080
  C     -1.929240   15.181540   -8.535630
  N     -2.612140   16.363470   -8.567120
  C     -3.788150   16.251270   -8.094610
  S     -4.250790   14.666830   -7.528990
  C     -0.602160   15.010100   -8.970870
  C     -0.106030   13.713380   -8.827980
  C     -0.854760   12.629750   -8.300830
  N     -0.179530   11.444630   -8.288000
  C      0.995480   11.552300   -8.767700
  S      1.468470   13.138090   -9.306680
  C      0.161380   16.105650   -9.524320
  C      1.545050   16.246930   -9.531840
  C      1.874850   17.470290  -10.177770
  C      3.088980   18.068930  -10.439080
  C      3.073530   19.297420  -11.110790
  C      4.103250   20.147030  -11.519550
  C      3.544630   21.280030  -12.168700
  C      2.161890   21.136090  -12.164490
  C      1.829280   19.912920  -11.514130
  C      0.617090   19.316030  -11.251140
  C      0.631570   18.085520  -10.576700
  C     -0.400990   17.244830  -10.165360
  C      4.331910   22.360420  -12.716270
  C      3.848620   23.439160  -13.325440
  H    -10.784110    5.199360    0.808200
  H    -13.197660    1.861900    3.662740
  H    -11.863290    7.099660    2.562030
  H    -10.414720   -0.976290   -0.473460
  H     -9.309510    1.504840   -1.628740
  H     -6.778090   -0.778140   -5.104390
  H     -8.248610    2.274940   -3.105850
  H     -6.088370    1.348730   -5.051790
  H     -4.586590    2.928930   -5.805840
  H     -7.471110    6.612220   -4.157070
  H     -8.083120    4.284180   -3.725350
  H     -1.506350    5.636590   -6.221510
  H     -2.235560    4.100260   -5.749500
  H     -2.400430    6.699920   -4.148530
  H     -1.374600    5.314190   -3.771300
  H     -3.130560    5.165520   -3.674240
  H     -3.471750    4.028410   -7.879910
  H     -2.741630    5.562980   -8.354780
  H     -5.745530    5.017760   -8.186670
  H     -4.791820    5.119070   -9.668370
  H     -5.013110    6.551070   -8.660750
  H     -2.201880    7.898090   -7.339810
  H     -5.035830   10.705820   -5.780530
  H     -6.402010    8.878730   -4.888910
  H     -1.732070   10.154890   -7.555220
  H     -3.982120   12.131200   -6.959730
  H     -4.484350   17.064710   -8.032130
  H      1.683100   10.732430   -8.842360
  H      2.263170   15.580230   -9.092370
  H      4.022140   17.610820  -10.141700
  H      5.155640   19.979820  -11.370650
  H      1.447220   21.822420  -12.579030
  H     -0.317500   19.772660  -11.545750
  H     -1.452040   17.408890  -10.307510
  H      5.403180   22.247730  -12.601910
  H      2.792200   23.594520  -13.461660
  H      4.496730   24.207300  -13.710100

 Total Charge           Charge          ....    0
 Multiplicity           Mult            ....    1
 Number of Electrons    NEL             ....  574
 Basis Dimension        Dim             .... 1283

ORBITAL ENERGIES
----------------

  NO   OCC          E(Eh)            E(eV)
   0   2.0000    -482.890283    -13140.1126
   1   2.0000     -88.990100     -2421.5437
   2   2.0000     -88.981754     -2421.3166
   3   2.0000     -88.960487     -2420.7379
   4   2.0000     -88.959333     -2420.7065
   5   2.0000     -62.567988     -1702.5615
   6   2.0000     -56.401950     -1534.7751
   7   2.0000     -56.399216     -1534.7007
   8   2.0000     -56.399185     -1534.6999
   9   2.0000     -19.239780      -523.5410
  10   2.0000     -19.238885      -523.5167
  11   2.0000     -19.236919      -523.4632
  12   2.0000     -14.651149      -398.6780
  13   2.0000     -14.497899      -394.5079
  14   2.0000     -14.421852      -392.4386
  15   2.0000     -14.417666      -392.3246
  16   2.0000     -14.412416      -392.1818
  17   2.0000     -14.411766      -392.1641
  18   2.0000     -10.383371      -282.5459
  19   2.0000     -10.372708      -282.2557
  20   2.0000     -10.370728      -282.2019
  21   2.0000     -10.364348      -282.0283
  22   2.0000     -10.349404      -281.6216
  23   2.0000     -10.348184      -281.5884
  24   2.0000     -10.345007      -281.5019
  25   2.0000     -10.336117      -281.2600
  26   2.0000     -10.335959      -281.2558
  27   2.0000     -10.331927      -281.1460
  28   2.0000     -10.324218      -280.9362
  29   2.0000     -10.320858      -280.8448
  30   2.0000     -10.315384      -280.6959
  31   2.0000     -10.313854      -280.6542
  32   2.0000     -10.312126      -280.6072
  33   2.0000     -10.311496      -280.5901
  34   2.0000     -10.310051      -280.5507
  35   2.0000     -10.308050      -280.4963
  36   2.0000     -10.307616      -280.4845
  37   2.0000     -10.306743      -280.4607
  38   2.0000     -10.304792      -280.4076
  39   2.0000     -10.303816      -280.3811
  40   2.0000     -10.302467      -280.3444
  41   2.0000     -10.301854      -280.3277
  42   2.0000     -10.301670      -280.3227
  43   2.0000     -10.297588      -280.2116
  44   2.0000     -10.296986      -280.1952
  45   2.0000     -10.291876      -280.0562
  46   2.0000     -10.289367      -279.9879
  47   2.0000     -10.289060      -279.9796
  48   2.0000     -10.286874      -279.9201
  49   2.0000     -10.281581      -279.7760
  50   2.0000     -10.277735      -279.6714
  51   2.0000     -10.276810      -279.6462
  52   2.0000     -10.276429      -279.6358
  53   2.0000     -10.275308      -279.6053
  54   2.0000     -10.273568      -279.5580
  55   2.0000     -10.273475      -279.5555
  56   2.0000     -10.272940      -279.5409
  57   2.0000     -10.272608      -279.5319
  58   2.0000     -10.272445      -279.5274
  59   2.0000     -10.270556      -279.4760
  60   2.0000     -10.270355      -279.4706
  61   2.0000     -10.269730      -279.4536
  62   2.0000     -10.268752      -279.4269
  63   2.0000     -10.268619      -279.4233
  64   2.0000     -10.268616      -279.4232
  65   2.0000     -10.267050      -279.3806
  66   2.0000     -10.266011      -279.3524
  67   2.0000     -10.265424      -279.3364
  68   2.0000     -10.263665      -279.2885
  69   2.0000     -10.262638      -279.2606
  70   2.0000     -10.262452      -279.2555
  71   2.0000     -10.262018      -279.2437
  72   2.0000     -10.260116      -279.1920
  73   2.0000     -10.257065      -279.1089
  74   2.0000     -10.256399      -279.0908
  75   2.0000     -10.255924      -279.0779
  76   2.0000     -10.254887      -279.0497
  77   2.0000     -10.251677      -278.9623
  78   2.0000     -10.245570      -278.7961
  79   2.0000     -10.245282      -278.7883
  80   2.0000      -8.797412      -239.3897
  81   2.0000      -8.085303      -220.0123
  82   2.0000      -8.077657      -219.8042
  83   2.0000      -8.056360      -219.2247
  84   2.0000      -8.055419      -219.1991
  85   2.0000      -6.633761      -180.5138
  86   2.0000      -6.619123      -180.1155
  87   2.0000      -6.618913      -180.1098
  88   2.0000      -6.054932      -164.7631
  89   2.0000      -6.050603      -164.6453
  90   2.0000      -6.047335      -164.5564
  91   2.0000      -6.046790      -164.5415
  92   2.0000      -6.043048      -164.4397
  93   2.0000      -6.038936      -164.3278
  94   2.0000      -6.025673      -163.9669
  95   2.0000      -6.024708      -163.9406
  96   2.0000      -6.021566      -163.8551
  97   2.0000      -6.020755      -163.8331
  98   2.0000      -6.018279      -163.7657
  99   2.0000      -6.017247      -163.7376
 100   2.0000      -2.749606       -74.8206
 101   2.0000      -2.745530       -74.7097
 102   2.0000      -2.745364       -74.7052
 103   2.0000      -2.733739       -74.3888
 104   2.0000      -2.733721       -74.3883
 105   2.0000      -1.321035       -35.9472
 106   2.0000      -1.151316       -31.3289
 107   2.0000      -1.140088       -31.0234
 108   2.0000      -1.105425       -30.0801
 109   2.0000      -1.070547       -29.1311
 110   2.0000      -1.063721       -28.9453
 111   2.0000      -1.029402       -28.0115
 112   2.0000      -1.018764       -27.7220
 113   2.0000      -1.011110       -27.5137
 114   2.0000      -0.999319       -27.1929
 115   2.0000      -0.995475       -27.0882
 116   2.0000      -0.987305       -26.8659
 117   2.0000      -0.982003       -26.7217
 118   2.0000      -0.959150       -26.0998
 119   2.0000      -0.948740       -25.8165
 120   2.0000      -0.947948       -25.7950
 121   2.0000      -0.943890       -25.6846
 122   2.0000      -0.927008       -25.2252
 123   2.0000      -0.920837       -25.0572
 124   2.0000      -0.915232       -24.9047
 125   2.0000      -0.914409       -24.8823
 126   2.0000      -0.900998       -24.5174
 127   2.0000      -0.892530       -24.2870
 128   2.0000      -0.888854       -24.1870
 129   2.0000      -0.886172       -24.1140
 130   2.0000      -0.882652       -24.0182
 131   2.0000      -0.878983       -23.9183
 132   2.0000      -0.863216       -23.4893
 133   2.0000      -0.857633       -23.3374
 134   2.0000      -0.854270       -23.2459
 135   2.0000      -0.847775       -23.0691
 136   2.0000      -0.840275       -22.8650
 137   2.0000      -0.836358       -22.7585
 138   2.0000      -0.836143       -22.7526
 139   2.0000      -0.833394       -22.6778
 140   2.0000      -0.830368       -22.5955
 141   2.0000      -0.824687       -22.4409
 142   2.0000      -0.813776       -22.1440
 143   2.0000      -0.800861       -21.7925
 144   2.0000      -0.791964       -21.5504
 145   2.0000      -0.789458       -21.4822
 146   2.0000      -0.769290       -20.9334
 147   2.0000      -0.765987       -20.8436
 148   2.0000      -0.760664       -20.6987
 149   2.0000      -0.754709       -20.5367
 150   2.0000      -0.743180       -20.2230
 151   2.0000      -0.740226       -20.1426
 152   2.0000      -0.735672       -20.0187
 153   2.0000      -0.726790       -19.7769
 154   2.0000      -0.720100       -19.5949
 155   2.0000      -0.714584       -19.4448
 156   2.0000      -0.704434       -19.1686
 157   2.0000      -0.696387       -18.9496
 158   2.0000      -0.695610       -18.9285
 159   2.0000      -0.683009       -18.5856
 160   2.0000      -0.679347       -18.4860
 161   2.0000      -0.673477       -18.3262
 162   2.0000      -0.671989       -18.2857
 163   2.0000      -0.665392       -18.1062
 164   2.0000      -0.663473       -18.0540
 165   2.0000      -0.660369       -17.9695
 166   2.0000      -0.657181       -17.8828
 167   2.0000      -0.652001       -17.7419
 168   2.0000      -0.651241       -17.7212
 169   2.0000      -0.643022       -17.4975
 170   2.0000      -0.637240       -17.3402
 171   2.0000      -0.635882       -17.3032
 172   2.0000      -0.632525       -17.2119
 173   2.0000      -0.627362       -17.0714
 174   2.0000      -0.624806       -17.0018
 175   2.0000      -0.620375       -16.8813
 176   2.0000      -0.617618       -16.8062
 177   2.0000      -0.612189       -16.6585
 178   2.0000      -0.607904       -16.5419
 179   2.0000      -0.598569       -16.2879
 180   2.0000      -0.595924       -16.2159
 181   2.0000      -0.591846       -16.1050
 182   2.0000      -0.585769       -15.9396
 183   2.0000      -0.583212       -15.8700
 184   2.0000      -0.577226       -15.7071
 185   2.0000      -0.573720       -15.6117
 186   2.0000      -0.571402       -15.5486
 187   2.0000      -0.568149       -15.4601
 188   2.0000      -0.562970       -15.3192
 189   2.0000      -0.561587       -15.2816
 190   2.0000      -0.559426       -15.2228
 191   2.0000      -0.552983       -15.0474
 192   2.0000      -0.546177       -14.8622
 193   2.0000      -0.543633       -14.7930
 194   2.0000      -0.542487       -14.7618
 195   2.0000      -0.541944       -14.7471
 196   2.0000      -0.539546       -14.6818
 197   2.0000      -0.538232       -14.6460
 198   2.0000      -0.536307       -14.5937
 199   2.0000      -0.534601       -14.5472
 200   2.0000      -0.529917       -14.4198
 201   2.0000      -0.529149       -14.3989
 202   2.0000      -0.527402       -14.3513
 203   2.0000      -0.524630       -14.2759
 204   2.0000      -0.517979       -14.0949
 205   2.0000      -0.516693       -14.0599
 206   2.0000      -0.516300       -14.0492
 207   2.0000      -0.514377       -13.9969
 208   2.0000      -0.511914       -13.9299
 209   2.0000      -0.509266       -13.8578
 210   2.0000      -0.503605       -13.7038
 211   2.0000      -0.502868       -13.6837
 212   2.0000      -0.501849       -13.6560
 213   2.0000      -0.497609       -13.5406
 214   2.0000      -0.494331       -13.4514
 215   2.0000      -0.493785       -13.4366
 216   2.0000      -0.493022       -13.4158
 217   2.0000      -0.487772       -13.2730
 218   2.0000      -0.486003       -13.2248
 219   2.0000      -0.483344       -13.1525
 220   2.0000      -0.482392       -13.1266
 221   2.0000      -0.479655       -13.0521
 222   2.0000      -0.473352       -12.8806
 223   2.0000      -0.472166       -12.8483
 224   2.0000      -0.469596       -12.7784
 225   2.0000      -0.466036       -12.6815
 226   2.0000      -0.465464       -12.6659
 227   2.0000      -0.463531       -12.6133
 228   2.0000      -0.463094       -12.6014
 229   2.0000      -0.458560       -12.4780
 230   2.0000      -0.455256       -12.3882
 231   2.0000      -0.454862       -12.3774
 232   2.0000      -0.454232       -12.3603
 233   2.0000      -0.451877       -12.2962
 234   2.0000      -0.451490       -12.2857
 235   2.0000      -0.449623       -12.2349
 236   2.0000      -0.449332       -12.2269
 237   2.0000      -0.447775       -12.1846
 238   2.0000      -0.445148       -12.1131
 239   2.0000      -0.441492       -12.0136
 240   2.0000      -0.438471       -11.9314
 241   2.0000      -0.435209       -11.8426
 242   2.0000      -0.433845       -11.8055
 243   2.0000      -0.431927       -11.7533
 244   2.0000      -0.431596       -11.7443
 245   2.0000      -0.423982       -11.5371
 246   2.0000      -0.423090       -11.5129
 247   2.0000      -0.421575       -11.4716
 248   2.0000      -0.419020       -11.4021
 249   2.0000      -0.417688       -11.3659
 250   2.0000      -0.416356       -11.3296
 251   2.0000      -0.414721       -11.2851
 252   2.0000      -0.409586       -11.1454
 253   2.0000      -0.408764       -11.1230
 254   2.0000      -0.406444       -11.0599
 255   2.0000      -0.404837       -11.0162
 256   2.0000      -0.399359       -10.8671
 257   2.0000      -0.394619       -10.7381
 258   2.0000      -0.392273       -10.6743
 259   2.0000      -0.386973       -10.5301
 260   2.0000      -0.386482       -10.5167
 261   2.0000      -0.381872       -10.3913
 262   2.0000      -0.379735       -10.3331
 263   2.0000      -0.379695       -10.3320
 264   2.0000      -0.377148       -10.2627
 265   2.0000      -0.373790       -10.1714
 266   2.0000      -0.370837       -10.0910
 267   2.0000      -0.368229       -10.0200
 268   2.0000      -0.360391        -9.8068
 269   2.0000      -0.359736        -9.7889
 270   2.0000      -0.356384        -9.6977
 271   2.0000      -0.346663        -9.4332
 272   2.0000      -0.345636        -9.4052
 273   2.0000      -0.343349        -9.3430
 274   2.0000      -0.342173        -9.3110
 275   2.0000      -0.324069        -8.8184
 276   2.0000      -0.322329        -8.7710
 277   2.0000      -0.320395        -8.7184
 278   2.0000      -0.313909        -8.5419
 279   2.0000      -0.311495        -8.4762
 280   2.0000      -0.302629        -8.2350
 281   2.0000      -0.300148        -8.1674
 282   2.0000      -0.289074        -7.8661
 283   2.0000      -0.268019        -7.2932
 284   2.0000      -0.258641        -7.0380
 285   2.0000      -0.248960        -6.7745
 286   2.0000      -0.226095        -6.1523
 287   0.0000      -0.092837        -2.5262
 288   0.0000      -0.090842        -2.4719
 289   0.0000      -0.072778        -1.9804
 290   0.0000      -0.052228        -1.4212
 291   0.0000      -0.042104        -1.1457

MULLIKEN ATOMIC CHARGES
-----------------------
   0 C :    0.328806
   1 C :   -0.344444
   2 C :   -0.185202
   3 N :    0.151646
   4 C :   -0.198339
   5 N :    0.148111
   6 C :    0.008148
   7 C :   -0.007764
   8 C :   -0.065308
   9 C :    0.113899
  10 C :   -0.092499
  11 C :   -0.017676
  12 S :    0.192173
  13 C :   -0.124492
  14 C :    0.040382
  15 Br:    0.027156
  16 C :    0.168386
  17 O :   -0.228248
  18 C :   -0.131595
  19 C :    0.026296
  20 N :   -0.003445
  21 C :   -0.130410
  22 S :    0.176390
  23 C :    0.004357
  24 N :    0.274015
  25 O :   -0.246592
  26 O :   -0.255186
  27 C :   -0.001132
  28 C :    0.145018
  29 C :   -0.030112
  30 C :    0.000069
  31 C :    0.121917
  32 C :   -0.107826
  33 C :    0.015130
  34 C :    0.115612
  35 C :   -0.048415
  36 C :   -0.017749
  37 C :    0.108253
  38 C :    0.020550
  39 C :   -0.139059
  40 C :    0.068020
  41 C :    0.025886
  42 C :    0.067418
  43 C :    0.025863
  44 C :   -0.113534
  45 C :    0.132397
  46 C :   -0.015859
  47 C :   -0.044952
  48 C :    0.005862
  49 C :   -0.062357
  50 C :    0.079327
  51 C :   -0.124674
  52 C :   -0.002730
  53 N :   -0.065495
  54 C :    0.016987
  55 S :    0.078393
  56 C :    0.121782
  57 C :   -0.130077
  58 C :    0.011593
  59 N :   -0.061472
  60 C :    0.019032
  61 S :    0.092459
  62 C :   -0.051005
  63 C :   -0.041451
  64 C :    0.048385
  65 C :   -0.002306
  66 C :    0.052699
  67 C :   -0.027706
  68 C :    0.056925
  69 C :   -0.020707
  70 C :    0.040170
  71 C :    0.003740
  72 C :    0.050853
  73 C :    0.000416
  74 C :    0.006948
  75 C :   -0.020362
  76 H :   -0.010902
  77 H :   -0.004347
  78 H :   -0.003020
  79 H :    0.047179
  80 H :    0.184615
  81 H :    0.014256
  82 H :   -0.009811
  83 H :   -0.026210
  84 H :   -0.041857
  85 H :   -0.036937
  86 H :   -0.024796
  87 H :   -0.001556
  88 H :   -0.002629
  89 H :    0.023931
  90 H :    0.007315
  91 H :    0.020142
  92 H :   -0.003357
  93 H :   -0.001146
  94 H :    0.019161
  95 H :    0.008517
  96 H :    0.023957
  97 H :   -0.037735
  98 H :   -0.031754
  99 H :   -0.039998
 100 H :   -0.008823
 101 H :   -0.030438
 102 H :    0.040650
 103 H :    0.039694
 104 H :   -0.019599
 105 H :   -0.028879
 106 H :   -0.025976
 107 H :   -0.031228
 108 H :   -0.026145
 109 H :   -0.014411
 110 H :   -0.022695
 111 H :    0.006383
 112 H :    0.017155
Sum of atomic charges:   -0.0000000

LOEWDIN ATOMIC CHARGES
----------------------
   0 C :    0.078831
   1 C :   -0.148777
   2 C :   -0.019894
   3 N :   -0.053755
   4 C :   -0.020752
   5 N :   -0.052507
   6 C :   -0.017866
   7 C :   -0.051573
   8 C :    0.023963
   9 C :   -0.034195
  10 C :   -0.143743
  11 C :   -0.007027
  12 S :    0.438232
  13 C :   -0.271322
  14 C :   -0.069993
  15 Br:    0.139526
  16 C :    0.096881
  17 O :   -0.180924
  18 C :   -0.148549
  19 C :    0.112412
  20 N :    0.082372
  21 C :   -0.119218
  22 S :    0.470319
  23 C :   -0.199737
  24 N :    0.273090
  25 O :   -0.213707
  26 O :   -0.221897
  27 C :    0.002270
  28 C :   -0.078019
  29 C :   -0.039479
  30 C :    0.000012
  31 C :   -0.030228
  32 C :   -0.019117
  33 C :    0.003190
  34 C :   -0.012275
  35 C :   -0.017456
  36 C :   -0.012623
  37 C :   -0.020732
  38 C :    0.002488
  39 C :   -0.035695
  40 C :   -0.011485
  41 C :   -0.057668
  42 C :   -0.011821
  43 C :   -0.057736
  44 C :   -0.018485
  45 C :   -0.022042
  46 C :   -0.014408
  47 C :   -0.018085
  48 C :    0.000366
  49 C :   -0.038579
  50 C :   -0.040736
  51 C :   -0.163147
  52 C :   -0.034115
  53 N :   -0.083398
  54 C :   -0.106152
  55 S :    0.383914
  56 C :   -0.031590
  57 C :   -0.164895
  58 C :   -0.027030
  59 N :   -0.081836
  60 C :   -0.106739
  61 S :    0.403450
  62 C :   -0.069697
  63 C :    0.012816
  64 C :   -0.071954
  65 C :    0.079769
  66 C :   -0.076432
  67 C :    0.039369
  68 C :   -0.070094
  69 C :    0.028077
  70 C :   -0.068054
  71 C :    0.085855
  72 C :   -0.078271
  73 C :    0.062746
  74 C :   -0.023987
  75 C :   -0.053812
  76 H :    0.041093
  77 H :    0.042224
  78 H :    0.038964
  79 H :    0.036587
  80 H :    0.084745
  81 H :    0.045023
  82 H :    0.027088
  83 H :    0.026786
  84 H :    0.023532
  85 H :    0.026890
  86 H :    0.027153
  87 H :    0.020327
  88 H :    0.019298
  89 H :    0.026405
  90 H :    0.023567
  91 H :    0.024863
  92 H :    0.019095
  93 H :    0.020502
  94 H :    0.024633
  95 H :    0.023885
  96 H :    0.026438
  97 H :    0.025418
  98 H :    0.024955
  99 H :    0.025415
 100 H :    0.026557
 101 H :    0.013558
 102 H :    0.019356
 103 H :    0.019409
 104 H :    0.012614
 105 H :    0.033514
 106 H :    0.023780
 107 H :    0.022374
 108 H :    0.034755
 109 H :    0.025243
 110 H :    0.026584
 111 H :    0.017859
 112 H :    0.022870

  Mayer bond orders larger than 0.100000
B(  0-C ,  1-C ) :   1.6267 B(  0-C ,  6-C ) :   1.0033 B(  0-C , 18-C ) :   1.1006
B(  1-C ,  2-C ) :   1.1437 B(  1-C ,  4-C ) :   1.1489 B(  2-C ,  3-N ) :   2.9683
B(  4-C ,  5-N ) :   2.9559 B(  6-C ,  7-C ) :   1.2719 B(  6-C , 11-C ) :   1.4260
B(  7-C ,  8-C ) :   1.4256 B(  7-C , 16-C ) :   0.9827 B(  8-C ,  9-C ) :   1.2418
B(  8-C , 76-H ) :   1.0178 B(  9-C , 10-C ) :   1.3095 B(  9-C , 14-C ) :   1.1642
B( 10-C , 11-C ) :   1.3197 B( 10-C , 12-S ) :   1.0904 B( 11-C , 77-H ) :   0.9799
B( 12-S , 13-C ) :   1.0892 B( 13-C , 14-C ) :   1.6156 B( 13-C , 15-Br) :   1.0202
B( 14-C , 78-H ) :   1.0003 B( 16-C , 17-O ) :   2.0235 B( 16-C , 18-C ) :   1.0108
B( 17-O , 80-H ) :   0.1427 B( 18-C , 19-C ) :   1.4400 B( 19-C , 20-N ) :   1.3521
B( 19-C , 79-H ) :   0.9318 B( 20-N , 21-C ) :   1.1877 B( 20-N , 80-H ) :   0.8235
B( 21-C , 22-S ) :   1.1302 B( 21-C , 28-C ) :   1.3790 B( 22-S , 23-C ) :   1.0851
B( 23-C , 24-N ) :   0.9629 B( 23-C , 27-C ) :   1.5026 B( 24-N , 25-O ) :   1.5350
B( 24-N , 26-O ) :   1.5183 B( 25-O , 26-O ) :   0.2625 B( 27-C , 28-C ) :   1.2168
B( 27-C , 81-H ) :   1.0003 B( 28-C , 29-C ) :   1.0660 B( 29-C , 30-C ) :   1.7316
B( 29-C , 82-H ) :   0.9630 B( 30-C , 31-C ) :   1.0628 B( 30-C , 83-H ) :   0.9847
B( 31-C , 32-C ) :   1.2817 B( 31-C , 36-C ) :   1.3476 B( 32-C , 33-C ) :   1.3789
B( 32-C , 84-H ) :   1.0125 B( 33-C , 34-C ) :   1.3701 B( 33-C , 39-C ) :   0.9153
B( 34-C , 35-C ) :   1.3272 B( 34-C , 37-C ) :   0.9978 B( 35-C , 36-C ) :   1.4006
B( 35-C , 85-H ) :   0.9903 B( 36-C , 86-H ) :   0.9846 B( 37-C , 38-C ) :   1.3685
B( 37-C , 47-C ) :   1.3295 B( 38-C , 39-C ) :   0.9170 B( 38-C , 44-C ) :   1.3667
B( 39-C , 40-C ) :   1.0349 B( 39-C , 42-C ) :   1.0381 B( 40-C , 41-C ) :   1.1018
B( 40-C , 87-H ) :   0.9394 B( 40-C , 88-H ) :   0.9397 B( 41-C , 89-H ) :   0.9643
B( 41-C , 90-H ) :   0.9639 B( 41-C , 91-H ) :   0.9641 B( 42-C , 43-C ) :   1.1017
B( 42-C , 92-H ) :   0.9388 B( 42-C , 93-H ) :   0.9392 B( 43-C , 94-H ) :   0.9642
B( 43-C , 95-H ) :   0.9640 B( 43-C , 96-H ) :   0.9644 B( 44-C , 45-C ) :   1.2881
B( 44-C , 97-H ) :   1.0172 B( 45-C , 46-C ) :   1.3465 B( 45-C , 48-C ) :   1.0405
B( 46-C , 47-C ) :   1.3974 B( 46-C , 98-H ) :   0.9856 B( 47-C , 99-H ) :   0.9895
B( 48-C , 49-C ) :   1.6973 B( 48-C ,100-H ) :   0.9621 B( 49-C , 50-C ) :   1.1065
B( 49-C ,101-H ) :   0.9585 B( 50-C , 51-C ) :   1.3575 B( 50-C , 56-C ) :   0.1055
B( 50-C , 58-C ) :   1.2878 B( 51-C , 52-C ) :   1.2868 B( 51-C , 55-S ) :   1.0643
B( 52-C , 53-N ) :   1.3147 B( 52-C , 56-C ) :   1.3413 B( 53-N , 54-C ) :   1.7662
B( 53-N , 55-S ) :   0.1077 B( 54-C , 55-S ) :   1.1101 B( 54-C ,102-H ) :   0.9633
B( 56-C , 57-C ) :   1.3919 B( 56-C , 62-C ) :   0.9881 B( 57-C , 58-C ) :   1.2899
B( 57-C , 61-S ) :   1.0657 B( 58-C , 59-N ) :   1.3202 B( 59-N , 60-C ) :   1.7515
B( 59-N , 61-S ) :   0.1070 B( 59-N ,100-H ) :   0.1024 B( 60-C , 61-S ) :   1.1152
B( 60-C ,103-H ) :   0.9637 B( 62-C , 63-C ) :   1.4515 B( 62-C , 73-C ) :   1.2304
B( 63-C , 64-C ) :   1.1432 B( 63-C ,104-H ) :   0.9953 B( 64-C , 65-C ) :   1.3813
B( 64-C , 72-C ) :   1.1604 B( 65-C , 66-C ) :   1.1812 B( 65-C ,105-H ) :   1.0053
B( 66-C , 67-C ) :   1.3369 B( 66-C , 70-C ) :   1.1523 B( 67-C , 68-C ) :   1.2129
B( 67-C ,106-H ) :   1.0132 B( 68-C , 69-C ) :   1.4464 B( 68-C , 74-C ) :   1.0729
B( 69-C , 70-C ) :   1.1430 B( 69-C ,107-H ) :   1.0099 B( 70-C , 71-C ) :   1.3895
B( 71-C , 72-C ) :   1.1675 B( 71-C ,108-H ) :   1.0057 B( 72-C , 73-C ) :   1.3306
B( 73-C ,109-H ) :   1.0075 B( 74-C , 75-C ) :   1.9496 B( 74-C ,110-H ) :   0.9656
B( 75-C ,111-H ) :   0.9521 B( 75-C ,112-H ) :   0.9484

-----------------------------------------------------------------------------
         ABSORPTION SPECTRUM VIA TRANSITION ELECTRIC DIPOLE MOMENTS
-----------------------------------------------------------------------------
State   Energy  Wavelength   fosc         T2         TX        TY        TZ
        (cm-1)    (nm)                  (au**2)     (au)      (au)      (au)
-----------------------------------------------------------------------------
   0    7769.4   1287.1   0.002250715   0.09537   0.13586   0.25177  -0.11628
   1   20210.9    494.8   1.046897807  17.05276   2.68749   1.15945  -2.91304
   2   20674.6    483.7   0.038819612   0.61814   0.44529   0.59210   0.26319
   3   22092.2    452.6   0.491619957   7.32600  -1.23377  -2.20932   0.96058
   4   23450.0    426.4   1.140542423  16.01192   1.88399   3.32235  -1.19352
   5   23719.4    421.6   0.686862347   9.53326  -0.89406  -2.94605   0.23389
   6   24449.4    409.0   0.533991606   7.19021  -1.75635  -0.90255   1.81407
   7   27672.2    361.4   0.099467553   1.18335  -0.55686   0.49225   0.79432
   8   27925.3    358.1   0.078395362   0.92420   0.53041   0.11597  -0.79336
   9   28068.0    356.3   0.323084669   3.78949  -0.00571   1.94488   0.08313
  10   28393.7    352.2   0.030968076   0.35906  -0.56283  -0.20447  -0.02177
  11   29554.6    338.4   0.532555773   5.93219   0.55294  -2.14312  -1.01660
  12   29720.4    336.5   0.018454018   0.20441   0.22056   0.36785  -0.14303
  13   30286.6    330.2   0.002451335   0.02665  -0.08661   0.12590  -0.05739
  14   30399.8    328.9   0.030816159   0.33372   0.05676   0.55515   0.14934
  15   30666.0    326.1   0.012566152   0.13490   0.28578  -0.01363   0.23032
  16   31007.2    322.5   0.284153418   3.01693  -0.04436   1.72569  -0.19223
  17   31199.5    320.5   0.014303189   0.15092  -0.28156   0.17385  -0.20353
  18   31691.2    315.5   0.152333191   1.58246  -0.33062   1.04081   0.62439
  19   32183.4    310.7   0.007175035   0.07340   0.03051  -0.25232  -0.09380
  20   32258.5    310.0   0.153809367   1.56969  -0.21128   1.15761   0.43011
  21   33083.8    302.3   0.632592564   6.29484   1.06782   2.12330  -0.80385
  22   33834.0    295.6   0.033478216   0.32575  -0.41481  -0.26346   0.29030
  23   33948.9    294.6   0.000279457   0.00271  -0.02579   0.01235   0.04350
  24   34206.7    292.3   0.376356380   3.62213  -0.21477  -1.88805   0.10613
  25   34747.6    287.8   0.000262897   0.00249   0.02624   0.03943   0.01573
  26   34963.7    286.0   0.000065431   0.00062   0.02338   0.00823  -0.00129
  27   35324.2    283.1   0.235303116   2.19296  -0.48121  -1.35658   0.34800
  28   35638.9    280.6   0.150949355   1.39438   0.78722   0.46824  -0.74526
  29   35942.9    278.2   0.009320693   0.08537   0.15635   0.23436  -0.07745
  30   35983.7    277.9   0.436151987   3.99032  -0.67441  -1.83262   0.42070
  31   36317.3    275.4   0.000115950   0.00105   0.00902   0.02656  -0.01625
  32   36637.7    272.9   0.012223955   0.10984   0.32412   0.03580  -0.05917
  33   36657.0    272.8   0.007499599   0.06735   0.15224   0.12291  -0.17050
  34   37080.0    269.7   0.030008517   0.26643   0.00739  -0.51467   0.03854
  35   37272.9    268.3   0.038483449   0.33990  -0.10660  -0.54843   0.16664
  36   37363.0    267.6   0.047516667   0.41868   0.01418   0.64116  -0.08594
  37   37612.9    265.9   0.004021848   0.03520   0.10992  -0.05610  -0.14132
  38   38154.0    262.1   0.026856422   0.23173   0.45343   0.00983  -0.16137
  39   38442.4    260.1   0.241187327   2.06548  -0.76673   0.86310   0.85595
  40   38610.5    259.0   0.174466940   1.48759   0.17241  -1.06181   0.57482
  41   39508.2    253.1   0.010186823   0.08488  -0.18648   0.16508   0.15118
  42   39723.7    251.7   0.058762172   0.48699   0.56333  -0.28578  -0.29663
  43   39846.2    251.0   0.043489906   0.35932   0.17274   0.49050  -0.29814
  44   39982.7    250.1   0.019247366   0.15848   0.25777   0.22667  -0.20164
  45   40086.5    249.5   0.003236633   0.02658   0.12336  -0.01366  -0.10572
  46   40273.4    248.3   0.041865199   0.34222  -0.31451   0.44035   0.22227

FINAL SINGLE POINT ENERGY     -7101.421748443603

DIPOLE MOMENT
-------------
                                X             Y             Z
Electronic contribution:   -153.69028     -48.91131     167.53191
Nuclear contribution   :    154.60448      52.92958    -167.92075
                        -----------------------------------------
Total Dipole Moment    :      0.91420       4.01827      -0.38884
                        -----------------------------------------
Magnitude (a.u.)       :      4.13926
Magnitude (Debye)      :     10.52116

Rotational constants in cm-1:     0.000962     0.000159     0.000138
Rotational constants in MHz :    28.830724     4.758193     4.136263

                             ****ORCA TERMINATED NORMALLY****
TOTAL RUN TIME: 0 days 0 hours 12 minutes 9 seconds 949 msec
