                         Program Version 4.2.0 -  RELEASE  -
|  1> # ORCA input file
|  2> # SCF done       -194.794283959205          0.000437863041
|  3> ! CAM-B3LYP def2-SVP def2/J RIJCOSX Grid4 TightSCF
|  4> %maxcore 5000
|  5> %tddft
|  6>     Mode sTDDFT
|  7>     Ethresh 5.0
|  8>     maxcore 5000
|  9> end
| 10>
| 11> %pal
| 12>   nprocs 6
| 13>   end
| 14> * xyz 0 1
| 15>    C      -15.62544         3.72752        -1.56067
| 16>    C      -15.82510         3.99862        -2.88501
| 17>    F      -16.85032         4.77608        -3.26471
| 18>    C      -14.96024         3.47471        -3.86625
| 19>    F      -15.18177         3.76838        -5.15773
| 20>    C      -13.90586         2.68322        -3.51008
| 21>    C      -13.66715         2.39624        -2.15205
| 22>    C      -14.53565         2.93100        -1.15679
| 23>    C      -14.29437         2.67891         0.21512
| 24>    C      -13.22360         1.90475         0.57341
| 25>    C      -12.37849         1.35687        -0.43605
| 26>    C      -12.57208         1.59223        -1.76688
| 27>    C      -11.31845         0.58374         0.20604
| 28>    O      -10.46849        -0.11746        -0.33155
| 29>    C      -11.47818         0.78602         1.65704
| 30>    C      -12.70439         1.51392         1.88444
| 31>    C      -13.30861         1.75200         3.09118
| 32>    C      -12.76111         1.35023         4.32598
| 33>    N      -12.34518         1.03594         5.34879
| 34>    C      -14.56414         2.37230         3.24111
| 35>    N      -15.59281         2.84565         3.43196
| 36>    C      -10.51262         0.35407         2.53501
| 37>    N       -9.44407        -0.27913         2.03292
| 38>    C       -8.30870        -0.70229         2.62675
| 39>    S       -8.13246        -0.86230         4.34191
| 40>    C       -6.51701        -1.45066         4.09557
| 41>    N       -5.76903        -1.79173         5.22993
| 42>    O       -4.64032        -2.21122         5.05691
| 43>    O       -6.31245        -1.64006         6.30986
| 44>    C       -6.14105        -1.50666         2.77994
| 45>    C       -7.15718        -1.07450         1.90774
| 46>    C       -7.07109        -0.92847         0.48281
| 47>    C       -6.00529        -1.19972        -0.29888
| 48>    C       -6.00024        -0.93519        -1.70208
| 49>    C       -6.88931        -0.17597        -2.45357
| 50>    C       -7.84308         0.71097        -1.92767
| 51>    N       -8.54074         1.52908        -1.52512
| 52>    C       -6.57180        -0.18480        -3.83846
| 53>    C       -5.40013        -0.88512        -4.09881
| 54>    S       -4.72221        -1.61216        -2.69295
| 55>    S       -4.85899        -0.80231        -5.74660
| 56>    C       -6.25308         0.17520        -6.10324
| 57>    C       -7.09773         0.39495        -5.02608
| 58>    C       -8.27686         1.09845        -5.39847
| 59>    C       -9.43336         1.03805        -4.61753
| 60>    N      -10.39954         0.86172        -4.01942
| 61>    C       -8.24853         1.51269        -6.73497
| 62>    S       -6.81101         0.90195        -7.56450
| 63>    C       -9.14772         2.30700        -7.46507
| 64>    C      -10.05298         3.21091        -6.95260
| 65>    C      -11.02262         3.93519        -7.68990
| 66>    C      -11.79840         4.76794        -6.93487
| 67>    C      -11.47443         4.75209        -5.56549
| 68>    S      -10.11989         3.68666        -5.27132
| 69>    C      -12.11509         5.34159        -4.48681
| 70>    C      -13.27265         6.14277        -4.46017
| 71>    C      -13.72482         6.42085        -3.19957
| 72>    C      -12.93842         5.86286        -2.17049
| 73>    S      -11.56419         5.01548        -2.86390
| 74>    C      -13.09412         5.82089        -0.79996
| 75>    C      -14.13484         6.29583        -0.01156
| 76>    S      -15.52075         7.15529        -0.61457
| 77>    C      -16.23035         7.32872         0.95678
| 78>    C      -15.44322         6.69833         1.92913
| 79>    C      -14.25312         6.12611         1.39122
| 80>    C      -13.36590         5.45897         2.23911
| 81>    C      -13.62724         5.33407         3.58880
| 82>    C      -12.69581         4.62037         4.45566
| 83>    C      -11.39860         4.45092         4.22239
| 84>    C      -14.84342         5.85798         4.11922
| 85>    C      -15.17850         5.68221         5.56756
| 86>    C      -15.71859         6.51816         3.29924
| 87>    C      -17.45416         8.06742         1.04863
| 88>    C      -17.92607         8.70367         2.12271
| 89>    H      -16.30354         4.13076        -0.82491
| 90>    H      -13.24498         2.28281        -4.26291
| 91>    H      -14.95459         3.11682         0.94703
| 92>    H      -11.88956         1.19430        -2.50420
| 93>    H      -10.55077         0.53313         3.60224
| 94>    H       -9.51633        -0.39184         0.99558
| 95>    H       -5.16666        -1.84336         2.47766
| 96>    H       -7.94460        -0.52758        -0.00867
| 97>    H       -5.10847        -1.64829         0.10345
| 98>    H       -9.08117         2.24135        -8.54315
| 99>    H      -11.13424         3.79757        -8.75080
|100>    H      -12.59926         5.36991        -7.32482
|101>    H      -13.75938         6.46973        -5.36126
|102>    H      -14.60496         7.00495        -3.00020
|103>    H      -12.30645         5.30701        -0.26447
|104>    H      -12.47536         5.01047         1.82656
|105>    H      -13.11592         4.20344         5.36015
|106>    H      -10.90073         4.86773         3.36249
|107>    H      -10.77846         3.89970         4.90826
|108>    H      -14.37439         6.05091         6.20231
|109>    H      -15.33593         4.62680         5.78915
|110>    H      -16.09076         6.21910         5.81437
|111>    H      -16.65248         6.87786         3.69914
|112>    H      -18.00282         8.13638         0.11660
|113>    H      -17.39479         8.74172         3.05636
|114>    H      -18.85875         9.23800         2.07863
|115> *
|116>
|117>                          ****END OF INPUT****

CARTESIAN COORDINATES (ANGSTROEM)
---------------------------------
  C    -15.625440    3.727520   -1.560670
  C    -15.825100    3.998620   -2.885010
  F    -16.850320    4.776080   -3.264710
  C    -14.960240    3.474710   -3.866250
  F    -15.181770    3.768380   -5.157730
  C    -13.905860    2.683220   -3.510080
  C    -13.667150    2.396240   -2.152050
  C    -14.535650    2.931000   -1.156790
  C    -14.294370    2.678910    0.215120
  C    -13.223600    1.904750    0.573410
  C    -12.378490    1.356870   -0.436050
  C    -12.572080    1.592230   -1.766880
  C    -11.318450    0.583740    0.206040
  O    -10.468490   -0.117460   -0.331550
  C    -11.478180    0.786020    1.657040
  C    -12.704390    1.513920    1.884440
  C    -13.308610    1.752000    3.091180
  C    -12.761110    1.350230    4.325980
  N    -12.345180    1.035940    5.348790
  C    -14.564140    2.372300    3.241110
  N    -15.592810    2.845650    3.431960
  C    -10.512620    0.354070    2.535010
  N     -9.444070   -0.279130    2.032920
  C     -8.308700   -0.702290    2.626750
  S     -8.132460   -0.862300    4.341910
  C     -6.517010   -1.450660    4.095570
  N     -5.769030   -1.791730    5.229930
  O     -4.640320   -2.211220    5.056910
  O     -6.312450   -1.640060    6.309860
  C     -6.141050   -1.506660    2.779940
  C     -7.157180   -1.074500    1.907740
  C     -7.071090   -0.928470    0.482810
  C     -6.005290   -1.199720   -0.298880
  C     -6.000240   -0.935190   -1.702080
  C     -6.889310   -0.175970   -2.453570
  C     -7.843080    0.710970   -1.927670
  N     -8.540740    1.529080   -1.525120
  C     -6.571800   -0.184800   -3.838460
  C     -5.400130   -0.885120   -4.098810
  S     -4.722210   -1.612160   -2.692950
  S     -4.858990   -0.802310   -5.746600
  C     -6.253080    0.175200   -6.103240
  C     -7.097730    0.394950   -5.026080
  C     -8.276860    1.098450   -5.398470
  C     -9.433360    1.038050   -4.617530
  N    -10.399540    0.861720   -4.019420
  C     -8.248530    1.512690   -6.734970
  S     -6.811010    0.901950   -7.564500
  C     -9.147720    2.307000   -7.465070
  C    -10.052980    3.210910   -6.952600
  C    -11.022620    3.935190   -7.689900
  C    -11.798400    4.767940   -6.934870
  C    -11.474430    4.752090   -5.565490
  S    -10.119890    3.686660   -5.271320
  C    -12.115090    5.341590   -4.486810
  C    -13.272650    6.142770   -4.460170
  C    -13.724820    6.420850   -3.199570
  C    -12.938420    5.862860   -2.170490
  S    -11.564190    5.015480   -2.863900
  C    -13.094120    5.820890   -0.799960
  C    -14.134840    6.295830   -0.011560
  S    -15.520750    7.155290   -0.614570
  C    -16.230350    7.328720    0.956780
  C    -15.443220    6.698330    1.929130
  C    -14.253120    6.126110    1.391220
  C    -13.365900    5.458970    2.239110
  C    -13.627240    5.334070    3.588800
  C    -12.695810    4.620370    4.455660
  C    -11.398600    4.450920    4.222390
  C    -14.843420    5.857980    4.119220
  C    -15.178500    5.682210    5.567560
  C    -15.718590    6.518160    3.299240
  C    -17.454160    8.067420    1.048630
  C    -17.926070    8.703670    2.122710
  H    -16.303540    4.130760   -0.824910
  H    -13.244980    2.282810   -4.262910
  H    -14.954590    3.116820    0.947030
  H    -11.889560    1.194300   -2.504200
  H    -10.550770    0.533130    3.602240
  H     -9.516330   -0.391840    0.995580
  H     -5.166660   -1.843360    2.477660
  H     -7.944600   -0.527580   -0.008670
  H     -5.108470   -1.648290    0.103450
  H     -9.081170    2.241350   -8.543150
  H    -11.134240    3.797570   -8.750800
  H    -12.599260    5.369910   -7.324820
  H    -13.759380    6.469730   -5.361260
  H    -14.604960    7.004950   -3.000200
  H    -12.306450    5.307010   -0.264470
  H    -12.475360    5.010470    1.826560
  H    -13.115920    4.203440    5.360150
  H    -10.900730    4.867730    3.362490
  H    -10.778460    3.899700    4.908260
  H    -14.374390    6.050910    6.202310
  H    -15.335930    4.626800    5.789150
  H    -16.090760    6.219100    5.814370
  H    -16.652480    6.877860    3.699140
  H    -18.002820    8.136380    0.116600
  H    -17.394790    8.741720    3.056360
  H    -18.858750    9.238000    2.078630

 Total Charge           Charge          ....    0
 Multiplicity           Mult            ....    1
 Number of Electrons    NEL             ....  558
 Basis Dimension        Dim             .... 1194

ORBITAL ENERGIES
----------------

  NO   OCC          E(Eh)            E(eV)
   0   2.0000     -88.992300     -2421.6036
   1   2.0000     -88.984190     -2421.3829
   2   2.0000     -88.982704     -2421.3425
   3   2.0000     -88.974126     -2421.1090
   4   2.0000     -88.971215     -2421.0298
   5   2.0000     -88.949946     -2420.4511
   6   2.0000     -88.947199     -2420.3763
   7   2.0000     -24.793046      -674.6531
   8   2.0000     -24.792822      -674.6470
   9   2.0000     -19.240241      -523.5536
  10   2.0000     -19.239608      -523.5364
  11   2.0000     -19.224720      -523.1312
  12   2.0000     -14.651846      -398.6970
  13   2.0000     -14.487929      -394.2366
  14   2.0000     -14.416739      -392.2994
  15   2.0000     -14.412914      -392.1953
  16   2.0000     -14.404728      -391.9726
  17   2.0000     -14.400255      -391.8509
  18   2.0000     -10.375470      -282.3309
  19   2.0000     -10.371819      -282.2315
  20   2.0000     -10.370593      -282.1982
  21   2.0000     -10.370439      -282.1940
  22   2.0000     -10.367702      -282.1195
  23   2.0000     -10.349199      -281.6160
  24   2.0000     -10.341169      -281.3975
  25   2.0000     -10.336631      -281.2740
  26   2.0000     -10.334148      -281.2065
  27   2.0000     -10.333883      -281.1992
  28   2.0000     -10.329992      -281.0934
  29   2.0000     -10.329532      -281.0809
  30   2.0000     -10.320921      -280.8465
  31   2.0000     -10.319948      -280.8201
  32   2.0000     -10.319196      -280.7996
  33   2.0000     -10.317752      -280.7603
  34   2.0000     -10.316728      -280.7324
  35   2.0000     -10.315220      -280.6914
  36   2.0000     -10.312404      -280.6148
  37   2.0000     -10.310691      -280.5682
  38   2.0000     -10.309923      -280.5473
  39   2.0000     -10.308740      -280.5151
  40   2.0000     -10.308683      -280.5135
  41   2.0000     -10.308028      -280.4957
  42   2.0000     -10.305794      -280.4349
  43   2.0000     -10.305057      -280.4149
  44   2.0000     -10.304728      -280.4059
  45   2.0000     -10.302163      -280.3361
  46   2.0000     -10.301686      -280.3231
  47   2.0000     -10.301404      -280.3155
  48   2.0000     -10.299906      -280.2747
  49   2.0000     -10.299893      -280.2743
  50   2.0000     -10.299753      -280.2705
  51   2.0000     -10.296247      -280.1751
  52   2.0000     -10.296153      -280.1726
  53   2.0000     -10.293983      -280.1135
  54   2.0000     -10.293546      -280.1016
  55   2.0000     -10.292459      -280.0721
  56   2.0000     -10.292152      -280.0637
  57   2.0000     -10.289687      -279.9966
  58   2.0000     -10.289186      -279.9830
  59   2.0000     -10.287822      -279.9459
  60   2.0000     -10.287212      -279.9293
  61   2.0000     -10.284450      -279.8541
  62   2.0000     -10.284122      -279.8452
  63   2.0000     -10.283107      -279.8176
  64   2.0000     -10.282890      -279.8117
  65   2.0000     -10.282211      -279.7932
  66   2.0000     -10.281744      -279.7805
  67   2.0000     -10.278317      -279.6872
  68   2.0000     -10.275479      -279.6100
  69   2.0000     -10.274707      -279.5890
  70   2.0000     -10.273956      -279.5686
  71   2.0000     -10.269072      -279.4356
  72   2.0000     -10.267747      -279.3996
  73   2.0000     -10.258936      -279.1598
  74   2.0000      -8.087620      -220.0753
  75   2.0000      -8.079473      -219.8536
  76   2.0000      -8.077555      -219.8015
  77   2.0000      -8.069521      -219.5828
  78   2.0000      -8.065965      -219.4861
  79   2.0000      -8.045686      -218.9342
  80   2.0000      -8.043219      -218.8671
  81   2.0000      -6.057174      -164.8241
  82   2.0000      -6.052895      -164.7076
  83   2.0000      -6.049173      -164.6064
  84   2.0000      -6.049040      -164.6027
  85   2.0000      -6.047615      -164.5640
  86   2.0000      -6.044837      -164.4884
  87   2.0000      -6.043341      -164.4477
  88   2.0000      -6.041083      -164.3862
  89   2.0000      -6.039221      -164.3356
  90   2.0000      -6.038295      -164.3104
  91   2.0000      -6.035056      -164.2222
  92   2.0000      -6.034925      -164.2187
  93   2.0000      -6.030907      -164.1093
  94   2.0000      -6.030797      -164.1063
  95   2.0000      -6.028769      -164.0511
  96   2.0000      -6.015459      -163.6889
  97   2.0000      -6.012919      -163.6198
  98   2.0000      -6.011323      -163.5764
  99   2.0000      -6.008699      -163.5050
 100   2.0000      -6.006671      -163.4498
 101   2.0000      -6.004262      -163.3843
 102   2.0000      -1.321564       -35.9616
 103   2.0000      -1.314256       -35.7627
 104   2.0000      -1.299427       -35.3592
 105   2.0000      -1.143721       -31.1222
 106   2.0000      -1.140709       -31.0403
 107   2.0000      -1.098910       -29.9028
 108   2.0000      -1.035712       -28.1832
 109   2.0000      -1.018065       -27.7030
 110   2.0000      -1.011560       -27.5259
 111   2.0000      -1.005741       -27.3676
 112   2.0000      -1.002989       -27.2927
 113   2.0000      -0.998180       -27.1619
 114   2.0000      -0.997343       -27.1391
 115   2.0000      -0.993825       -27.0434
 116   2.0000      -0.990109       -26.9422
 117   2.0000      -0.978479       -26.6258
 118   2.0000      -0.977336       -26.5947
 119   2.0000      -0.973031       -26.4775
 120   2.0000      -0.947274       -25.7766
 121   2.0000      -0.944375       -25.6978
 122   2.0000      -0.927552       -25.2400
 123   2.0000      -0.920856       -25.0578
 124   2.0000      -0.911187       -24.7947
 125   2.0000      -0.903967       -24.5982
 126   2.0000      -0.893241       -24.3063
 127   2.0000      -0.889778       -24.2121
 128   2.0000      -0.884981       -24.0816
 129   2.0000      -0.880800       -23.9678
 130   2.0000      -0.877244       -23.8710
 131   2.0000      -0.870410       -23.6851
 132   2.0000      -0.863034       -23.4844
 133   2.0000      -0.857730       -23.3400
 134   2.0000      -0.856090       -23.2954
 135   2.0000      -0.855177       -23.2706
 136   2.0000      -0.851875       -23.1807
 137   2.0000      -0.831961       -22.6388
 138   2.0000      -0.830975       -22.6120
 139   2.0000      -0.824278       -22.4298
 140   2.0000      -0.813944       -22.1486
 141   2.0000      -0.812331       -22.1046
 142   2.0000      -0.805533       -21.9197
 143   2.0000      -0.795558       -21.6482
 144   2.0000      -0.779098       -21.2003
 145   2.0000      -0.766195       -20.8492
 146   2.0000      -0.762389       -20.7457
 147   2.0000      -0.756778       -20.5930
 148   2.0000      -0.746046       -20.3009
 149   2.0000      -0.732927       -19.9439
 150   2.0000      -0.732622       -19.9357
 151   2.0000      -0.722369       -19.6567
 152   2.0000      -0.716086       -19.4857
 153   2.0000      -0.706738       -19.2313
 154   2.0000      -0.703483       -19.1427
 155   2.0000      -0.697243       -18.9730
 156   2.0000      -0.688546       -18.7363
 157   2.0000      -0.685746       -18.6601
 158   2.0000      -0.682485       -18.5714
 159   2.0000      -0.681353       -18.5406
 160   2.0000      -0.673325       -18.3221
 161   2.0000      -0.662877       -18.0378
 162   2.0000      -0.654291       -17.8042
 163   2.0000      -0.653959       -17.7951
 164   2.0000      -0.646568       -17.5940
 165   2.0000      -0.642513       -17.4837
 166   2.0000      -0.640081       -17.4175
 167   2.0000      -0.638693       -17.3797
 168   2.0000      -0.633699       -17.2438
 169   2.0000      -0.633246       -17.2315
 170   2.0000      -0.633138       -17.2286
 171   2.0000      -0.628211       -17.0945
 172   2.0000      -0.626272       -17.0417
 173   2.0000      -0.619255       -16.8508
 174   2.0000      -0.616323       -16.7710
 175   2.0000      -0.607682       -16.5359
 176   2.0000      -0.604383       -16.4461
 177   2.0000      -0.600866       -16.3504
 178   2.0000      -0.596712       -16.2374
 179   2.0000      -0.583233       -15.8706
 180   2.0000      -0.582256       -15.8440
 181   2.0000      -0.580546       -15.7975
 182   2.0000      -0.574694       -15.6382
 183   2.0000      -0.572065       -15.5667
 184   2.0000      -0.565961       -15.4006
 185   2.0000      -0.561660       -15.2835
 186   2.0000      -0.556866       -15.1531
 187   2.0000      -0.553460       -15.0604
 188   2.0000      -0.553209       -15.0536
 189   2.0000      -0.550640       -14.9837
 190   2.0000      -0.545202       -14.8357
 191   2.0000      -0.543240       -14.7823
 192   2.0000      -0.541826       -14.7438
 193   2.0000      -0.540670       -14.7124
 194   2.0000      -0.537046       -14.6138
 195   2.0000      -0.533483       -14.5168
 196   2.0000      -0.530571       -14.4376
 197   2.0000      -0.530162       -14.4264
 198   2.0000      -0.527275       -14.3479
 199   2.0000      -0.522457       -14.2168
 200   2.0000      -0.520872       -14.1737
 201   2.0000      -0.516516       -14.0551
 202   2.0000      -0.514238       -13.9931
 203   2.0000      -0.512822       -13.9546
 204   2.0000      -0.510660       -13.8958
 205   2.0000      -0.508658       -13.8413
 206   2.0000      -0.507566       -13.8116
 207   2.0000      -0.505983       -13.7685
 208   2.0000      -0.504238       -13.7210
 209   2.0000      -0.500721       -13.6253
 210   2.0000      -0.496986       -13.5237
 211   2.0000      -0.496100       -13.4996
 212   2.0000      -0.494947       -13.4682
 213   2.0000      -0.492801       -13.4098
 214   2.0000      -0.490329       -13.3425
 215   2.0000      -0.488906       -13.3038
 216   2.0000      -0.482114       -13.1190
 217   2.0000      -0.477886       -13.0039
 218   2.0000      -0.477042       -12.9810
 219   2.0000      -0.473680       -12.8895
 220   2.0000      -0.472349       -12.8533
 221   2.0000      -0.468478       -12.7479
 222   2.0000      -0.465987       -12.6801
 223   2.0000      -0.464280       -12.6337
 224   2.0000      -0.462745       -12.5919
 225   2.0000      -0.461239       -12.5510
 226   2.0000      -0.459703       -12.5092
 227   2.0000      -0.456272       -12.4158
 228   2.0000      -0.455483       -12.3943
 229   2.0000      -0.451828       -12.2949
 230   2.0000      -0.450590       -12.2612
 231   2.0000      -0.449973       -12.2444
 232   2.0000      -0.446966       -12.1626
 233   2.0000      -0.445191       -12.1143
 234   2.0000      -0.443510       -12.0685
 235   2.0000      -0.441650       -12.0179
 236   2.0000      -0.437384       -11.9018
 237   2.0000      -0.436048       -11.8655
 238   2.0000      -0.434104       -11.8126
 239   2.0000      -0.433049       -11.7838
 240   2.0000      -0.430920       -11.7259
 241   2.0000      -0.429818       -11.6959
 242   2.0000      -0.424908       -11.5623
 243   2.0000      -0.423168       -11.5150
 244   2.0000      -0.421001       -11.4560
 245   2.0000      -0.417915       -11.3720
 246   2.0000      -0.415940       -11.3183
 247   2.0000      -0.415773       -11.3138
 248   2.0000      -0.411181       -11.1888
 249   2.0000      -0.410464       -11.1693
 250   2.0000      -0.409697       -11.1484
 251   2.0000      -0.407725       -11.0948
 252   2.0000      -0.398145       -10.8341
 253   2.0000      -0.394704       -10.7404
 254   2.0000      -0.390226       -10.6186
 255   2.0000      -0.387267       -10.5381
 256   2.0000      -0.386417       -10.5149
 257   2.0000      -0.380308       -10.3487
 258   2.0000      -0.375812       -10.2264
 259   2.0000      -0.372906       -10.1473
 260   2.0000      -0.368797       -10.0355
 261   2.0000      -0.367178        -9.9914
 262   2.0000      -0.365501        -9.9458
 263   2.0000      -0.352808        -9.6004
 264   2.0000      -0.349023        -9.4974
 265   2.0000      -0.343757        -9.3541
 266   2.0000      -0.340702        -9.2710
 267   2.0000      -0.334696        -9.1075
 268   2.0000      -0.330434        -8.9916
 269   2.0000      -0.318838        -8.6760
 270   2.0000      -0.315943        -8.5973
 271   2.0000      -0.307515        -8.3679
 272   2.0000      -0.297465        -8.0944
 273   2.0000      -0.295812        -8.0495
 274   2.0000      -0.293043        -7.9741
 275   2.0000      -0.285686        -7.7739
 276   2.0000      -0.259321        -7.0565
 277   2.0000      -0.258493        -7.0340
 278   2.0000      -0.206899        -5.6300
 279   0.0000      -0.098860        -2.6901
 280   0.0000      -0.088280        -2.4022
 281   0.0000      -0.060626        -1.6497
 282   0.0000      -0.056602        -1.5402
 283   0.0000      -0.044097        -1.1999

MULLIKEN ATOMIC CHARGES
-----------------------
   0 C :   -0.112941
   1 C :    0.256530
   2 F :   -0.179631
   3 C :    0.231011
   4 F :   -0.183864
   5 C :   -0.087414
   6 C :    0.099463
   7 C :    0.131285
   8 C :   -0.113651
   9 C :    0.043642
  10 C :    0.003134
  11 C :   -0.028222
  12 C :    0.190654
  13 O :   -0.211203
  14 C :   -0.143843
  15 C :    0.329353
  16 C :   -0.344483
  17 C :   -0.209762
  18 N :    0.150083
  19 C :   -0.183827
  20 N :    0.149344
  21 C :    0.039993
  22 N :   -0.021354
  23 C :   -0.106986
  24 S :    0.191762
  25 C :   -0.007804
  26 N :    0.275607
  27 O :   -0.247554
  28 O :   -0.259088
  29 C :    0.008161
  30 C :    0.128050
  31 C :   -0.033181
  32 C :    0.042658
  33 C :   -0.104984
  34 C :   -0.014944
  35 C :   -0.269919
  36 N :    0.148471
  37 C :    0.127840
  38 C :   -0.231541
  39 S :    0.165251
  40 S :    0.178895
  41 C :   -0.227297
  42 C :    0.112135
  43 C :   -0.020774
  44 C :   -0.274515
  45 N :    0.170442
  46 C :   -0.097198
  47 S :    0.146492
  48 C :   -0.006965
  49 C :   -0.022072
  50 C :    0.016780
  51 C :    0.049068
  52 C :   -0.067143
  53 S :    0.099542
  54 C :   -0.053092
  55 C :    0.036010
  56 C :    0.021436
  57 C :   -0.132998
  58 S :    0.110375
  59 C :    0.088956
  60 C :   -0.132492
  61 S :    0.123036
  62 C :   -0.127580
  63 C :    0.127841
  64 C :    0.151890
  65 C :   -0.131629
  66 C :    0.106761
  67 C :   -0.049853
  68 C :   -0.010029
  69 C :   -0.063554
  70 C :    0.107745
  71 C :   -0.098155
  72 C :    0.015096
  73 C :   -0.019644
  74 H :   -0.002531
  75 H :    0.008912
  76 H :   -0.000780
  77 H :   -0.045728
  78 H :    0.039285
  79 H :    0.195460
  80 H :    0.013250
  81 H :    0.006904
  82 H :   -0.019173
  83 H :   -0.013844
  84 H :   -0.011858
  85 H :   -0.010041
  86 H :   -0.009705
  87 H :    0.004491
  88 H :   -0.009923
  89 H :   -0.040371
  90 H :    0.011499
  91 H :    0.019188
  92 H :    0.030693
  93 H :    0.026389
  94 H :    0.040465
  95 H :    0.005149
  96 H :   -0.042105
  97 H :    0.000007
  98 H :    0.029979
  99 H :    0.030780
Sum of atomic charges:   -0.0000000

LOEWDIN ATOMIC CHARGES
----------------------
   0 C :   -0.035828
   1 C :    0.062434
   2 F :   -0.055240
   3 C :    0.061541
   4 F :   -0.054427
   5 C :   -0.024517
   6 C :   -0.011868
   7 C :   -0.006488
   8 C :    0.012480
   9 C :   -0.025144
  10 C :   -0.058573
  11 C :    0.052031
  12 C :    0.105968
  13 O :   -0.146976
  14 C :   -0.136866
  15 C :    0.079810
  16 C :   -0.150430
  17 C :   -0.016773
  18 N :   -0.066380
  19 C :   -0.013323
  20 N :   -0.060313
  21 C :    0.111837
  22 N :    0.073070
  23 C :   -0.105009
  24 S :    0.473243
  25 C :   -0.202150
  26 N :    0.273191
  27 O :   -0.214171
  28 O :   -0.224908
  29 C :    0.005534
  30 C :   -0.090176
  31 C :   -0.001411
  32 C :   -0.046792
  33 C :   -0.130534
  34 C :   -0.100824
  35 C :   -0.030212
  36 N :   -0.054578
  37 C :   -0.059538
  38 C :   -0.337411
  39 S :    0.447860
  40 S :    0.417475
  41 C :   -0.338712
  42 C :   -0.059885
  43 C :   -0.138661
  44 C :   -0.032156
  45 N :   -0.064444
  46 C :   -0.115944
  47 S :    0.426659
  48 C :   -0.117294
  49 C :   -0.123291
  50 C :   -0.051098
  51 C :   -0.019000
  52 C :   -0.200033
  53 S :    0.430422
  54 C :   -0.160155
  55 C :   -0.034245
  56 C :   -0.035803
  57 C :   -0.170537
  58 S :    0.408431
  59 C :   -0.042778
  60 C :   -0.187955
  61 S :    0.480619
  62 C :   -0.164592
  63 C :   -0.043305
  64 C :   -0.033203
  65 C :   -0.015099
  66 C :   -0.014935
  67 C :   -0.021413
  68 C :   -0.031823
  69 C :   -0.003695
  70 C :   -0.043848
  71 C :   -0.019015
  72 C :   -0.046653
  73 C :   -0.032741
  74 H :    0.040669
  75 H :    0.048909
  76 H :    0.038866
  77 H :    0.036404
  78 H :    0.036928
  79 H :    0.078217
  80 H :    0.045405
  81 H :    0.036902
  82 H :    0.028228
  83 H :    0.032871
  84 H :    0.032575
  85 H :    0.034261
  86 H :    0.033787
  87 H :    0.022105
  88 H :    0.036786
  89 H :    0.023019
  90 H :    0.032852
  91 H :    0.020393
  92 H :    0.027963
  93 H :    0.033928
  94 H :    0.038954
  95 H :    0.030143
  96 H :    0.026215
  97 H :    0.031069
  98 H :    0.024253
  99 H :    0.028864

  Mayer bond orders larger than 0.100000
B(  0-C ,  1-C ) :   1.4479 B(  0-C ,  5-C ) :   0.1082 B(  0-C ,  7-C ) :   1.1831
B(  0-C , 74-H ) :   1.0009 B(  1-C ,  2-F ) :   1.1252 B(  1-C ,  3-C ) :   1.1911
B(  3-C ,  4-F ) :   1.1015 B(  3-C ,  5-C ) :   1.4322 B(  5-C ,  6-C ) :   1.1966
B(  5-C , 75-H ) :   1.0099 B(  6-C ,  7-C ) :   1.2638 B(  6-C , 11-C ) :   1.1820
B(  7-C ,  8-C ) :   1.2007 B(  8-C ,  9-C ) :   1.4583 B(  8-C , 76-H ) :   0.9926
B(  9-C , 10-C ) :   1.2001 B(  9-C , 15-C ) :   0.9890 B( 10-C , 11-C ) :   1.4650
B( 10-C , 12-C ) :   0.9921 B( 11-C , 77-H ) :   0.9888 B( 12-C , 13-O ) :   1.9718
B( 12-C , 14-C ) :   0.9972 B( 13-O , 79-H ) :   0.1750 B( 14-C , 15-C ) :   1.0911
B( 14-C , 21-C ) :   1.4691 B( 15-C , 16-C ) :   1.6339 B( 16-C , 17-C ) :   1.1466
B( 16-C , 19-C ) :   1.1593 B( 17-C , 18-N ) :   2.9539 B( 19-C , 20-N ) :   2.9109
B( 21-C , 22-N ) :   1.3180 B( 21-C , 78-H ) :   0.9407 B( 22-N , 23-C ) :   1.2116
B( 22-N , 79-H ) :   0.7997 B( 23-C , 24-S ) :   1.1389 B( 23-C , 30-C ) :   1.3536
B( 24-S , 25-C ) :   1.0812 B( 25-C , 26-N ) :   0.9652 B( 25-C , 29-C ) :   1.5027
B( 26-N , 27-O ) :   1.5353 B( 26-N , 28-O ) :   1.5148 B( 27-O , 28-O ) :   0.2609
B( 29-C , 30-C ) :   1.2238 B( 29-C , 80-H ) :   0.9981 B( 30-C , 31-C ) :   1.0996
B( 31-C , 32-C ) :   1.7328 B( 31-C , 81-H ) :   0.9491 B( 32-C , 33-C ) :   1.1262
B( 32-C , 82-H ) :   0.9517 B( 33-C , 34-C ) :   1.4826 B( 33-C , 39-S ) :   1.1299
B( 34-C , 35-C ) :   1.1474 B( 34-C , 37-C ) :   1.2563 B( 35-C , 36-N ) :   2.9413
B( 37-C , 38-C ) :   1.4108 B( 37-C , 42-C ) :   1.1076 B( 38-C , 39-S ) :   1.0859
B( 38-C , 40-S ) :   1.0851 B( 40-S , 41-C ) :   1.0774 B( 41-C , 42-C ) :   1.4422
B( 41-C , 47-S ) :   1.0663 B( 42-C , 43-C ) :   1.2386 B( 43-C , 44-C ) :   1.1393
B( 43-C , 46-C ) :   1.4104 B( 44-C , 45-N ) :   2.9455 B( 45-N , 77-H ) :   0.1357
B( 46-C , 47-S ) :   1.1127 B( 46-C , 48-C ) :   1.2192 B( 48-C , 49-C ) :   1.5397
B( 48-C , 83-H ) :   0.9417 B( 49-C , 50-C ) :   1.1674 B( 49-C , 53-S ) :   1.0765
B( 50-C , 51-C ) :   1.5560 B( 50-C , 84-H ) :   0.9982 B( 51-C , 52-C ) :   1.2192
B( 51-C , 85-H ) :   0.9940 B( 52-C , 53-S ) :   1.0573 B( 52-C , 54-C ) :   1.4371
B( 54-C , 55-C ) :   1.2146 B( 54-C , 58-S ) :   1.0902 B( 55-C , 56-C ) :   1.5647
B( 55-C , 86-H ) :   0.9986 B( 56-C , 57-C ) :   1.1820 B( 56-C , 87-H ) :   0.9775
B( 57-C , 58-S ) :   1.0457 B( 57-C , 59-C ) :   1.5028 B( 59-C , 60-C ) :   1.3072
B( 59-C , 88-H ) :   0.9349 B( 60-C , 61-S ) :   1.1140 B( 60-C , 64-C ) :   1.2487
B( 61-S , 62-C ) :   1.1503 B( 62-C , 63-C ) :   1.3454 B( 62-C , 72-C ) :   1.1071
B( 63-C , 64-C ) :   1.2142 B( 63-C , 71-C ) :   1.1783 B( 64-C , 65-C ) :   1.2251
B( 65-C , 66-C ) :   1.4785 B( 65-C , 89-H ) :   0.9901 B( 66-C , 67-C ) :   1.0457
B( 66-C , 69-C ) :   1.2096 B( 67-C , 68-C ) :   1.9459 B( 67-C , 90-H ) :   0.9543
B( 68-C , 91-H ) :   0.9524 B( 68-C , 92-H ) :   0.9458 B( 69-C , 70-C ) :   1.0926
B( 69-C , 71-C ) :   1.5502 B( 70-C , 93-H ) :   0.9421 B( 70-C , 94-H ) :   0.9334
B( 70-C , 95-H ) :   0.9503 B( 71-C , 96-H ) :   0.9885 B( 72-C , 73-C ) :   1.9183
B( 72-C , 97-H ) :   0.9477 B( 73-C , 98-H ) :   0.9587 B( 73-C , 99-H ) :   0.9474

-----------------------------------------------------------------------------
         ABSORPTION SPECTRUM VIA TRANSITION ELECTRIC DIPOLE MOMENTS
-----------------------------------------------------------------------------
State   Energy  Wavelength   fosc         T2         TX        TY        TZ
        (cm-1)    (nm)                  (au**2)     (au)      (au)      (au)
-----------------------------------------------------------------------------
   0   10328.1    968.2   0.912569878  29.08839  -2.99684   2.42836   3.76967
   1   12443.4    803.6   0.003050558   0.08071  -0.08466  -0.00261   0.27117
   2   17102.4    584.7   0.022543907   0.43396  -0.39138   0.50364   0.16470
   3   19196.4    520.9   0.004387581   0.07525   0.12428  -0.06683   0.23523
   4   20568.7    486.2   0.520986173   8.33864   2.63833  -0.75146  -0.90175
   5   21119.9    473.5   0.126907888   1.97821  -1.27672   0.58800  -0.04958
   6   22007.8    454.4   0.329076983   4.92263   1.43260  -1.46963   0.84289
   7   22786.1    438.9   0.033897134   0.48974  -0.13837  -0.22157   0.64923
   8   23321.6    428.8   0.007427002   0.10484  -0.00879   0.23866  -0.21864
   9   23791.5    420.3   0.010321632   0.14282  -0.16193   0.20337  -0.27431
  10   24402.7    409.8   0.001671951   0.02256  -0.04685  -0.11735  -0.08117
  11   26221.8    381.4   0.070775318   0.88858  -0.04680   0.30809  -0.88965
  12   26512.1    377.2   0.043610703   0.54153  -0.36926   0.06019   0.63368
  13   26596.2    376.0   0.338491638   4.18990   0.11642   0.09659  -2.04133
  14   26983.0    370.6   0.078997950   0.96383   0.34825  -0.22172   0.89073
  15   27289.3    366.4   0.025767198   0.31085  -0.05392   0.24720  -0.49682
  16   27994.5    357.2   0.002763624   0.03250   0.11127  -0.02561  -0.13951
  17   28467.0    351.3   0.015981439   0.18482  -0.14960   0.35732  -0.18646
  18   28619.6    349.4   0.075500791   0.86849   0.55151  -0.62268   0.42022
  19   28842.4    346.7   0.053308482   0.60847   0.49184  -0.41544   0.44042
  20   29468.9    339.3   0.849359582   9.48863   1.44998  -0.91516   2.55904
  21   29660.7    337.1   0.008629352   0.09578  -0.17073  -0.25805  -0.00635
  22   29964.9    333.7   0.045997976   0.50536  -0.32187   0.30619  -0.55498
  23   30195.9    331.2   0.031970414   0.34856  -0.39460   0.31599  -0.30497
  24   30386.8    329.1   0.001037603   0.01124  -0.03401  -0.07395   0.06794
  25   31189.6    320.6   0.067925547   0.71697   0.37671  -0.20719   0.72947
  26   31443.5    318.0   0.037820745   0.39598  -0.40455   0.11716   0.46754
  27   31943.9    313.0   0.197722611   2.03772  -1.09956   0.83516  -0.36222
  28   32080.7    311.7   0.015149887   0.15547   0.30456  -0.21519   0.12808
  29   32232.7    310.2   0.005239956   0.05352  -0.04779   0.04635   0.22156
  30   32502.6    307.7   0.007618518   0.07717  -0.26881   0.00733   0.06969
  31   32662.2    306.2   0.003492117   0.03520  -0.15390   0.06063   0.08852
  32   32793.3    304.9   0.023943765   0.24037  -0.36682   0.27335   0.17635
  33   33264.4    300.6   1.142586931  11.30798   0.67827  -0.84617   3.18307
  34   33685.1    296.9   0.130651766   1.27689  -0.63132   0.73490  -0.58159
  35   33982.9    294.3   0.106493596   1.03166   0.33610   0.15796  -0.94538
  36   34119.6    293.1   0.009987116   0.09636   0.05143  -0.02401  -0.30519
  37   34637.8    288.7   0.048028615   0.45648   0.31170  -0.05916  -0.59651
  38   34884.8    286.7   0.024153474   0.22794   0.47004  -0.05394  -0.06396
  39   34961.9    286.0   0.012066671   0.11362  -0.30054   0.14645   0.04303
  40   35275.7    283.5   0.119038624   1.11093  -0.78521   0.38780   0.58651
  41   35472.1    281.9   0.072280325   0.67082  -0.61006   0.54562   0.03077
  42   35660.5    280.4   0.024362293   0.22491  -0.35067   0.28961  -0.13442
  43   35770.3    279.6   0.019168963   0.17642  -0.23043   0.28692  -0.20248
  44   36148.4    276.6   0.092276679   0.84038   0.13474  -0.36536   0.82990
  45   36305.3    275.4   0.011168340   0.10127   0.12187  -0.06199  -0.28736
  46   36406.3    274.7   0.002233752   0.02020   0.11605  -0.07619  -0.03043
  47   36520.7    273.8   0.012827917   0.11564   0.22720  -0.17430   0.18340
  48   36885.1    271.1   0.041652916   0.37177   0.08910  -0.12021   0.59108
  49   36937.5    270.7   0.035636430   0.31762  -0.46816   0.29855  -0.09648
  50   37574.0    266.1   0.085236569   0.74682   0.68330  -0.37468  -0.37354
  51   37927.3    263.7   0.063786556   0.55367   0.17159  -0.04160   0.72284
  52   38201.8    261.8   0.022827260   0.19672   0.21721  -0.04096   0.38452
  53   38668.6    258.6   0.097118353   0.82683   0.75294  -0.50554   0.06585
  54   38679.8    258.5   0.042286542   0.35991  -0.42244   0.31414  -0.28769
  55   38780.7    257.9   0.034576591   0.29352   0.28101  -0.35135   0.30184
  56   38912.7    257.0   0.017683695   0.14961   0.27950  -0.25654   0.07534
  57   38986.9    256.5   0.062151789   0.52482   0.26284  -0.18606   0.64894
  58   39299.7    254.5   0.012383700   0.10374  -0.16958   0.15789   0.22373
  59   39645.8    252.2   0.037463395   0.31109  -0.27249   0.39338   0.28651
  60   40002.3    250.0   0.042419377   0.34910   0.03295   0.18826  -0.55909
  61   40024.6    249.8   0.000343008   0.00282   0.04370  -0.02886  -0.00889
  62   40127.1    249.2   0.035716488   0.29303   0.25229  -0.23214  -0.41891
  63   40307.6    248.1   0.010977095   0.08966   0.12075   0.00183   0.27399

FINAL SINGLE POINT ENERGY     -5686.095447893256

DIPOLE MOMENT
-------------
                                X             Y             Z
Electronic contribution:     35.30682     -34.75980     -41.22754
Nuclear contribution   :    -35.53709      36.16027      38.39851
                        -----------------------------------------
Total Dipole Moment    :     -0.23027       1.40047      -2.82903
                        -----------------------------------------
Magnitude (a.u.)       :      3.16509
Magnitude (Debye)      :      8.04501

Rotational constants in cm-1:     0.000947     0.000694     0.000429
Rotational constants in MHz :    28.384504    20.798467    12.865222

                             ****ORCA TERMINATED NORMALLY****
TOTAL RUN TIME: 0 days 0 hours 12 minutes 50 seconds 718 msec
