                         Program Version 4.2.0 -  RELEASE  -
|  1> # ORCA input file
|  2> # SCF done       -229.118055513562          0.000451762074
|  3> ! CAM-B3LYP def2-SVP def2/J RIJCOSX Grid4 TightSCF
|  4> %maxcore 5000
|  5> %tddft
|  6>     Mode sTDDFT
|  7>     Ethresh 5.0
|  8>     maxcore 5000
|  9> end
| 10>
| 11> %pal
| 12>   nprocs 6
| 13>   end
| 14> * xyz 0 1
| 15>    C        3.21471         1.94641        -0.46521
| 16>    C        2.15247         2.16383        -1.30557
| 17>    C        2.23359         2.13825        -2.71280
| 18>    N        2.23965         2.14379        -3.85977
| 19>    C        0.84199         2.33554        -0.81924
| 20>    N       -0.23202         2.42968        -0.42356
| 21>    C        4.54287         1.48946        -0.86801
| 22>    C        5.19042         0.93785         0.25360
| 23>    C        6.45861         0.40000         0.16405
| 24>    C        7.10412         0.43996        -1.06766
| 25>    C        6.47362         1.00730        -2.17923
| 26>    C        5.18229         1.52791        -2.09249
| 27>    C        7.24448         1.07289        -3.45294
| 28>    O        8.43473         0.88518        -3.51883
| 29>    O        6.47658         1.36873        -4.49719
| 30>    C        7.13415         1.46082        -5.75411
| 31>    C        8.46696        -0.18179        -1.22226
| 32>    O        8.63906        -1.30938        -1.59767
| 33>    O        9.41628         0.64754        -0.80267
| 34>    C       10.75457         0.19357        -0.96785
| 35>    C        4.31948         1.07773         1.44297
| 36>    O        4.51551         0.67686         2.56550
| 37>    C        3.15694         1.88192         0.97443
| 38>    C        2.32953         2.42793         1.91167
| 39>    N        1.48006         3.47424         1.81994
| 40>    C        1.48552         4.50798         0.92768
| 41>    S        2.87602         4.87149        -0.04523
| 42>    C        2.13321         6.35965        -0.53107
| 43>    N        2.85092         7.15621        -1.43272
| 44>    O        2.35707         8.20983        -1.78093
| 45>    O        3.93064         6.72017        -1.79515
| 46>    C        0.90230         6.56366         0.02582
| 47>    C        0.49715         5.50261         0.86356
| 48>    C       -0.76383         5.50200         1.53784
| 49>    C       -1.44024         4.42711         2.02588
| 50>    C       -2.66491         4.55857         2.70807
| 51>    C       -3.39250         3.51873         3.22481
| 52>    C       -4.61649         3.62437         3.93412
| 53>    C       -5.11838         2.43616         4.36245
| 54>    C       -4.32453         1.31777         4.01284
| 55>    S       -2.91129         1.83149         3.11887
| 56>    C       -4.57884        -0.00585         4.31210
| 57>    C       -5.68306        -0.51478         5.03623
| 58>    C       -5.66905        -1.86259         5.20332
| 59>    C       -4.55415        -2.50953         4.60308
| 60>    S       -3.52916        -1.31391         3.81425
| 61>    C       -4.25488        -3.84014         4.51825
| 62>    N       -4.88834        -4.84251         5.19479
| 63>    C       -5.38106        -4.78057         6.44985
| 64>    S       -4.86419        -3.57479         7.59845
| 65>    C       -5.69436        -4.44184         8.86006
| 66>    N       -5.66606        -3.88540        10.14189
| 67>    O       -6.24883        -4.47649        11.03247
| 68>    O       -5.05456        -2.83642        10.26678
| 69>    C       -6.32031        -5.57702         8.42809
| 70>    C       -6.18545        -5.77656         7.03983
| 71>    C       -6.83369        -6.83331         6.33279
| 72>    C       -7.23428        -6.78598         5.03570
| 73>    C       -7.90892        -7.84231         4.37712
| 74>    C       -7.80173        -9.18599         4.60243
| 75>    C       -6.80520        -9.98604         5.26909
| 76>    C       -5.46950        -9.68615         5.41511
| 77>    C       -4.51731       -10.55967         5.98023
| 78>    N       -3.70291       -11.22003         6.44613
| 79>    C       -4.90612        -8.48888         4.96029
| 80>    N       -4.42005        -7.51652         4.58071
| 81>    C       -7.40313       -11.29558         5.53290
| 82>    C       -8.63987       -11.37345         4.86449
| 83>    C       -8.90129       -10.09095         4.16905
| 84>    O       -9.82388        -9.81367         3.44124
| 85>    C       -9.42859       -12.50394         4.92529
| 86>    C       -8.98009       -13.57904         5.68629
| 87>    C       -7.75524       -13.50729         6.35643
| 88>    C       -6.95342       -12.36762         6.28156
| 89>    C       -7.34159       -14.68505         7.16972
| 90>    O       -8.07716       -15.60499         7.43095
| 91>    O       -6.07681       -14.60532         7.57518
| 92>    C       -5.59606       -15.69869         8.34625
| 93>    C       -9.79460       -14.84477         5.74499
| 94>    O       -9.66925       -15.74983         4.96670
| 95>    O      -10.71393       -14.76725         6.70226
| 96>    C      -11.50121       -15.93594         6.90072
| 97>    H        6.93263        -0.03352         1.03098
| 98>    H        4.72666         1.96541        -2.96582
| 99>    H        6.35318         1.63060        -6.49041
|100>    H        7.67381         0.53593        -5.96700
|101>    H        7.84441         2.29016        -5.74828
|102>    H       11.38625         0.91751        -0.45980
|103>    H       10.99428         0.15159        -2.03162
|104>    H       10.87456        -0.80103        -0.53380
|105>    H        2.41310         2.00734         2.90883
|106>    H        0.81552         3.59260         2.57885
|107>    H        0.30730         7.43454        -0.18166
|108>    H       -1.22846         6.47592         1.62224
|109>    H       -1.08811         3.41966         1.84973
|110>    H       -3.06023         5.55540         2.85408
|111>    H       -5.08193         4.57909         4.10326
|112>    H       -6.03364         2.33256         4.91616
|113>    H       -6.46072         0.12573         5.41032
|114>    H       -6.45756        -2.41075         5.68561
|115>    H       -3.48311        -4.16655         3.83654
|116>    H       -4.76244        -5.80046         4.82438
|117>    H       -6.88428        -6.21586         9.08344
|118>    H       -7.10370        -7.69667         6.92826
|119>    H       -7.14673        -5.85525         4.49046
|120>    H       -8.65757        -7.56069         3.64338
|121>    H      -10.36750       -12.54585         4.39524
|122>    H       -6.01915       -12.34428         6.81835
|123>    H       -4.54479       -15.49620         8.53227
|124>    H       -5.71884       -16.63255         7.79444
|125>    H       -6.14759       -15.77007         9.28591
|126>    H      -10.86637       -16.74169         7.27278
|127>    H      -11.96249       -16.24734         5.96153
|128>    H      -12.25750       -15.67142         7.63497
|129> *
|130>
|131>                          ****END OF INPUT****

CARTESIAN COORDINATES (ANGSTROEM)
---------------------------------
  C      3.214710    1.946410   -0.465210
  C      2.152470    2.163830   -1.305570
  C      2.233590    2.138250   -2.712800
  N      2.239650    2.143790   -3.859770
  C      0.841990    2.335540   -0.819240
  N     -0.232020    2.429680   -0.423560
  C      4.542870    1.489460   -0.868010
  C      5.190420    0.937850    0.253600
  C      6.458610    0.400000    0.164050
  C      7.104120    0.439960   -1.067660
  C      6.473620    1.007300   -2.179230
  C      5.182290    1.527910   -2.092490
  C      7.244480    1.072890   -3.452940
  O      8.434730    0.885180   -3.518830
  O      6.476580    1.368730   -4.497190
  C      7.134150    1.460820   -5.754110
  C      8.466960   -0.181790   -1.222260
  O      8.639060   -1.309380   -1.597670
  O      9.416280    0.647540   -0.802670
  C     10.754570    0.193570   -0.967850
  C      4.319480    1.077730    1.442970
  O      4.515510    0.676860    2.565500
  C      3.156940    1.881920    0.974430
  C      2.329530    2.427930    1.911670
  N      1.480060    3.474240    1.819940
  C      1.485520    4.507980    0.927680
  S      2.876020    4.871490   -0.045230
  C      2.133210    6.359650   -0.531070
  N      2.850920    7.156210   -1.432720
  O      2.357070    8.209830   -1.780930
  O      3.930640    6.720170   -1.795150
  C      0.902300    6.563660    0.025820
  C      0.497150    5.502610    0.863560
  C     -0.763830    5.502000    1.537840
  C     -1.440240    4.427110    2.025880
  C     -2.664910    4.558570    2.708070
  C     -3.392500    3.518730    3.224810
  C     -4.616490    3.624370    3.934120
  C     -5.118380    2.436160    4.362450
  C     -4.324530    1.317770    4.012840
  S     -2.911290    1.831490    3.118870
  C     -4.578840   -0.005850    4.312100
  C     -5.683060   -0.514780    5.036230
  C     -5.669050   -1.862590    5.203320
  C     -4.554150   -2.509530    4.603080
  S     -3.529160   -1.313910    3.814250
  C     -4.254880   -3.840140    4.518250
  N     -4.888340   -4.842510    5.194790
  C     -5.381060   -4.780570    6.449850
  S     -4.864190   -3.574790    7.598450
  C     -5.694360   -4.441840    8.860060
  N     -5.666060   -3.885400   10.141890
  O     -6.248830   -4.476490   11.032470
  O     -5.054560   -2.836420   10.266780
  C     -6.320310   -5.577020    8.428090
  C     -6.185450   -5.776560    7.039830
  C     -6.833690   -6.833310    6.332790
  C     -7.234280   -6.785980    5.035700
  C     -7.908920   -7.842310    4.377120
  C     -7.801730   -9.185990    4.602430
  C     -6.805200   -9.986040    5.269090
  C     -5.469500   -9.686150    5.415110
  C     -4.517310  -10.559670    5.980230
  N     -3.702910  -11.220030    6.446130
  C     -4.906120   -8.488880    4.960290
  N     -4.420050   -7.516520    4.580710
  C     -7.403130  -11.295580    5.532900
  C     -8.639870  -11.373450    4.864490
  C     -8.901290  -10.090950    4.169050
  O     -9.823880   -9.813670    3.441240
  C     -9.428590  -12.503940    4.925290
  C     -8.980090  -13.579040    5.686290
  C     -7.755240  -13.507290    6.356430
  C     -6.953420  -12.367620    6.281560
  C     -7.341590  -14.685050    7.169720
  O     -8.077160  -15.604990    7.430950
  O     -6.076810  -14.605320    7.575180
  C     -5.596060  -15.698690    8.346250
  C     -9.794600  -14.844770    5.744990
  O     -9.669250  -15.749830    4.966700
  O    -10.713930  -14.767250    6.702260
  C    -11.501210  -15.935940    6.900720
  H      6.932630   -0.033520    1.030980
  H      4.726660    1.965410   -2.965820
  H      6.353180    1.630600   -6.490410
  H      7.673810    0.535930   -5.967000
  H      7.844410    2.290160   -5.748280
  H     11.386250    0.917510   -0.459800
  H     10.994280    0.151590   -2.031620
  H     10.874560   -0.801030   -0.533800
  H      2.413100    2.007340    2.908830
  H      0.815520    3.592600    2.578850
  H      0.307300    7.434540   -0.181660
  H     -1.228460    6.475920    1.622240
  H     -1.088110    3.419660    1.849730
  H     -3.060230    5.555400    2.854080
  H     -5.081930    4.579090    4.103260
  H     -6.033640    2.332560    4.916160
  H     -6.460720    0.125730    5.410320
  H     -6.457560   -2.410750    5.685610
  H     -3.483110   -4.166550    3.836540
  H     -4.762440   -5.800460    4.824380
  H     -6.884280   -6.215860    9.083440
  H     -7.103700   -7.696670    6.928260
  H     -7.146730   -5.855250    4.490460
  H     -8.657570   -7.560690    3.643380
  H    -10.367500  -12.545850    4.395240
  H     -6.019150  -12.344280    6.818350
  H     -4.544790  -15.496200    8.532270
  H     -5.718840  -16.632550    7.794440
  H     -6.147590  -15.770070    9.285910
  H    -10.866370  -16.741690    7.272780
  H    -11.962490  -16.247340    5.961530
  H    -12.257500  -15.671420    7.634970

 Total Charge           Charge          ....    0
 Multiplicity           Mult            ....    1
 Number of Electrons    NEL             ....  600
 Basis Dimension        Dim             .... 1324

ORBITAL ENERGIES
----------------

  NO   OCC          E(Eh)            E(eV)
   0   2.0000     -88.993239     -2421.6292
   1   2.0000     -88.985851     -2421.4281
   2   2.0000     -88.954047     -2420.5627
   3   2.0000     -88.953781     -2420.5554
   4   2.0000     -19.276867      -524.5502
   5   2.0000     -19.270220      -524.3693
   6   2.0000     -19.259594      -524.0802
   7   2.0000     -19.254463      -523.9406
   8   2.0000     -19.241113      -523.5773
   9   2.0000     -19.240582      -523.5629
  10   2.0000     -19.237598      -523.4816
  11   2.0000     -19.236963      -523.4644
  12   2.0000     -19.228784      -523.2418
  13   2.0000     -19.224512      -523.1256
  14   2.0000     -19.221788      -523.0514
  15   2.0000     -19.214830      -522.8621
  16   2.0000     -19.203494      -522.5537
  17   2.0000     -19.197668      -522.3951
  18   2.0000     -14.652553      -398.7162
  19   2.0000     -14.648920      -398.6174
  20   2.0000     -14.510251      -394.8440
  21   2.0000     -14.478474      -393.9793
  22   2.0000     -14.445760      -393.0891
  23   2.0000     -14.425966      -392.5505
  24   2.0000     -14.425192      -392.5294
  25   2.0000     -14.418947      -392.3595
  26   2.0000     -10.417907      -283.4857
  27   2.0000     -10.410947      -283.2963
  28   2.0000     -10.404899      -283.1317
  29   2.0000     -10.399160      -282.9755
  30   2.0000     -10.379106      -282.4298
  31   2.0000     -10.377323      -282.3813
  32   2.0000     -10.376473      -282.3582
  33   2.0000     -10.373629      -282.2808
  34   2.0000     -10.371008      -282.2095
  35   2.0000     -10.359760      -281.9034
  36   2.0000     -10.355344      -281.7832
  37   2.0000     -10.354151      -281.7508
  38   2.0000     -10.350056      -281.6393
  39   2.0000     -10.349337      -281.6198
  40   2.0000     -10.346960      -281.5551
  41   2.0000     -10.343765      -281.4682
  42   2.0000     -10.335023      -281.2303
  43   2.0000     -10.331982      -281.1475
  44   2.0000     -10.329194      -281.0717
  45   2.0000     -10.328321      -281.0479
  46   2.0000     -10.327084      -281.0142
  47   2.0000     -10.325774      -280.9786
  48   2.0000     -10.323948      -280.9289
  49   2.0000     -10.321761      -280.8694
  50   2.0000     -10.321591      -280.8648
  51   2.0000     -10.320989      -280.8484
  52   2.0000     -10.320569      -280.8370
  53   2.0000     -10.319740      -280.8144
  54   2.0000     -10.319691      -280.8131
  55   2.0000     -10.318889      -280.7913
  56   2.0000     -10.318712      -280.7864
  57   2.0000     -10.317239      -280.7464
  58   2.0000     -10.315655      -280.7033
  59   2.0000     -10.314398      -280.6690
  60   2.0000     -10.314391      -280.6688
  61   2.0000     -10.314229      -280.6644
  62   2.0000     -10.312825      -280.6262
  63   2.0000     -10.312132      -280.6074
  64   2.0000     -10.311656      -280.5944
  65   2.0000     -10.311434      -280.5884
  66   2.0000     -10.311080      -280.5788
  67   2.0000     -10.307712      -280.4871
  68   2.0000     -10.307469      -280.4805
  69   2.0000     -10.307039      -280.4688
  70   2.0000     -10.306525      -280.4548
  71   2.0000     -10.305948      -280.4391
  72   2.0000     -10.304494      -280.3995
  73   2.0000     -10.304411      -280.3973
  74   2.0000     -10.302205      -280.3373
  75   2.0000     -10.300743      -280.2975
  76   2.0000     -10.297384      -280.2061
  77   2.0000     -10.297127      -280.1991
  78   2.0000     -10.295924      -280.1663
  79   2.0000     -10.292404      -280.0705
  80   2.0000     -10.292365      -280.0695
  81   2.0000     -10.286976      -279.9228
  82   2.0000      -8.087589      -220.0745
  83   2.0000      -8.080896      -219.8924
  84   2.0000      -8.050487      -219.0649
  85   2.0000      -8.050000      -219.0516
  86   2.0000      -6.057217      -164.8253
  87   2.0000      -6.052689      -164.7020
  88   2.0000      -6.050595      -164.6450
  89   2.0000      -6.049359      -164.6114
  90   2.0000      -6.046145      -164.5240
  91   2.0000      -6.042263      -164.4183
  92   2.0000      -6.020386      -163.8230
  93   2.0000      -6.019719      -163.8049
  94   2.0000      -6.016406      -163.7147
  95   2.0000      -6.015828      -163.6990
  96   2.0000      -6.010970      -163.5668
  97   2.0000      -6.010822      -163.5628
  98   2.0000      -1.322541       -35.9882
  99   2.0000      -1.318047       -35.8659
 100   2.0000      -1.210827       -32.9483
 101   2.0000      -1.204121       -32.7658
 102   2.0000      -1.192504       -32.4497
 103   2.0000      -1.187325       -32.3087
 104   2.0000      -1.144162       -31.1342
 105   2.0000      -1.142073       -31.0774
 106   2.0000      -1.140948       -31.0468
 107   2.0000      -1.137319       -30.9480
 108   2.0000      -1.115728       -30.3605
 109   2.0000      -1.109946       -30.2032
 110   2.0000      -1.108928       -30.1755
 111   2.0000      -1.099046       -29.9066
 112   2.0000      -1.093383       -29.7525
 113   2.0000      -1.090589       -29.6764
 114   2.0000      -1.040523       -28.3141
 115   2.0000      -1.024898       -27.8889
 116   2.0000      -1.019524       -27.7427
 117   2.0000      -1.011872       -27.5344
 118   2.0000      -1.008251       -27.4359
 119   2.0000      -1.007824       -27.4243
 120   2.0000      -1.006002       -27.3747
 121   2.0000      -1.002399       -27.2767
 122   2.0000      -0.999256       -27.1911
 123   2.0000      -0.981507       -26.7082
 124   2.0000      -0.972506       -26.4632
 125   2.0000      -0.963003       -26.2047
 126   2.0000      -0.941471       -25.6187
 127   2.0000      -0.930209       -25.3123
 128   2.0000      -0.920199       -25.0399
 129   2.0000      -0.912695       -24.8357
 130   2.0000      -0.907857       -24.7040
 131   2.0000      -0.903505       -24.5856
 132   2.0000      -0.888640       -24.1811
 133   2.0000      -0.888348       -24.1732
 134   2.0000      -0.881374       -23.9834
 135   2.0000      -0.881156       -23.9775
 136   2.0000      -0.878166       -23.8961
 137   2.0000      -0.869640       -23.6641
 138   2.0000      -0.857963       -23.3464
 139   2.0000      -0.854356       -23.2482
 140   2.0000      -0.840716       -22.8770
 141   2.0000      -0.833847       -22.6901
 142   2.0000      -0.831880       -22.6366
 143   2.0000      -0.829854       -22.5815
 144   2.0000      -0.826478       -22.4896
 145   2.0000      -0.823534       -22.4095
 146   2.0000      -0.806896       -21.9568
 147   2.0000      -0.801462       -21.8089
 148   2.0000      -0.795786       -21.6544
 149   2.0000      -0.781949       -21.2779
 150   2.0000      -0.776745       -21.1363
 151   2.0000      -0.772587       -21.0232
 152   2.0000      -0.763435       -20.7741
 153   2.0000      -0.749278       -20.3889
 154   2.0000      -0.734783       -19.9945
 155   2.0000      -0.727502       -19.7963
 156   2.0000      -0.724117       -19.7042
 157   2.0000      -0.715096       -19.4588
 158   2.0000      -0.710429       -19.3318
 159   2.0000      -0.706254       -19.2182
 160   2.0000      -0.700963       -19.0742
 161   2.0000      -0.692650       -18.8480
 162   2.0000      -0.691831       -18.8257
 163   2.0000      -0.690660       -18.7938
 164   2.0000      -0.681093       -18.5335
 165   2.0000      -0.672846       -18.3091
 166   2.0000      -0.669962       -18.2306
 167   2.0000      -0.663140       -18.0450
 168   2.0000      -0.659190       -17.9375
 169   2.0000      -0.657380       -17.8882
 170   2.0000      -0.647605       -17.6222
 171   2.0000      -0.644084       -17.5264
 172   2.0000      -0.639332       -17.3971
 173   2.0000      -0.636895       -17.3308
 174   2.0000      -0.635830       -17.3018
 175   2.0000      -0.634016       -17.2525
 176   2.0000      -0.634000       -17.2520
 177   2.0000      -0.630661       -17.1611
 178   2.0000      -0.629381       -17.1263
 179   2.0000      -0.628941       -17.1143
 180   2.0000      -0.627477       -17.0745
 181   2.0000      -0.626506       -17.0481
 182   2.0000      -0.625743       -17.0273
 183   2.0000      -0.614774       -16.7289
 184   2.0000      -0.611764       -16.6469
 185   2.0000      -0.606532       -16.5046
 186   2.0000      -0.601728       -16.3738
 187   2.0000      -0.597206       -16.2508
 188   2.0000      -0.591924       -16.1071
 189   2.0000      -0.588279       -16.0079
 190   2.0000      -0.585262       -15.9258
 191   2.0000      -0.583263       -15.8714
 192   2.0000      -0.580745       -15.8029
 193   2.0000      -0.579162       -15.7598
 194   2.0000      -0.577017       -15.7014
 195   2.0000      -0.575767       -15.6674
 196   2.0000      -0.573286       -15.5999
 197   2.0000      -0.570628       -15.5276
 198   2.0000      -0.569829       -15.5058
 199   2.0000      -0.562589       -15.3088
 200   2.0000      -0.556878       -15.1534
 201   2.0000      -0.556107       -15.1324
 202   2.0000      -0.553592       -15.0640
 203   2.0000      -0.552594       -15.0369
 204   2.0000      -0.550157       -14.9705
 205   2.0000      -0.549664       -14.9571
 206   2.0000      -0.547527       -14.8990
 207   2.0000      -0.544673       -14.8213
 208   2.0000      -0.543278       -14.7834
 209   2.0000      -0.541853       -14.7446
 210   2.0000      -0.539617       -14.6837
 211   2.0000      -0.538526       -14.6540
 212   2.0000      -0.532965       -14.5027
 213   2.0000      -0.530990       -14.4490
 214   2.0000      -0.529997       -14.4219
 215   2.0000      -0.527655       -14.3582
 216   2.0000      -0.526342       -14.3225
 217   2.0000      -0.522536       -14.2189
 218   2.0000      -0.519222       -14.1287
 219   2.0000      -0.514409       -13.9978
 220   2.0000      -0.514220       -13.9926
 221   2.0000      -0.510551       -13.8928
 222   2.0000      -0.509433       -13.8624
 223   2.0000      -0.508256       -13.8304
 224   2.0000      -0.506751       -13.7894
 225   2.0000      -0.502440       -13.6721
 226   2.0000      -0.500419       -13.6171
 227   2.0000      -0.498386       -13.5618
 228   2.0000      -0.495409       -13.4808
 229   2.0000      -0.493883       -13.4392
 230   2.0000      -0.492714       -13.4074
 231   2.0000      -0.490953       -13.3595
 232   2.0000      -0.485566       -13.2129
 233   2.0000      -0.483711       -13.1624
 234   2.0000      -0.482598       -13.1322
 235   2.0000      -0.480846       -13.0845
 236   2.0000      -0.479019       -13.0348
 237   2.0000      -0.475895       -12.9498
 238   2.0000      -0.473680       -12.8895
 239   2.0000      -0.472450       -12.8560
 240   2.0000      -0.470395       -12.8001
 241   2.0000      -0.467648       -12.7253
 242   2.0000      -0.465343       -12.6626
 243   2.0000      -0.464126       -12.6295
 244   2.0000      -0.461600       -12.5608
 245   2.0000      -0.460143       -12.5211
 246   2.0000      -0.458946       -12.4886
 247   2.0000      -0.454584       -12.3698
 248   2.0000      -0.454335       -12.3631
 249   2.0000      -0.453061       -12.3284
 250   2.0000      -0.449262       -12.2250
 251   2.0000      -0.449101       -12.2207
 252   2.0000      -0.447760       -12.1842
 253   2.0000      -0.445960       -12.1352
 254   2.0000      -0.445670       -12.1273
 255   2.0000      -0.440618       -11.9898
 256   2.0000      -0.439486       -11.9590
 257   2.0000      -0.434050       -11.8111
 258   2.0000      -0.433484       -11.7957
 259   2.0000      -0.433231       -11.7888
 260   2.0000      -0.431159       -11.7324
 261   2.0000      -0.430955       -11.7269
 262   2.0000      -0.425163       -11.5693
 263   2.0000      -0.423767       -11.5313
 264   2.0000      -0.420062       -11.4305
 265   2.0000      -0.416998       -11.3471
 266   2.0000      -0.410109       -11.1596
 267   2.0000      -0.405685       -11.0392
 268   2.0000      -0.402590       -10.9550
 269   2.0000      -0.395081       -10.7507
 270   2.0000      -0.388560       -10.5733
 271   2.0000      -0.388245       -10.5647
 272   2.0000      -0.386665       -10.5217
 273   2.0000      -0.384050       -10.4505
 274   2.0000      -0.379505       -10.3269
 275   2.0000      -0.378602       -10.3023
 276   2.0000      -0.375163       -10.2087
 277   2.0000      -0.371564       -10.1108
 278   2.0000      -0.369487       -10.0542
 279   2.0000      -0.369388       -10.0515
 280   2.0000      -0.368235       -10.0202
 281   2.0000      -0.366125        -9.9628
 282   2.0000      -0.365432        -9.9439
 283   2.0000      -0.362094        -9.8531
 284   2.0000      -0.360967        -9.8224
 285   2.0000      -0.357443        -9.7265
 286   2.0000      -0.356346        -9.6967
 287   2.0000      -0.352066        -9.5802
 288   2.0000      -0.350809        -9.5460
 289   2.0000      -0.347443        -9.4544
 290   2.0000      -0.344386        -9.3712
 291   2.0000      -0.339825        -9.2471
 292   2.0000      -0.335923        -9.1409
 293   2.0000      -0.331017        -9.0074
 294   2.0000      -0.325156        -8.8479
 295   2.0000      -0.316318        -8.6075
 296   2.0000      -0.311334        -8.4718
 297   2.0000      -0.291160        -7.9229
 298   2.0000      -0.270505        -7.3608
 299   2.0000      -0.218647        -5.9497
 300   0.0000      -0.107002        -2.9117
 301   0.0000      -0.092220        -2.5094
 302   0.0000      -0.083020        -2.2591
 303   0.0000      -0.077516        -2.1093
 304   0.0000      -0.071607        -1.9485

MULLIKEN ATOMIC CHARGES
-----------------------
   0 C :    0.250779
   1 C :   -0.312746
   2 C :   -0.176361
   3 N :    0.168765
   4 C :   -0.191336
   5 N :    0.159794
   6 C :    0.041404
   7 C :    0.015079
   8 C :   -0.047188
   9 C :    0.027189
  10 C :    0.017617
  11 C :   -0.051121
  12 C :    0.206780
  13 O :   -0.207166
  14 O :   -0.285828
  15 C :    0.186963
  16 C :    0.184193
  17 O :   -0.209095
  18 O :   -0.294379
  19 C :    0.188453
  20 C :    0.143399
  21 O :   -0.136893
  22 C :   -0.166475
  23 C :    0.056473
  24 N :    0.028389
  25 C :   -0.155980
  26 S :    0.175676
  27 C :    0.007025
  28 N :    0.276574
  29 O :   -0.243779
  30 O :   -0.263238
  31 C :    0.009974
  32 C :    0.166680
  33 C :   -0.056207
  34 C :   -0.006358
  35 C :   -0.033878
  36 C :   -0.007402
  37 C :    0.033782
  38 C :    0.031542
  39 C :   -0.047011
  40 S :    0.077937
  41 C :   -0.051566
  42 C :    0.017785
  43 C :    0.047728
  44 C :   -0.101164
  45 S :    0.098826
  46 C :    0.052285
  47 N :   -0.049754
  48 C :   -0.106411
  49 S :    0.184801
  50 C :   -0.017184
  51 N :    0.275905
  52 O :   -0.254073
  53 O :   -0.266132
  54 C :    0.018261
  55 C :    0.092417
  56 C :    0.004353
  57 C :   -0.042785
  58 C :    0.056528
  59 C :   -0.144916
  60 C :    0.272989
  61 C :   -0.359185
  62 C :   -0.177850
  63 N :    0.165402
  64 C :   -0.086084
  65 N :    0.097072
  66 C :    0.034867
  67 C :    0.013302
  68 C :    0.142336
  69 O :   -0.128980
  70 C :   -0.042632
  71 C :    0.024662
  72 C :    0.018028
  73 C :   -0.051681
  74 C :    0.206295
  75 O :   -0.205020
  76 O :   -0.286913
  77 C :    0.187783
  78 C :    0.184564
  79 O :   -0.206314
  80 O :   -0.295421
  81 C :    0.189508
  82 H :    0.002155
  83 H :    0.015197
  84 H :    0.046639
  85 H :    0.039718
  86 H :    0.037014
  87 H :    0.033013
  88 H :    0.040631
  89 H :    0.032127
  90 H :    0.043131
  91 H :    0.157849
  92 H :    0.010003
  93 H :   -0.008324
  94 H :    0.014489
  95 H :   -0.014123
  96 H :   -0.010191
  97 H :   -0.009682
  98 H :   -0.008442
  99 H :    0.003214
 100 H :    0.021708
 101 H :    0.157867
 102 H :    0.009310
 103 H :    0.016852
 104 H :    0.015886
 105 H :    0.033340
 106 H :    0.004217
 107 H :    0.012618
 108 H :    0.046925
 109 H :    0.040925
 110 H :    0.035487
 111 H :    0.040635
 112 H :    0.032696
 113 H :    0.033455
Sum of atomic charges:   -0.0000000

LOEWDIN ATOMIC CHARGES
----------------------
   0 C :    0.052236
   1 C :   -0.147008
   2 C :   -0.023334
   3 N :   -0.040789
   4 C :   -0.016575
   5 N :   -0.051514
   6 C :   -0.012753
   7 C :   -0.030685
   8 C :    0.027817
   9 C :    0.001347
  10 C :   -0.039016
  11 C :    0.027370
  12 C :    0.094045
  13 O :   -0.158898
  14 O :   -0.073433
  15 C :    0.086578
  16 C :    0.075794
  17 O :   -0.163466
  18 O :   -0.080262
  19 C :    0.084123
  20 C :    0.087604
  21 O :   -0.139352
  22 C :   -0.151037
  23 C :    0.096144
  24 N :    0.080677
  25 C :   -0.118722
  26 S :    0.499500
  27 C :   -0.206652
  28 N :    0.273748
  29 O :   -0.209207
  30 O :   -0.229956
  31 C :   -0.000336
  32 C :   -0.079336
  33 C :   -0.027818
  34 C :   -0.034020
  35 C :   -0.061584
  36 C :   -0.137914
  37 C :   -0.033899
  38 C :   -0.026252
  39 C :   -0.178868
  40 S :    0.370989
  41 C :   -0.175896
  42 C :   -0.018567
  43 C :   -0.053983
  44 C :   -0.189419
  45 S :    0.373326
  46 C :   -0.019274
  47 N :    0.049906
  48 C :   -0.087987
  49 S :    0.480060
  50 C :   -0.213852
  51 N :    0.272661
  52 O :   -0.219782
  53 O :   -0.232798
  54 C :    0.003595
  55 C :   -0.115939
  56 C :    0.040130
  57 C :   -0.059021
  58 C :    0.073441
  59 C :   -0.107604
  60 C :    0.077856
  61 C :   -0.156885
  62 C :   -0.026124
  63 N :   -0.045319
  64 C :    0.048054
  65 N :   -0.063966
  66 C :   -0.017153
  67 C :   -0.027561
  68 C :    0.084085
  69 O :   -0.129985
  70 C :    0.028114
  71 C :    0.004887
  72 C :   -0.041344
  73 C :    0.026826
  74 C :    0.093858
  75 O :   -0.156896
  76 O :   -0.074869
  77 C :    0.086791
  78 C :    0.075141
  79 O :   -0.160438
  80 O :   -0.081674
  81 C :    0.084458
  82 H :    0.045094
  83 H :    0.044102
  84 H :    0.031278
  85 H :    0.027069
  86 H :    0.026205
  87 H :    0.025484
  88 H :    0.028030
  89 H :    0.022285
  90 H :    0.048422
  91 H :    0.104532
  92 H :    0.046942
  93 H :    0.033380
  94 H :    0.019587
  95 H :    0.033048
  96 H :    0.034693
  97 H :    0.033154
  98 H :    0.034715
  99 H :    0.027404
 100 H :    0.034448
 101 H :    0.069373
 102 H :    0.045972
 103 H :    0.037556
 104 H :    0.035270
 105 H :    0.049305
 106 H :    0.046199
 107 H :    0.042974
 108 H :    0.031437
 109 H :    0.027736
 110 H :    0.025682
 111 H :    0.028040
 112 H :    0.022671
 113 H :    0.025772

  Mayer bond orders larger than 0.100000
B(  0-C ,  1-C ) :   1.6360 B(  0-C ,  6-C ) :   0.9948 B(  0-C , 22-C ) :   1.0441
B(  1-C ,  2-C ) :   1.1300 B(  1-C ,  4-C ) :   1.1684 B(  2-C ,  3-N ) :   2.9955
B(  4-C ,  5-N ) :   2.9746 B(  6-C ,  7-C ) :   1.3362 B(  6-C , 11-C ) :   1.3501
B(  7-C ,  8-C ) :   1.3693 B(  7-C , 20-C ) :   0.9177 B(  8-C ,  9-C ) :   1.3715
B(  8-C , 82-H ) :   1.0143 B(  9-C , 10-C ) :   1.4693 B(  9-C , 16-C ) :   0.8449
B( 10-C , 11-C ) :   1.3262 B( 10-C , 12-C ) :   0.8975 B( 11-C , 83-H ) :   0.9912
B( 12-C , 13-O ) :   2.0413 B( 12-C , 14-O ) :   1.2627 B( 14-O , 15-C ) :   0.9101
B( 15-C , 84-H ) :   0.9807 B( 15-C , 85-H ) :   0.9745 B( 15-C , 86-H ) :   0.9774
B( 16-C , 17-O ) :   2.1151 B( 16-C , 18-O ) :   1.2255 B( 18-O , 19-C ) :   0.9174
B( 19-C , 87-H ) :   0.9809 B( 19-C , 88-H ) :   0.9764 B( 19-C , 89-H ) :   0.9722
B( 20-C , 21-O ) :   2.2728 B( 20-C , 22-C ) :   0.9622 B( 22-C , 23-C ) :   1.5964
B( 23-C , 24-N ) :   1.2733 B( 23-C , 90-H ) :   0.9196 B( 24-N , 25-C ) :   1.1580
B( 24-N , 91-H ) :   0.8885 B( 25-C , 26-S ) :   1.1386 B( 25-C , 32-C ) :   1.3730
B( 26-S , 27-C ) :   1.1018 B( 27-C , 28-N ) :   0.9646 B( 27-C , 31-C ) :   1.4795
B( 28-N , 29-O ) :   1.5404 B( 28-N , 30-O ) :   1.5139 B( 29-O , 30-O ) :   0.2611
B( 31-C , 32-C ) :   1.2271 B( 31-C , 92-H ) :   1.0063 B( 32-C , 33-C ) :   1.0873
B( 33-C , 34-C ) :   1.6321 B( 33-C , 93-H ) :   0.9739 B( 34-C , 35-C ) :   1.1588
B( 34-C , 94-H ) :   0.9540 B( 35-C , 36-C ) :   1.5662 B( 35-C , 95-H ) :   0.9863
B( 36-C , 37-C ) :   1.1362 B( 36-C , 40-S ) :   1.0324 B( 37-C , 38-C ) :   1.5946
B( 37-C , 96-H ) :   1.0002 B( 38-C , 39-C ) :   1.1868 B( 38-C , 97-H ) :   0.9925
B( 39-C , 40-S ) :   1.0422 B( 39-C , 41-C ) :   1.5148 B( 41-C , 42-C ) :   1.1846
B( 41-C , 45-S ) :   1.0501 B( 42-C , 43-C ) :   1.6268 B( 42-C , 98-H ) :   0.9930
B( 43-C , 44-C ) :   1.1181 B( 43-C , 99-H ) :   0.9830 B( 44-C , 45-S ) :   1.0227
B( 44-C , 46-C ) :   1.6105 B( 46-C , 47-N ) :   1.1490 B( 46-C ,100-H ) :   0.9571
B( 47-N , 48-C ) :   1.2552 B( 47-N ,101-H ) :   0.8384 B( 48-C , 49-S ) :   1.1396
B( 48-C , 55-C ) :   1.3042 B( 49-S , 50-C ) :   1.0622 B( 50-C , 51-N ) :   0.9753
B( 50-C , 54-C ) :   1.4966 B( 51-N , 52-O ) :   1.5319 B( 51-N , 53-O ) :   1.5091
B( 52-O , 53-O ) :   0.2563 B( 54-C , 55-C ) :   1.2101 B( 54-C ,102-H ) :   1.0076
B( 55-C , 56-C ) :   1.1562 B( 56-C , 57-C ) :   1.6196 B( 56-C ,103-H ) :   0.9615
B( 57-C , 58-C ) :   1.1839 B( 57-C ,104-H ) :   0.9562 B( 58-C , 59-C ) :   1.6054
B( 58-C ,105-H ) :   0.9340 B( 59-C , 60-C ) :   1.0740 B( 59-C , 68-C ) :   0.9431
B( 60-C , 61-C ) :   1.6116 B( 60-C , 66-C ) :   0.9902 B( 61-C , 62-C ) :   1.1174
B( 61-C , 64-C ) :   1.2163 B( 62-C , 63-N ) :   2.9917 B( 64-C , 65-N ) :   2.8500
B( 65-N ,101-H ) :   0.1702 B( 66-C , 67-C ) :   1.3325 B( 66-C , 73-C ) :   1.3421
B( 67-C , 68-C ) :   0.9073 B( 67-C , 70-C ) :   1.3709 B( 68-C , 69-O ) :   2.2816
B( 70-C , 71-C ) :   1.3719 B( 70-C ,106-H ) :   1.0138 B( 71-C , 72-C ) :   1.4693
B( 71-C , 78-C ) :   0.8429 B( 72-C , 73-C ) :   1.3270 B( 72-C , 74-C ) :   0.8983
B( 73-C ,107-H ) :   0.9895 B( 74-C , 75-O ) :   2.0417 B( 74-C , 76-O ) :   1.2621
B( 76-O , 77-C ) :   0.9098 B( 77-C ,108-H ) :   0.9808 B( 77-C ,109-H ) :   0.9751
B( 77-C ,110-H ) :   0.9770 B( 78-C , 79-O ) :   2.1189 B( 78-C , 80-O ) :   1.2246
B( 80-O , 81-C ) :   0.9151 B( 81-C ,111-H ) :   0.9758 B( 81-C ,112-H ) :   0.9730
B( 81-C ,113-H ) :   0.9809

-----------------------------------------------------------------------------
         ABSORPTION SPECTRUM VIA TRANSITION ELECTRIC DIPOLE MOMENTS
-----------------------------------------------------------------------------
State   Energy  Wavelength   fosc         T2         TX        TY        TZ
        (cm-1)    (nm)                  (au**2)     (au)      (au)      (au)
-----------------------------------------------------------------------------
   0   11236.1    890.0   0.946278384  27.72545   2.16130   4.62473  -1.29078
   1   14118.5    708.3   0.231569332   5.39968  -1.63961  -0.32144   1.61494
   2   16668.8    599.9   0.535132418  10.56896  -0.96977  -2.78816   1.36185
   3   19462.8    513.8   0.008356362   0.14135   0.08553  -0.25063  -0.26686
   4   19867.9    503.3   0.099505762   1.64882  -0.52925   0.88688  -0.76300
   5   20742.3    482.1   0.258867509   4.10862  -0.50836   1.52268   1.23760
   6   22607.9    442.3   0.146283430   2.13015   0.81444   1.20933  -0.06610
   7   23445.3    426.5   0.109817093   1.54202   0.91406  -0.80645  -0.23697
   8   24826.6    402.8   0.014362289   0.19045  -0.31237  -0.15619   0.26169
   9   25690.2    389.3   0.202918255   2.60033  -0.70844  -1.35368  -0.51574
  10   27675.4    361.3   0.016734098   0.19906   0.36132  -0.24261  -0.09824
  11   27828.7    359.3   0.082012478   0.97020  -0.73704   0.02669  -0.65289
  12   28336.8    352.9   0.093422159   1.08536  -0.41766  -0.92892  -0.21914
  13   28706.6    348.4   0.229060264   2.62690  -0.23889   1.59423   0.16807
  14   29355.0    340.7   0.053803040   0.60339   0.67769  -0.08408  -0.37021
  15   29853.7    335.0   0.097495137   1.07513   0.34054   0.89098   0.40659
  16   30359.0    329.4   0.083430961   0.90472  -0.41158   0.85650   0.04153
  17   30997.2    322.6   0.013458018   0.14293  -0.34091  -0.05982  -0.15210
  18   31050.0    322.1   0.022078653   0.23409  -0.32898   0.21674  -0.28086
  19   31338.0    319.1   0.022474717   0.23610   0.30949   0.34369   0.14898
  20   31617.9    316.3   0.116686324   1.21496   0.00518  -0.70224  -0.84959
  21   31934.9    313.1   0.322789418   3.32758  -1.39220  -0.89673   0.76502
  22   32365.3    309.0   0.178557191   1.81624  -1.24130   0.52170  -0.05691
  23   32683.4    306.0   0.008753757   0.08817   0.17189  -0.17309  -0.16932
  24   32989.5    303.1   0.002066118   0.02062   0.14278   0.00829  -0.01278
  25   33573.0    297.9   0.133754084   1.31157   0.71164  -0.85311  -0.27813
  26   34004.4    294.1   0.241955760   2.34248   1.20572  -0.08327   0.93904
  27   34192.6    292.5   0.299691999   2.88549   1.54049   0.66463   0.26577
  28   34258.2    291.9   0.060148345   0.57801  -0.28172   0.45668  -0.53859
  29   34351.9    291.1   0.205501007   1.96942   0.74483   1.18932  -0.01300
  30   34706.5    288.1   0.105841047   1.00396   0.47936   0.87924  -0.03333
  31   35185.5    284.2   0.066992925   0.62682   0.23725   0.15927  -0.73835
  32   35623.6    280.7   0.016438821   0.15192   0.32661  -0.21021   0.03253
  33   35785.5    279.4   0.116915806   1.07558  -0.69633   0.60509   0.47389
  34   36297.8    275.5   0.030420864   0.27591   0.45299   0.24519   0.10292
  35   36563.1    273.5   0.107718440   0.96989   0.72216  -0.66302   0.09369
  36   36991.6    270.3   0.164653580   1.46536   1.06766   0.53970   0.18490
  37   37116.5    269.4   0.015344462   0.13610   0.25415  -0.26706   0.01362
  38   37277.9    268.3   0.064848124   0.57269  -0.70644   0.26340  -0.06520
  39   37969.8    263.4   0.034873088   0.30236  -0.50706  -0.09856  -0.18852
  40   38166.7    262.0   0.124555870   1.07437   0.82000  -0.35496   0.52534
  41   38209.3    261.7   0.041555289   0.35804  -0.36041  -0.02945   0.47673
  42   38424.3    260.3   0.023772809   0.20368   0.16173  -0.38261  -0.17644
  43   38620.4    258.9   0.007914183   0.06746  -0.17669   0.12770   0.14120
  44   38763.1    258.0   0.025165421   0.21373   0.08233   0.42596   0.15972
  45   38976.1    256.6   0.135916791   1.14802   0.53674   0.26850  -0.88760
  46   39091.1    255.8   0.077815998   0.65534  -0.54991  -0.34285  -0.48517
  47   39673.4    252.1   0.100066226   0.83036   0.89475   0.08673   0.14919
  48   39978.1    250.1   0.072315403   0.59550  -0.71705  -0.24954   0.13811
  49   40123.1    249.2   0.040683652   0.33381  -0.14720   0.23136   0.50854
  50   40191.6    248.8   0.022184341   0.18171  -0.40841   0.03271  -0.11764
  51   40263.5    248.4   0.008507155   0.06956   0.21587   0.06817  -0.13531
  52   40313.4    248.1   0.007297826   0.05960  -0.21292   0.01600  -0.11835

FINAL SINGLE POINT ENERGY     -5231.881710418482

DIPOLE MOMENT
-------------
                                X             Y             Z
Electronic contribution:      3.14991      27.62414      -0.73346
Nuclear contribution   :     -4.98372     -27.70160       2.23708
                        -----------------------------------------
Total Dipole Moment    :     -1.83382      -0.07746       1.50362
                        -----------------------------------------
Magnitude (a.u.)       :      2.37271
Magnitude (Debye)      :      6.03095

Rotational constants in cm-1:     0.000942     0.000179     0.000161
Rotational constants in MHz :    28.238293     5.365009     4.833223

                             ****ORCA TERMINATED NORMALLY****
TOTAL RUN TIME: 0 days 0 hours 12 minutes 32 seconds 438 msec
