                         Program Version 4.2.0 -  RELEASE  -
|  1> # ORCA input file
|  2> # SCF done       -183.092099194991          0.000243672468
|  3> ! CAM-B3LYP def2-SVP def2/J RIJCOSX Grid4 TightSCF
|  4> %maxcore 5000
|  5> %tddft
|  6>     Mode sTDDFT
|  7>     Ethresh 5.0
|  8>     maxcore 5000
|  9> end
| 10>
| 11> %pal
| 12>   nprocs 6
| 13>   end
| 14> * xyz 0 1
| 15>    C        4.66331        -2.07783         9.30163
| 16>    C        5.58649        -2.52527         8.43881
| 17>    C        6.96709        -2.14634         8.35339
| 18>    C        7.65751        -2.77016         7.37223
| 19>    C        6.88837        -3.68719         6.60518
| 20>    S        5.23639        -3.72787         7.18628
| 21>    C        7.31568        -4.45731         5.54705
| 22>    C        8.60936        -4.51391         4.97727
| 23>    C        8.71048        -5.37386         3.92741
| 24>    C        7.50776        -6.04691         3.60503
| 25>    S        6.23224        -5.54614         4.69779
| 26>    C        7.34127        -6.95630         2.58662
| 27>    C        6.18064        -7.63738         2.23517
| 28>    S        4.64360        -7.49681         3.04382
| 29>    C        3.85311        -8.62807         1.98674
| 30>    C        4.76225        -9.10382         1.02774
| 31>    C        6.06566        -8.55092         1.16617
| 32>    N        7.06205        -8.89364         0.33587
| 33>    C        6.78238        -9.75913        -0.61230
| 34>    C        7.90722       -10.15032        -1.53415
| 35>    N        9.14475        -9.42686        -1.32970
| 36>    C        5.47376       -10.31121        -0.75863
| 37>    C        5.14181       -11.27831        -1.86035
| 38>    N        5.32173       -10.63274        -3.15718
| 39>    N        4.49268        -9.98726         0.04611
| 40>    C        2.48902        -8.95637         2.14093
| 41>    C        1.87395        -9.83148         1.30907
| 42>    N        0.56655       -10.19808         1.40670
| 43>    C       -0.06248       -11.01279         0.53094
| 44>    S        0.75664       -11.52285        -0.91524
| 45>    C       -0.69228       -12.33137        -1.43762
| 46>    N       -0.64160       -12.99926        -2.65340
| 47>    O       -1.64797       -13.57349        -3.04041
| 48>    O        0.42447       -12.96071        -3.25757
| 49>    C       -1.72809       -12.20549        -0.54938
| 50>    C       -1.38936       -11.47289         0.60382
| 51>    C       -2.33250       -11.28729         1.66860
| 52>    C       -2.08199       -10.97363         2.96099
| 53>    C       -3.10270       -10.85273         3.93837
| 54>    S       -2.69779       -10.47674         5.58495
| 55>    C       -4.33611       -10.54891         6.14275
| 56>    C       -5.18000       -10.85501         5.06908
| 57>    C       -4.48663       -11.01692         3.82622
| 58>    N       -5.16061       -11.30252         2.69241
| 59>    C       -6.45849       -11.42732         2.78080
| 60>    C       -7.20486       -11.75823         1.52071
| 61>    N       -7.75569       -13.10811         1.62233
| 62>    C       -7.14933       -11.27431         4.02290
| 63>    C       -8.64420       -11.39858         4.09143
| 64>    N       -9.24921       -10.23572         3.44649
| 65>    N       -6.52107       -10.98836         5.13244
| 66>    C       -4.64763       -10.30567         7.50509
| 67>    C       -5.90036       -10.40463         8.00162
| 68>    C       -6.25309       -10.20814         9.38333
| 69>    C       -5.37898       -10.47295        10.40094
| 70>    S       -6.05520       -10.36281        11.97456
| 71>    C       -7.59169        -9.92690        11.28793
| 72>    C       -7.55961        -9.84476         9.88634
| 73>    C       -8.71254        -9.40653         9.19231
| 74>    C       -8.65024        -9.11190         7.72159
| 75>    C       -9.89791        -9.20394         9.88180
| 76>    C      -11.15434        -8.82672         9.15024
| 77>    C       -9.93242        -9.33530        11.28635
| 78>    C       -8.76091        -9.66927        11.98465
| 79>    S       -9.00581        -9.72038        13.70274
| 80>    C      -10.66932        -9.30180        13.48389
| 81>    C      -11.01821        -9.13211        12.19176
| 82>    H        4.91817        -1.34566        10.04724
| 83>    H        3.64887        -2.43095         9.27759
| 84>    H        7.38022        -1.42174         9.03238
| 85>    H        8.70045        -2.60594         7.16662
| 86>    H        9.42347        -3.92138         5.35398
| 87>    H        9.61279        -5.54903         3.36825
| 88>    H        8.20252        -7.18101         1.97069
| 89>    H        7.57239       -10.01368        -2.56681
| 90>    H        8.11069       -11.21930        -1.39818
| 91>    H        9.43280        -9.52300        -0.36049
| 92>    H        8.98615        -8.43654        -1.48733
| 93>    H        4.11794       -11.64489        -1.68923
| 94>    H        5.82933       -12.12897        -1.81526
| 95>    H        4.65808        -9.87046        -3.25392
| 96>    H        5.12790       -11.29737        -3.89838
| 97>    H        1.95016        -8.48019         2.94942
| 98>    H        2.44173       -10.29015         0.51267
| 99>    H        0.00305        -9.78329         2.14018
|100>    H       -2.69213       -12.64890        -0.72023
|101>    H       -3.36392       -11.47387         1.40491
|102>    H       -1.07527       -10.85581         3.34139
|103>    H       -6.51639       -11.62579         0.67211
|104>    H       -8.04183       -11.06187         1.42038
|105>    H       -7.00188       -13.78563         1.68293
|106>    H       -8.29522       -13.32235         0.79078
|107>    H       -8.93030       -11.51450         5.14899
|108>    H       -8.94697       -12.28903         3.53509
|109>    H       -9.01261        -9.39240         3.95999
|110>    H      -10.25910       -10.32663         3.44482
|111>    H       -3.82025       -10.01101         8.13706
|112>    H       -6.68348       -10.69820         7.32212
|113>    H       -4.36106       -10.79643        10.30561
|114>    H       -8.89607        -9.99493         7.13143
|115>    H       -7.65415        -8.78005         7.44241
|116>    H       -9.35355        -8.32436         7.46325
|117>    H      -11.14262        -7.76874         8.88458
|118>    H      -12.02928        -9.00890         9.76544
|119>    H      -11.25740        -9.40794         8.23666
|120>    H      -11.29162        -9.20555        14.35203
|121>    H      -12.01487        -8.86165        11.89403
|122> *
|123>
|124>                          ****END OF INPUT****

CARTESIAN COORDINATES (ANGSTROEM)
---------------------------------
  C      4.663310   -2.077830    9.301630
  C      5.586490   -2.525270    8.438810
  C      6.967090   -2.146340    8.353390
  C      7.657510   -2.770160    7.372230
  C      6.888370   -3.687190    6.605180
  S      5.236390   -3.727870    7.186280
  C      7.315680   -4.457310    5.547050
  C      8.609360   -4.513910    4.977270
  C      8.710480   -5.373860    3.927410
  C      7.507760   -6.046910    3.605030
  S      6.232240   -5.546140    4.697790
  C      7.341270   -6.956300    2.586620
  C      6.180640   -7.637380    2.235170
  S      4.643600   -7.496810    3.043820
  C      3.853110   -8.628070    1.986740
  C      4.762250   -9.103820    1.027740
  C      6.065660   -8.550920    1.166170
  N      7.062050   -8.893640    0.335870
  C      6.782380   -9.759130   -0.612300
  C      7.907220  -10.150320   -1.534150
  N      9.144750   -9.426860   -1.329700
  C      5.473760  -10.311210   -0.758630
  C      5.141810  -11.278310   -1.860350
  N      5.321730  -10.632740   -3.157180
  N      4.492680   -9.987260    0.046110
  C      2.489020   -8.956370    2.140930
  C      1.873950   -9.831480    1.309070
  N      0.566550  -10.198080    1.406700
  C     -0.062480  -11.012790    0.530940
  S      0.756640  -11.522850   -0.915240
  C     -0.692280  -12.331370   -1.437620
  N     -0.641600  -12.999260   -2.653400
  O     -1.647970  -13.573490   -3.040410
  O      0.424470  -12.960710   -3.257570
  C     -1.728090  -12.205490   -0.549380
  C     -1.389360  -11.472890    0.603820
  C     -2.332500  -11.287290    1.668600
  C     -2.081990  -10.973630    2.960990
  C     -3.102700  -10.852730    3.938370
  S     -2.697790  -10.476740    5.584950
  C     -4.336110  -10.548910    6.142750
  C     -5.180000  -10.855010    5.069080
  C     -4.486630  -11.016920    3.826220
  N     -5.160610  -11.302520    2.692410
  C     -6.458490  -11.427320    2.780800
  C     -7.204860  -11.758230    1.520710
  N     -7.755690  -13.108110    1.622330
  C     -7.149330  -11.274310    4.022900
  C     -8.644200  -11.398580    4.091430
  N     -9.249210  -10.235720    3.446490
  N     -6.521070  -10.988360    5.132440
  C     -4.647630  -10.305670    7.505090
  C     -5.900360  -10.404630    8.001620
  C     -6.253090  -10.208140    9.383330
  C     -5.378980  -10.472950   10.400940
  S     -6.055200  -10.362810   11.974560
  C     -7.591690   -9.926900   11.287930
  C     -7.559610   -9.844760    9.886340
  C     -8.712540   -9.406530    9.192310
  C     -8.650240   -9.111900    7.721590
  C     -9.897910   -9.203940    9.881800
  C    -11.154340   -8.826720    9.150240
  C     -9.932420   -9.335300   11.286350
  C     -8.760910   -9.669270   11.984650
  S     -9.005810   -9.720380   13.702740
  C    -10.669320   -9.301800   13.483890
  C    -11.018210   -9.132110   12.191760
  H      4.918170   -1.345660   10.047240
  H      3.648870   -2.430950    9.277590
  H      7.380220   -1.421740    9.032380
  H      8.700450   -2.605940    7.166620
  H      9.423470   -3.921380    5.353980
  H      9.612790   -5.549030    3.368250
  H      8.202520   -7.181010    1.970690
  H      7.572390  -10.013680   -2.566810
  H      8.110690  -11.219300   -1.398180
  H      9.432800   -9.523000   -0.360490
  H      8.986150   -8.436540   -1.487330
  H      4.117940  -11.644890   -1.689230
  H      5.829330  -12.128970   -1.815260
  H      4.658080   -9.870460   -3.253920
  H      5.127900  -11.297370   -3.898380
  H      1.950160   -8.480190    2.949420
  H      2.441730  -10.290150    0.512670
  H      0.003050   -9.783290    2.140180
  H     -2.692130  -12.648900   -0.720230
  H     -3.363920  -11.473870    1.404910
  H     -1.075270  -10.855810    3.341390
  H     -6.516390  -11.625790    0.672110
  H     -8.041830  -11.061870    1.420380
  H     -7.001880  -13.785630    1.682930
  H     -8.295220  -13.322350    0.790780
  H     -8.930300  -11.514500    5.148990
  H     -8.946970  -12.289030    3.535090
  H     -9.012610   -9.392400    3.959990
  H    -10.259100  -10.326630    3.444820
  H     -3.820250  -10.011010    8.137060
  H     -6.683480  -10.698200    7.322120
  H     -4.361060  -10.796430   10.305610
  H     -8.896070   -9.994930    7.131430
  H     -7.654150   -8.780050    7.442410
  H     -9.353550   -8.324360    7.463250
  H    -11.142620   -7.768740    8.884580
  H    -12.029280   -9.008900    9.765440
  H    -11.257400   -9.407940    8.236660
  H    -11.291620   -9.205550   14.352030
  H    -12.014870   -8.861650   11.894030

 Total Charge           Charge          ....    0
 Multiplicity           Mult            ....    1
 Number of Electrons    NEL             ....  526
 Basis Dimension        Dim             .... 1166

ORBITAL ENERGIES
----------------

  NO   OCC          E(Eh)            E(eV)
   0   2.0000     -88.972081     -2421.0534
   1   2.0000     -88.967858     -2420.9385
   2   2.0000     -88.965703     -2420.8798
   3   2.0000     -88.945244     -2420.3231
   4   2.0000     -88.943364     -2420.2720
   5   2.0000     -88.941232     -2420.2140
   6   2.0000     -88.934653     -2420.0349
   7   2.0000     -19.221176      -523.0348
   8   2.0000     -19.220841      -523.0257
   9   2.0000     -14.632932      -398.1823
  10   2.0000     -14.477863      -393.9627
  11   2.0000     -14.419646      -392.3785
  12   2.0000     -14.418945      -392.3594
  13   2.0000     -14.418714      -392.3531
  14   2.0000     -14.414735      -392.2449
  15   2.0000     -14.390971      -391.5982
  16   2.0000     -14.390810      -391.5938
  17   2.0000     -14.390152      -391.5759
  18   2.0000     -14.364896      -390.8887
  19   2.0000     -10.359442      -281.8948
  20   2.0000     -10.325521      -280.9717
  21   2.0000     -10.315821      -280.7078
  22   2.0000     -10.315667      -280.7036
  23   2.0000     -10.315276      -280.6929
  24   2.0000     -10.314659      -280.6761
  25   2.0000     -10.309458      -280.5346
  26   2.0000     -10.305391      -280.4239
  27   2.0000     -10.304391      -280.3967
  28   2.0000     -10.304285      -280.3938
  29   2.0000     -10.304155      -280.3903
  30   2.0000     -10.303618      -280.3757
  31   2.0000     -10.303386      -280.3694
  32   2.0000     -10.302931      -280.3570
  33   2.0000     -10.302622      -280.3486
  34   2.0000     -10.302334      -280.3408
  35   2.0000     -10.301259      -280.3115
  36   2.0000     -10.299913      -280.2749
  37   2.0000     -10.298831      -280.2454
  38   2.0000     -10.296856      -280.1917
  39   2.0000     -10.293282      -280.0944
  40   2.0000     -10.291317      -280.0410
  41   2.0000     -10.290148      -280.0092
  42   2.0000     -10.288168      -279.9553
  43   2.0000     -10.286968      -279.9226
  44   2.0000     -10.286708      -279.9156
  45   2.0000     -10.285775      -279.8902
  46   2.0000     -10.285711      -279.8884
  47   2.0000     -10.284514      -279.8559
  48   2.0000     -10.283893      -279.8390
  49   2.0000     -10.281965      -279.7865
  50   2.0000     -10.280592      -279.7491
  51   2.0000     -10.279987      -279.7327
  52   2.0000     -10.278951      -279.7045
  53   2.0000     -10.278697      -279.6976
  54   2.0000     -10.276088      -279.6266
  55   2.0000     -10.275386      -279.6075
  56   2.0000     -10.274067      -279.5716
  57   2.0000     -10.273087      -279.5449
  58   2.0000     -10.270170      -279.4655
  59   2.0000     -10.268967      -279.4328
  60   2.0000     -10.268377      -279.4168
  61   2.0000     -10.268094      -279.4090
  62   2.0000     -10.266271      -279.3594
  63   2.0000     -10.266236      -279.3585
  64   2.0000     -10.265416      -279.3362
  65   2.0000     -10.260640      -279.2062
  66   2.0000     -10.256147      -279.0839
  67   2.0000      -8.067118      -219.5174
  68   2.0000      -8.063005      -219.4055
  69   2.0000      -8.060097      -219.3264
  70   2.0000      -8.041330      -218.8157
  71   2.0000      -8.039422      -218.7638
  72   2.0000      -8.037295      -218.7059
  73   2.0000      -8.031406      -218.5457
  74   2.0000      -6.036891      -164.2722
  75   2.0000      -6.032424      -164.1506
  76   2.0000      -6.031829      -164.1344
  77   2.0000      -6.029164      -164.0619
  78   2.0000      -6.028485      -164.0434
  79   2.0000      -6.028036      -164.0312
  80   2.0000      -6.025870      -163.9723
  81   2.0000      -6.025123      -163.9519
  82   2.0000      -6.022754      -163.8875
  83   2.0000      -6.010845      -163.5634
  84   2.0000      -6.009001      -163.5132
  85   2.0000      -6.007063      -163.4605
  86   2.0000      -6.006571      -163.4471
  87   2.0000      -6.004750      -163.3976
  88   2.0000      -6.003066      -163.3517
  89   2.0000      -6.002972      -163.3492
  90   2.0000      -6.001235      -163.3019
  91   2.0000      -6.001015      -163.2959
  92   2.0000      -5.998230      -163.2201
  93   2.0000      -5.997305      -163.1950
  94   2.0000      -5.991931      -163.0487
  95   2.0000      -1.299399       -35.3584
  96   2.0000      -1.118156       -30.4266
  97   2.0000      -1.083425       -29.4815
  98   2.0000      -1.076013       -29.2798
  99   2.0000      -1.074606       -29.2415
 100   2.0000      -1.002815       -27.2880
 101   2.0000      -1.001885       -27.2627
 102   2.0000      -0.992839       -27.0165
 103   2.0000      -0.990867       -26.9629
 104   2.0000      -0.989099       -26.9148
 105   2.0000      -0.984722       -26.7956
 106   2.0000      -0.980389       -26.6777
 107   2.0000      -0.966342       -26.2955
 108   2.0000      -0.964269       -26.2391
 109   2.0000      -0.960778       -26.1441
 110   2.0000      -0.960018       -26.1234
 111   2.0000      -0.958580       -26.0843
 112   2.0000      -0.942831       -25.6557
 113   2.0000      -0.913873       -24.8677
 114   2.0000      -0.911493       -24.8030
 115   2.0000      -0.898836       -24.4586
 116   2.0000      -0.890961       -24.2443
 117   2.0000      -0.879208       -23.9245
 118   2.0000      -0.868435       -23.6313
 119   2.0000      -0.856535       -23.3075
 120   2.0000      -0.855569       -23.2812
 121   2.0000      -0.854255       -23.2455
 122   2.0000      -0.847397       -23.0588
 123   2.0000      -0.845743       -23.0138
 124   2.0000      -0.839902       -22.8549
 125   2.0000      -0.836380       -22.7591
 126   2.0000      -0.819901       -22.3106
 127   2.0000      -0.818932       -22.2843
 128   2.0000      -0.808863       -22.0103
 129   2.0000      -0.802796       -21.8452
 130   2.0000      -0.785918       -21.3859
 131   2.0000      -0.778975       -21.1970
 132   2.0000      -0.774342       -21.0709
 133   2.0000      -0.774103       -21.0644
 134   2.0000      -0.772179       -21.0121
 135   2.0000      -0.769758       -20.9462
 136   2.0000      -0.759006       -20.6536
 137   2.0000      -0.743676       -20.2365
 138   2.0000      -0.738073       -20.0840
 139   2.0000      -0.725375       -19.7384
 140   2.0000      -0.712801       -19.3963
 141   2.0000      -0.706876       -19.2351
 142   2.0000      -0.699463       -19.0334
 143   2.0000      -0.696931       -18.9644
 144   2.0000      -0.692175       -18.8350
 145   2.0000      -0.685703       -18.6589
 146   2.0000      -0.681347       -18.5404
 147   2.0000      -0.679509       -18.4904
 148   2.0000      -0.658046       -17.9063
 149   2.0000      -0.651438       -17.7265
 150   2.0000      -0.649582       -17.6760
 151   2.0000      -0.645478       -17.5644
 152   2.0000      -0.640743       -17.4355
 153   2.0000      -0.632293       -17.2056
 154   2.0000      -0.629207       -17.1216
 155   2.0000      -0.625960       -17.0332
 156   2.0000      -0.620687       -16.8898
 157   2.0000      -0.619219       -16.8498
 158   2.0000      -0.613835       -16.7033
 159   2.0000      -0.613236       -16.6870
 160   2.0000      -0.610038       -16.6000
 161   2.0000      -0.608546       -16.5594
 162   2.0000      -0.605922       -16.4880
 163   2.0000      -0.594982       -16.1903
 164   2.0000      -0.594830       -16.1861
 165   2.0000      -0.581248       -15.8166
 166   2.0000      -0.580095       -15.7852
 167   2.0000      -0.576913       -15.6986
 168   2.0000      -0.575932       -15.6719
 169   2.0000      -0.573452       -15.6044
 170   2.0000      -0.563293       -15.3280
 171   2.0000      -0.561712       -15.2849
 172   2.0000      -0.560852       -15.2616
 173   2.0000      -0.552163       -15.0251
 174   2.0000      -0.547397       -14.8954
 175   2.0000      -0.543049       -14.7771
 176   2.0000      -0.542354       -14.7582
 177   2.0000      -0.534329       -14.5398
 178   2.0000      -0.533864       -14.5272
 179   2.0000      -0.529814       -14.4170
 180   2.0000      -0.524487       -14.2720
 181   2.0000      -0.522609       -14.2209
 182   2.0000      -0.519543       -14.1375
 183   2.0000      -0.517245       -14.0750
 184   2.0000      -0.515785       -14.0352
 185   2.0000      -0.515166       -14.0184
 186   2.0000      -0.513823       -13.9818
 187   2.0000      -0.512554       -13.9473
 188   2.0000      -0.509428       -13.8622
 189   2.0000      -0.507015       -13.7966
 190   2.0000      -0.506263       -13.7761
 191   2.0000      -0.501869       -13.6566
 192   2.0000      -0.499319       -13.5872
 193   2.0000      -0.492448       -13.4002
 194   2.0000      -0.490697       -13.3526
 195   2.0000      -0.490155       -13.3378
 196   2.0000      -0.486463       -13.2373
 197   2.0000      -0.482851       -13.1390
 198   2.0000      -0.482163       -13.1203
 199   2.0000      -0.481202       -13.0942
 200   2.0000      -0.478482       -13.0202
 201   2.0000      -0.476759       -12.9733
 202   2.0000      -0.475532       -12.9399
 203   2.0000      -0.474305       -12.9065
 204   2.0000      -0.471529       -12.8310
 205   2.0000      -0.470564       -12.8047
 206   2.0000      -0.467299       -12.7159
 207   2.0000      -0.466049       -12.6818
 208   2.0000      -0.461226       -12.5506
 209   2.0000      -0.460037       -12.5182
 210   2.0000      -0.458572       -12.4784
 211   2.0000      -0.456050       -12.4097
 212   2.0000      -0.455255       -12.3881
 213   2.0000      -0.450262       -12.2523
 214   2.0000      -0.448238       -12.1972
 215   2.0000      -0.446475       -12.1492
 216   2.0000      -0.443377       -12.0649
 217   2.0000      -0.442083       -12.0297
 218   2.0000      -0.441271       -12.0076
 219   2.0000      -0.432982       -11.7821
 220   2.0000      -0.429463       -11.6863
 221   2.0000      -0.428801       -11.6683
 222   2.0000      -0.427054       -11.6207
 223   2.0000      -0.425986       -11.5917
 224   2.0000      -0.425731       -11.5847
 225   2.0000      -0.423050       -11.5118
 226   2.0000      -0.421820       -11.4783
 227   2.0000      -0.419965       -11.4278
 228   2.0000      -0.415371       -11.3028
 229   2.0000      -0.414914       -11.2904
 230   2.0000      -0.409475       -11.1424
 231   2.0000      -0.389785       -10.6066
 232   2.0000      -0.388208       -10.5637
 233   2.0000      -0.387733       -10.5508
 234   2.0000      -0.385348       -10.4858
 235   2.0000      -0.381837       -10.3903
 236   2.0000      -0.378570       -10.3014
 237   2.0000      -0.372122       -10.1259
 238   2.0000      -0.370572       -10.0838
 239   2.0000      -0.367067        -9.9884
 240   2.0000      -0.362007        -9.8507
 241   2.0000      -0.358793        -9.7632
 242   2.0000      -0.350075        -9.5260
 243   2.0000      -0.340950        -9.2777
 244   2.0000      -0.334217        -9.0945
 245   2.0000      -0.330556        -8.9949
 246   2.0000      -0.326496        -8.8844
 247   2.0000      -0.325177        -8.8485
 248   2.0000      -0.320636        -8.7250
 249   2.0000      -0.320401        -8.7186
 250   2.0000      -0.315793        -8.5932
 251   2.0000      -0.315393        -8.5823
 252   2.0000      -0.312850        -8.5131
 253   2.0000      -0.311153        -8.4669
 254   2.0000      -0.308945        -8.4068
 255   2.0000      -0.302935        -8.2433
 256   2.0000      -0.294799        -8.0219
 257   2.0000      -0.290418        -7.9027
 258   2.0000      -0.268651        -7.3104
 259   2.0000      -0.263454        -7.1690
 260   2.0000      -0.253506        -6.8982
 261   2.0000      -0.224500        -6.1090
 262   2.0000      -0.198221        -5.3939
 263   0.0000      -0.079839        -2.1725
 264   0.0000      -0.063214        -1.7201
 265   0.0000      -0.041768        -1.1366
 266   0.0000      -0.029076        -0.7912
 267   0.0000      -0.005395        -0.1468

MULLIKEN ATOMIC CHARGES
-----------------------
   0 C :   -0.031794
   1 C :   -0.063963
   2 C :    0.050645
   3 C :    0.027546
   4 C :   -0.067798
   5 S :    0.076387
   6 C :   -0.034838
   7 C :    0.024858
   8 C :    0.033210
   9 C :   -0.026984
  10 S :    0.055497
  11 C :   -0.027694
  12 C :   -0.144426
  13 S :    0.143473
  14 C :   -0.155972
  15 C :    0.050630
  16 C :    0.034907
  17 N :    0.000723
  18 C :   -0.182080
  19 C :    0.187868
  20 N :   -0.195630
  21 C :   -0.165637
  22 C :    0.231701
  23 N :   -0.235239
  24 N :   -0.004757
  25 C :   -0.001021
  26 C :    0.051140
  27 N :   -0.006677
  28 C :   -0.118001
  29 S :    0.131245
  30 C :    0.001023
  31 N :    0.279715
  32 O :   -0.265802
  33 O :   -0.286489
  34 C :    0.004835
  35 C :    0.131500
  36 C :   -0.031566
  37 C :    0.002209
  38 C :   -0.179277
  39 S :    0.157635
  40 C :   -0.160785
  41 C :    0.042161
  42 C :    0.048497
  43 N :    0.009276
  44 C :   -0.174805
  45 C :    0.248656
  46 N :   -0.238405
  47 C :   -0.171070
  48 C :    0.241063
  49 N :   -0.239367
  50 N :    0.007033
  51 C :    0.017659
  52 C :   -0.035771
  53 C :    0.079839
  54 C :   -0.119743
  55 S :    0.124694
  56 C :   -0.146377
  57 C :    0.106769
  58 C :   -0.163576
  59 C :    0.081244
  60 C :   -0.129597
  61 C :    0.092155
  62 C :    0.072773
  63 C :   -0.129614
  64 S :    0.111402
  65 C :   -0.058719
  66 C :   -0.001058
  67 H :    0.019189
  68 H :    0.020177
  69 H :   -0.012481
  70 H :   -0.011682
  71 H :   -0.017673
  72 H :   -0.013325
  73 H :   -0.009068
  74 H :    0.031027
  75 H :    0.010195
  76 H :    0.088469
  77 H :    0.087432
  78 H :    0.005198
  79 H :    0.006262
  80 H :    0.098305
  81 H :    0.105750
  82 H :   -0.032734
  83 H :    0.042361
  84 H :    0.133488
  85 H :    0.004456
  86 H :    0.001221
  87 H :   -0.040151
  88 H :   -0.004429
  89 H :    0.009059
  90 H :    0.095887
  91 H :    0.100998
  92 H :   -0.002792
  93 H :    0.005434
  94 H :    0.094560
  95 H :    0.099177
  96 H :   -0.035782
  97 H :    0.015767
  98 H :    0.016318
  99 H :    0.036100
 100 H :    0.031586
 101 H :    0.001918
 102 H :    0.031624
 103 H :    0.006992
 104 H :    0.014557
 105 H :    0.022811
 106 H :   -0.021636
Sum of atomic charges:   -0.0000000

LOEWDIN ATOMIC CHARGES
----------------------
   0 C :   -0.079492
   1 C :   -0.139067
   2 C :   -0.033673
   3 C :   -0.026706
   4 C :   -0.178946
   5 S :    0.349266
   6 C :   -0.179067
   7 C :   -0.042013
   8 C :   -0.031244
   9 C :   -0.160520
  10 S :    0.360551
  11 C :   -0.063222
  12 C :   -0.194844
  13 S :    0.469803
  14 C :   -0.182022
  15 C :   -0.058728
  16 C :   -0.043405
  17 N :   -0.053331
  18 C :   -0.009022
  19 C :    0.001103
  20 N :   -0.102434
  21 C :   -0.006826
  22 C :    0.020113
  23 N :   -0.106674
  24 N :   -0.043891
  25 C :   -0.092952
  26 C :    0.020818
  27 N :    0.053945
  28 C :   -0.091831
  29 S :    0.452174
  30 C :   -0.222793
  31 N :    0.274945
  32 O :   -0.231527
  33 O :   -0.252547
  34 C :    0.007427
  35 C :   -0.109434
  36 C :   -0.013745
  37 C :   -0.074254
  38 C :   -0.190279
  39 S :    0.476986
  40 C :   -0.180621
  41 C :   -0.052246
  42 C :   -0.049595
  43 N :   -0.040358
  44 C :    0.003994
  45 C :    0.016065
  46 N :   -0.108864
  47 C :    0.003125
  48 C :    0.014183
  49 N :   -0.110686
  50 N :   -0.037623
  51 C :   -0.055289
  52 C :   -0.005425
  53 C :   -0.063883
  54 C :   -0.168960
  55 S :    0.412727
  56 C :   -0.177967
  57 C :   -0.042340
  58 C :   -0.027866
  59 C :   -0.048888
  60 C :   -0.030145
  61 C :   -0.045355
  62 C :   -0.050696
  63 C :   -0.181640
  64 S :    0.398762
  65 C :   -0.168173
  66 C :   -0.064485
  67 H :    0.028173
  68 H :    0.025535
  69 H :    0.032887
  70 H :    0.032252
  71 H :    0.030159
  72 H :    0.033496
  73 H :    0.041929
  74 H :    0.031929
  75 H :    0.030326
  76 H :    0.048585
  77 H :    0.051504
  78 H :    0.013738
  79 H :    0.028692
  80 H :    0.057701
  81 H :    0.061846
  82 H :    0.025115
  83 H :    0.017999
  84 H :    0.092549
  85 H :    0.044430
  86 H :    0.031632
  87 H :    0.014669
  88 H :    0.010525
  89 H :    0.028532
  90 H :    0.055683
  91 H :    0.058854
  92 H :    0.007437
  93 H :    0.026173
  94 H :    0.054311
  95 H :    0.057777
  96 H :    0.022266
  97 H :    0.029508
  98 H :    0.020529
  99 H :    0.034092
 100 H :    0.036178
 101 H :    0.027662
 102 H :    0.035905
 103 H :    0.027685
 104 H :    0.030769
 105 H :    0.023324
 106 H :    0.027247

  Mayer bond orders larger than 0.100000
B(  0-C ,  1-C ) :   1.8600 B(  0-C , 67-H ) :   0.9509 B(  0-C , 68-H ) :   0.9416
B(  1-C ,  2-C ) :   1.0815 B(  1-C ,  5-S ) :   1.0088 B(  2-C ,  3-C ) :   1.6537
B(  2-C , 69-H ) :   0.9937 B(  3-C ,  4-C ) :   1.1597 B(  3-C , 70-H ) :   0.9916
B(  4-C ,  5-S ) :   1.0436 B(  4-C ,  6-C ) :   1.5440 B(  6-C ,  7-C ) :   1.1805
B(  6-C , 10-S ) :   1.0363 B(  7-C ,  8-C ) :   1.5861 B(  7-C , 71-H ) :   0.9921
B(  8-C ,  9-C ) :   1.1567 B(  8-C , 72-H ) :   1.0005 B(  9-C , 10-S ) :   1.0316
B(  9-C , 11-C ) :   1.5011 B( 11-C , 12-C ) :   1.2616 B( 11-C , 73-H ) :   0.9694
B( 12-C , 13-S ) :   1.1082 B( 12-C , 14-C ) :   0.1199 B( 12-C , 16-C ) :   1.2998
B( 13-S , 14-C ) :   1.1442 B( 14-C , 15-C ) :   1.3047 B( 14-C , 25-C ) :   1.1902
B( 15-C , 16-C ) :   1.2443 B( 15-C , 24-N ) :   1.3601 B( 16-C , 17-N ) :   1.4267
B( 17-N , 18-C ) :   1.7114 B( 18-C , 19-C ) :   0.9807 B( 18-C , 21-C ) :   1.1346
B( 19-C , 20-N ) :   1.1589 B( 19-C , 74-H ) :   0.9059 B( 19-C , 75-H ) :   0.9192
B( 20-N , 76-H ) :   0.9753 B( 20-N , 77-H ) :   0.9805 B( 21-C , 22-C ) :   1.0735
B( 21-C , 24-N ) :   1.7211 B( 22-C , 23-N ) :   1.0751 B( 22-C , 78-H ) :   0.9195
B( 22-C , 79-H ) :   0.9049 B( 23-N , 80-H ) :   0.9687 B( 23-N , 81-H ) :   0.9688
B( 24-N , 83-H ) :   0.1138 B( 25-C , 26-C ) :   1.6484 B( 25-C , 82-H ) :   0.9522
B( 26-C , 27-N ) :   1.1114 B( 26-C , 83-H ) :   0.9190 B( 27-N , 28-C ) :   1.2478
B( 27-N , 84-H ) :   0.9086 B( 28-C , 29-S ) :   1.1386 B( 28-C , 35-C ) :   1.3193
B( 29-S , 30-C ) :   1.0537 B( 30-C , 31-N ) :   0.9969 B( 30-C , 34-C ) :   1.4585
B( 31-N , 32-O ) :   1.5201 B( 31-N , 33-O ) :   1.4905 B( 32-O , 33-O ) :   0.2461
B( 34-C , 35-C ) :   1.2368 B( 34-C , 85-H ) :   1.0099 B( 35-C , 36-C ) :   1.0812
B( 36-C , 37-C ) :   1.6696 B( 36-C , 86-H ) :   0.9459 B( 37-C , 38-C ) :   1.1596
B( 37-C , 87-H ) :   0.9350 B( 38-C , 39-S ) :   1.1447 B( 38-C , 40-C ) :   0.1271
B( 38-C , 42-C ) :   1.3507 B( 39-S , 40-C ) :   1.1549 B( 40-C , 41-C ) :   1.3433
B( 40-C , 51-C ) :   1.1334 B( 41-C , 42-C ) :   1.2231 B( 41-C , 50-N ) :   1.3652
B( 42-C , 43-N ) :   1.3619 B( 43-N , 44-C ) :   1.7361 B( 44-C , 45-C ) :   1.0664
B( 44-C , 47-C ) :   1.1247 B( 45-C , 46-N ) :   1.0763 B( 45-C , 88-H ) :   0.9151
B( 45-C , 89-H ) :   0.8810 B( 46-N , 90-H ) :   0.9677 B( 46-N , 91-H ) :   0.9701
B( 47-C , 48-C ) :   1.0653 B( 47-C , 50-N ) :   1.7323 B( 48-C , 49-N ) :   1.0824
B( 48-C , 92-H ) :   0.9081 B( 48-C , 93-H ) :   0.8760 B( 49-N , 94-H ) :   0.9682
B( 49-N , 95-H ) :   0.9704 B( 51-C , 52-C ) :   1.7192 B( 51-C , 96-H ) :   0.9525
B( 52-C , 53-C ) :   1.0336 B( 52-C , 97-H ) :   0.9432 B( 53-C , 54-C ) :   1.5951
B( 53-C , 57-C ) :   1.1363 B( 54-C , 55-S ) :   1.1189 B( 54-C , 98-H ) :   0.9594
B( 55-S , 56-C ) :   1.0748 B( 56-C , 57-C ) :   1.3717 B( 56-C , 63-C ) :   1.3874
B( 57-C , 58-C ) :   1.2694 B( 58-C , 59-C ) :   1.0973 B( 58-C , 60-C ) :   1.5151
B( 59-C , 99-H ) :   0.9397 B( 59-C ,100-H ) :   0.9426 B( 59-C ,101-H ) :   0.9324
B( 60-C , 61-C ) :   1.0962 B( 60-C , 62-C ) :   1.2615 B( 61-C ,102-H ) :   0.9434
B( 61-C ,103-H ) :   0.9465 B( 61-C ,104-H ) :   0.9450 B( 62-C , 63-C ) :   1.3776
B( 62-C , 66-C ) :   1.1778 B( 63-C , 64-S ) :   1.0727 B( 64-S , 65-C ) :   1.1153
B( 65-C , 66-C ) :   1.6480 B( 65-C ,105-H ) :   0.9666 B( 66-C ,106-H ) :   0.9904

-----------------------------------------------------------------------------
         ABSORPTION SPECTRUM VIA TRANSITION ELECTRIC DIPOLE MOMENTS
-----------------------------------------------------------------------------
State   Energy  Wavelength   fosc         T2         TX        TY        TZ
        (cm-1)    (nm)                  (au**2)     (au)      (au)      (au)
-----------------------------------------------------------------------------
   0   12238.3    817.1   0.979395189  26.34592   2.99237   3.40807   2.40348
   1   17231.7    580.3   0.859963134  16.42957  -1.73728   0.98542   3.52709
   2   19587.3    510.5   0.087804444   1.47576   0.97070   0.19866  -0.70288
   3   20627.7    484.8   0.289272541   4.61670   0.12529   1.01503   1.88964
   4   21141.6    473.0   0.268276750   4.17753  -1.45076   0.82279   1.18146
   5   21748.6    459.8   0.183029291   2.77055   0.48741   1.05883   1.18822
   6   24320.7    411.2   0.172744232   2.33832  -1.35211   0.34725   0.62412
   7   27000.5    370.4   0.203492754   2.48115   0.94555  -0.37329  -1.20322
   8   27548.2    363.0   0.040570435   0.48483   0.01099  -0.12836  -0.68428
   9   27982.1    357.4   0.009914555   0.11665  -0.14340  -0.27434  -0.14430
  10   28668.5    348.8   0.506383540   5.81500  -1.66022   0.02089   1.74878
  11   28750.2    347.8   0.003962367   0.04537   0.02040   0.14577  -0.15398
  12   29562.6    338.3   0.057408708   0.63931   0.13284   0.25011   0.74774
  13   29647.7    337.3   0.017692830   0.19646  -0.18777   0.14881   0.37291
  14   30357.4    329.4   0.001011546   0.01097  -0.01350   0.04706   0.09259
  15   30447.6    328.4   0.000174745   0.00189   0.00925   0.04160  -0.00859
  16   30721.0    325.5   0.171841447   1.84148   0.38089   0.17979   1.28999
  17   31181.6    320.7   0.102000678   1.07691  -0.31908   0.09520   0.98287
  18   31754.5    314.9   0.066701843   0.69152   0.79349   0.24812  -0.01843
  19   32025.3    312.3   0.210149950   2.16029   0.75291  -0.46151  -1.17491
  20   32444.1    308.2   0.032900622   0.33384   0.16863   0.33266   0.44130
  21   32593.7    306.8   0.001566421   0.01582   0.02665  -0.06406  -0.10492
  22   32917.2    303.8   0.025581112   0.25584   0.27583  -0.01216  -0.42380
  23   33620.6    297.4   0.097208418   0.95186  -0.50466   0.44197   0.70841
  24   33872.1    295.2   0.010681803   0.10382   0.28095  -0.07650  -0.13797
  25   34206.4    292.3   0.002561362   0.02465  -0.10531  -0.08364  -0.08102
  26   34457.2    290.2   0.046718892   0.44636   0.57143  -0.08137  -0.33646
  27   34573.6    289.2   0.079341340   0.75549  -0.78342  -0.12501   0.35512
  28   34811.1    287.3   0.090283060   0.85381   0.81952   0.27448   0.32690
  29   34896.6    286.6   0.163117184   1.53884  -1.21136   0.17816  -0.19928
  30   35498.0    281.7   0.039077850   0.36241   0.06795   0.31458   0.50876
  31   35939.5    278.2   0.072751939   0.66642   0.27957   0.31998   0.69705
  32   36508.8    273.9   0.022342223   0.20147  -0.42098   0.08898   0.12776
  33   36840.7    271.4   0.188676466   1.68603  -0.69841   0.52335   0.96144
  34   37830.0    264.3   0.087338611   0.76006  -0.86666  -0.07042   0.06321
  35   38287.1    261.2   0.068917328   0.59259  -0.45881   0.18181  -0.59078
  36   38393.9    260.5   0.239363320   2.05244  -0.11423   0.64069   1.27629
  37   38642.6    258.8   0.001602072   0.01365  -0.10802  -0.04427  -0.00446
  38   38868.6    257.3   0.070687844   0.59872   0.01606   0.28578   0.71888
  39   39278.3    254.6   0.001469944   0.01232  -0.10073  -0.03679  -0.02864
  40   39336.4    254.2   0.020198373   0.16904   0.38642  -0.01011   0.14008
  41   39527.4    253.0   0.150118568   1.25029  -0.41856   0.20153   1.01710
  42   39607.6    252.5   0.147683425   1.22752  -0.56096  -0.61538  -0.73086
  43   39765.8    251.5   0.008406388   0.06959  -0.26026   0.03430  -0.02613
  44   40109.1    249.3   0.005348581   0.04390  -0.00073  -0.07959  -0.19382

FINAL SINGLE POINT ENERGY     -5334.263871975045

DIPOLE MOMENT
-------------
                                X             Y             Z
Electronic contribution:     30.18395       1.54363      19.19935
Nuclear contribution   :    -31.33044      -0.12537     -17.56000
                        -----------------------------------------
Total Dipole Moment    :     -1.14649       1.41826       1.63935
                        -----------------------------------------
Magnitude (a.u.)       :      2.45221
Magnitude (Debye)      :      6.23303

Rotational constants in cm-1:     0.000837     0.000336     0.000246
Rotational constants in MHz :    25.095452    10.063240     7.389326

                             ****ORCA TERMINATED NORMALLY****
TOTAL RUN TIME: 0 days 0 hours 19 minutes 44 seconds 848 msec
