                         Program Version 4.2.0 -  RELEASE  -
|  1> # ORCA input file
|  2> # SCF done       -197.669707234119          0.000701700594
|  3> ! CAM-B3LYP def2-SVP def2/J RIJCOSX Grid4 TightSCF
|  4> %maxcore 5000
|  5> %tddft
|  6>     Mode sTDDFT
|  7>     Ethresh 5.0
|  8>     maxcore 5000
|  9> end
| 10>
| 11> %pal
| 12>   nprocs 6
| 13>   end
| 14> * xyz 0 1
| 15>    C      -10.66117        -3.21297        -0.86453
| 16>    C      -10.73212        -4.03508         0.22392
| 17>    C      -11.60658        -5.13984         0.32717
| 18>    N      -12.28929        -6.05140         0.46694
| 19>    C       -9.96200        -3.90245         1.40098
| 20>    N       -9.38741        -3.86261         2.39339
| 21>    C      -11.48120        -3.30972        -2.06317
| 22>    C      -11.14948        -2.24698        -2.94055
| 23>    C      -11.76702        -2.06750        -4.15547
| 24>    C      -12.76182        -2.97761        -4.52387
| 25>    C      -13.08606        -4.03876        -3.64282
| 26>    C      -12.46141        -4.22147        -2.41662
| 27>    S      -14.34015        -5.04887        -4.29467
| 28>    C      -14.41263        -4.04672        -5.71987
| 29>    C      -13.54269        -3.00829        -5.71096
| 30>   Br      -15.62756        -4.46547        -7.08449
| 31>    C      -10.08360        -1.42605        -2.34311
| 32>    O       -9.53330        -0.47360        -2.85044
| 33>    C       -9.78709        -2.05152        -1.02189
| 34>    C       -8.84527        -1.60603        -0.17331
| 35>    C       -8.11467        -0.32697        -0.39100
| 36>    C       -9.01000         0.83826        -0.06676
| 37>    N      -10.31879         0.82014        -0.16148
| 38>    S      -10.89952         2.27470         0.27941
| 39>    N       -9.46442         2.95453         0.61959
| 40>    C       -8.50979         2.08382         0.39493
| 41>    C       -7.04630         2.36587         0.55812
| 42>    C       -6.38345         1.06940         0.88576
| 43>    C       -6.87866        -0.18399         0.43429
| 44>    N       -6.13425        -1.19224         0.82887
| 45>    S       -4.89324        -0.62386         1.70963
| 46>    N       -5.28873         0.94806         1.59973
| 47>    C       -6.54550         2.90985        -0.75465
| 48>    C       -6.80340         4.16037        -1.17728
| 49>    C       -6.40547         4.74432        -2.42639
| 50>    C       -6.82122         6.01645        -2.59997
| 51>    C       -7.57945         6.53699        -1.51047
| 52>    S       -7.72139         5.33721        -0.23753
| 53>    C       -8.17125         7.76808        -1.41778
| 54>    C       -8.16843         8.81298        -2.38676
| 55>    C       -8.87377         9.90659        -2.02664
| 56>    C       -9.48135         9.81360        -0.73022
| 57>    S       -9.10870         8.24575        -0.01228
| 58>    C      -10.22214        10.75361        -0.11736
| 59>    C      -10.84548        10.55804         1.23864
| 60>    C      -12.24831        10.07917         1.02098
| 61>    N      -12.58290         8.81912         0.87154
| 62>    S      -14.18218         8.71359         0.61639
| 63>    N      -14.48524        10.31087         0.68749
| 64>    C      -13.36188        10.95499         0.91234
| 65>    C      -13.23236        12.44726         1.01312
| 66>    C      -12.03887        12.73062         1.87184
| 67>    C      -10.92827        11.85303         1.97684
| 68>    N       -9.99710        12.31468         2.77963
| 69>    S      -10.46745        13.75341         3.36805
| 70>    N      -11.89480        13.81560         2.59837
| 71>    C      -13.01000        13.00682        -0.36113
| 72>    C      -13.65102        12.73837        -1.50976
| 73>    C      -14.83650        11.95703        -1.84343
| 74>    C      -15.96283        11.81787        -1.08523
| 75>    C      -17.08690        11.05852        -1.47422
| 76>    N      -18.01611        10.44165        -1.74247
| 77>    C      -16.16492        12.49858         0.13256
| 78>    N      -16.37272        13.10064         1.08627
| 79>    C      -14.69096        11.53244        -3.22961
| 80>    C      -13.60688        12.23470        -3.81612
| 81>    C      -12.95740        13.07554        -2.79704
| 82>    O      -12.01522        13.81821        -2.93160
| 83>    C      -13.26236        12.08816        -5.13955
| 84>    C      -14.01427        11.20147        -5.91564
| 85>    C      -15.08262        10.49000        -5.31538
| 86>    C      -15.43603        10.64215        -3.98091
| 87>    S      -15.86922         9.43955        -6.45262
| 88>    C      -14.77525         9.96809        -7.70467
| 89>    C      -13.86310        10.88042        -7.29256
| 90>   Br      -14.93531         9.25807        -9.43205
| 91>    H      -11.49150        -1.24712        -4.79945
| 92>    H      -12.74290        -5.04616        -1.78357
| 93>    H      -13.45430        -2.29305        -6.50817
| 94>    H       -8.61120        -2.13232         0.74058
| 95>    H       -7.85975        -0.23849        -1.45924
| 96>    H       -6.89163         3.10744         1.34815
| 97>    H       -6.00063         2.23452        -1.39772
| 98>    H       -5.82705         4.18152        -3.13734
| 99>    H       -6.61479         6.60769        -3.47429
|100>    H       -7.64206         8.71202        -3.31926
|101>    H       -8.98940        10.79275        -2.62548
|102>    H      -10.42937        11.68313        -0.62835
|103>    H      -10.27057         9.81559         1.79913
|104>    H      -14.13065        12.88294         1.46549
|105>    H      -12.13230        13.63803        -0.46620
|106>    H      -12.44088        12.64456        -5.56297
|107>    H      -16.25342        10.07718        -3.56436
|108>    H      -13.11440        11.31134        -7.93185
|109> *
|110>
|111>                          ****END OF INPUT****

CARTESIAN COORDINATES (ANGSTROEM)
---------------------------------
  C    -10.661170   -3.212970   -0.864530
  C    -10.732120   -4.035080    0.223920
  C    -11.606580   -5.139840    0.327170
  N    -12.289290   -6.051400    0.466940
  C     -9.962000   -3.902450    1.400980
  N     -9.387410   -3.862610    2.393390
  C    -11.481200   -3.309720   -2.063170
  C    -11.149480   -2.246980   -2.940550
  C    -11.767020   -2.067500   -4.155470
  C    -12.761820   -2.977610   -4.523870
  C    -13.086060   -4.038760   -3.642820
  C    -12.461410   -4.221470   -2.416620
  S    -14.340150   -5.048870   -4.294670
  C    -14.412630   -4.046720   -5.719870
  C    -13.542690   -3.008290   -5.710960
  Br   -15.627560   -4.465470   -7.084490
  C    -10.083600   -1.426050   -2.343110
  O     -9.533300   -0.473600   -2.850440
  C     -9.787090   -2.051520   -1.021890
  C     -8.845270   -1.606030   -0.173310
  C     -8.114670   -0.326970   -0.391000
  C     -9.010000    0.838260   -0.066760
  N    -10.318790    0.820140   -0.161480
  S    -10.899520    2.274700    0.279410
  N     -9.464420    2.954530    0.619590
  C     -8.509790    2.083820    0.394930
  C     -7.046300    2.365870    0.558120
  C     -6.383450    1.069400    0.885760
  C     -6.878660   -0.183990    0.434290
  N     -6.134250   -1.192240    0.828870
  S     -4.893240   -0.623860    1.709630
  N     -5.288730    0.948060    1.599730
  C     -6.545500    2.909850   -0.754650
  C     -6.803400    4.160370   -1.177280
  C     -6.405470    4.744320   -2.426390
  C     -6.821220    6.016450   -2.599970
  C     -7.579450    6.536990   -1.510470
  S     -7.721390    5.337210   -0.237530
  C     -8.171250    7.768080   -1.417780
  C     -8.168430    8.812980   -2.386760
  C     -8.873770    9.906590   -2.026640
  C     -9.481350    9.813600   -0.730220
  S     -9.108700    8.245750   -0.012280
  C    -10.222140   10.753610   -0.117360
  C    -10.845480   10.558040    1.238640
  C    -12.248310   10.079170    1.020980
  N    -12.582900    8.819120    0.871540
  S    -14.182180    8.713590    0.616390
  N    -14.485240   10.310870    0.687490
  C    -13.361880   10.954990    0.912340
  C    -13.232360   12.447260    1.013120
  C    -12.038870   12.730620    1.871840
  C    -10.928270   11.853030    1.976840
  N     -9.997100   12.314680    2.779630
  S    -10.467450   13.753410    3.368050
  N    -11.894800   13.815600    2.598370
  C    -13.010000   13.006820   -0.361130
  C    -13.651020   12.738370   -1.509760
  C    -14.836500   11.957030   -1.843430
  C    -15.962830   11.817870   -1.085230
  C    -17.086900   11.058520   -1.474220
  N    -18.016110   10.441650   -1.742470
  C    -16.164920   12.498580    0.132560
  N    -16.372720   13.100640    1.086270
  C    -14.690960   11.532440   -3.229610
  C    -13.606880   12.234700   -3.816120
  C    -12.957400   13.075540   -2.797040
  O    -12.015220   13.818210   -2.931600
  C    -13.262360   12.088160   -5.139550
  C    -14.014270   11.201470   -5.915640
  C    -15.082620   10.490000   -5.315380
  C    -15.436030   10.642150   -3.980910
  S    -15.869220    9.439550   -6.452620
  C    -14.775250    9.968090   -7.704670
  C    -13.863100   10.880420   -7.292560
  Br   -14.935310    9.258070   -9.432050
  H    -11.491500   -1.247120   -4.799450
  H    -12.742900   -5.046160   -1.783570
  H    -13.454300   -2.293050   -6.508170
  H     -8.611200   -2.132320    0.740580
  H     -7.859750   -0.238490   -1.459240
  H     -6.891630    3.107440    1.348150
  H     -6.000630    2.234520   -1.397720
  H     -5.827050    4.181520   -3.137340
  H     -6.614790    6.607690   -3.474290
  H     -7.642060    8.712020   -3.319260
  H     -8.989400   10.792750   -2.625480
  H    -10.429370   11.683130   -0.628350
  H    -10.270570    9.815590    1.799130
  H    -14.130650   12.882940    1.465490
  H    -12.132300   13.638030   -0.466200
  H    -12.440880   12.644560   -5.562970
  H    -16.253420   10.077180   -3.564360
  H    -13.114400   11.311340   -7.931850

 Total Charge           Charge          ....    0
 Multiplicity           Mult            ....    1
 Number of Electrons    NEL             ....  628
 Basis Dimension        Dim             .... 1222

ORBITAL ENERGIES
----------------

  NO   OCC          E(Eh)            E(eV)
   0   2.0000    -482.892316    -13140.1680
   1   2.0000    -482.890407    -13140.1160
   2   2.0000     -89.014392     -2422.2047
   3   2.0000     -89.012247     -2422.1464
   4   2.0000     -89.010482     -2422.0984
   5   2.0000     -89.007388     -2422.0142
   6   2.0000     -88.983243     -2421.3571
   7   2.0000     -88.981046     -2421.2973
   8   2.0000     -88.943980     -2420.2887
   9   2.0000     -88.942780     -2420.2561
  10   2.0000     -62.570057     -1702.6178
  11   2.0000     -62.568147     -1702.5658
  12   2.0000     -56.404012     -1534.8312
  13   2.0000     -56.402102     -1534.7792
  14   2.0000     -56.401285     -1534.7570
  15   2.0000     -56.401257     -1534.7562
  16   2.0000     -56.399374     -1534.7050
  17   2.0000     -56.399345     -1534.7042
  18   2.0000     -19.228188      -523.2256
  19   2.0000     -19.225842      -523.1618
  20   2.0000     -14.445628      -393.0855
  21   2.0000     -14.442086      -392.9891
  22   2.0000     -14.441316      -392.9682
  23   2.0000     -14.441161      -392.9640
  24   2.0000     -14.440556      -392.9475
  25   2.0000     -14.439935      -392.9306
  26   2.0000     -14.438288      -392.8858
  27   2.0000     -14.435421      -392.8078
  28   2.0000     -14.425941      -392.5498
  29   2.0000     -14.421322      -392.4241
  30   2.0000     -14.420807      -392.4101
  31   2.0000     -14.420207      -392.3938
  32   2.0000     -10.378575      -282.4154
  33   2.0000     -10.374957      -282.3169
  34   2.0000     -10.366298      -282.0813
  35   2.0000     -10.364677      -282.0372
  36   2.0000     -10.354521      -281.7608
  37   2.0000     -10.350046      -281.6391
  38   2.0000     -10.347256      -281.5632
  39   2.0000     -10.347145      -281.5601
  40   2.0000     -10.337139      -281.2879
  41   2.0000     -10.334930      -281.2277
  42   2.0000     -10.332933      -281.1734
  43   2.0000     -10.331956      -281.1468
  44   2.0000     -10.331540      -281.1355
  45   2.0000     -10.331207      -281.1264
  46   2.0000     -10.330611      -281.1102
  47   2.0000     -10.330291      -281.1015
  48   2.0000     -10.329216      -281.0723
  49   2.0000     -10.327765      -281.0328
  50   2.0000     -10.327521      -281.0261
  51   2.0000     -10.327066      -281.0137
  52   2.0000     -10.323500      -280.9167
  53   2.0000     -10.322892      -280.9002
  54   2.0000     -10.322019      -280.8764
  55   2.0000     -10.320363      -280.8314
  56   2.0000     -10.318403      -280.7780
  57   2.0000     -10.318133      -280.7707
  58   2.0000     -10.315959      -280.7115
  59   2.0000     -10.314869      -280.6818
  60   2.0000     -10.314101      -280.6610
  61   2.0000     -10.313802      -280.6528
  62   2.0000     -10.313666      -280.6491
  63   2.0000     -10.312747      -280.6241
  64   2.0000     -10.312154      -280.6080
  65   2.0000     -10.311686      -280.5952
  66   2.0000     -10.311668      -280.5947
  67   2.0000     -10.311175      -280.5813
  68   2.0000     -10.311138      -280.5803
  69   2.0000     -10.311037      -280.5776
  70   2.0000     -10.310620      -280.5662
  71   2.0000     -10.308857      -280.5183
  72   2.0000     -10.307417      -280.4791
  73   2.0000     -10.304346      -280.3955
  74   2.0000     -10.304003      -280.3862
  75   2.0000     -10.302661      -280.3496
  76   2.0000     -10.302137      -280.3354
  77   2.0000     -10.298750      -280.2432
  78   2.0000     -10.293808      -280.1088
  79   2.0000     -10.292403      -280.0705
  80   2.0000     -10.289650      -279.9956
  81   2.0000     -10.288959      -279.9768
  82   2.0000     -10.288745      -279.9710
  83   2.0000     -10.287315      -279.9321
  84   2.0000      -8.799503      -239.4467
  85   2.0000      -8.797596      -239.3947
  86   2.0000      -8.107046      -220.6039
  87   2.0000      -8.105093      -220.5508
  88   2.0000      -8.103379      -220.5042
  89   2.0000      -8.100068      -220.4140
  90   2.0000      -8.079292      -219.8487
  91   2.0000      -8.077048      -219.7876
  92   2.0000      -8.040247      -218.7862
  93   2.0000      -8.038673      -218.7434
  94   2.0000      -6.635844      -180.5705
  95   2.0000      -6.633935      -180.5186
  96   2.0000      -6.621220      -180.1726
  97   2.0000      -6.621015      -180.1670
  98   2.0000      -6.619324      -180.1210
  99   2.0000      -6.619097      -180.1148
 100   2.0000      -6.078749      -165.4112
 101   2.0000      -6.076723      -165.3560
 102   2.0000      -6.075056      -165.3107
 103   2.0000      -6.071799      -165.2221
 104   2.0000      -6.071104      -165.2031
 105   2.0000      -6.069066      -165.1477
 106   2.0000      -6.068102      -165.1215
 107   2.0000      -6.067411      -165.1026
 108   2.0000      -6.066282      -165.0719
 109   2.0000      -6.064427      -165.0215
 110   2.0000      -6.064164      -165.0143
 111   2.0000      -6.061079      -164.9303
 112   2.0000      -6.048973      -164.6009
 113   2.0000      -6.046732      -164.5399
 114   2.0000      -6.044711      -164.4850
 115   2.0000      -6.042460      -164.4237
 116   2.0000      -6.040495      -164.3702
 117   2.0000      -6.038260      -164.3094
 118   2.0000      -6.010106      -163.5433
 119   2.0000      -6.008490      -163.4993
 120   2.0000      -6.006097      -163.4342
 121   2.0000      -6.004472      -163.3900
 122   2.0000      -6.000818      -163.2906
 123   2.0000      -5.999347      -163.2505
 124   2.0000      -2.751688       -74.8772
 125   2.0000      -2.749770       -74.8250
 126   2.0000      -2.747613       -74.7664
 127   2.0000      -2.747459       -74.7621
 128   2.0000      -2.745724       -74.7150
 129   2.0000      -2.745540       -74.7099
 130   2.0000      -2.735842       -74.4461
 131   2.0000      -2.735822       -74.4455
 132   2.0000      -2.733934       -74.3941
 133   2.0000      -2.733907       -74.3934
 134   2.0000      -1.144036       -31.1308
 135   2.0000      -1.140695       -31.0399
 136   2.0000      -1.128853       -30.7176
 137   2.0000      -1.124984       -30.6124
 138   2.0000      -1.123304       -30.5667
 139   2.0000      -1.119160       -30.4539
 140   2.0000      -1.031616       -28.0717
 141   2.0000      -1.028588       -27.9893
 142   2.0000      -1.021311       -27.7913
 143   2.0000      -1.018767       -27.7221
 144   2.0000      -1.003059       -27.2946
 145   2.0000      -0.999183       -27.1891
 146   2.0000      -0.998270       -27.1643
 147   2.0000      -0.997406       -27.1408
 148   2.0000      -0.995679       -27.0938
 149   2.0000      -0.989853       -26.9353
 150   2.0000      -0.987440       -26.8696
 151   2.0000      -0.977490       -26.5989
 152   2.0000      -0.976936       -26.5838
 153   2.0000      -0.973955       -26.5027
 154   2.0000      -0.966930       -26.3115
 155   2.0000      -0.960489       -26.1362
 156   2.0000      -0.948388       -25.8069
 157   2.0000      -0.946297       -25.7500
 158   2.0000      -0.917247       -24.9596
 159   2.0000      -0.914328       -24.8801
 160   2.0000      -0.912203       -24.8223
 161   2.0000      -0.907990       -24.7077
 162   2.0000      -0.894500       -24.3406
 163   2.0000      -0.893346       -24.3092
 164   2.0000      -0.891907       -24.2700
 165   2.0000      -0.883859       -24.0510
 166   2.0000      -0.870972       -23.7004
 167   2.0000      -0.866768       -23.5860
 168   2.0000      -0.863037       -23.4844
 169   2.0000      -0.857433       -23.3319
 170   2.0000      -0.850905       -23.1543
 171   2.0000      -0.838357       -22.8128
 172   2.0000      -0.835829       -22.7441
 173   2.0000      -0.833662       -22.6851
 174   2.0000      -0.827131       -22.5074
 175   2.0000      -0.819043       -22.2873
 176   2.0000      -0.803034       -21.8517
 177   2.0000      -0.791360       -21.5340
 178   2.0000      -0.774999       -21.0888
 179   2.0000      -0.770369       -20.9628
 180   2.0000      -0.763582       -20.7781
 181   2.0000      -0.761152       -20.7120
 182   2.0000      -0.758626       -20.6433
 183   2.0000      -0.726034       -19.7564
 184   2.0000      -0.720581       -19.6080
 185   2.0000      -0.714470       -19.4417
 186   2.0000      -0.706770       -19.2322
 187   2.0000      -0.698549       -19.0085
 188   2.0000      -0.698150       -18.9976
 189   2.0000      -0.696144       -18.9430
 190   2.0000      -0.691781       -18.8243
 191   2.0000      -0.688434       -18.7332
 192   2.0000      -0.680915       -18.5286
 193   2.0000      -0.676851       -18.4181
 194   2.0000      -0.673970       -18.3396
 195   2.0000      -0.671069       -18.2607
 196   2.0000      -0.669942       -18.2301
 197   2.0000      -0.661252       -17.9936
 198   2.0000      -0.660457       -17.9720
 199   2.0000      -0.645962       -17.5775
 200   2.0000      -0.634481       -17.2651
 201   2.0000      -0.633740       -17.2449
 202   2.0000      -0.631365       -17.1803
 203   2.0000      -0.628372       -17.0989
 204   2.0000      -0.626021       -17.0349
 205   2.0000      -0.622639       -16.9429
 206   2.0000      -0.618469       -16.8294
 207   2.0000      -0.615489       -16.7483
 208   2.0000      -0.613672       -16.6989
 209   2.0000      -0.606127       -16.4936
 210   2.0000      -0.601690       -16.3728
 211   2.0000      -0.597703       -16.2643
 212   2.0000      -0.593470       -16.1492
 213   2.0000      -0.585604       -15.9351
 214   2.0000      -0.577669       -15.7192
 215   2.0000      -0.573538       -15.6068
 216   2.0000      -0.564202       -15.3527
 217   2.0000      -0.559097       -15.2138
 218   2.0000      -0.557898       -15.1812
 219   2.0000      -0.555482       -15.1154
 220   2.0000      -0.551606       -15.0100
 221   2.0000      -0.548857       -14.9351
 222   2.0000      -0.546887       -14.8815
 223   2.0000      -0.544160       -14.8073
 224   2.0000      -0.543228       -14.7820
 225   2.0000      -0.541462       -14.7339
 226   2.0000      -0.537966       -14.6388
 227   2.0000      -0.536995       -14.6124
 228   2.0000      -0.535135       -14.5618
 229   2.0000      -0.531308       -14.4576
 230   2.0000      -0.529412       -14.4060
 231   2.0000      -0.525504       -14.2997
 232   2.0000      -0.521808       -14.1991
 233   2.0000      -0.517427       -14.0799
 234   2.0000      -0.516682       -14.0596
 235   2.0000      -0.515073       -14.0159
 236   2.0000      -0.514165       -13.9911
 237   2.0000      -0.512756       -13.9528
 238   2.0000      -0.509641       -13.8680
 239   2.0000      -0.506822       -13.7913
 240   2.0000      -0.505965       -13.7680
 241   2.0000      -0.502935       -13.6856
 242   2.0000      -0.499423       -13.5900
 243   2.0000      -0.497472       -13.5369
 244   2.0000      -0.496627       -13.5139
 245   2.0000      -0.494309       -13.4508
 246   2.0000      -0.490880       -13.3575
 247   2.0000      -0.488747       -13.2995
 248   2.0000      -0.486024       -13.2254
 249   2.0000      -0.483732       -13.1630
 250   2.0000      -0.479201       -13.0397
 251   2.0000      -0.477974       -13.0063
 252   2.0000      -0.472830       -12.8664
 253   2.0000      -0.471934       -12.8420
 254   2.0000      -0.466273       -12.6879
 255   2.0000      -0.464223       -12.6321
 256   2.0000      -0.461684       -12.5631
 257   2.0000      -0.460077       -12.5193
 258   2.0000      -0.457252       -12.4424
 259   2.0000      -0.455815       -12.4034
 260   2.0000      -0.454860       -12.3774
 261   2.0000      -0.453714       -12.3462
 262   2.0000      -0.453218       -12.3327
 263   2.0000      -0.452472       -12.3124
 264   2.0000      -0.450648       -12.2628
 265   2.0000      -0.448375       -12.2009
 266   2.0000      -0.446484       -12.1495
 267   2.0000      -0.444331       -12.0909
 268   2.0000      -0.435811       -11.8590
 269   2.0000      -0.434525       -11.8240
 270   2.0000      -0.432342       -11.7646
 271   2.0000      -0.431944       -11.7538
 272   2.0000      -0.428878       -11.6704
 273   2.0000      -0.426020       -11.5926
 274   2.0000      -0.420389       -11.4394
 275   2.0000      -0.420233       -11.4351
 276   2.0000      -0.419005       -11.4017
 277   2.0000      -0.413846       -11.2613
 278   2.0000      -0.413014       -11.2387
 279   2.0000      -0.409856       -11.1527
 280   2.0000      -0.404569       -11.0089
 281   2.0000      -0.398161       -10.8345
 282   2.0000      -0.396762       -10.7964
 283   2.0000      -0.394257       -10.7283
 284   2.0000      -0.393796       -10.7157
 285   2.0000      -0.392981       -10.6936
 286   2.0000      -0.391165       -10.6441
 287   2.0000      -0.384928       -10.4744
 288   2.0000      -0.382749       -10.4151
 289   2.0000      -0.381707       -10.3868
 290   2.0000      -0.379755       -10.3336
 291   2.0000      -0.378669       -10.3041
 292   2.0000      -0.376787       -10.2529
 293   2.0000      -0.375150       -10.2083
 294   2.0000      -0.370674       -10.0865
 295   2.0000      -0.369121       -10.0443
 296   2.0000      -0.368065       -10.0155
 297   2.0000      -0.364273        -9.9124
 298   2.0000      -0.354871        -9.6565
 299   2.0000      -0.348999        -9.4968
 300   2.0000      -0.344124        -9.3641
 301   2.0000      -0.340006        -9.2520
 302   2.0000      -0.339697        -9.2436
 303   2.0000      -0.338654        -9.2152
 304   2.0000      -0.335228        -9.1220
 305   2.0000      -0.331060        -9.0086
 306   2.0000      -0.327728        -8.9179
 307   2.0000      -0.325825        -8.8662
 308   2.0000      -0.323324        -8.7981
 309   2.0000      -0.321142        -8.7387
 310   2.0000      -0.310216        -8.4414
 311   2.0000      -0.299634        -8.1534
 312   2.0000      -0.298639        -8.1264
 313   2.0000      -0.231562        -6.3011
 314   0.0000      -0.088521        -2.4088
 315   0.0000      -0.088158        -2.3989
 316   0.0000      -0.064216        -1.7474
 317   0.0000      -0.061251        -1.6667
 318   0.0000      -0.058021        -1.5788

MULLIKEN ATOMIC CHARGES
-----------------------
   0 C :    0.328970
   1 C :   -0.342277
   2 C :   -0.186660
   3 N :    0.155449
   4 C :   -0.197432
   5 N :    0.166850
   6 C :    0.012314
   7 C :   -0.012569
   8 C :   -0.069292
   9 C :    0.119972
  10 C :   -0.088953
  11 C :   -0.020251
  12 S :    0.190778
  13 C :   -0.123676
  14 C :    0.038108
  15 Br:    0.028554
  16 C :    0.154402
  17 O :   -0.151292
  18 C :    0.009541
  19 C :   -0.109692
  20 C :    0.300366
  21 C :   -0.132517
  22 N :   -0.275352
  23 S :    0.458218
  24 N :   -0.260431
  25 C :   -0.029505
  26 C :    0.152436
  27 C :   -0.062842
  28 C :   -0.139276
  29 N :   -0.279217
  30 S :    0.462021
  31 N :   -0.252097
  32 C :   -0.081649
  33 C :    0.019314
  34 C :    0.050391
  35 C :    0.027001
  36 C :   -0.054958
  37 S :    0.104988
  38 C :   -0.051069
  39 C :    0.030728
  40 C :    0.040449
  41 C :    0.005620
  42 S :    0.087233
  43 C :   -0.056990
  44 C :    0.167381
  45 C :   -0.065466
  46 N :   -0.255817
  47 S :    0.464809
  48 N :   -0.288521
  49 C :   -0.096833
  50 C :    0.283936
  51 C :   -0.132433
  52 C :   -0.081191
  53 N :   -0.255151
  54 S :    0.462825
  55 N :   -0.260386
  56 C :   -0.087884
  57 C :   -0.037805
  58 C :    0.248383
  59 C :   -0.284731
  60 C :   -0.191289
  61 N :    0.160478
  62 C :   -0.134427
  63 N :    0.142090
  64 C :    0.010964
  65 C :   -0.005276
  66 C :    0.139328
  67 O :   -0.137846
  68 C :   -0.069077
  69 C :    0.113447
  70 C :   -0.084355
  71 C :   -0.024024
  72 S :    0.189632
  73 C :   -0.124686
  74 C :    0.040103
  75 Br:    0.027518
  76 H :   -0.009429
  77 H :   -0.006027
  78 H :   -0.000810
  79 H :    0.032301
  80 H :    0.070889
  81 H :    0.033652
  82 H :   -0.000809
  83 H :   -0.011180
  84 H :   -0.013587
  85 H :   -0.013260
  86 H :   -0.007603
  87 H :   -0.007019
  88 H :    0.036061
  89 H :    0.061121
  90 H :    0.048464
  91 H :   -0.007780
  92 H :   -0.002344
  93 H :   -0.002045
Sum of atomic charges:   -0.0000000

LOEWDIN ATOMIC CHARGES
----------------------
   0 C :    0.078175
   1 C :   -0.127154
   2 C :   -0.016831
   3 N :   -0.046787
   4 C :   -0.020450
   5 N :   -0.039254
   6 C :   -0.020169
   7 C :   -0.049822
   8 C :    0.024320
   9 C :   -0.030758
  10 C :   -0.142013
  11 C :   -0.007789
  12 S :    0.435955
  13 C :   -0.269882
  14 C :   -0.070626
  15 Br:    0.140692
  16 C :    0.093459
  17 O :   -0.137334
  18 C :   -0.073582
  19 C :    0.100698
  20 C :   -0.038056
  21 C :   -0.042421
  22 N :   -0.268204
  23 S :    0.585309
  24 N :   -0.267120
  25 C :   -0.049089
  26 C :   -0.031913
  27 C :   -0.049853
  28 C :   -0.054867
  29 N :   -0.269155
  30 S :    0.590160
  31 N :   -0.260873
  32 C :   -0.058628
  33 C :   -0.134420
  34 C :   -0.027942
  35 C :   -0.027588
  36 C :   -0.178789
  37 S :    0.384724
  38 C :   -0.177669
  39 C :   -0.025405
  40 C :   -0.030039
  41 C :   -0.133754
  42 S :    0.369221
  43 C :   -0.057821
  44 C :   -0.029929
  45 C :   -0.045056
  46 N :   -0.262134
  47 S :    0.587864
  48 N :   -0.260694
  49 C :   -0.045434
  50 C :   -0.033648
  51 C :   -0.057622
  52 C :   -0.050879
  53 N :   -0.261189
  54 S :    0.593610
  55 N :   -0.262658
  56 C :    0.077206
  57 C :   -0.072984
  58 C :    0.058514
  59 C :   -0.109110
  60 C :   -0.015421
  61 N :   -0.041778
  62 C :   -0.006238
  63 N :   -0.043220
  64 C :   -0.014705
  65 C :   -0.057683
  66 C :    0.087876
  67 O :   -0.136995
  68 C :    0.025389
  69 C :   -0.033765
  70 C :   -0.140043
  71 C :   -0.013058
  72 S :    0.435163
  73 C :   -0.271043
  74 C :   -0.069906
  75 Br:    0.139905
  76 H :    0.041513
  77 H :    0.041488
  78 H :    0.039496
  79 H :    0.043959
  80 H :    0.067286
  81 H :    0.053386
  82 H :    0.029370
  83 H :    0.034068
  84 H :    0.031718
  85 H :    0.032264
  86 H :    0.035080
  87 H :    0.027072
  88 H :    0.050462
  89 H :    0.069681
  90 H :    0.043616
  91 H :    0.041861
  92 H :    0.041322
  93 H :    0.039364

  Mayer bond orders larger than 0.100000
B(  0-C ,  1-C ) :   1.6699 B(  0-C ,  6-C ) :   1.0122 B(  0-C , 18-C ) :   1.0262
B(  1-C ,  2-C ) :   1.1329 B(  1-C ,  4-C ) :   1.1484 B(  2-C ,  3-N ) :   2.9738
B(  4-C ,  5-N ) :   2.9713 B(  6-C ,  7-C ) :   1.2743 B(  6-C , 11-C ) :   1.3991
B(  7-C ,  8-C ) :   1.4153 B(  7-C , 16-C ) :   0.9571 B(  8-C ,  9-C ) :   1.2519
B(  8-C , 76-H ) :   1.0169 B(  9-C , 10-C ) :   1.2970 B(  9-C , 14-C ) :   1.1631
B( 10-C , 11-C ) :   1.3400 B( 10-C , 12-S ) :   1.0875 B( 11-C , 77-H ) :   0.9798
B( 12-S , 13-C ) :   1.0867 B( 13-C , 14-C ) :   1.6167 B( 13-C , 15-Br) :   1.0216
B( 14-C , 78-H ) :   1.0001 B( 16-C , 17-O ) :   2.1938 B( 16-C , 18-C ) :   0.9193
B( 18-C , 19-C ) :   1.7237 B( 19-C , 20-C ) :   1.0263 B( 19-C , 79-H ) :   0.9582
B( 20-C , 21-C ) :   0.9713 B( 20-C , 28-C ) :   0.9422 B( 20-C , 80-H ) :   0.7927
B( 21-C , 22-N ) :   1.6811 B( 21-C , 25-C ) :   1.2218 B( 22-N , 23-S ) :   1.1924
B( 22-N , 24-N ) :   0.1199 B( 23-S , 24-N ) :   1.2029 B( 24-N , 25-C ) :   1.6782
B( 25-C , 26-C ) :   0.9998 B( 26-C , 27-C ) :   0.9934 B( 26-C , 32-C ) :   1.0299
B( 26-C , 81-H ) :   0.8522 B( 27-C , 28-C ) :   1.1988 B( 27-C , 31-N ) :   1.7069
B( 28-C , 29-N ) :   1.6917 B( 28-C , 30-S ) :   0.1001 B( 29-N , 30-S ) :   1.1990
B( 29-N , 31-N ) :   0.1192 B( 30-S , 31-N ) :   1.2104 B( 32-C , 33-C ) :   1.7394
B( 32-C , 82-H ) :   0.9697 B( 33-C , 34-C ) :   1.0896 B( 33-C , 37-S ) :   1.0367
B( 34-C , 35-C ) :   1.6558 B( 34-C , 83-H ) :   0.9998 B( 35-C , 36-C ) :   1.1438
B( 35-C , 84-H ) :   0.9918 B( 36-C , 37-S ) :   1.0330 B( 36-C , 38-C ) :   1.5826
B( 38-C , 39-C ) :   1.1456 B( 38-C , 42-S ) :   1.0319 B( 39-C , 40-C ) :   1.6530
B( 39-C , 85-H ) :   0.9918 B( 40-C , 41-C ) :   1.0856 B( 40-C , 86-H ) :   0.9997
B( 41-C , 42-S ) :   1.0250 B( 41-C , 43-C ) :   1.7818 B( 43-C , 44-C ) :   1.0306
B( 43-C , 87-H ) :   0.9497 B( 44-C , 45-C ) :   0.9870 B( 44-C , 52-C ) :   0.9805
B( 44-C , 88-H ) :   0.8696 B( 45-C , 46-N ) :   1.7061 B( 45-C , 49-C ) :   1.2115
B( 46-N , 47-S ) :   1.2043 B( 46-N , 48-N ) :   0.1195 B( 47-S , 48-N ) :   1.1943
B( 48-N , 49-C ) :   1.6536 B( 49-C , 50-C ) :   0.9871 B( 50-C , 51-C ) :   0.9782
B( 50-C , 56-C ) :   1.0393 B( 50-C , 89-H ) :   0.7869 B( 51-C , 52-C ) :   1.2157
B( 51-C , 55-N ) :   1.6985 B( 52-C , 53-N ) :   1.6991 B( 53-N , 54-S ) :   1.2115
B( 53-N , 55-N ) :   0.1218 B( 54-S , 55-N ) :   1.2097 B( 56-C , 57-C ) :   1.8103
B( 56-C , 90-H ) :   0.9272 B( 57-C , 58-C ) :   0.9782 B( 57-C , 66-C ) :   0.9264
B( 58-C , 59-C ) :   1.7063 B( 58-C , 64-C ) :   1.0239 B( 59-C , 60-C ) :   1.1350
B( 59-C , 62-C ) :   1.1473 B( 60-C , 61-N ) :   2.9890 B( 62-C , 63-N ) :   2.9311
B( 64-C , 65-C ) :   1.2723 B( 64-C , 71-C ) :   1.4080 B( 65-C , 66-C ) :   0.9296
B( 65-C , 68-C ) :   1.4135 B( 66-C , 67-O ) :   2.2635 B( 68-C , 69-C ) :   1.2589
B( 68-C , 91-H ) :   1.0172 B( 69-C , 70-C ) :   1.3004 B( 69-C , 74-C ) :   1.1620
B( 70-C , 71-C ) :   1.3297 B( 70-C , 72-S ) :   1.0882 B( 71-C , 92-H ) :   0.9845
B( 72-S , 73-C ) :   1.0849 B( 73-C , 74-C ) :   1.6207 B( 73-C , 75-Br) :   1.0206
B( 74-C , 93-H ) :   1.0003

-----------------------------------------------------------------------------
         ABSORPTION SPECTRUM VIA TRANSITION ELECTRIC DIPOLE MOMENTS
-----------------------------------------------------------------------------
State   Energy  Wavelength   fosc         T2         TX        TY        TZ
        (cm-1)    (nm)                  (au**2)     (au)      (au)      (au)
-----------------------------------------------------------------------------
   0   18313.9    546.0   0.015785140   0.28376   0.36210  -0.39050   0.01225
   1   20666.8    483.9   0.026082037   0.41547   0.14096  -0.62897  -0.00098
   2   22184.1    450.8   0.491914913   7.30002   1.14969  -2.44233  -0.11505
   3   23298.8    429.2   0.517779798   7.31624   0.94707  -2.53174  -0.09784
   4   25941.1    385.5   0.011972433   0.15194   0.23797  -0.30537  -0.04540
   5   27678.9    361.3   0.038539786   0.45839  -0.44191  -0.50649   0.08104
   6   28769.2    347.6   0.082013379   0.93850   0.60934  -0.74672   0.09808
   7   28857.5    346.5   0.282059540   3.21779   1.05934  -0.83573  -1.18201
   8   28922.3    345.8   0.589239134   6.70709  -0.86738  -0.19223  -2.43265
   9   30522.0    327.6   0.007304615   0.07879  -0.19512  -0.12210  -0.16065
  10   30783.5    324.8   0.025513702   0.27285  -0.02439   0.25454  -0.45549
  11   30865.3    324.0   0.040400234   0.43091   0.42589   0.06865   0.49479
  12   32308.1    309.5   0.029397735   0.29956  -0.18532  -0.36744   0.36084
  13   32338.4    309.2   0.040213914   0.40939  -0.15779  -0.25543  -0.56502
  14   32568.2    307.0   0.010832755   0.10950   0.13432   0.29726  -0.05562
  15   33336.3    300.0   0.033728623   0.33309   0.46482  -0.31260  -0.13895
  16   33571.8    297.9   0.141433060   1.38692   0.93519  -0.00430  -0.71577
  17   33975.2    294.3   0.265015035   2.56793  -0.57072   0.00088   1.49740
  18   34343.6    291.2   0.462460913   4.43308   0.86644  -0.49283   1.85458
  19   34359.8    291.0   0.135098940   1.29442   0.21217   0.48335  -1.00786
  20   34615.3    288.9   0.165061164   1.56983   0.24088  -0.15915  -1.21921
  21   34943.8    286.2   0.090565248   0.85323  -0.47882  -0.16696   0.77207
  22   35187.3    284.2   0.116332876   1.08841  -0.49474  -0.90123   0.17729
  23   35623.2    280.7   0.007021628   0.06489  -0.18871  -0.01857  -0.17010
  24   36118.2    276.9   0.017582444   0.16026  -0.34214  -0.18355  -0.09751
  25   36186.2    276.3   0.025578359   0.23270  -0.05265  -0.27998   0.38929
  26   36492.1    274.0   0.009154884   0.08259  -0.12866  -0.08569  -0.24227
  27   37518.8    266.5   0.027226098   0.23890   0.43751   0.16847  -0.13819
  28   38264.1    261.3   0.006220800   0.05352   0.17569  -0.04531   0.14354
  29   38382.9    260.5   0.002793143   0.02396   0.15005   0.01212   0.03598
  30   38632.3    258.9   0.081176633   0.69176  -0.53827  -0.23698  -0.58810
  31   38879.8    257.2   0.015681808   0.13278   0.16681   0.19967  -0.25512
  32   39083.5    255.9   0.000076515   0.00064   0.00412  -0.02125   0.01326
  33   39116.5    255.6   0.003304518   0.02781  -0.09978  -0.13275   0.01525
  34   39252.7    254.8   0.007012386   0.05881  -0.14509  -0.16191   0.10747
  35   39836.3    251.0   0.096846528   0.80035   0.17846  -0.28099  -0.83039
  36   39989.9    250.1   0.238512176   1.96352  -0.75694  -0.75072  -0.90939
  37   40119.3    249.3   0.175940784   1.44374   0.04923   1.17620  -0.24058

FINAL SINGLE POINT ENERGY    -11128.633225394547

DIPOLE MOMENT
-------------
                                X             Y             Z
Electronic contribution:    -89.15126     -63.45226    -115.29758
Nuclear contribution   :     90.46262      63.93586     111.07571
                        -----------------------------------------
Total Dipole Moment    :      1.31136       0.48360      -4.22186
                        -----------------------------------------
Magnitude (a.u.)       :      4.44721
Magnitude (Debye)      :     11.30390

Rotational constants in cm-1:     0.000623     0.000285     0.000223
Rotational constants in MHz :    18.685585     8.551275     6.677556

                             ****ORCA TERMINATED NORMALLY****
TOTAL RUN TIME: 0 days 0 hours 16 minutes 49 seconds 825 msec
