                         Program Version 4.2.0 -  RELEASE  -
|  1> # ORCA input file
|  2> # SCF done       -196.067404993468          0.000967688756
|  3> ! CAM-B3LYP def2-SVP def2/J RIJCOSX Grid4 TightSCF
|  4> %maxcore 5000
|  5> %tddft
|  6>     Mode sTDDFT
|  7>     Ethresh 5.0
|  8>     maxcore 5000
|  9> end
| 10>
| 11> %pal
| 12>   nprocs 6
| 13>   end
| 14> * xyz 0 1
| 15>    C       -5.82591        -3.10368        -4.36773
| 16>    C       -5.48757        -3.42901        -5.65770
| 17>    C       -5.88827        -4.61531        -6.30660
| 18>    N       -6.18776        -5.55583        -6.89322
| 19>    C       -4.70598        -2.63161        -6.51839
| 20>    N       -4.07530        -2.04083        -7.27530
| 21>    C       -6.60596        -3.93319        -3.45835
| 22>    C       -6.73167        -3.26175        -2.21684
| 23>    C       -7.41609        -3.79349        -1.15165
| 24>    C       -8.00005        -5.05404        -1.31498
| 25>    C       -7.87147        -5.71771        -2.55906
| 26>    C       -7.18297        -5.17774        -3.63784
| 27>    S       -8.67682        -7.25736        -2.54785
| 28>    C       -9.16752        -6.99296        -0.89544
| 29>    C       -8.75035        -5.81361        -0.37644
| 30>   Br      -10.18799        -8.29574        -0.01453
| 31>    C       -6.04926        -1.95703        -2.28930
| 32>    O       -6.10237        -1.06749        -1.47208
| 33>    C       -5.43615        -1.90679        -3.64832
| 34>    C       -4.76547        -0.83317        -4.14976
| 35>    C       -4.22330         0.21553        -3.36591
| 36>    O       -4.01443         1.42665        -3.95956
| 37>    C       -3.74193         0.28246        -2.07219
| 38>    C       -3.44631        -0.50610        -0.86425
| 39>    O       -3.56657        -1.67914        -0.63238
| 40>    N       -2.88704         0.42806         0.00187
| 41>    C       -2.72392         1.71082        -0.52063
| 42>    O       -2.24163         2.64287         0.06667
| 43>    C       -3.25634         1.59551        -1.88073
| 44>    C       -3.44849         2.27864        -3.06953
| 45>    C       -3.14621         3.61849        -3.43615
| 46>    C       -3.37588         4.08595        -4.68229
| 47>    C       -3.16422         5.44423        -5.10841
| 48>    C       -3.36985         6.48620        -4.24435
| 49>    S       -3.29596         8.03638        -4.96410
| 50>    C       -2.93306         7.30714        -6.50046
| 51>    C       -2.86250         5.90919        -6.44522
| 52>    C       -2.47544         5.19831        -7.60697
| 53>    C       -2.22857         3.71504        -7.48319
| 54>    C       -3.42190         2.86339        -7.92532
| 55>    C       -2.28002         5.87197        -8.80881
| 56>    C       -2.00090         5.10339       -10.07402
| 57>    C       -3.22277         5.10779       -10.99631
| 58>    C       -2.39521         7.28514        -8.86843
| 59>    C       -2.26382         8.22014        -9.97077
| 60>    C       -2.50462         9.50799        -9.56938
| 61>    S       -2.85013         9.69730        -7.90594
| 62>    C       -2.71799         7.98017        -7.69053
| 63>    C       -1.90326         7.96738       -11.34286
| 64>    C       -2.34273         8.71918       -12.38326
| 65>    C       -1.95528         8.50699       -13.72190
| 66>    C       -2.44455         9.23794       -14.77251
| 67>    C       -2.12605         9.10460       -16.14796
| 68>    C       -2.78804         9.97277       -16.96120
| 69>    C       -3.66818        10.83963       -16.27335
| 70>    S       -3.62238        10.52593       -14.55673
| 71>    C       -4.49866        11.81822       -16.78617
| 72>    C       -4.68906        12.21228       -18.12827
| 73>    C       -5.60506        13.20784       -18.27995
| 74>    C       -6.18958        13.65654       -17.06506
| 75>    S       -5.51837        12.75873       -15.71981
| 76>    C       -7.14101        14.63996       -16.96621
| 77>    C       -7.76660        15.12887       -15.80292
| 78>    S       -8.98510        16.39041       -15.95414
| 79>    C       -9.29797        16.48224       -14.26740
| 80>    C       -8.50639        15.58675       -13.58984
| 81>    C       -7.65055        14.83264       -14.45445
| 82>    O       -6.89541        13.97424       -13.73539
| 83>    C       -7.25416        14.16530       -12.44007
| 84>    N       -6.60607        13.38360       -11.45637
| 85>    O       -6.95931        13.56213       -10.30433
| 86>    O       -5.75343        12.59804       -11.81455
| 87>    C       -8.22021        15.12224       -12.27694
| 88>    H       -7.49164        -3.25551        -0.22001
| 89>    H       -7.11665        -5.72195        -4.56513
| 90>    H       -8.96295        -5.49018         0.62617
| 91>    H       -4.61644        -0.72812        -5.21623
| 92>    H       -2.58916         0.18458         0.93587
| 93>    H       -2.69861         4.22277        -2.66226
| 94>    H       -3.80961         3.40473        -5.39829
| 95>    H       -3.63818         6.40881        -3.20870
| 96>    H       -1.98484         3.49440        -6.44307
| 97>    H       -1.35015         3.43362        -8.06661
| 98>    H       -4.34448         3.21798        -7.46981
| 99>    H       -3.26795         1.82427        -7.64207
|100>    H       -3.55137         2.90461        -9.00310
|101>    H       -1.74791         4.07031        -9.85208
|102>    H       -1.13885         5.53032       -10.58522
|103>    H       -4.07700         4.66633       -10.48835
|104>    H       -3.01717         4.52949       -11.89450
|105>    H       -3.49099         6.11878       -11.29125
|106>    H       -2.45122        10.38627       -10.18232
|107>    H       -1.22230         7.15892       -11.55669
|108>    H       -3.05845         9.51170       -12.20779
|109>    H       -1.23897         7.72498       -13.93782
|110>    H       -1.41860         8.36922       -16.48914
|111>    H       -2.67197        10.01357       -18.02953
|112>    H       -4.15172        11.75410       -18.93945
|113>    H       -5.88657        13.63818       -19.22481
|114>    H       -7.46129        15.10047       -17.89126
|115>    H      -10.02410        17.17060       -13.88985
|116>    H       -8.64945        15.43425       -11.34775
|117> *
|118>
|119>                          ****END OF INPUT****

CARTESIAN COORDINATES (ANGSTROEM)
---------------------------------
  C     -5.825910   -3.103680   -4.367730
  C     -5.487570   -3.429010   -5.657700
  C     -5.888270   -4.615310   -6.306600
  N     -6.187760   -5.555830   -6.893220
  C     -4.705980   -2.631610   -6.518390
  N     -4.075300   -2.040830   -7.275300
  C     -6.605960   -3.933190   -3.458350
  C     -6.731670   -3.261750   -2.216840
  C     -7.416090   -3.793490   -1.151650
  C     -8.000050   -5.054040   -1.314980
  C     -7.871470   -5.717710   -2.559060
  C     -7.182970   -5.177740   -3.637840
  S     -8.676820   -7.257360   -2.547850
  C     -9.167520   -6.992960   -0.895440
  C     -8.750350   -5.813610   -0.376440
  Br   -10.187990   -8.295740   -0.014530
  C     -6.049260   -1.957030   -2.289300
  O     -6.102370   -1.067490   -1.472080
  C     -5.436150   -1.906790   -3.648320
  C     -4.765470   -0.833170   -4.149760
  C     -4.223300    0.215530   -3.365910
  O     -4.014430    1.426650   -3.959560
  C     -3.741930    0.282460   -2.072190
  C     -3.446310   -0.506100   -0.864250
  O     -3.566570   -1.679140   -0.632380
  N     -2.887040    0.428060    0.001870
  C     -2.723920    1.710820   -0.520630
  O     -2.241630    2.642870    0.066670
  C     -3.256340    1.595510   -1.880730
  C     -3.448490    2.278640   -3.069530
  C     -3.146210    3.618490   -3.436150
  C     -3.375880    4.085950   -4.682290
  C     -3.164220    5.444230   -5.108410
  C     -3.369850    6.486200   -4.244350
  S     -3.295960    8.036380   -4.964100
  C     -2.933060    7.307140   -6.500460
  C     -2.862500    5.909190   -6.445220
  C     -2.475440    5.198310   -7.606970
  C     -2.228570    3.715040   -7.483190
  C     -3.421900    2.863390   -7.925320
  C     -2.280020    5.871970   -8.808810
  C     -2.000900    5.103390  -10.074020
  C     -3.222770    5.107790  -10.996310
  C     -2.395210    7.285140   -8.868430
  C     -2.263820    8.220140   -9.970770
  C     -2.504620    9.507990   -9.569380
  S     -2.850130    9.697300   -7.905940
  C     -2.717990    7.980170   -7.690530
  C     -1.903260    7.967380  -11.342860
  C     -2.342730    8.719180  -12.383260
  C     -1.955280    8.506990  -13.721900
  C     -2.444550    9.237940  -14.772510
  C     -2.126050    9.104600  -16.147960
  C     -2.788040    9.972770  -16.961200
  C     -3.668180   10.839630  -16.273350
  S     -3.622380   10.525930  -14.556730
  C     -4.498660   11.818220  -16.786170
  C     -4.689060   12.212280  -18.128270
  C     -5.605060   13.207840  -18.279950
  C     -6.189580   13.656540  -17.065060
  S     -5.518370   12.758730  -15.719810
  C     -7.141010   14.639960  -16.966210
  C     -7.766600   15.128870  -15.802920
  S     -8.985100   16.390410  -15.954140
  C     -9.297970   16.482240  -14.267400
  C     -8.506390   15.586750  -13.589840
  C     -7.650550   14.832640  -14.454450
  O     -6.895410   13.974240  -13.735390
  C     -7.254160   14.165300  -12.440070
  N     -6.606070   13.383600  -11.456370
  O     -6.959310   13.562130  -10.304330
  O     -5.753430   12.598040  -11.814550
  C     -8.220210   15.122240  -12.276940
  H     -7.491640   -3.255510   -0.220010
  H     -7.116650   -5.721950   -4.565130
  H     -8.962950   -5.490180    0.626170
  H     -4.616440   -0.728120   -5.216230
  H     -2.589160    0.184580    0.935870
  H     -2.698610    4.222770   -2.662260
  H     -3.809610    3.404730   -5.398290
  H     -3.638180    6.408810   -3.208700
  H     -1.984840    3.494400   -6.443070
  H     -1.350150    3.433620   -8.066610
  H     -4.344480    3.217980   -7.469810
  H     -3.267950    1.824270   -7.642070
  H     -3.551370    2.904610   -9.003100
  H     -1.747910    4.070310   -9.852080
  H     -1.138850    5.530320  -10.585220
  H     -4.077000    4.666330  -10.488350
  H     -3.017170    4.529490  -11.894500
  H     -3.490990    6.118780  -11.291250
  H     -2.451220   10.386270  -10.182320
  H     -1.222300    7.158920  -11.556690
  H     -3.058450    9.511700  -12.207790
  H     -1.238970    7.724980  -13.937820
  H     -1.418600    8.369220  -16.489140
  H     -2.671970   10.013570  -18.029530
  H     -4.151720   11.754100  -18.939450
  H     -5.886570   13.638180  -19.224810
  H     -7.461290   15.100470  -17.891260
  H    -10.024100   17.170600  -13.889850
  H     -8.649450   15.434250  -11.347750

 Total Charge           Charge          ....    0
 Multiplicity           Mult            ....    1
 Number of Electrons    NEL             ....  574
 Basis Dimension        Dim             .... 1209

ORBITAL ENERGIES
----------------

  NO   OCC          E(Eh)            E(eV)
   0   2.0000    -482.885706    -13139.9881
   1   2.0000     -88.975450     -2421.1451
   2   2.0000     -88.971426     -2421.0356
   3   2.0000     -88.956793     -2420.6374
   4   2.0000     -88.948511     -2420.4120
   5   2.0000     -88.935385     -2420.0549
   6   2.0000     -88.934441     -2420.0292
   7   2.0000     -62.563421     -1702.4372
   8   2.0000     -56.397372     -1534.6505
   9   2.0000     -56.394653     -1534.5765
  10   2.0000     -56.394625     -1534.5758
  11   2.0000     -19.315067      -525.5897
  12   2.0000     -19.304860      -525.3119
  13   2.0000     -19.242411      -523.6126
  14   2.0000     -19.239834      -523.5425
  15   2.0000     -19.216374      -522.9041
  16   2.0000     -19.212088      -522.7875
  17   2.0000     -19.210371      -522.7408
  18   2.0000     -14.653591      -398.7445
  19   2.0000     -14.453992      -393.3131
  20   2.0000     -14.419222      -392.3670
  21   2.0000     -14.416940      -392.3049
  22   2.0000     -10.400468      -283.0111
  23   2.0000     -10.399903      -282.9957
  24   2.0000     -10.384937      -282.5885
  25   2.0000     -10.369843      -282.1778
  26   2.0000     -10.368138      -282.1314
  27   2.0000     -10.361879      -281.9611
  28   2.0000     -10.359242      -281.8893
  29   2.0000     -10.344978      -281.5012
  30   2.0000     -10.343943      -281.4730
  31   2.0000     -10.343599      -281.4636
  32   2.0000     -10.325870      -280.9812
  33   2.0000     -10.324217      -280.9362
  34   2.0000     -10.321762      -280.8694
  35   2.0000     -10.319608      -280.8108
  36   2.0000     -10.316383      -280.7230
  37   2.0000     -10.309365      -280.5321
  38   2.0000     -10.309067      -280.5240
  39   2.0000     -10.307944      -280.4934
  40   2.0000     -10.307920      -280.4928
  41   2.0000     -10.306235      -280.4469
  42   2.0000     -10.306133      -280.4441
  43   2.0000     -10.305965      -280.4396
  44   2.0000     -10.304962      -280.4123
  45   2.0000     -10.302446      -280.3438
  46   2.0000     -10.302440      -280.3436
  47   2.0000     -10.300514      -280.2912
  48   2.0000     -10.300041      -280.2784
  49   2.0000     -10.299360      -280.2598
  50   2.0000     -10.299009      -280.2503
  51   2.0000     -10.298447      -280.2350
  52   2.0000     -10.296535      -280.1830
  53   2.0000     -10.296078      -280.1705
  54   2.0000     -10.295731      -280.1611
  55   2.0000     -10.292393      -280.0703
  56   2.0000     -10.291645      -280.0499
  57   2.0000     -10.290737      -280.0252
  58   2.0000     -10.288998      -279.9779
  59   2.0000     -10.287752      -279.9440
  60   2.0000     -10.284186      -279.8469
  61   2.0000     -10.283160      -279.8190
  62   2.0000     -10.282861      -279.8109
  63   2.0000     -10.280857      -279.7564
  64   2.0000     -10.279360      -279.7156
  65   2.0000     -10.278889      -279.7028
  66   2.0000     -10.278193      -279.6838
  67   2.0000     -10.278032      -279.6795
  68   2.0000     -10.274418      -279.5811
  69   2.0000     -10.274192      -279.5750
  70   2.0000     -10.274113      -279.5728
  71   2.0000     -10.273708      -279.5618
  72   2.0000     -10.268371      -279.4166
  73   2.0000     -10.264551      -279.3126
  74   2.0000     -10.262442      -279.2553
  75   2.0000     -10.255682      -279.0713
  76   2.0000     -10.249430      -278.9012
  77   2.0000      -8.792853      -239.2657
  78   2.0000      -8.071509      -219.6369
  79   2.0000      -8.066365      -219.4969
  80   2.0000      -8.052932      -219.1314
  81   2.0000      -8.044817      -218.9106
  82   2.0000      -8.031755      -218.5552
  83   2.0000      -8.030660      -218.5254
  84   2.0000      -6.629154      -180.3885
  85   2.0000      -6.614603      -179.9925
  86   2.0000      -6.614371      -179.9862
  87   2.0000      -6.041188      -164.3891
  88   2.0000      -6.036931      -164.2732
  89   2.0000      -6.035718      -164.2402
  90   2.0000      -6.032711      -164.1584
  91   2.0000      -6.031412      -164.1231
  92   2.0000      -6.028662      -164.0482
  93   2.0000      -6.022394      -163.8777
  94   2.0000      -6.018103      -163.7609
  95   2.0000      -6.014737      -163.6693
  96   2.0000      -6.014249      -163.6560
  97   2.0000      -6.010049      -163.5418
  98   2.0000      -6.006569      -163.4470
  99   2.0000      -6.001495      -163.3090
 100   2.0000      -6.000429      -163.2800
 101   2.0000      -5.997453      -163.1990
 102   2.0000      -5.996288      -163.1673
 103   2.0000      -5.992602      -163.0670
 104   2.0000      -5.991408      -163.0345
 105   2.0000      -2.745038       -74.6963
 106   2.0000      -2.740934       -74.5846
 107   2.0000      -2.740785       -74.5805
 108   2.0000      -2.729207       -74.2655
 109   2.0000      -2.729191       -74.2651
 110   2.0000      -1.324251       -36.0347
 111   2.0000      -1.231651       -33.5149
 112   2.0000      -1.227010       -33.3886
 113   2.0000      -1.156187       -31.4614
 114   2.0000      -1.140148       -31.0250
 115   2.0000      -1.137144       -30.9433
 116   2.0000      -1.130522       -30.7631
 117   2.0000      -1.043114       -28.3846
 118   2.0000      -1.023951       -27.8631
 119   2.0000      -1.014843       -27.6153
 120   2.0000      -1.002367       -27.2758
 121   2.0000      -0.996403       -27.1135
 122   2.0000      -0.993670       -27.0391
 123   2.0000      -0.991126       -26.9699
 124   2.0000      -0.987638       -26.8750
 125   2.0000      -0.972491       -26.4628
 126   2.0000      -0.966650       -26.3039
 127   2.0000      -0.947342       -25.7785
 128   2.0000      -0.932727       -25.3808
 129   2.0000      -0.932182       -25.3660
 130   2.0000      -0.926822       -25.2201
 131   2.0000      -0.924363       -25.1532
 132   2.0000      -0.909478       -24.7481
 133   2.0000      -0.907805       -24.7026
 134   2.0000      -0.902472       -24.5575
 135   2.0000      -0.894173       -24.3317
 136   2.0000      -0.886188       -24.1144
 137   2.0000      -0.879748       -23.9392
 138   2.0000      -0.876121       -23.8405
 139   2.0000      -0.866726       -23.5848
 140   2.0000      -0.861090       -23.4315
 141   2.0000      -0.850533       -23.1442
 142   2.0000      -0.845369       -23.0037
 143   2.0000      -0.840388       -22.8681
 144   2.0000      -0.829699       -22.5772
 145   2.0000      -0.823621       -22.4119
 146   2.0000      -0.816647       -22.2221
 147   2.0000      -0.814635       -22.1673
 148   2.0000      -0.808113       -21.9899
 149   2.0000      -0.792773       -21.5724
 150   2.0000      -0.788594       -21.4587
 151   2.0000      -0.781052       -21.2535
 152   2.0000      -0.777334       -21.1523
 153   2.0000      -0.767313       -20.8796
 154   2.0000      -0.762663       -20.7531
 155   2.0000      -0.758695       -20.6451
 156   2.0000      -0.753210       -20.4959
 157   2.0000      -0.728292       -19.8178
 158   2.0000      -0.722376       -19.6569
 159   2.0000      -0.717391       -19.5212
 160   2.0000      -0.705820       -19.2063
 161   2.0000      -0.704176       -19.1616
 162   2.0000      -0.703019       -19.1301
 163   2.0000      -0.695184       -18.9169
 164   2.0000      -0.691422       -18.8145
 165   2.0000      -0.689993       -18.7757
 166   2.0000      -0.688545       -18.7363
 167   2.0000      -0.673880       -18.3372
 168   2.0000      -0.665669       -18.1138
 169   2.0000      -0.660068       -17.9614
 170   2.0000      -0.657518       -17.8920
 171   2.0000      -0.648961       -17.6591
 172   2.0000      -0.644803       -17.5460
 173   2.0000      -0.638231       -17.3671
 174   2.0000      -0.631828       -17.1929
 175   2.0000      -0.629150       -17.1201
 176   2.0000      -0.627348       -17.0710
 177   2.0000      -0.622518       -16.9396
 178   2.0000      -0.621475       -16.9112
 179   2.0000      -0.615961       -16.7611
 180   2.0000      -0.612367       -16.6634
 181   2.0000      -0.610665       -16.6170
 182   2.0000      -0.606753       -16.5106
 183   2.0000      -0.605985       -16.4897
 184   2.0000      -0.596289       -16.2259
 185   2.0000      -0.594507       -16.1774
 186   2.0000      -0.587214       -15.9789
 187   2.0000      -0.586351       -15.9554
 188   2.0000      -0.584583       -15.9073
 189   2.0000      -0.581195       -15.8151
 190   2.0000      -0.575568       -15.6620
 191   2.0000      -0.571594       -15.5539
 192   2.0000      -0.564049       -15.3485
 193   2.0000      -0.563406       -15.3310
 194   2.0000      -0.554760       -15.0958
 195   2.0000      -0.551172       -14.9982
 196   2.0000      -0.547214       -14.8904
 197   2.0000      -0.544883       -14.8270
 198   2.0000      -0.543363       -14.7856
 199   2.0000      -0.540525       -14.7084
 200   2.0000      -0.537841       -14.6354
 201   2.0000      -0.536026       -14.5860
 202   2.0000      -0.530639       -14.4394
 203   2.0000      -0.527639       -14.3578
 204   2.0000      -0.525322       -14.2948
 205   2.0000      -0.523292       -14.2395
 206   2.0000      -0.523208       -14.2372
 207   2.0000      -0.517007       -14.0685
 208   2.0000      -0.515849       -14.0370
 209   2.0000      -0.512575       -13.9479
 210   2.0000      -0.511831       -13.9276
 211   2.0000      -0.509635       -13.8679
 212   2.0000      -0.508480       -13.8364
 213   2.0000      -0.506339       -13.7782
 214   2.0000      -0.504714       -13.7340
 215   2.0000      -0.499181       -13.5834
 216   2.0000      -0.494765       -13.4632
 217   2.0000      -0.493936       -13.4407
 218   2.0000      -0.493478       -13.4282
 219   2.0000      -0.491318       -13.3694
 220   2.0000      -0.489732       -13.3263
 221   2.0000      -0.483716       -13.1626
 222   2.0000      -0.481045       -13.0899
 223   2.0000      -0.480140       -13.0653
 224   2.0000      -0.476862       -12.9761
 225   2.0000      -0.474898       -12.9226
 226   2.0000      -0.473576       -12.8867
 227   2.0000      -0.471280       -12.8242
 228   2.0000      -0.469311       -12.7706
 229   2.0000      -0.464972       -12.6525
 230   2.0000      -0.463283       -12.6066
 231   2.0000      -0.458689       -12.4816
 232   2.0000      -0.457471       -12.4484
 233   2.0000      -0.455343       -12.3905
 234   2.0000      -0.454072       -12.3559
 235   2.0000      -0.451524       -12.2866
 236   2.0000      -0.451304       -12.2806
 237   2.0000      -0.447116       -12.1666
 238   2.0000      -0.446024       -12.1369
 239   2.0000      -0.444570       -12.0974
 240   2.0000      -0.443832       -12.0773
 241   2.0000      -0.440536       -11.9876
 242   2.0000      -0.439774       -11.9669
 243   2.0000      -0.433187       -11.7876
 244   2.0000      -0.431915       -11.7530
 245   2.0000      -0.429670       -11.6919
 246   2.0000      -0.427000       -11.6193
 247   2.0000      -0.426150       -11.5961
 248   2.0000      -0.424138       -11.5414
 249   2.0000      -0.422955       -11.5092
 250   2.0000      -0.420430       -11.4405
 251   2.0000      -0.415353       -11.3023
 252   2.0000      -0.412203       -11.2166
 253   2.0000      -0.410979       -11.1833
 254   2.0000      -0.410618       -11.1735
 255   2.0000      -0.404071       -10.9953
 256   2.0000      -0.402357       -10.9487
 257   2.0000      -0.394876       -10.7451
 258   2.0000      -0.388866       -10.5816
 259   2.0000      -0.388746       -10.5783
 260   2.0000      -0.385563       -10.4917
 261   2.0000      -0.384219       -10.4551
 262   2.0000      -0.383485       -10.4351
 263   2.0000      -0.378450       -10.2982
 264   2.0000      -0.376660       -10.2495
 265   2.0000      -0.374980       -10.2037
 266   2.0000      -0.373218       -10.1558
 267   2.0000      -0.370692       -10.0871
 268   2.0000      -0.369101       -10.0437
 269   2.0000      -0.365974        -9.9587
 270   2.0000      -0.360012        -9.7964
 271   2.0000      -0.353159        -9.6099
 272   2.0000      -0.345415        -9.3992
 273   2.0000      -0.340779        -9.2731
 274   2.0000      -0.338851        -9.2206
 275   2.0000      -0.332254        -9.0411
 276   2.0000      -0.324917        -8.8414
 277   2.0000      -0.319579        -8.6962
 278   2.0000      -0.316394        -8.6095
 279   2.0000      -0.315023        -8.5722
 280   2.0000      -0.311349        -8.4722
 281   2.0000      -0.294795        -8.0218
 282   2.0000      -0.287540        -7.8244
 283   2.0000      -0.280418        -7.6306
 284   2.0000      -0.257899        -7.0178
 285   2.0000      -0.255730        -6.9588
 286   2.0000      -0.202574        -5.5123
 287   0.0000      -0.100390        -2.7318
 288   0.0000      -0.075812        -2.0630
 289   0.0000      -0.062534        -1.7016
 290   0.0000      -0.057319        -1.5597
 291   0.0000      -0.046266        -1.2590

MULLIKEN ATOMIC CHARGES
-----------------------
   0 C :    0.308354
   1 C :   -0.348490
   2 C :   -0.184722
   3 N :    0.152411
   4 C :   -0.192584
   5 N :    0.157011
   6 C :    0.017403
   7 C :   -0.012352
   8 C :   -0.065224
   9 C :    0.118411
  10 C :   -0.087259
  11 C :   -0.024318
  12 S :    0.187330
  13 C :   -0.123471
  14 C :    0.040071
  15 Br:    0.025649
  16 C :    0.157231
  17 O :   -0.142742
  18 C :   -0.071544
  19 C :   -0.038419
  20 C :    0.112807
  21 O :   -0.204863
  22 C :   -0.011172
  23 C :    0.180292
  24 O :   -0.140067
  25 N :   -0.162742
  26 C :    0.165246
  27 O :   -0.139541
  28 C :   -0.047442
  29 C :    0.094518
  30 C :   -0.042037
  31 C :    0.004129
  32 C :    0.065766
  33 C :   -0.104292
  34 S :    0.145818
  35 C :   -0.144389
  36 C :    0.114049
  37 C :   -0.114803
  38 C :   -0.003950
  39 C :    0.027170
  40 C :   -0.115754
  41 C :    0.043222
  42 C :    0.024299
  43 C :    0.122817
  44 C :    0.076982
  45 C :   -0.115309
  46 S :    0.138872
  47 C :   -0.151384
  48 C :   -0.036776
  49 C :   -0.005880
  50 C :   -0.015679
  51 C :   -0.018399
  52 C :    0.038956
  53 C :    0.023379
  54 C :   -0.045491
  55 S :    0.080134
  56 C :   -0.045475
  57 C :    0.037025
  58 C :    0.027417
  59 C :   -0.027739
  60 S :    0.090109
  61 C :    0.037944
  62 C :   -0.228785
  63 S :    0.142702
  64 C :   -0.142024
  65 C :    0.125343
  66 C :    0.195164
  67 O :   -0.191399
  68 C :    0.246537
  69 N :    0.274111
  70 O :   -0.251472
  71 O :   -0.232373
  72 C :   -0.080050
  73 H :   -0.008464
  74 H :   -0.005994
  75 H :   -0.002723
  76 H :    0.032358
  77 H :    0.139376
  78 H :    0.011287
  79 H :    0.013736
  80 H :    0.027646
  81 H :    0.009194
  82 H :    0.016631
  83 H :    0.018126
  84 H :    0.027815
  85 H :    0.013674
  86 H :   -0.008517
  87 H :    0.003646
  88 H :    0.010507
  89 H :    0.011210
  90 H :    0.030789
  91 H :    0.031729
  92 H :   -0.008849
  93 H :    0.015141
  94 H :   -0.018658
  95 H :   -0.013922
  96 H :   -0.014659
  97 H :   -0.016179
  98 H :   -0.017253
  99 H :   -0.025973
 100 H :    0.029591
 101 H :    0.010468
Sum of atomic charges:   -0.0000000

LOEWDIN ATOMIC CHARGES
----------------------
   0 C :    0.075330
   1 C :   -0.137245
   2 C :   -0.018040
   3 N :   -0.050820
   4 C :   -0.019711
   5 N :   -0.051888
   6 C :   -0.020548
   7 C :   -0.045070
   8 C :    0.025870
   9 C :   -0.030514
  10 C :   -0.142893
  11 C :   -0.009478
  12 S :    0.432932
  13 C :   -0.270567
  14 C :   -0.069568
  15 Br:    0.138416
  16 C :    0.088333
  17 O :   -0.129064
  18 C :   -0.072319
  19 C :    0.046501
  20 C :    0.043029
  21 O :    0.019272
  22 C :   -0.048576
  23 C :    0.088562
  24 O :   -0.147774
  25 N :   -0.001878
  26 C :    0.085792
  27 O :   -0.157822
  28 C :   -0.106620
  29 C :    0.090756
  30 C :   -0.056718
  31 C :    0.029834
  32 C :   -0.070819
  33 C :   -0.153822
  34 S :    0.431508
  35 C :   -0.177548
  36 C :   -0.042598
  37 C :   -0.022986
  38 C :   -0.032471
  39 C :   -0.053378
  40 C :   -0.015389
  41 C :   -0.029720
  42 C :   -0.049714
  43 C :   -0.037461
  44 C :   -0.065993
  45 C :   -0.159184
  46 S :    0.426037
  47 C :   -0.177480
  48 C :   -0.012842
  49 C :   -0.034124
  50 C :   -0.051214
  51 C :   -0.148463
  52 C :   -0.030818
  53 C :   -0.035367
  54 C :   -0.173335
  55 S :    0.379586
  56 C :   -0.189264
  57 C :   -0.029296
  58 C :   -0.040706
  59 C :   -0.140755
  60 S :    0.396959
  61 C :   -0.096536
  62 C :   -0.195541
  63 S :    0.469648
  64 C :   -0.195598
  65 C :   -0.080901
  66 C :    0.007567
  67 O :   -0.001251
  68 C :    0.025499
  69 N :    0.273474
  70 O :   -0.212520
  71 O :   -0.194701
  72 C :   -0.009956
  73 H :    0.042334
  74 H :    0.041075
  75 H :    0.039306
  76 H :    0.051592
  77 H :    0.095565
  78 H :    0.043704
  79 H :    0.037062
  80 H :    0.026140
  81 H :    0.027930
  82 H :    0.029589
  83 H :    0.020995
  84 H :    0.029870
  85 H :    0.025582
  86 H :    0.025274
  87 H :    0.023551
  88 H :    0.023250
  89 H :    0.024335
  90 H :    0.027004
  91 H :    0.027163
  92 H :    0.026132
  93 H :    0.024405
  94 H :    0.030983
  95 H :    0.032743
  96 H :    0.031051
  97 H :    0.030798
  98 H :    0.030844
  99 H :    0.031879
 100 H :    0.027574
 101 H :    0.046230

  Mayer bond orders larger than 0.100000
B(  0-C ,  1-C ) :   1.6344 B(  0-C ,  6-C ) :   1.0099 B(  0-C , 18-C ) :   1.0763
B(  1-C ,  2-C ) :   1.1428 B(  1-C ,  4-C ) :   1.1437 B(  2-C ,  3-N ) :   2.9690
B(  4-C ,  5-N ) :   2.9804 B(  6-C ,  7-C ) :   1.2720 B(  6-C , 11-C ) :   1.4031
B(  7-C ,  8-C ) :   1.4267 B(  7-C , 16-C ) :   0.9404 B(  8-C ,  9-C ) :   1.2466
B(  8-C , 73-H ) :   1.0159 B(  9-C , 10-C ) :   1.3021 B(  9-C , 14-C ) :   1.1622
B( 10-C , 11-C ) :   1.3367 B( 10-C , 12-S ) :   1.0860 B( 11-C , 74-H ) :   0.9791
B( 12-S , 13-C ) :   1.0868 B( 13-C , 14-C ) :   1.6173 B( 13-C , 15-Br) :   1.0207
B( 14-C , 75-H ) :   1.0007 B( 16-C , 17-O ) :   2.2240 B( 16-C , 18-C ) :   0.9302
B( 18-C , 19-C ) :   1.6029 B( 19-C , 20-C ) :   1.1663 B( 19-C , 76-H ) :   0.9327
B( 20-C , 21-O ) :   1.1126 B( 20-C , 22-C ) :   1.4384 B( 21-O , 29-C ) :   1.1749
B( 22-C , 23-C ) :   0.8631 B( 22-C , 28-C ) :   1.3098 B( 23-C , 24-O ) :   2.2438
B( 23-C , 25-N ) :   1.0900 B( 25-N , 26-C ) :   1.0743 B( 25-N , 77-H ) :   0.9146
B( 26-C , 27-O ) :   2.2721 B( 26-C , 28-C ) :   0.8811 B( 28-C , 29-C ) :   1.3508
B( 29-C , 30-C ) :   1.1737 B( 30-C , 31-C ) :   1.6758 B( 30-C , 78-H ) :   0.9638
B( 31-C , 32-C ) :   1.0206 B( 31-C , 79-H ) :   0.9625 B( 32-C , 33-C ) :   1.5886
B( 32-C , 36-C ) :   1.1364 B( 33-C , 34-S ) :   1.1416 B( 33-C , 80-H ) :   0.9622
B( 34-S , 35-C ) :   1.0717 B( 35-C , 36-C ) :   1.3786 B( 35-C , 47-C ) :   1.3798
B( 36-C , 37-C ) :   1.2737 B( 37-C , 38-C ) :   1.0466 B( 37-C , 40-C ) :   1.5171
B( 38-C , 39-C ) :   1.1003 B( 38-C , 81-H ) :   0.9241 B( 38-C , 82-H ) :   0.9224
B( 39-C , 83-H ) :   0.9566 B( 39-C , 84-H ) :   0.9640 B( 39-C , 85-H ) :   0.9606
B( 40-C , 41-C ) :   1.0696 B( 40-C , 43-C ) :   1.2476 B( 41-C , 42-C ) :   1.1060
B( 41-C , 86-H ) :   0.9095 B( 41-C , 87-H ) :   0.9234 B( 42-C , 88-H ) :   0.9541
B( 42-C , 89-H ) :   0.9657 B( 42-C , 90-H ) :   0.9635 B( 43-C , 44-C ) :   1.1411
B( 43-C , 47-C ) :   1.3718 B( 44-C , 45-C ) :   1.5973 B( 44-C , 48-C ) :   1.0187
B( 45-C , 46-S ) :   1.1235 B( 45-C , 91-H ) :   0.9618 B( 46-S , 47-C ) :   1.0830
B( 48-C , 49-C ) :   1.6928 B( 48-C , 92-H ) :   0.9737 B( 49-C , 50-C ) :   1.1274
B( 49-C , 93-H ) :   0.9738 B( 50-C , 51-C ) :   1.5797 B( 50-C , 94-H ) :   0.9856
B( 51-C , 52-C ) :   1.1342 B( 51-C , 55-S ) :   1.0261 B( 52-C , 53-C ) :   1.5945
B( 52-C , 95-H ) :   0.9993 B( 53-C , 54-C ) :   1.1851 B( 53-C , 96-H ) :   0.9937
B( 54-C , 55-S ) :   1.0536 B( 54-C , 56-C ) :   1.5060 B( 56-C , 57-C ) :   1.1864
B( 56-C , 60-S ) :   1.0309 B( 57-C , 58-C ) :   1.5930 B( 57-C , 97-H ) :   0.9928
B( 58-C , 59-C ) :   1.1389 B( 58-C , 98-H ) :   1.0003 B( 59-C , 60-S ) :   1.0500
B( 59-C , 61-C ) :   1.5998 B( 61-C , 62-C ) :   1.1520 B( 61-C , 99-H ) :   0.9439
B( 62-C , 63-S ) :   1.1352 B( 62-C , 64-C ) :   0.1088 B( 62-C , 66-C ) :   1.4257
B( 63-S , 64-C ) :   1.1753 B( 64-C , 65-C ) :   1.4313 B( 64-C ,100-H ) :   0.9770
B( 65-C , 66-C ) :   1.2341 B( 65-C , 72-C ) :   1.0642 B( 66-C , 67-O ) :   1.0876
B( 67-O , 68-C ) :   1.1218 B( 68-C , 69-N ) :   0.9173 B( 68-C , 72-C ) :   1.5744
B( 69-N , 70-O ) :   1.5306 B( 69-N , 71-O ) :   1.5128 B( 70-O , 71-O ) :   0.2794
B( 72-C ,101-H ) :   1.0267

-----------------------------------------------------------------------------
         ABSORPTION SPECTRUM VIA TRANSITION ELECTRIC DIPOLE MOMENTS
-----------------------------------------------------------------------------
State   Energy  Wavelength   fosc         T2         TX        TY        TZ
        (cm-1)    (nm)                  (au**2)     (au)      (au)      (au)
-----------------------------------------------------------------------------
   0   13165.3    759.6   0.460649185  11.51899  -2.04890   2.54983  -0.90518
   1   15556.1    642.8   0.001327048   0.02808   0.09047  -0.04934   0.13215
   2   16130.9    619.9   0.748114873  15.26812  -1.91521   2.82416  -1.90374
   3   19016.5    525.9   0.723672955  12.52816   1.51989   3.19415   0.12442
   4   23833.2    419.6   0.017641058   0.24368  -0.23381   0.16406   0.40261
   5   24111.6    414.7   0.006210144   0.08479   0.00854   0.05752  -0.28532
   6   24791.6    403.4   0.017061967   0.22657   0.03115  -0.06978   0.46982
   7   25229.7    396.4   0.092559648   1.20777  -0.12062  -0.41539   1.01029
   8   25839.0    387.0   0.075691681   0.96438   0.71192   0.54306  -0.40327
   9   26174.0    382.1   0.004570772   0.05749   0.02887   0.14415  -0.18941
  10   26790.5    373.3   0.511586007   6.28655   0.84184  -0.38547  -2.33008
  11   26941.6    371.2   0.063694003   0.77831   0.10025   0.28237  -0.82977
  12   27993.6    357.2   0.536371879   6.30786   0.44787   0.19600  -2.46351
  13   28418.1    351.9   0.036020778   0.41729  -0.21142   0.09819   0.60245
  14   28750.2    347.8   0.167069586   1.91307  -1.07298  -0.86694  -0.10099
  15   29276.7    341.6   0.021503673   0.24181  -0.17957  -0.32516   0.32223
  16   29576.9    338.1   0.708352693   7.88447  -0.21509  -2.62454   0.97469
  17   29780.9    335.8   0.101189641   1.11860   0.31628   0.18479  -0.99218
  18   31175.2    320.8   0.002054510   0.02170   0.14626   0.01693   0.00429
  19   31342.4    319.1   0.006766012   0.07107  -0.00427  -0.16934   0.20585
  20   31558.2    316.9   0.054979943   0.57355   0.00870   0.41150  -0.63572
  21   32546.5    307.3   0.464761135   4.70112   1.16482   0.79812  -1.64539
  22   32687.2    305.9   0.000316243   0.00319  -0.03094   0.02923  -0.03706
  23   32903.6    303.9   0.118180053   1.18243   0.50073   0.53456  -0.80371
  24   32995.9    303.1   0.015203627   0.15169   0.19884  -0.16762  -0.28993
  25   33162.1    301.5   0.044433743   0.44111   0.40573  -0.32723  -0.41160
  26   33520.1    298.3   0.008334037   0.08185  -0.07453  -0.02842   0.27475
  27   33661.9    297.1   0.014431675   0.14114  -0.04717   0.17465  -0.32926
  28   33741.8    296.4   0.039281040   0.38326  -0.04555   0.27546  -0.55254
  29   34346.4    291.2   0.207040878   1.98449   0.09573  -0.27084   1.37912
  30   34898.7    286.5   0.007849983   0.07405  -0.05479   0.11019  -0.24271
  31   34946.3    286.2   0.026283566   0.24760  -0.10951   0.30317  -0.37908
  32   35052.7    285.3   0.100212697   0.94119  -0.18450   0.53524  -0.78783
  33   35547.9    281.3   0.109691665   1.01586   0.19046   0.80267  -0.57906
  34   35648.7    280.5   0.032284132   0.29814  -0.48135  -0.17882  -0.18564
  35   36184.1    276.4   0.317591228   2.88952  -0.78714   0.80381  -1.27429
  36   36270.8    275.7   0.039275897   0.35649  -0.05664   0.56995  -0.16864
  37   36839.0    271.5   0.000669501   0.00598  -0.00614   0.07710  -0.00068
  38   37008.3    270.2   0.251680500   2.23885   0.38333   0.78799   1.21284
  39   37102.1    269.5   0.014424453   0.12799   0.07484  -0.15187  -0.31516
  40   37231.3    268.6   0.109062914   0.96437   0.28801  -0.66049   0.66721
  41   37806.1    264.5   0.015131270   0.13176  -0.28887  -0.20545  -0.07812
  42   37895.6    263.9   0.010599517   0.09208   0.24665  -0.11872   0.13095
  43   38061.5    262.7   0.159483048   1.37944   0.39330  -0.58182  -0.94140
  44   38333.1    260.9   0.009067899   0.07788  -0.14613   0.15159  -0.18315
  45   38562.2    259.3   0.008839887   0.07547   0.02191   0.27111   0.03859
  46   38807.6    257.7   0.060809669   0.51586   0.07192  -0.47066  -0.53774
  47   39236.2    254.9   0.013382307   0.11228  -0.19582  -0.27069  -0.02584
  48   39314.9    254.4   0.116138467   0.97251  -0.70871   0.41628  -0.54494
  49   39569.1    252.7   0.028840934   0.23995  -0.11122   0.44470  -0.17271
  50   40189.2    248.8   0.062325267   0.51054   0.16130  -0.58494   0.37732
  51   40320.8    248.0   0.085601318   0.69892   0.07539   0.34634  -0.75715

FINAL SINGLE POINT ENERGY     -7817.512842197942

DIPOLE MOMENT
-------------
                                X             Y             Z
Electronic contribution:    -79.97722    -150.23795     119.26526
Nuclear contribution   :     79.07169     151.82696    -120.21323
                        -----------------------------------------
Total Dipole Moment    :     -0.90554       1.58901      -0.94796
                        -----------------------------------------
Magnitude (a.u.)       :      2.06000
Magnitude (Debye)      :      5.23609

Rotational constants in cm-1:     0.001237     0.000164     0.000160
Rotational constants in MHz :    37.084106     4.927632     4.790378

                             ****ORCA TERMINATED NORMALLY****
TOTAL RUN TIME: 0 days 0 hours 10 minutes 19 seconds 895 msec
