                         Program Version 4.2.0 -  RELEASE  -
|  1> # ORCA input file
|  2> # SCF done       -165.506731529473          0.000955539372
|  3> ! CAM-B3LYP def2-SVP def2/J RIJCOSX Grid4 TightSCF
|  4> %maxcore 5000
|  5> %tddft
|  6>     Mode sTDDFT
|  7>     Ethresh 5.0
|  8>     maxcore 5000
|  9> end
| 10>
| 11> %pal
| 12>   nprocs 6
| 13>   end
| 14> * xyz 0 1
| 15>    C       -8.55246         4.48436        -5.19604
| 16>    C       -8.02250         3.45829        -5.94562
| 17>    C       -8.45361         3.17811        -7.25545
| 18>    N       -8.79039         2.97029        -8.33382
| 19>    C       -6.91818         2.70038        -5.51542
| 20>    N       -5.98184         2.12214        -5.18161
| 21>    C       -9.54777         5.44460        -5.62915
| 22>    C       -9.56026         6.53755        -4.72235
| 23>    C      -10.37895         7.62766        -4.88877
| 24>    C      -11.23990         7.63787        -5.99137
| 25>    C      -11.23352         6.53544        -6.88056
| 26>    C      -10.40104         5.43747        -6.72131
| 27>    S      -12.37999         6.75038        -8.16991
| 28>    C      -12.84046         8.29794        -7.50791
| 29>    C      -12.17431         8.63641        -6.37885
| 30>   Br      -14.15583         9.31939        -8.37114
| 31>    C       -8.58176         6.29422        -3.64517
| 32>    O       -8.23963         7.06674        -2.78005
| 33>    C       -8.08404         4.90621        -3.88089
| 34>    C       -7.37013         4.17904        -3.00309
| 35>    C       -6.88331         4.65295        -1.71034
| 36>    C       -5.47060         4.67474        -1.51505
| 37>    C       -4.95927         5.11475        -0.31924
| 38>    C       -5.81362         5.52998         0.71805
| 39>    C       -7.22346         5.49009         0.52237
| 40>    C       -7.73449         5.05176        -0.71193
| 41>    N       -8.06626         5.86218         1.50821
| 42>    C       -7.53075         6.26821         2.62739
| 43>    C       -6.13402         6.31978         2.81726
| 44>    N       -5.29160         5.95623         1.88802
| 45>    C       -4.59910         4.21546        -2.60301
| 46>    C       -3.58436         4.88883        -3.13959
| 47>    C       -3.21521         6.29172        -2.76928
| 48>    C       -2.70514         4.21856        -4.17863
| 49>    N       -2.23781         5.10249        -5.21650
| 50>    C       -2.57929         5.07275        -6.52263
| 51>    C       -3.43531         4.21103        -7.13495
| 52>    C       -3.69016         4.24254        -8.51885
| 53>    C       -4.54159         3.37238        -9.15101
| 54>    C       -4.91173         3.32829       -10.51650
| 55>    C       -5.83474         2.37074       -10.81728
| 56>    C       -6.25195         1.60782        -9.70446
| 57>    S       -5.39251         2.10633        -8.27259
| 58>    C       -7.23167         0.63675        -9.62067
| 59>    C       -8.04877         0.11357       -10.64562
| 60>    C       -8.97258        -0.77906       -10.20044
| 61>    C       -8.95423        -1.00023        -8.79354
| 62>    S       -7.67468        -0.04927        -8.07268
| 63>    C       -9.76994        -1.88612        -8.14593
| 64>    C       -9.90749        -2.15002        -6.74874
| 65>    C      -10.40892        -3.39905        -6.34001
| 66>    O      -10.66390        -4.25209        -7.37100
| 67>    C      -10.81162        -5.64255        -7.19435
| 68>    C      -10.62507        -3.70409        -4.96155
| 69>    O      -11.14582        -4.93741        -4.68155
| 70>    C      -11.36739        -5.28838        -3.33772
| 71>    C      -10.33400        -2.78685        -3.97809
| 72>    C       -9.85325        -1.52636        -4.34814
| 73>    C       -9.63980        -1.19416        -5.73193
| 74>    N       -9.24506         0.06422        -5.87873
| 75>    S       -9.12545         0.75111        -4.42423
| 76>    N       -9.58884        -0.50916        -3.53111
| 77>    H      -10.35843         8.44750        -4.18790
| 78>    H      -10.43414         4.62032        -7.42198
| 79>    H      -12.33332         9.55286        -5.84044
| 80>    H       -7.09688         3.16303        -3.25485
| 81>    H       -3.89532         5.12902        -0.13956
| 82>    H       -8.80454         5.03064        -0.84616
| 83>    H       -8.21323         6.56559         3.41259
| 84>    H       -5.70817         6.66401         3.75062
| 85>    H       -4.83140         3.23133        -2.99150
| 86>    H       -3.90945         6.69761        -2.04060
| 87>    H       -3.24174         6.92766        -3.65390
| 88>    H       -2.20815         6.32865        -2.35381
| 89>    H       -3.23801         3.38310        -4.63033
| 90>    H       -1.82521         3.81359        -3.65729
| 91>    H       -1.59206         5.81657        -4.92229
| 92>    H       -2.08260         5.82611        -7.12192
| 93>    H       -3.95985         3.45703        -6.56680
| 94>    H       -3.19470         4.99305        -9.12144
| 95>    H       -4.49635         4.01749       -11.23149
| 96>    H       -6.24205         2.20849       -11.79921
| 97>    H       -7.93741         0.41391       -11.67234
| 98>    H       -9.68923        -1.27888       -10.82851
| 99>    H      -10.38494        -2.50835        -8.78281
|100>    H      -11.77164        -5.89861        -6.74213
|101>    H      -10.00374        -6.06326        -6.59272
|102>    H      -10.76411        -6.05611        -8.20227
|103>    H      -12.09601        -4.62405        -2.86329
|104>    H      -10.43738        -5.28120        -2.76121
|105>    H      -11.76695        -6.30113        -3.36628
|106>    H      -10.48881        -2.98937        -2.93318
|107> *
|108>
|109>                          ****END OF INPUT****

CARTESIAN COORDINATES (ANGSTROEM)
---------------------------------
  C     -8.552460    4.484360   -5.196040
  C     -8.022500    3.458290   -5.945620
  C     -8.453610    3.178110   -7.255450
  N     -8.790390    2.970290   -8.333820
  C     -6.918180    2.700380   -5.515420
  N     -5.981840    2.122140   -5.181610
  C     -9.547770    5.444600   -5.629150
  C     -9.560260    6.537550   -4.722350
  C    -10.378950    7.627660   -4.888770
  C    -11.239900    7.637870   -5.991370
  C    -11.233520    6.535440   -6.880560
  C    -10.401040    5.437470   -6.721310
  S    -12.379990    6.750380   -8.169910
  C    -12.840460    8.297940   -7.507910
  C    -12.174310    8.636410   -6.378850
  Br   -14.155830    9.319390   -8.371140
  C     -8.581760    6.294220   -3.645170
  O     -8.239630    7.066740   -2.780050
  C     -8.084040    4.906210   -3.880890
  C     -7.370130    4.179040   -3.003090
  C     -6.883310    4.652950   -1.710340
  C     -5.470600    4.674740   -1.515050
  C     -4.959270    5.114750   -0.319240
  C     -5.813620    5.529980    0.718050
  C     -7.223460    5.490090    0.522370
  C     -7.734490    5.051760   -0.711930
  N     -8.066260    5.862180    1.508210
  C     -7.530750    6.268210    2.627390
  C     -6.134020    6.319780    2.817260
  N     -5.291600    5.956230    1.888020
  C     -4.599100    4.215460   -2.603010
  C     -3.584360    4.888830   -3.139590
  C     -3.215210    6.291720   -2.769280
  C     -2.705140    4.218560   -4.178630
  N     -2.237810    5.102490   -5.216500
  C     -2.579290    5.072750   -6.522630
  C     -3.435310    4.211030   -7.134950
  C     -3.690160    4.242540   -8.518850
  C     -4.541590    3.372380   -9.151010
  C     -4.911730    3.328290  -10.516500
  C     -5.834740    2.370740  -10.817280
  C     -6.251950    1.607820   -9.704460
  S     -5.392510    2.106330   -8.272590
  C     -7.231670    0.636750   -9.620670
  C     -8.048770    0.113570  -10.645620
  C     -8.972580   -0.779060  -10.200440
  C     -8.954230   -1.000230   -8.793540
  S     -7.674680   -0.049270   -8.072680
  C     -9.769940   -1.886120   -8.145930
  C     -9.907490   -2.150020   -6.748740
  C    -10.408920   -3.399050   -6.340010
  O    -10.663900   -4.252090   -7.371000
  C    -10.811620   -5.642550   -7.194350
  C    -10.625070   -3.704090   -4.961550
  O    -11.145820   -4.937410   -4.681550
  C    -11.367390   -5.288380   -3.337720
  C    -10.334000   -2.786850   -3.978090
  C     -9.853250   -1.526360   -4.348140
  C     -9.639800   -1.194160   -5.731930
  N     -9.245060    0.064220   -5.878730
  S     -9.125450    0.751110   -4.424230
  N     -9.588840   -0.509160   -3.531110
  H    -10.358430    8.447500   -4.187900
  H    -10.434140    4.620320   -7.421980
  H    -12.333320    9.552860   -5.840440
  H     -7.096880    3.163030   -3.254850
  H     -3.895320    5.129020   -0.139560
  H     -8.804540    5.030640   -0.846160
  H     -8.213230    6.565590    3.412590
  H     -5.708170    6.664010    3.750620
  H     -4.831400    3.231330   -2.991500
  H     -3.909450    6.697610   -2.040600
  H     -3.241740    6.927660   -3.653900
  H     -2.208150    6.328650   -2.353810
  H     -3.238010    3.383100   -4.630330
  H     -1.825210    3.813590   -3.657290
  H     -1.592060    5.816570   -4.922290
  H     -2.082600    5.826110   -7.121920
  H     -3.959850    3.457030   -6.566800
  H     -3.194700    4.993050   -9.121440
  H     -4.496350    4.017490  -11.231490
  H     -6.242050    2.208490  -11.799210
  H     -7.937410    0.413910  -11.672340
  H     -9.689230   -1.278880  -10.828510
  H    -10.384940   -2.508350   -8.782810
  H    -11.771640   -5.898610   -6.742130
  H    -10.003740   -6.063260   -6.592720
  H    -10.764110   -6.056110   -8.202270
  H    -12.096010   -4.624050   -2.863290
  H    -10.437380   -5.281200   -2.761210
  H    -11.766950   -6.301130   -3.366280
  H    -10.488810   -2.989370   -2.933180

 Total Charge           Charge          ....    0
 Multiplicity           Mult            ....    1
 Number of Electrons    NEL             ....  484
 Basis Dimension        Dim             .... 1052

ORBITAL ENERGIES
----------------

  NO   OCC          E(Eh)            E(eV)
   0   2.0000    -482.884905    -13139.9663
   1   2.0000     -88.993195     -2421.6279
   2   2.0000     -88.974268     -2421.1129
   3   2.0000     -88.909969     -2419.3633
   4   2.0000     -88.903173     -2419.1783
   5   2.0000     -62.562623     -1702.4155
   6   2.0000     -56.396573     -1534.6288
   7   2.0000     -56.393855     -1534.5548
   8   2.0000     -56.393826     -1534.5540
   9   2.0000     -19.246629      -523.7274
  10   2.0000     -19.230491      -523.2883
  11   2.0000     -19.215607      -522.8832
  12   2.0000     -14.431698      -392.7065
  13   2.0000     -14.414531      -392.2393
  14   2.0000     -14.414356      -392.2346
  15   2.0000     -14.413412      -392.2089
  16   2.0000     -14.408567      -392.0770
  17   2.0000     -14.407593      -392.0505
  18   2.0000     -14.403478      -391.9386
  19   2.0000     -10.367413      -282.1116
  20   2.0000     -10.358399      -281.8664
  21   2.0000     -10.340508      -281.3795
  22   2.0000     -10.338964      -281.3375
  23   2.0000     -10.335427      -281.2413
  24   2.0000     -10.325074      -280.9595
  25   2.0000     -10.324793      -280.9519
  26   2.0000     -10.322349      -280.8854
  27   2.0000     -10.317633      -280.7571
  28   2.0000     -10.312164      -280.6083
  29   2.0000     -10.309453      -280.5345
  30   2.0000     -10.308199      -280.5003
  31   2.0000     -10.307954      -280.4937
  32   2.0000     -10.307428      -280.4794
  33   2.0000     -10.307282      -280.4754
  34   2.0000     -10.306663      -280.4586
  35   2.0000     -10.305811      -280.4354
  36   2.0000     -10.305214      -280.4191
  37   2.0000     -10.304788      -280.4075
  38   2.0000     -10.303771      -280.3799
  39   2.0000     -10.303056      -280.3604
  40   2.0000     -10.300509      -280.2911
  41   2.0000     -10.299556      -280.2652
  42   2.0000     -10.295873      -280.1649
  43   2.0000     -10.295374      -280.1514
  44   2.0000     -10.295100      -280.1439
  45   2.0000     -10.292106      -280.0625
  46   2.0000     -10.289834      -280.0006
  47   2.0000     -10.287277      -279.9311
  48   2.0000     -10.279336      -279.7150
  49   2.0000     -10.276508      -279.6380
  50   2.0000     -10.276151      -279.6283
  51   2.0000     -10.274093      -279.5723
  52   2.0000     -10.271202      -279.4936
  53   2.0000     -10.268027      -279.4072
  54   2.0000     -10.265945      -279.3506
  55   2.0000     -10.265465      -279.3375
  56   2.0000     -10.264266      -279.3049
  57   2.0000     -10.263728      -279.2902
  58   2.0000     -10.259910      -279.1863
  59   2.0000     -10.258120      -279.1376
  60   2.0000     -10.257276      -279.1147
  61   2.0000     -10.253863      -279.0218
  62   2.0000     -10.253557      -279.0135
  63   2.0000     -10.246981      -278.8345
  64   2.0000     -10.240135      -278.6482
  65   2.0000     -10.240050      -278.6459
  66   2.0000      -8.792051      -239.2439
  67   2.0000      -8.084522      -219.9910
  68   2.0000      -8.070189      -219.6010
  69   2.0000      -8.005837      -217.8499
  70   2.0000      -7.998603      -217.6530
  71   2.0000      -6.628355      -180.3667
  72   2.0000      -6.613782      -179.9702
  73   2.0000      -6.613584      -179.9648
  74   2.0000      -6.055915      -164.7898
  75   2.0000      -6.048234      -164.5808
  76   2.0000      -6.046603      -164.5364
  77   2.0000      -6.039891      -164.3538
  78   2.0000      -6.035599      -164.2370
  79   2.0000      -6.031418      -164.1232
  80   2.0000      -5.975508      -162.6018
  81   2.0000      -5.971545      -162.4940
  82   2.0000      -5.968447      -162.4097
  83   2.0000      -5.966805      -162.3650
  84   2.0000      -5.964264      -162.2959
  85   2.0000      -5.959434      -162.1644
  86   2.0000      -2.744236       -74.6745
  87   2.0000      -2.740157       -74.5635
  88   2.0000      -2.739958       -74.5580
  89   2.0000      -2.728403       -74.2436
  90   2.0000      -2.728390       -74.2433
  91   2.0000      -1.154397       -31.4127
  92   2.0000      -1.130978       -30.7755
  93   2.0000      -1.127372       -30.6774
  94   2.0000      -1.093526       -29.7563
  95   2.0000      -1.069350       -29.0985
  96   2.0000      -1.029262       -28.0076
  97   2.0000      -1.021185       -27.7878
  98   2.0000      -1.009643       -27.4738
  99   2.0000      -0.992326       -27.0026
 100   2.0000      -0.989658       -26.9300
 101   2.0000      -0.983431       -26.7605
 102   2.0000      -0.961857       -26.1735
 103   2.0000      -0.960171       -26.1276
 104   2.0000      -0.950512       -25.8647
 105   2.0000      -0.939678       -25.5699
 106   2.0000      -0.937540       -25.5118
 107   2.0000      -0.929194       -25.2847
 108   2.0000      -0.906441       -24.6655
 109   2.0000      -0.905041       -24.6274
 110   2.0000      -0.896788       -24.4028
 111   2.0000      -0.884602       -24.0712
 112   2.0000      -0.874381       -23.7931
 113   2.0000      -0.867189       -23.5974
 114   2.0000      -0.857443       -23.3322
 115   2.0000      -0.847330       -23.0570
 116   2.0000      -0.842494       -22.9254
 117   2.0000      -0.829271       -22.5656
 118   2.0000      -0.827764       -22.5246
 119   2.0000      -0.825657       -22.4673
 120   2.0000      -0.809312       -22.0225
 121   2.0000      -0.804135       -21.8816
 122   2.0000      -0.790207       -21.5026
 123   2.0000      -0.787107       -21.4183
 124   2.0000      -0.784800       -21.3555
 125   2.0000      -0.777926       -21.1685
 126   2.0000      -0.774825       -21.0841
 127   2.0000      -0.763923       -20.7874
 128   2.0000      -0.756193       -20.5771
 129   2.0000      -0.741653       -20.1814
 130   2.0000      -0.735035       -20.0013
 131   2.0000      -0.722420       -19.6580
 132   2.0000      -0.705462       -19.1966
 133   2.0000      -0.700654       -19.0658
 134   2.0000      -0.693305       -18.8658
 135   2.0000      -0.688651       -18.7392
 136   2.0000      -0.684656       -18.6304
 137   2.0000      -0.671604       -18.2753
 138   2.0000      -0.669507       -18.2182
 139   2.0000      -0.664873       -18.0921
 140   2.0000      -0.655815       -17.8456
 141   2.0000      -0.645682       -17.5699
 142   2.0000      -0.637507       -17.3475
 143   2.0000      -0.632610       -17.2142
 144   2.0000      -0.625342       -17.0164
 145   2.0000      -0.618590       -16.8327
 146   2.0000      -0.615732       -16.7549
 147   2.0000      -0.606764       -16.5109
 148   2.0000      -0.605935       -16.4883
 149   2.0000      -0.601996       -16.3812
 150   2.0000      -0.596341       -16.2273
 151   2.0000      -0.594248       -16.1703
 152   2.0000      -0.590756       -16.0753
 153   2.0000      -0.589262       -16.0346
 154   2.0000      -0.585463       -15.9312
 155   2.0000      -0.584361       -15.9013
 156   2.0000      -0.574018       -15.6198
 157   2.0000      -0.565885       -15.3985
 158   2.0000      -0.563909       -15.3447
 159   2.0000      -0.557861       -15.1802
 160   2.0000      -0.553882       -15.0719
 161   2.0000      -0.549342       -14.9483
 162   2.0000      -0.544669       -14.8212
 163   2.0000      -0.539786       -14.6883
 164   2.0000      -0.534751       -14.5513
 165   2.0000      -0.531034       -14.4502
 166   2.0000      -0.528961       -14.3938
 167   2.0000      -0.526771       -14.3342
 168   2.0000      -0.525344       -14.2953
 169   2.0000      -0.523800       -14.2533
 170   2.0000      -0.520189       -14.1551
 171   2.0000      -0.518810       -14.1175
 172   2.0000      -0.516892       -14.0653
 173   2.0000      -0.515115       -14.0170
 174   2.0000      -0.513528       -13.9738
 175   2.0000      -0.511800       -13.9268
 176   2.0000      -0.509287       -13.8584
 177   2.0000      -0.504612       -13.7312
 178   2.0000      -0.504006       -13.7147
 179   2.0000      -0.501346       -13.6423
 180   2.0000      -0.493115       -13.4183
 181   2.0000      -0.492021       -13.3886
 182   2.0000      -0.488524       -13.2934
 183   2.0000      -0.481552       -13.1037
 184   2.0000      -0.477460       -12.9924
 185   2.0000      -0.476553       -12.9677
 186   2.0000      -0.474774       -12.9193
 187   2.0000      -0.468944       -12.7606
 188   2.0000      -0.467369       -12.7178
 189   2.0000      -0.459207       -12.4957
 190   2.0000      -0.457986       -12.4624
 191   2.0000      -0.455203       -12.3867
 192   2.0000      -0.454191       -12.3592
 193   2.0000      -0.450370       -12.2552
 194   2.0000      -0.449656       -12.2358
 195   2.0000      -0.447028       -12.1642
 196   2.0000      -0.446586       -12.1522
 197   2.0000      -0.444455       -12.0942
 198   2.0000      -0.441138       -12.0040
 199   2.0000      -0.437923       -11.9165
 200   2.0000      -0.436331       -11.8732
 201   2.0000      -0.433947       -11.8083
 202   2.0000      -0.431975       -11.7546
 203   2.0000      -0.430532       -11.7154
 204   2.0000      -0.430074       -11.7029
 205   2.0000      -0.423214       -11.5162
 206   2.0000      -0.421327       -11.4649
 207   2.0000      -0.419832       -11.4242
 208   2.0000      -0.414159       -11.2698
 209   2.0000      -0.413201       -11.2438
 210   2.0000      -0.411020       -11.1844
 211   2.0000      -0.408863       -11.1257
 212   2.0000      -0.402523       -10.9532
 213   2.0000      -0.401347       -10.9212
 214   2.0000      -0.399204       -10.8629
 215   2.0000      -0.387922       -10.5559
 216   2.0000      -0.386646       -10.5212
 217   2.0000      -0.384916       -10.4741
 218   2.0000      -0.377478       -10.2717
 219   2.0000      -0.374186       -10.1821
 220   2.0000      -0.373724       -10.1695
 221   2.0000      -0.371347       -10.1049
 222   2.0000      -0.368548       -10.0287
 223   2.0000      -0.363876        -9.9016
 224   2.0000      -0.361381        -9.8337
 225   2.0000      -0.353129        -9.6091
 226   2.0000      -0.345181        -9.3928
 227   2.0000      -0.341688        -9.2978
 228   2.0000      -0.334537        -9.1032
 229   2.0000      -0.323971        -8.8157
 230   2.0000      -0.318923        -8.6783
 231   2.0000      -0.314075        -8.5464
 232   2.0000      -0.312894        -8.5143
 233   2.0000      -0.301538        -8.2053
 234   2.0000      -0.300101        -8.1662
 235   2.0000      -0.292994        -7.9728
 236   2.0000      -0.291384        -7.9290
 237   2.0000      -0.281593        -7.6625
 238   2.0000      -0.275373        -7.4933
 239   2.0000      -0.271123        -7.3776
 240   2.0000      -0.238012        -6.4766
 241   2.0000      -0.173789        -4.7290
 242   0.0000      -0.082337        -2.2405
 243   0.0000      -0.053843        -1.4651
 244   0.0000      -0.045918        -1.2495
 245   0.0000      -0.031794        -0.8652
 246   0.0000      -0.016705        -0.4546

MULLIKEN ATOMIC CHARGES
-----------------------
   0 C :    0.280695
   1 C :   -0.329703
   2 C :   -0.150423
   3 N :    0.172193
   4 C :   -0.175470
   5 N :    0.137856
   6 C :    0.014903
   7 C :   -0.011048
   8 C :   -0.071355
   9 C :    0.114022
  10 C :   -0.088899
  11 C :   -0.015413
  12 S :    0.189289
  13 C :   -0.124852
  14 C :    0.043225
  15 Br:    0.024272
  16 C :    0.137324
  17 O :   -0.129583
  18 C :   -0.048573
  19 C :   -0.054084
  20 C :    0.063536
  21 C :    0.071253
  22 C :   -0.079207
  23 C :    0.000214
  24 C :   -0.000308
  25 C :   -0.016842
  26 N :   -0.016967
  27 C :    0.019066
  28 C :    0.022368
  29 N :   -0.021105
  30 C :   -0.017211
  31 C :   -0.182226
  32 C :    0.075847
  33 C :    0.200329
  34 N :   -0.154732
  35 C :    0.061392
  36 C :   -0.075082
  37 C :    0.004358
  38 C :   -0.046496
  39 C :    0.037461
  40 C :    0.021173
  41 C :   -0.034544
  42 S :    0.033569
  43 C :   -0.036935
  44 C :    0.043240
  45 C :    0.013235
  46 C :    0.020579
  47 S :    0.094727
  48 C :   -0.097526
  49 C :    0.004738
  50 C :    0.123645
  51 O :   -0.316482
  52 C :    0.215619
  53 C :    0.229363
  54 O :   -0.332643
  55 C :    0.184458
  56 C :   -0.220552
  57 C :    0.071576
  58 C :    0.023394
  59 N :   -0.285518
  60 S :    0.430354
  61 N :   -0.259285
  62 H :   -0.007881
  63 H :    0.002886
  64 H :   -0.003601
  65 H :    0.043474
  66 H :   -0.031957
  67 H :   -0.030805
  68 H :    0.008621
  69 H :    0.007796
  70 H :    0.007829
  71 H :    0.035362
  72 H :    0.023695
  73 H :    0.016318
  74 H :    0.040534
  75 H :    0.027239
  76 H :    0.124390
  77 H :   -0.003636
  78 H :    0.007534
  79 H :   -0.031466
  80 H :   -0.028163
  81 H :   -0.028064
  82 H :   -0.027527
  83 H :   -0.026937
  84 H :   -0.012025
  85 H :    0.019949
  86 H :    0.012406
  87 H :    0.022300
  88 H :    0.027667
  89 H :    0.027378
  90 H :    0.034031
  91 H :   -0.043559
Sum of atomic charges:   -0.0000000

LOEWDIN ATOMIC CHARGES
----------------------
   0 C :    0.074458
   1 C :   -0.134280
   2 C :   -0.025556
   3 N :   -0.036453
   4 C :   -0.026407
   5 N :   -0.062547
   6 C :   -0.019921
   7 C :   -0.051862
   8 C :    0.021922
   9 C :   -0.031323
  10 C :   -0.141890
  11 C :   -0.004425
  12 S :    0.434266
  13 C :   -0.270033
  14 C :   -0.070530
  15 Br:    0.137328
  16 C :    0.083918
  17 O :   -0.128212
  18 C :   -0.072452
  19 C :    0.080557
  20 C :   -0.022177
  21 C :   -0.006044
  22 C :   -0.012801
  23 C :   -0.011286
  24 C :   -0.013484
  25 C :    0.014113
  26 N :   -0.038241
  27 C :   -0.002689
  28 C :    0.000405
  29 N :   -0.043651
  30 C :   -0.050571
  31 C :   -0.020002
  32 C :   -0.056700
  33 C :    0.047083
  34 N :    0.000275
  35 C :    0.042802
  36 C :   -0.133999
  37 C :   -0.036381
  38 C :   -0.179844
  39 C :   -0.033977
  40 C :   -0.049207
  41 C :   -0.169471
  42 S :    0.384815
  43 C :   -0.195355
  44 C :   -0.027690
  45 C :   -0.047925
  46 C :   -0.129009
  47 S :    0.402546
  48 C :   -0.080294
  49 C :   -0.056945
  50 C :    0.043698
  51 O :   -0.097875
  52 C :    0.077597
  53 C :    0.042927
  54 O :   -0.098240
  55 C :    0.078111
  56 C :   -0.098938
  57 C :   -0.052555
  58 C :   -0.052193
  59 N :   -0.292328
  60 S :    0.605555
  61 N :   -0.300309
  62 H :    0.041455
  63 H :    0.043198
  64 H :    0.038878
  65 H :    0.042565
  66 H :    0.034310
  67 H :    0.035094
  68 H :    0.024598
  69 H :    0.024392
  70 H :    0.031820
  71 H :    0.036887
  72 H :    0.030973
  73 H :    0.030414
  74 H :    0.041016
  75 H :    0.032738
  76 H :    0.075211
  77 H :    0.026222
  78 H :    0.018686
  79 H :    0.025857
  80 H :    0.027193
  81 H :    0.026410
  82 H :    0.026663
  83 H :    0.026497
  84 H :    0.030430
  85 H :    0.011962
  86 H :    0.013057
  87 H :    0.020190
  88 H :    0.017943
  89 H :    0.017704
  90 H :    0.027734
  91 H :    0.033597

  Mayer bond orders larger than 0.100000
B(  0-C ,  1-C ) :   1.6632 B(  0-C ,  6-C ) :   1.0215 B(  0-C , 18-C ) :   1.0137
B(  1-C ,  2-C ) :   1.1442 B(  1-C ,  4-C ) :   1.1672 B(  2-C ,  3-N ) :   2.9303
B(  4-C ,  5-N ) :   2.8716 B(  6-C ,  7-C ) :   1.2679 B(  6-C , 11-C ) :   1.3971
B(  7-C ,  8-C ) :   1.4226 B(  7-C , 16-C ) :   0.9322 B(  8-C ,  9-C ) :   1.2527
B(  8-C , 62-H ) :   1.0153 B(  9-C , 10-C ) :   1.2978 B(  9-C , 14-C ) :   1.1666
B( 10-C , 11-C ) :   1.3371 B( 10-C , 12-S ) :   1.0843 B( 11-C , 63-H ) :   0.9827
B( 12-S , 13-C ) :   1.0876 B( 13-C , 14-C ) :   1.6162 B( 13-C , 15-Br) :   1.0197
B( 14-C , 64-H ) :   0.9999 B( 16-C , 17-O ) :   2.2572 B( 16-C , 18-C ) :   0.9136
B( 18-C , 19-C ) :   1.8093 B( 19-C , 20-C ) :   0.9885 B( 19-C , 65-H ) :   0.9184
B( 20-C , 21-C ) :   1.2565 B( 20-C , 25-C ) :   1.4299 B( 21-C , 22-C ) :   1.4316
B( 21-C , 30-C ) :   0.9719 B( 22-C , 23-C ) :   1.2099 B( 22-C , 25-C ) :   0.1119
B( 22-C , 66-H ) :   1.0226 B( 23-C , 24-C ) :   1.2488 B( 23-C , 29-N ) :   1.4252
B( 24-C , 25-C ) :   1.2227 B( 24-C , 26-N ) :   1.4227 B( 25-C , 67-H ) :   1.0125
B( 26-N , 27-C ) :   1.6733 B( 27-C , 28-C ) :   1.2278 B( 27-C , 68-H ) :   0.9737
B( 28-C , 29-N ) :   1.6709 B( 28-C , 69-H ) :   0.9734 B( 30-C , 31-C ) :   1.9415
B( 30-C , 70-H ) :   0.9265 B( 31-C , 32-C ) :   1.0816 B( 31-C , 33-C ) :   1.0127
B( 32-C , 71-H ) :   0.9424 B( 32-C , 72-H ) :   0.9421 B( 32-C , 73-H ) :   0.9497
B( 33-C , 34-N ) :   0.9937 B( 33-C , 74-H ) :   0.9360 B( 33-C , 75-H ) :   0.9320
B( 34-N , 35-C ) :   1.2244 B( 34-N , 76-H ) :   0.9338 B( 35-C , 36-C ) :   1.6218
B( 35-C , 77-H ) :   0.9628 B( 36-C , 37-C ) :   1.1650 B( 36-C , 78-H ) :   0.9600
B( 37-C , 38-C ) :   1.5822 B( 37-C , 79-H ) :   0.9805 B( 38-C , 39-C ) :   1.1450
B( 38-C , 42-S ) :   1.0097 B( 39-C , 40-C ) :   1.5894 B( 39-C , 80-H ) :   0.9955
B( 40-C , 41-C ) :   1.1890 B( 40-C , 81-H ) :   0.9920 B( 41-C , 42-S ) :   1.0484
B( 41-C , 43-C ) :   1.4985 B( 43-C , 44-C ) :   1.1829 B( 43-C , 47-S ) :   1.0382
B( 44-C , 45-C ) :   1.5956 B( 44-C , 82-H ) :   0.9917 B( 45-C , 46-C ) :   1.1340
B( 45-C , 83-H ) :   0.9975 B( 46-C , 47-S ) :   1.0553 B( 46-C , 48-C ) :   1.5928
B( 48-C , 49-C ) :   1.1346 B( 48-C , 84-H ) :   0.9475 B( 49-C , 50-C ) :   1.4396
B( 49-C , 56-C ) :   0.1129 B( 49-C , 58-C ) :   1.1656 B( 50-C , 51-O ) :   1.2006
B( 50-C , 53-C ) :   1.1690 B( 51-O , 52-C ) :   0.9402 B( 52-C , 85-H ) :   0.9746
B( 52-C , 86-H ) :   0.9738 B( 52-C , 87-H ) :   0.9765 B( 53-C , 54-O ) :   1.1227
B( 53-C , 56-C ) :   1.3635 B( 54-O , 55-C ) :   0.9626 B( 55-C , 88-H ) :   0.9684
B( 55-C , 89-H ) :   0.9685 B( 55-C , 90-H ) :   0.9773 B( 56-C , 57-C ) :   1.1425
B( 56-C , 91-H ) :   1.0406 B( 57-C , 58-C ) :   1.1499 B( 57-C , 61-N ) :   1.5515
B( 58-C , 59-N ) :   1.5381 B( 59-N , 60-S ) :   1.2331 B( 59-N , 61-N ) :   0.1460
B( 60-S , 61-N ) :   1.2530

-----------------------------------------------------------------------------
         ABSORPTION SPECTRUM VIA TRANSITION ELECTRIC DIPOLE MOMENTS
-----------------------------------------------------------------------------
State   Energy  Wavelength   fosc         T2         TX        TY        TZ
        (cm-1)    (nm)                  (au**2)     (au)      (au)      (au)
-----------------------------------------------------------------------------
   0    4289.6   2331.2   0.005160033   0.39601  -0.19680   0.52388   0.28781
   1   12774.0    782.8   0.464923784  11.98200  -2.31031  -2.40594   0.92514
   2   13031.8    767.4   0.035851568   0.90569  -0.69700  -0.61071   0.21662
   3   18477.8    541.2   0.002735400   0.04874   0.19366  -0.09397   0.04900
   4   19159.5    521.9   0.694931258  11.94079  -2.43374  -2.39286  -0.54032
   5   20139.5    496.5   0.001546519   0.02528  -0.13143  -0.08923   0.00679
   6   24903.5    401.6   0.001754850   0.02320   0.07576   0.01245  -0.13154
   7   25355.7    394.4   0.055029899   0.71449   0.18340  -0.17049   0.80733
   8   25428.1    393.3   0.051281902   0.66394  -0.06773   0.40979   0.70101
   9   26764.6    373.6   0.001018023   0.01252   0.01210   0.07227  -0.08458
  10   27052.3    369.7   0.004700365   0.05720   0.15166  -0.17950   0.04448
  11   27178.6    367.9   0.024769364   0.30003  -0.30703   0.40645  -0.20140
  12   27326.1    365.9   0.015214035   0.18329   0.11261  -0.24158  -0.33504
  13   27397.3    365.0   0.090425228   1.08657   0.45307  -0.13417   0.92913
  14   27999.8    357.1   0.159004606   1.86952  -0.78356   0.64118  -0.91893
  15   28418.6    351.9   0.034399184   0.39849  -0.40882   0.23957  -0.41710
  16   28821.8    347.0   0.293979923   3.35794   1.15361  -1.41952  -0.10987
  17   29943.0    334.0   0.033855700   0.37223  -0.34873  -0.41639  -0.27791
  18   30012.1    333.2   0.028317459   0.31062  -0.12439  -0.26791   0.47263
  19   30417.8    328.8   0.009826301   0.10635  -0.05709   0.32106  -0.00356
  20   30474.9    328.1   0.007547812   0.08154  -0.14462   0.24607   0.00855
  21   30497.6    327.9   0.041423978   0.44716  -0.21468  -0.18269   0.60638
  22   31321.4    319.3   0.020585706   0.21637   0.29409  -0.10687   0.34418
  23   31904.6    313.4   0.037958977   0.39168   0.01594  -0.08239   0.62019
  24   32236.2    310.2   0.079809098   0.81505  -0.23992  -0.45156   0.74403
  25   32506.8    307.6   0.168612722   1.70762  -0.00567   1.15357   0.61390
  26   32736.9    305.5   0.697861072   7.01790   0.51857   0.51080   2.54717
  27   33289.4    300.4   0.019603577   0.19387   0.25061   0.30058   0.20177
  28   33696.9    296.8   0.501563550   4.90017  -1.20942   1.85191  -0.08880
  29   33816.7    295.7   0.010711816   0.10428  -0.09736   0.08880   0.29482
  30   34086.4    293.4   0.020214883   0.19524   0.12825   0.04511   0.42042
  31   34240.4    292.1   0.065891174   0.63352   0.41813  -0.26999  -0.62112
  32   34732.3    287.9   0.077067140   0.73049  -0.58118   0.60480  -0.16411
  33   35053.4    285.3   0.012119040   0.11382  -0.09973  -0.17115   0.27310
  34   35607.6    280.8   0.018577104   0.17176  -0.10523   0.03697  -0.39914
  35   35683.1    280.2   0.018254704   0.16842  -0.21021   0.18865  -0.29772
  36   35927.1    278.3   0.005905495   0.05411  -0.01936  -0.15288  -0.17426
  37   36028.5    277.6   0.001248396   0.01141  -0.07513   0.07587  -0.00252
  38   36056.0    277.3   0.000272381   0.00249   0.02513  -0.02348   0.03611
  39   36350.4    275.1   0.014914616   0.13508  -0.21106   0.25433   0.16076
  40   36530.9    273.7   0.013024032   0.11737  -0.13230  -0.23893  -0.20683
  41   37021.8    270.1   0.117924326   1.04863  -0.15467   0.23331   0.98502
  42   37204.0    268.8   0.032436540   0.28703   0.22363   0.48464   0.04626
  43   37332.5    267.9   0.003236703   0.02854  -0.00724   0.06312   0.15654
  44   37458.9    267.0   0.020253231   0.17800  -0.17310  -0.37678   0.07793
  45   38230.4    261.6   0.029102070   0.25061   0.36662  -0.29067  -0.17806
  46   38292.9    261.1   0.003517050   0.03024  -0.10086   0.12894   0.05864
  47   38600.2    259.1   0.018225740   0.15544   0.05015   0.08272  -0.38221
  48   38703.2    258.4   0.009958747   0.08471   0.06618   0.06877  -0.27495
  49   39015.5    256.3   0.029183678   0.24625   0.02989  -0.41688   0.26752
  50   39042.2    256.1   0.030904595   0.26059   0.18893   0.46445   0.09585
  51   39344.5    254.2   0.112174215   0.93861  -0.68700  -0.21154  -0.64953
  52   39394.3    253.8   0.219401959   1.83351  -1.00884  -0.04540  -0.90204
  53   39414.5    253.7   0.032774831   0.27375  -0.25361   0.42415  -0.17185
  54   39496.9    253.2   0.017213474   0.14348  -0.03744  -0.01784  -0.37651
  55   40265.4    248.4   0.033461122   0.27358  -0.23131  -0.41275  -0.22297

FINAL SINGLE POINT ENERGY     -6581.030171496166

DIPOLE MOMENT
-------------
                                X             Y             Z
Electronic contribution:    -91.17716      88.37485     -41.92350
Nuclear contribution   :     91.09863     -87.18627      42.91340
                        -----------------------------------------
Total Dipole Moment    :     -0.07853       1.18859       0.98990
                        -----------------------------------------
Magnitude (a.u.)       :      1.54881
Magnitude (Debye)      :      3.93675

Rotational constants in cm-1:     0.000902     0.000759     0.000610
Rotational constants in MHz :    27.033990    22.741704    18.298017

                             ****ORCA TERMINATED NORMALLY****
TOTAL RUN TIME: 0 days 0 hours 9 minutes 37 seconds 947 msec
