                         Program Version 4.2.0 -  RELEASE  -
|  1> # ORCA input file
|  2> # SCF done       -177.546183118908          0.000828329921
|  3> ! CAM-B3LYP def2-SVP def2/J RIJCOSX Grid4 TightSCF
|  4> %maxcore 5000
|  5> %tddft
|  6>     Mode sTDDFT
|  7>     Ethresh 5.0
|  8>     maxcore 5000
|  9> end
| 10>
| 11> %pal
| 12>   nprocs 6
| 13>   end
| 14> * xyz 0 1
| 15>    C       -4.93239         1.68730         2.41510
| 16>    C       -5.96468         0.90889         2.86849
| 17>    C       -6.01510         0.34563         4.16097
| 18>    N       -6.10417        -0.14069         5.19669
| 19>    C       -7.14237         0.62172         2.14409
| 20>    N       -8.14656         0.38279         1.64218
| 21>    C       -3.79351         2.13459         3.20493
| 22>    C       -3.07167         3.09402         2.45441
| 23>    C       -1.94842         3.72059         2.93736
| 24>    C       -1.51386         3.38145         4.22261
| 25>    C       -2.23741         2.41549         4.96326
| 26>    C       -3.37453         1.78393         4.47564
| 27>    S       -1.52335         2.14054         6.52301
| 28>    C       -0.28206         3.31219         6.16573
| 29>    C       -0.39368         3.88067         4.94155
| 30>   Br        1.04395         3.67342         7.44131
| 31>    C       -3.70490         3.27720         1.13179
| 32>    O       -3.32766         4.02735         0.26240
| 33>    C       -4.83510         2.30462         1.10228
| 34>    C       -5.54255         1.91124         0.00520
| 35>    C       -5.55344         2.49134        -1.28482
| 36>    O       -5.07365         3.72954        -1.56077
| 37>    C       -6.05958         1.96180        -2.46245
| 38>    C       -6.68769         0.77256        -3.05548
| 39>    O       -7.00677        -0.27932        -2.57176
| 40>    N       -6.83638         1.12288        -4.39637
| 41>    C       -6.36197         2.38691        -4.73840
| 42>    O       -6.39178         2.85945        -5.84634
| 43>    C       -5.85469         2.92373        -3.47455
| 44>    C       -5.23926         4.01279        -2.86863
| 45>    C       -4.77422         5.26590        -3.35076
| 46>    C       -4.85481         5.65365        -4.64166
| 47>    C       -4.39455         6.95489        -5.07283
| 48>    C       -4.63009         8.04816        -4.28457
| 49>    S       -4.08444         9.53472        -4.93449
| 50>    C       -3.44624         8.69483        -6.31566
| 51>    C       -3.68387         7.31195        -6.28061
| 52>    C       -3.14696         6.49680        -7.30629
| 53>    C       -3.39178         5.01374        -7.25359
| 54>    C       -4.70838         4.66319        -7.95193
| 55>    C       -2.43902         7.06780        -8.35386
| 56>    C       -1.81387         6.21431        -9.42508
| 57>    C       -0.41038         5.76418        -9.01315
| 58>    C       -2.23787         8.46705        -8.39838
| 59>    C       -1.53007         9.27594        -9.35825
| 60>    C       -1.51051        10.58567        -9.00822
| 61>    S       -2.34591        10.94709        -7.54277
| 62>    C       -2.73952         9.26804        -7.35963
| 63>    C       -0.87162         8.83164       -10.59200
| 64>    C        0.45672         8.64034       -10.67467
| 65>    C        1.13363         8.22388       -11.85158
| 66>    C        2.44987         7.87123       -11.88290
| 67>    C        3.20047         7.44597       -13.01473
| 68>    C        4.49062         7.12700       -12.74102
| 69>    C        4.84640         7.27046       -11.37518
| 70>    S        3.47827         7.84644       -10.45078
| 71>    C        6.05888         7.00061       -10.78081
| 72>    C        7.23804         6.52986       -11.40973
| 73>    C        8.27395         6.34285       -10.55145
| 74>    C        7.96639         6.65368        -9.20011
| 75>    S        6.31429         7.20033        -9.05112
| 76>    C        8.79302         6.55992        -8.11333
| 77>    C        8.32433         6.90426        -6.83205
| 78>    S        9.32631         6.80833        -5.38038
| 79>    C        7.97503         7.37188        -4.47764
| 80>    C        6.90594         7.58441        -5.29612
| 81>    N        7.11403         7.32242        -6.59491
| 82>    H       -1.42222         4.45009         2.34183
| 83>    H       -3.88810         1.05114         5.07523
| 84>    H        0.28515         4.62111         4.55950
| 85>    H       -6.16684         1.02882         0.07191
| 86>    H       -7.25325         0.50017        -5.07379
| 87>    H       -4.29941         5.88849        -2.60594
| 88>    H       -5.31648         4.99579        -5.36329
| 89>    H       -5.16701         8.05699        -3.35592
| 90>    H       -3.42640         4.69557        -6.21086
| 91>    H       -2.57675         4.46749        -7.72463
| 92>    H       -5.51604         5.29690        -7.59400
| 93>    H       -4.97912         3.62874        -7.76083
| 94>    H       -4.62316         4.81109        -9.02626
| 95>    H       -1.73629         6.79192       -10.34531
| 96>    H       -2.43285         5.34412        -9.63752
| 97>    H        0.23047         6.62644        -8.84995
| 98>    H        0.03251         5.15134        -9.79496
| 99>    H       -0.43973         5.18627        -8.09253
|100>    H       -1.04784        11.38687        -9.55124
|101>    H       -1.49864         8.71161       -11.46817
|102>    H        1.06645         8.77553        -9.78984
|103>    H        0.56819         8.16412       -12.77218
|104>    H        2.75185         7.39432       -13.99136
|105>    H        5.19938         6.78821       -13.47535
|106>    H        7.28898         6.34349       -12.46795
|107>    H        9.25022         5.98991       -10.83413
|108>    H        9.80999         6.21968        -8.22731
|109>    H        8.04785         7.51036        -3.41796
|110>    H        5.94056         7.93726        -4.98061
|111> *
|112>
|113>                          ****END OF INPUT****

CARTESIAN COORDINATES (ANGSTROEM)
---------------------------------
  C     -4.932390    1.687300    2.415100
  C     -5.964680    0.908890    2.868490
  C     -6.015100    0.345630    4.160970
  N     -6.104170   -0.140690    5.196690
  C     -7.142370    0.621720    2.144090
  N     -8.146560    0.382790    1.642180
  C     -3.793510    2.134590    3.204930
  C     -3.071670    3.094020    2.454410
  C     -1.948420    3.720590    2.937360
  C     -1.513860    3.381450    4.222610
  C     -2.237410    2.415490    4.963260
  C     -3.374530    1.783930    4.475640
  S     -1.523350    2.140540    6.523010
  C     -0.282060    3.312190    6.165730
  C     -0.393680    3.880670    4.941550
  Br     1.043950    3.673420    7.441310
  C     -3.704900    3.277200    1.131790
  O     -3.327660    4.027350    0.262400
  C     -4.835100    2.304620    1.102280
  C     -5.542550    1.911240    0.005200
  C     -5.553440    2.491340   -1.284820
  O     -5.073650    3.729540   -1.560770
  C     -6.059580    1.961800   -2.462450
  C     -6.687690    0.772560   -3.055480
  O     -7.006770   -0.279320   -2.571760
  N     -6.836380    1.122880   -4.396370
  C     -6.361970    2.386910   -4.738400
  O     -6.391780    2.859450   -5.846340
  C     -5.854690    2.923730   -3.474550
  C     -5.239260    4.012790   -2.868630
  C     -4.774220    5.265900   -3.350760
  C     -4.854810    5.653650   -4.641660
  C     -4.394550    6.954890   -5.072830
  C     -4.630090    8.048160   -4.284570
  S     -4.084440    9.534720   -4.934490
  C     -3.446240    8.694830   -6.315660
  C     -3.683870    7.311950   -6.280610
  C     -3.146960    6.496800   -7.306290
  C     -3.391780    5.013740   -7.253590
  C     -4.708380    4.663190   -7.951930
  C     -2.439020    7.067800   -8.353860
  C     -1.813870    6.214310   -9.425080
  C     -0.410380    5.764180   -9.013150
  C     -2.237870    8.467050   -8.398380
  C     -1.530070    9.275940   -9.358250
  C     -1.510510   10.585670   -9.008220
  S     -2.345910   10.947090   -7.542770
  C     -2.739520    9.268040   -7.359630
  C     -0.871620    8.831640  -10.592000
  C      0.456720    8.640340  -10.674670
  C      1.133630    8.223880  -11.851580
  C      2.449870    7.871230  -11.882900
  C      3.200470    7.445970  -13.014730
  C      4.490620    7.127000  -12.741020
  C      4.846400    7.270460  -11.375180
  S      3.478270    7.846440  -10.450780
  C      6.058880    7.000610  -10.780810
  C      7.238040    6.529860  -11.409730
  C      8.273950    6.342850  -10.551450
  C      7.966390    6.653680   -9.200110
  S      6.314290    7.200330   -9.051120
  C      8.793020    6.559920   -8.113330
  C      8.324330    6.904260   -6.832050
  S      9.326310    6.808330   -5.380380
  C      7.975030    7.371880   -4.477640
  C      6.905940    7.584410   -5.296120
  N      7.114030    7.322420   -6.594910
  H     -1.422220    4.450090    2.341830
  H     -3.888100    1.051140    5.075230
  H      0.285150    4.621110    4.559500
  H     -6.166840    1.028820    0.071910
  H     -7.253250    0.500170   -5.073790
  H     -4.299410    5.888490   -2.605940
  H     -5.316480    4.995790   -5.363290
  H     -5.167010    8.056990   -3.355920
  H     -3.426400    4.695570   -6.210860
  H     -2.576750    4.467490   -7.724630
  H     -5.516040    5.296900   -7.594000
  H     -4.979120    3.628740   -7.760830
  H     -4.623160    4.811090   -9.026260
  H     -1.736290    6.791920  -10.345310
  H     -2.432850    5.344120   -9.637520
  H      0.230470    6.626440   -8.849950
  H      0.032510    5.151340   -9.794960
  H     -0.439730    5.186270   -8.092530
  H     -1.047840   11.386870   -9.551240
  H     -1.498640    8.711610  -11.468170
  H      1.066450    8.775530   -9.789840
  H      0.568190    8.164120  -12.772180
  H      2.751850    7.394320  -13.991360
  H      5.199380    6.788210  -13.475350
  H      7.288980    6.343490  -12.467950
  H      9.250220    5.989910  -10.834130
  H      9.809990    6.219680   -8.227310
  H      8.047850    7.510360   -3.417960
  H      5.940560    7.937260   -4.980610

 Total Charge           Charge          ....    0
 Multiplicity           Mult            ....    1
 Number of Electrons    NEL             ....  532
 Basis Dimension        Dim             .... 1125

ORBITAL ENERGIES
----------------

  NO   OCC          E(Eh)            E(eV)
   0   2.0000    -482.887164    -13140.0278
   1   2.0000     -88.977192     -2421.1925
   2   2.0000     -88.955121     -2420.5919
   3   2.0000     -88.950496     -2420.4660
   4   2.0000     -88.946928     -2420.3689
   5   2.0000     -88.939846     -2420.1762
   6   2.0000     -88.932747     -2419.9831
   7   2.0000     -62.564874     -1702.4768
   8   2.0000     -56.398827     -1534.6901
   9   2.0000     -56.396107     -1534.6161
  10   2.0000     -56.396076     -1534.6152
  11   2.0000     -19.314208      -525.5663
  12   2.0000     -19.220793      -523.0244
  13   2.0000     -19.219729      -522.9954
  14   2.0000     -19.216643      -522.9115
  15   2.0000     -14.461533      -393.5183
  16   2.0000     -14.417291      -392.3144
  17   2.0000     -14.415397      -392.2629
  18   2.0000     -14.393897      -391.6779
  19   2.0000     -10.408768      -283.2370
  20   2.0000     -10.408160      -283.2204
  21   2.0000     -10.374347      -282.3003
  22   2.0000     -10.370630      -282.1992
  23   2.0000     -10.366495      -282.0867
  24   2.0000     -10.360832      -281.9326
  25   2.0000     -10.345887      -281.5259
  26   2.0000     -10.343594      -281.4635
  27   2.0000     -10.327675      -281.0303
  28   2.0000     -10.327506      -281.0257
  29   2.0000     -10.323226      -280.9093
  30   2.0000     -10.319701      -280.8133
  31   2.0000     -10.317336      -280.7490
  32   2.0000     -10.310420      -280.5608
  33   2.0000     -10.309722      -280.5418
  34   2.0000     -10.308648      -280.5126
  35   2.0000     -10.308395      -280.5057
  36   2.0000     -10.307604      -280.4842
  37   2.0000     -10.307286      -280.4755
  38   2.0000     -10.305286      -280.4211
  39   2.0000     -10.303276      -280.3664
  40   2.0000     -10.302672      -280.3499
  41   2.0000     -10.301126      -280.3079
  42   2.0000     -10.300468      -280.2900
  43   2.0000     -10.298363      -280.2327
  44   2.0000     -10.297875      -280.2194
  45   2.0000     -10.296318      -280.1771
  46   2.0000     -10.295210      -280.1469
  47   2.0000     -10.294604      -280.1304
  48   2.0000     -10.294218      -280.1199
  49   2.0000     -10.291189      -280.0375
  50   2.0000     -10.290542      -280.0199
  51   2.0000     -10.289503      -279.9916
  52   2.0000     -10.287284      -279.9312
  53   2.0000     -10.287247      -279.9302
  54   2.0000     -10.286543      -279.9111
  55   2.0000     -10.285027      -279.8698
  56   2.0000     -10.282997      -279.8146
  57   2.0000     -10.278825      -279.7010
  58   2.0000     -10.278573      -279.6942
  59   2.0000     -10.278320      -279.6873
  60   2.0000     -10.277675      -279.6698
  61   2.0000     -10.277611      -279.6680
  62   2.0000     -10.274947      -279.5955
  63   2.0000     -10.274681      -279.5883
  64   2.0000     -10.271678      -279.5066
  65   2.0000     -10.270347      -279.4703
  66   2.0000     -10.269877      -279.4575
  67   2.0000     -10.259001      -279.1616
  68   2.0000     -10.257573      -279.1227
  69   2.0000     -10.247799      -278.8568
  70   2.0000     -10.245110      -278.7836
  71   2.0000      -8.794298      -239.3050
  72   2.0000      -8.073187      -219.6826
  73   2.0000      -8.051258      -219.0859
  74   2.0000      -8.046948      -218.9686
  75   2.0000      -8.043076      -218.8632
  76   2.0000      -8.036117      -218.6739
  77   2.0000      -8.027211      -218.4315
  78   2.0000      -6.630612      -180.4281
  79   2.0000      -6.616036      -180.0315
  80   2.0000      -6.615818      -180.0256
  81   2.0000      -6.042869      -164.4348
  82   2.0000      -6.038607      -164.3188
  83   2.0000      -6.034410      -164.2046
  84   2.0000      -6.020689      -163.8313
  85   2.0000      -6.016483      -163.7168
  86   2.0000      -6.016019      -163.7042
  87   2.0000      -6.013068      -163.6239
  88   2.0000      -6.012598      -163.6111
  89   2.0000      -6.012081      -163.5971
  90   2.0000      -6.009167      -163.5178
  91   2.0000      -6.008422      -163.4975
  92   2.0000      -6.005884      -163.4284
  93   2.0000      -6.004670      -163.3954
  94   2.0000      -6.001881      -163.3195
  95   2.0000      -5.997204      -163.1922
  96   2.0000      -5.996917      -163.1844
  97   2.0000      -5.992693      -163.0695
  98   2.0000      -5.988132      -162.9454
  99   2.0000      -2.746483       -74.7356
 100   2.0000      -2.742382       -74.6240
 101   2.0000      -2.742237       -74.6201
 102   2.0000      -2.730650       -74.3048
 103   2.0000      -2.730633       -74.3043
 104   2.0000      -1.236567       -33.6487
 105   2.0000      -1.164274       -31.6815
 106   2.0000      -1.144112       -31.1329
 107   2.0000      -1.133301       -30.8387
 108   2.0000      -1.052040       -28.6275
 109   2.0000      -1.050963       -28.5982
 110   2.0000      -1.024976       -27.8910
 111   2.0000      -1.014753       -27.6128
 112   2.0000      -1.001260       -27.2457
 113   2.0000      -0.994873       -27.0719
 114   2.0000      -0.991881       -26.9905
 115   2.0000      -0.988797       -26.9065
 116   2.0000      -0.971952       -26.4481
 117   2.0000      -0.966579       -26.3020
 118   2.0000      -0.948720       -25.8160
 119   2.0000      -0.933256       -25.3952
 120   2.0000      -0.932339       -25.3702
 121   2.0000      -0.922432       -25.1007
 122   2.0000      -0.910217       -24.7683
 123   2.0000      -0.909409       -24.7463
 124   2.0000      -0.903576       -24.5875
 125   2.0000      -0.888115       -24.1668
 126   2.0000      -0.887739       -24.1566
 127   2.0000      -0.879926       -23.9440
 128   2.0000      -0.878383       -23.9020
 129   2.0000      -0.867393       -23.6030
 130   2.0000      -0.860077       -23.4039
 131   2.0000      -0.850649       -23.1473
 132   2.0000      -0.843880       -22.9631
 133   2.0000      -0.841087       -22.8871
 134   2.0000      -0.831033       -22.6136
 135   2.0000      -0.823455       -22.4073
 136   2.0000      -0.816184       -22.2095
 137   2.0000      -0.814664       -22.1681
 138   2.0000      -0.805364       -21.9151
 139   2.0000      -0.791399       -21.5351
 140   2.0000      -0.781379       -21.2624
 141   2.0000      -0.778607       -21.1870
 142   2.0000      -0.769765       -20.9464
 143   2.0000      -0.766085       -20.8462
 144   2.0000      -0.761331       -20.7169
 145   2.0000      -0.759851       -20.6766
 146   2.0000      -0.727898       -19.8071
 147   2.0000      -0.723962       -19.7000
 148   2.0000      -0.715729       -19.4760
 149   2.0000      -0.707073       -19.2404
 150   2.0000      -0.701778       -19.0964
 151   2.0000      -0.693600       -18.8738
 152   2.0000      -0.691711       -18.8224
 153   2.0000      -0.688047       -18.7227
 154   2.0000      -0.683175       -18.5901
 155   2.0000      -0.677628       -18.4392
 156   2.0000      -0.669592       -18.2205
 157   2.0000      -0.660413       -17.9707
 158   2.0000      -0.657207       -17.8835
 159   2.0000      -0.646625       -17.5956
 160   2.0000      -0.642165       -17.4742
 161   2.0000      -0.633730       -17.2447
 162   2.0000      -0.628433       -17.1005
 163   2.0000      -0.623021       -16.9533
 164   2.0000      -0.621062       -16.9000
 165   2.0000      -0.617245       -16.7961
 166   2.0000      -0.613380       -16.6909
 167   2.0000      -0.610922       -16.6240
 168   2.0000      -0.604312       -16.4442
 169   2.0000      -0.601508       -16.3679
 170   2.0000      -0.596707       -16.2372
 171   2.0000      -0.592649       -16.1268
 172   2.0000      -0.589226       -16.0337
 173   2.0000      -0.583466       -15.8769
 174   2.0000      -0.580829       -15.8052
 175   2.0000      -0.578879       -15.7521
 176   2.0000      -0.577121       -15.7043
 177   2.0000      -0.567932       -15.4542
 178   2.0000      -0.554401       -15.0860
 179   2.0000      -0.552490       -15.0340
 180   2.0000      -0.551285       -15.0012
 181   2.0000      -0.543454       -14.7881
 182   2.0000      -0.540758       -14.7148
 183   2.0000      -0.540387       -14.7047
 184   2.0000      -0.538795       -14.6613
 185   2.0000      -0.533692       -14.5225
 186   2.0000      -0.532215       -14.4823
 187   2.0000      -0.527923       -14.3655
 188   2.0000      -0.525677       -14.3044
 189   2.0000      -0.523852       -14.2547
 190   2.0000      -0.520839       -14.1728
 191   2.0000      -0.515401       -14.0248
 192   2.0000      -0.514533       -14.0011
 193   2.0000      -0.510741       -13.8980
 194   2.0000      -0.509149       -13.8547
 195   2.0000      -0.504017       -13.7150
 196   2.0000      -0.503463       -13.6999
 197   2.0000      -0.501880       -13.6569
 198   2.0000      -0.499387       -13.5890
 199   2.0000      -0.495418       -13.4810
 200   2.0000      -0.494277       -13.4500
 201   2.0000      -0.492972       -13.4144
 202   2.0000      -0.492351       -13.3976
 203   2.0000      -0.490838       -13.3564
 204   2.0000      -0.487939       -13.2775
 205   2.0000      -0.486444       -13.2368
 206   2.0000      -0.480339       -13.0707
 207   2.0000      -0.479367       -13.0442
 208   2.0000      -0.477269       -12.9871
 209   2.0000      -0.473866       -12.8945
 210   2.0000      -0.470264       -12.7965
 211   2.0000      -0.467365       -12.7176
 212   2.0000      -0.463080       -12.6010
 213   2.0000      -0.460338       -12.5264
 214   2.0000      -0.457600       -12.4519
 215   2.0000      -0.455816       -12.4034
 216   2.0000      -0.453642       -12.3442
 217   2.0000      -0.452174       -12.3043
 218   2.0000      -0.449357       -12.2276
 219   2.0000      -0.449046       -12.2192
 220   2.0000      -0.448224       -12.1968
 221   2.0000      -0.444005       -12.0820
 222   2.0000      -0.440411       -11.9842
 223   2.0000      -0.439018       -11.9463
 224   2.0000      -0.437620       -11.9083
 225   2.0000      -0.433803       -11.8044
 226   2.0000      -0.431371       -11.7382
 227   2.0000      -0.429775       -11.6948
 228   2.0000      -0.426289       -11.5999
 229   2.0000      -0.425204       -11.5704
 230   2.0000      -0.424216       -11.5435
 231   2.0000      -0.422496       -11.4967
 232   2.0000      -0.419946       -11.4273
 233   2.0000      -0.416878       -11.3438
 234   2.0000      -0.415993       -11.3197
 235   2.0000      -0.410143       -11.1606
 236   2.0000      -0.408097       -11.1049
 237   2.0000      -0.403283       -10.9739
 238   2.0000      -0.398955       -10.8561
 239   2.0000      -0.396916       -10.8006
 240   2.0000      -0.390055       -10.6139
 241   2.0000      -0.388273       -10.5654
 242   2.0000      -0.383018       -10.4225
 243   2.0000      -0.377872       -10.2824
 244   2.0000      -0.376499       -10.2451
 245   2.0000      -0.376176       -10.2363
 246   2.0000      -0.371702       -10.1145
 247   2.0000      -0.368223       -10.0198
 248   2.0000      -0.367856       -10.0099
 249   2.0000      -0.354750        -9.6532
 250   2.0000      -0.353190        -9.6108
 251   2.0000      -0.346726        -9.4349
 252   2.0000      -0.338926        -9.2227
 253   2.0000      -0.334140        -9.0924
 254   2.0000      -0.333305        -9.0697
 255   2.0000      -0.324701        -8.8356
 256   2.0000      -0.322296        -8.7701
 257   2.0000      -0.321251        -8.7417
 258   2.0000      -0.316953        -8.6247
 259   2.0000      -0.313190        -8.5223
 260   2.0000      -0.296341        -8.0638
 261   2.0000      -0.287759        -7.8303
 262   2.0000      -0.278261        -7.5719
 263   2.0000      -0.266775        -7.2593
 264   2.0000      -0.259030        -7.0486
 265   2.0000      -0.214132        -5.8268
 266   0.0000      -0.100567        -2.7366
 267   0.0000      -0.072174        -1.9640
 268   0.0000      -0.063106        -1.7172
 269   0.0000      -0.050894        -1.3849
 270   0.0000      -0.020034        -0.5452

MULLIKEN ATOMIC CHARGES
-----------------------
   0 C :    0.293727
   1 C :   -0.335243
   2 C :   -0.183360
   3 N :    0.152984
   4 C :   -0.207179
   5 N :    0.174879
   6 C :    0.022980
   7 C :   -0.020575
   8 C :   -0.072538
   9 C :    0.118828
  10 C :   -0.088222
  11 C :   -0.023245
  12 S :    0.187416
  13 C :   -0.122371
  14 C :    0.038528
  15 Br:    0.025451
  16 C :    0.137738
  17 O :   -0.129515
  18 C :   -0.063781
  19 C :   -0.054396
  20 C :    0.071568
  21 O :   -0.156882
  22 C :   -0.012688
  23 C :    0.171379
  24 O :   -0.124268
  25 N :   -0.163459
  26 C :    0.189491
  27 O :   -0.149650
  28 C :   -0.089595
  29 C :    0.142664
  30 C :   -0.024959
  31 C :   -0.015078
  32 C :    0.047553
  33 C :   -0.108078
  34 S :    0.138882
  35 C :   -0.156747
  36 C :    0.133408
  37 C :   -0.136077
  38 C :    0.017094
  39 C :    0.051332
  40 C :   -0.122541
  41 C :    0.058002
  42 C :    0.055625
  43 C :    0.125706
  44 C :    0.027288
  45 C :   -0.096230
  46 S :    0.114487
  47 C :   -0.141093
  48 C :   -0.080396
  49 C :    0.034825
  50 C :   -0.026371
  51 C :   -0.012508
  52 C :    0.040297
  53 C :    0.030000
  54 C :   -0.052238
  55 S :    0.077982
  56 C :   -0.046782
  57 C :    0.028981
  58 C :    0.036722
  59 C :   -0.010460
  60 S :    0.126251
  61 C :    0.023586
  62 C :   -0.100795
  63 S :    0.095244
  64 C :   -0.092369
  65 C :    0.077738
  66 N :   -0.129792
  67 H :   -0.009249
  68 H :   -0.004801
  69 H :   -0.002939
  70 H :    0.043325
  71 H :    0.141982
  72 H :    0.005358
  73 H :    0.039398
  74 H :    0.024465
  75 H :    0.002926
  76 H :   -0.000304
  77 H :    0.013308
  78 H :    0.027672
  79 H :    0.000792
  80 H :   -0.010828
  81 H :   -0.002993
  82 H :    0.002225
  83 H :    0.015302
  84 H :    0.006514
  85 H :    0.015471
  86 H :    0.023834
  87 H :    0.017387
  88 H :   -0.016636
  89 H :   -0.012720
  90 H :   -0.013154
  91 H :   -0.017469
  92 H :   -0.016397
  93 H :   -0.021997
  94 H :    0.029967
  95 H :    0.000408
Sum of atomic charges:   -0.0000000

LOEWDIN ATOMIC CHARGES
----------------------
   0 C :    0.071785
   1 C :   -0.132701
   2 C :   -0.017532
   3 N :   -0.049005
   4 C :   -0.028501
   5 N :   -0.039009
   6 C :   -0.021357
   7 C :   -0.051001
   8 C :    0.021885
   9 C :   -0.031556
  10 C :   -0.143142
  11 C :   -0.009765
  12 S :    0.433516
  13 C :   -0.270600
  14 C :   -0.070368
  15 Br:    0.138416
  16 C :    0.076250
  17 O :   -0.132138
  18 C :   -0.077267
  19 C :    0.047880
  20 C :    0.037992
  21 O :    0.052586
  22 C :   -0.057925
  23 C :    0.085840
  24 O :   -0.140313
  25 N :   -0.003387
  26 C :    0.091476
  27 O :   -0.155976
  28 C :   -0.114183
  29 C :    0.095457
  30 C :   -0.057165
  31 C :    0.039476
  32 C :   -0.066886
  33 C :   -0.159115
  34 S :    0.425142
  35 C :   -0.178033
  36 C :   -0.041012
  37 C :   -0.019586
  38 C :   -0.031751
  39 C :   -0.049655
  40 C :   -0.016621
  41 C :   -0.029765
  42 C :   -0.045986
  43 C :   -0.040622
  44 C :   -0.064087
  45 C :   -0.166162
  46 S :    0.402347
  47 C :   -0.180259
  48 C :   -0.017573
  49 C :   -0.027512
  50 C :   -0.056731
  51 C :   -0.141559
  52 C :   -0.030297
  53 C :   -0.029878
  54 C :   -0.168255
  55 S :    0.368842
  56 C :   -0.192944
  57 C :   -0.026175
  58 C :   -0.039768
  59 C :   -0.119998
  60 S :    0.419759
  61 C :   -0.108568
  62 C :   -0.131082
  63 S :    0.396438
  64 C :   -0.211101
  65 C :   -0.029575
  66 N :   -0.126402
  67 H :    0.041063
  68 H :    0.041286
  69 H :    0.039101
  70 H :    0.060213
  71 H :    0.096962
  72 H :    0.042781
  73 H :    0.039046
  74 H :    0.024733
  75 H :    0.026848
  76 H :    0.026126
  77 H :    0.022057
  78 H :    0.025762
  79 H :    0.020830
  80 H :    0.028167
  81 H :    0.024393
  82 H :    0.022512
  83 H :    0.025427
  84 H :    0.021491
  85 H :    0.024055
  86 H :    0.029632
  87 H :    0.025114
  88 H :    0.031552
  89 H :    0.033322
  90 H :    0.031985
  91 H :    0.028642
  92 H :    0.031593
  93 H :    0.030682
  94 H :    0.024479
  95 H :    0.024907

  Mayer bond orders larger than 0.100000
B(  0-C ,  1-C ) :   1.6491 B(  0-C ,  6-C ) :   1.0114 B(  0-C , 18-C ) :   1.0481
B(  1-C ,  2-C ) :   1.1413 B(  1-C ,  4-C ) :   1.1369 B(  2-C ,  3-N ) :   2.9732
B(  4-C ,  5-N ) :   3.0019 B(  6-C ,  7-C ) :   1.2738 B(  6-C , 11-C ) :   1.4027
B(  7-C ,  8-C ) :   1.4252 B(  7-C , 16-C ) :   0.9397 B(  8-C ,  9-C ) :   1.2474
B(  8-C , 67-H ) :   1.0168 B(  9-C , 10-C ) :   1.3023 B(  9-C , 14-C ) :   1.1631
B( 10-C , 11-C ) :   1.3341 B( 10-C , 12-S ) :   1.0854 B( 11-C , 68-H ) :   0.9816
B( 12-S , 13-C ) :   1.0863 B( 13-C , 14-C ) :   1.6174 B( 13-C , 15-Br) :   1.0197
B( 14-C , 69-H ) :   1.0012 B( 16-C , 17-O ) :   2.2680 B( 16-C , 18-C ) :   0.9203
B( 18-C , 19-C ) :   1.5784 B( 19-C , 20-C ) :   1.2041 B( 19-C , 70-H ) :   0.9370
B( 20-C , 21-O ) :   1.1488 B( 20-C , 22-C ) :   1.3785 B( 21-O , 29-C ) :   1.1935
B( 22-C , 23-C ) :   0.8687 B( 22-C , 28-C ) :   1.3178 B( 23-C , 24-O ) :   2.2683
B( 23-C , 25-N ) :   1.0799 B( 25-N , 26-C ) :   1.0946 B( 25-N , 71-H ) :   0.9142
B( 26-C , 27-O ) :   2.1687 B( 26-C , 28-C ) :   0.8877 B( 28-C , 29-C ) :   1.3637
B( 29-C , 30-C ) :   1.1533 B( 30-C , 31-C ) :   1.6890 B( 30-C , 72-H ) :   0.9643
B( 31-C , 32-C ) :   1.0307 B( 31-C , 73-H ) :   0.9378 B( 32-C , 33-C ) :   1.5945
B( 32-C , 36-C ) :   1.1464 B( 33-C , 34-S ) :   1.1355 B( 33-C , 74-H ) :   0.9630
B( 34-S , 35-C ) :   1.0708 B( 35-C , 36-C ) :   1.3736 B( 35-C , 47-C ) :   1.3822
B( 36-C , 37-C ) :   1.2629 B( 37-C , 38-C ) :   1.0645 B( 37-C , 40-C ) :   1.5042
B( 38-C , 39-C ) :   1.1144 B( 38-C , 75-H ) :   0.9160 B( 38-C , 76-H ) :   0.9078
B( 39-C , 77-H ) :   0.9590 B( 39-C , 78-H ) :   0.9606 B( 39-C , 79-H ) :   0.9560
B( 40-C , 41-C ) :   1.0764 B( 40-C , 43-C ) :   1.2662 B( 41-C , 42-C ) :   1.1197
B( 41-C , 80-H ) :   0.8961 B( 41-C , 81-H ) :   0.9069 B( 42-C , 82-H ) :   0.9541
B( 42-C , 83-H ) :   0.9665 B( 42-C , 84-H ) :   0.9607 B( 43-C , 44-C ) :   1.1811
B( 43-C , 47-C ) :   1.3613 B( 44-C , 45-C ) :   1.6598 B( 44-C , 48-C ) :   0.9516
B( 45-C , 46-S ) :   1.0997 B( 45-C , 85-H ) :   0.9665 B( 46-S , 47-C ) :   1.0799
B( 48-C , 49-C ) :   1.7978 B( 48-C , 86-H ) :   0.9505 B( 49-C , 50-C ) :   1.1071
B( 49-C , 87-H ) :   0.9592 B( 50-C , 51-C ) :   1.6219 B( 50-C , 88-H ) :   0.9827
B( 51-C , 52-C ) :   1.1176 B( 51-C , 55-S ) :   1.0216 B( 52-C , 53-C ) :   1.6163
B( 52-C , 89-H ) :   0.9988 B( 53-C , 54-C ) :   1.1696 B( 53-C , 90-H ) :   0.9921
B( 54-C , 55-S ) :   1.0466 B( 54-C , 56-C ) :   1.5448 B( 56-C , 57-C ) :   1.1718
B( 56-C , 60-S ) :   0.9894 B( 57-C , 58-C ) :   1.6089 B( 57-C , 91-H ) :   0.9940
B( 58-C , 59-C ) :   1.1292 B( 58-C , 92-H ) :   0.9986 B( 59-C , 60-S ) :   1.0798
B( 59-C , 61-C ) :   1.5966 B( 61-C , 62-C ) :   1.1431 B( 61-C , 93-H ) :   0.9626
B( 62-C , 63-S ) :   1.0962 B( 62-C , 66-N ) :   1.6268 B( 63-S , 64-C ) :   1.1477
B( 64-C , 65-C ) :   1.5733 B( 64-C , 94-H ) :   0.9707 B( 65-C , 66-N ) :   1.3523
B( 65-C , 95-H ) :   0.9940

-----------------------------------------------------------------------------
         ABSORPTION SPECTRUM VIA TRANSITION ELECTRIC DIPOLE MOMENTS
-----------------------------------------------------------------------------
State   Energy  Wavelength   fosc         T2         TX        TY        TZ
        (cm-1)    (nm)                  (au**2)     (au)      (au)      (au)
-----------------------------------------------------------------------------
   0   17381.6    575.3   1.113050672  21.08149  -4.12794   0.56433  -1.92955
   1   17780.3    562.4   0.003317204   0.06142  -0.20710   0.04109  -0.12978
   2   20176.5    495.6   0.943642680  15.39707  -0.42199   1.60962  -3.55361
   3   25372.9    394.1   0.008748283   0.11351   0.03149   0.11742   0.31421
   4   25826.5    387.2   0.050319823   0.64143   0.77993   0.18203   0.00305
   5   26068.0    383.6   0.000210182   0.00265   0.04313   0.02224   0.01731
   6   26576.2    376.3   0.181354369   2.24652  -0.92847  -0.41463  -1.10115
   7   26954.5    371.0   0.010433691   0.12743   0.27276  -0.09952  -0.20768
   8   27054.2    369.6   0.001441274   0.01754   0.09036  -0.03272  -0.09112
   9   27213.3    367.5   0.060905812   0.73681  -0.12162  -0.30911  -0.79150
  10   28098.1    355.9   0.455436469   5.33614  -0.68597  -1.91384   1.09673
  11   28568.4    350.0   0.269049284   3.10043  -0.99018  -0.11311  -1.45161
  12   28713.1    348.3   0.009698806   0.11120  -0.15314   0.08318   0.28431
  13   29075.9    343.9   0.058741643   0.66510   0.64998   0.24314   0.42838
  14   29822.1    335.3   0.006048513   0.06677  -0.10756   0.15539   0.17623
  15   30732.7    325.4   0.367419801   3.93584  -1.15123   0.50410   1.53505
  16   31626.1    316.2   0.001966521   0.02047   0.10335  -0.09870   0.00689
  17   31724.4    315.2   0.001965871   0.02040   0.10105  -0.09985   0.01477
  18   32136.3    311.2   0.049702549   0.50916  -0.62357  -0.25279  -0.23753
  19   32663.7    306.2   0.271753937   2.73896  -0.91953   0.27708   1.34783
  20   32893.1    304.0   0.616137701   6.16665   2.04990   1.06065   0.91629
  21   33068.0    302.4   0.000434999   0.00433  -0.02662  -0.03762  -0.04698
  22   33125.4    301.9   0.051804957   0.51486  -0.27421   0.28287   0.59971
  23   33366.5    299.7   0.003689648   0.03640   0.16309   0.08805   0.04531
  24   34620.3    288.8   0.083849460   0.79734  -0.23993  -0.77738   0.36803
  25   34758.3    287.7   0.033868763   0.32079  -0.35369  -0.44237   0.00028
  26   35305.9    283.2   0.002862605   0.02669   0.15262   0.05572   0.01718
  27   35476.3    281.9   0.000589283   0.00547   0.03455  -0.03778  -0.05336
  28   35979.9    277.9   0.163828715   1.49902  -0.83266  -0.64056  -0.62880
  29   36468.0    274.2   0.244347392   2.20583  -1.12344   0.45304   0.85935
  30   37041.5    270.0   0.002565708   0.02280  -0.14901   0.02412  -0.00421
  31   37739.7    265.0   0.146054202   1.27406  -0.09663   1.06465   0.36229
  32   37818.6    264.4   0.036164652   0.31481   0.21180   0.43984   0.27658
  33   37850.7    264.2   0.042085860   0.36605   0.39645   0.03840   0.45542
  34   38132.5    262.2   0.082644859   0.71350   0.09393   0.42963   0.72118
  35   38821.0    257.6   0.178184472   1.51105  -0.57050  -0.59895   0.90930
  36   39208.1    255.0   0.183125568   1.53762   0.02689   0.47747  -1.14408
  37   39697.1    251.9   0.010744126   0.08910   0.01086   0.13460  -0.26621
  38   39937.7    250.4   0.001448049   0.01194   0.02569   0.03851  -0.09896
  39   40279.8    248.3   0.022287831   0.18216  -0.13518  -0.30380   0.26757

FINAL SINGLE POINT ENERGY     -7478.042927753219

DIPOLE MOMENT
-------------
                                X             Y             Z
Electronic contribution:      8.75151     -27.62219     192.95560
Nuclear contribution   :     -6.18932      28.98114    -194.87313
                        -----------------------------------------
Total Dipole Moment    :      2.56219       1.35895      -1.91753
                        -----------------------------------------
Magnitude (a.u.)       :      3.47684
Magnitude (Debye)      :      8.83743

Rotational constants in cm-1:     0.000762     0.000311     0.000243
Rotational constants in MHz :    22.850589     9.324220     7.299940

                             ****ORCA TERMINATED NORMALLY****
TOTAL RUN TIME: 0 days 0 hours 13 minutes 6 seconds 118 msec
