                         Program Version 4.2.0 -  RELEASE  -
|  1> # ORCA input file
|  2> # SCF done       -194.000273065359          0.000864987006
|  3> ! CAM-B3LYP def2-SVP def2/J RIJCOSX Grid4 TightSCF
|  4> %maxcore 5000
|  5> %tddft
|  6>     Mode sTDDFT
|  7>     Ethresh 5.0
|  8>     maxcore 5000
|  9> end
| 10>
| 11> %pal
| 12>   nprocs 6
| 13>   end
| 14> * xyz 0 1
| 15>    C       -4.84208         0.87749         3.75666
| 16>    C       -3.68757         0.36285         3.21684
| 17>    C       -3.00491        -0.75795         3.73187
| 18>    N       -2.40245        -1.66621         4.09399
| 19>    C       -3.00281         0.86403         2.09203
| 20>    N       -2.38391         1.20198         1.18349
| 21>    C       -5.52234         0.35185         4.93425
| 22>    C       -6.65091         1.16326         5.20851
| 23>    C       -7.50134         0.92283         6.25925
| 24>    C       -7.22811        -0.17609         7.08102
| 25>    C       -6.09970        -0.98206         6.80002
| 26>    C       -5.23802        -0.73667         5.73851
| 27>    S       -5.94887        -2.28886         7.93604
| 28>    C       -7.38471        -1.74196         8.76052
| 29>    C       -7.94879        -0.63792         8.21615
| 30>   Br       -8.00381        -2.68106        10.26169
| 31>    C       -6.72696         2.24073         4.20413
| 32>    O       -7.56756         3.12057         4.15710
| 33>    C       -5.59771         2.02578         3.29176
| 34>    C       -5.30702         2.74844         2.16398
| 35>    C       -5.94805         3.84882         1.57448
| 36>    S       -7.35361         4.66936         2.22021
| 37>    C       -7.42781         5.70652         0.85798
| 38>    C       -8.49247         6.74636         0.81335
| 39>    C       -9.85118         6.13149         0.46255
| 40>    C       -6.42673         5.44994        -0.06934
| 41>    C       -5.55588         4.41908         0.36055
| 42>    C       -4.40166         3.94523        -0.46334
| 43>    C       -4.87597         3.00013        -1.57087
| 44>    C       -6.25347         6.09219        -1.35048
| 45>    C       -7.21679         6.54519        -2.17283
| 46>    C       -6.89801         7.00880        -3.48397
| 47>    N       -5.70178         7.07906        -3.98542
| 48>    C       -5.72980         7.42171        -5.27805
| 49>    C       -6.98194         7.62816        -5.81626
| 50>    S       -8.19759         7.41549        -4.63251
| 51>    C       -6.83629         8.02320        -7.23313
| 52>    C       -5.51925         7.29592        -7.54261
| 53>    C       -4.62004         7.57248        -6.30017
| 54>    C       -4.06854         9.00763        -6.28742
| 55>    C       -3.44219         9.39098        -4.95113
| 56>    C       -3.53052         6.51657        -6.05907
| 57>    C       -2.22617         6.72643        -6.82289
| 58>    N       -5.16771         7.59953        -8.91518
| 59>    C       -6.33360         8.06919        -9.63047
| 60>    S       -7.84563         7.57381        -8.68136
| 61>    C       -4.34006         6.68213        -9.52807
| 62>    C       -3.84605         6.75404       -10.78895
| 63>    C       -3.96867         7.74398       -11.80700
| 64>    C       -3.30502         7.44666       -12.95267
| 65>    C       -2.61750         6.20654       -12.93338
| 66>    S       -2.82786         5.42931       -11.37644
| 67>    C       -1.86722         5.62517       -13.92792
| 68>    C       -1.64596         6.08816       -15.24858
| 69>    C       -0.84972         5.27200       -15.98333
| 70>    C       -0.39631         4.10288       -15.30211
| 71>    S       -1.04212         4.09751       -13.67358
| 72>    C        0.48438         3.20678       -15.83356
| 73>    C        1.09405         2.04089       -15.27615
| 74>    C        0.57848         1.24912       -14.24076
| 75>    O       -0.68740         1.57145       -13.87808
| 76>    C       -1.34904         1.02820       -12.75796
| 77>    C        1.33259         0.15244       -13.70739
| 78>    O        0.76355        -0.52574       -12.66613
| 79>    C        1.46814        -1.59649       -12.08671
| 80>    C        2.55709        -0.19485       -14.22737
| 81>    C        3.06615         0.52881       -15.31343
| 82>    C        2.33507         1.64209       -15.84524
| 83>    N        2.96601         2.21553       -16.86396
| 84>    S        4.34505         1.41794       -17.13146
| 85>    N        4.20912         0.31486       -15.96124
| 86>    H       -8.35207         1.56060         6.44124
| 87>    H       -4.39321        -1.38222         5.56740
| 88>    H       -8.83674        -0.16779         8.59752
| 89>    H       -4.44931         2.40356         1.60403
| 90>    H       -8.22650         7.51821         0.08948
| 91>    H       -8.57048         7.21189         1.79882
| 92>    H       -9.81212         5.62318        -0.49832
| 93>    H      -10.61238         6.90600         0.41655
| 94>    H      -10.13648         5.40570         1.22008
| 95>    H       -3.65971         3.43410         0.14978
| 96>    H       -3.90692         4.80541        -0.91793
| 97>    H       -5.36655         2.12961        -1.14115
| 98>    H       -4.02662         2.66230        -2.15834
| 99>    H       -5.57939         3.50663        -2.22831
|100>    H       -5.24147         6.14279        -1.72787
|101>    H       -8.26559         6.50071        -1.92780
|102>    H       -6.74046         9.11377        -7.30322
|103>    H       -5.75210         6.21601        -7.48365
|104>    H       -3.34097         9.11106        -7.09300
|105>    H       -4.88388         9.70417        -6.49300
|106>    H       -2.55322         8.80313        -4.74463
|107>    H       -4.15003         9.23126        -4.14144
|108>    H       -3.16087        10.44160        -4.96285
|109>    H       -3.32140         6.50349        -4.98815
|110>    H       -3.94458         5.53661        -6.31173
|111>    H       -1.66283         7.56387        -6.42142
|112>    H       -2.40376         6.91078        -7.87885
|113>    H       -1.60867         5.83566        -6.73213
|114>    H       -6.39775         7.63660       -10.62727
|115>    H       -6.34794         9.16158        -9.69007
|116>    H       -4.04456         5.83903        -8.91800
|117>    H       -4.51525         8.65585       -11.64465
|118>    H       -3.27961         8.08598       -13.81728
|119>    H       -2.08668         6.99856       -15.61479
|120>    H       -0.56469         5.45734       -17.00422
|121>    H        0.87512         3.46253       -16.81142
|122>    H       -0.78464         1.18376       -11.83740
|123>    H       -1.55487        -0.03542       -12.88830
|124>    H       -2.28755         1.57983       -12.69945
|125>    H        1.63898        -2.40288       -12.80644
|126>    H        0.82946        -1.95929       -11.28256
|127>    H        2.42564        -1.26945       -11.67014
|128>    H        3.13561        -1.01546       -13.84147
|129> *
|130>
|131>                          ****END OF INPUT****

CARTESIAN COORDINATES (ANGSTROEM)
---------------------------------
  C     -4.842080    0.877490    3.756660
  C     -3.687570    0.362850    3.216840
  C     -3.004910   -0.757950    3.731870
  N     -2.402450   -1.666210    4.093990
  C     -3.002810    0.864030    2.092030
  N     -2.383910    1.201980    1.183490
  C     -5.522340    0.351850    4.934250
  C     -6.650910    1.163260    5.208510
  C     -7.501340    0.922830    6.259250
  C     -7.228110   -0.176090    7.081020
  C     -6.099700   -0.982060    6.800020
  C     -5.238020   -0.736670    5.738510
  S     -5.948870   -2.288860    7.936040
  C     -7.384710   -1.741960    8.760520
  C     -7.948790   -0.637920    8.216150
  Br    -8.003810   -2.681060   10.261690
  C     -6.726960    2.240730    4.204130
  O     -7.567560    3.120570    4.157100
  C     -5.597710    2.025780    3.291760
  C     -5.307020    2.748440    2.163980
  C     -5.948050    3.848820    1.574480
  S     -7.353610    4.669360    2.220210
  C     -7.427810    5.706520    0.857980
  C     -8.492470    6.746360    0.813350
  C     -9.851180    6.131490    0.462550
  C     -6.426730    5.449940   -0.069340
  C     -5.555880    4.419080    0.360550
  C     -4.401660    3.945230   -0.463340
  C     -4.875970    3.000130   -1.570870
  C     -6.253470    6.092190   -1.350480
  C     -7.216790    6.545190   -2.172830
  C     -6.898010    7.008800   -3.483970
  N     -5.701780    7.079060   -3.985420
  C     -5.729800    7.421710   -5.278050
  C     -6.981940    7.628160   -5.816260
  S     -8.197590    7.415490   -4.632510
  C     -6.836290    8.023200   -7.233130
  C     -5.519250    7.295920   -7.542610
  C     -4.620040    7.572480   -6.300170
  C     -4.068540    9.007630   -6.287420
  C     -3.442190    9.390980   -4.951130
  C     -3.530520    6.516570   -6.059070
  C     -2.226170    6.726430   -6.822890
  N     -5.167710    7.599530   -8.915180
  C     -6.333600    8.069190   -9.630470
  S     -7.845630    7.573810   -8.681360
  C     -4.340060    6.682130   -9.528070
  C     -3.846050    6.754040  -10.788950
  C     -3.968670    7.743980  -11.807000
  C     -3.305020    7.446660  -12.952670
  C     -2.617500    6.206540  -12.933380
  S     -2.827860    5.429310  -11.376440
  C     -1.867220    5.625170  -13.927920
  C     -1.645960    6.088160  -15.248580
  C     -0.849720    5.272000  -15.983330
  C     -0.396310    4.102880  -15.302110
  S     -1.042120    4.097510  -13.673580
  C      0.484380    3.206780  -15.833560
  C      1.094050    2.040890  -15.276150
  C      0.578480    1.249120  -14.240760
  O     -0.687400    1.571450  -13.878080
  C     -1.349040    1.028200  -12.757960
  C      1.332590    0.152440  -13.707390
  O      0.763550   -0.525740  -12.666130
  C      1.468140   -1.596490  -12.086710
  C      2.557090   -0.194850  -14.227370
  C      3.066150    0.528810  -15.313430
  C      2.335070    1.642090  -15.845240
  N      2.966010    2.215530  -16.863960
  S      4.345050    1.417940  -17.131460
  N      4.209120    0.314860  -15.961240
  H     -8.352070    1.560600    6.441240
  H     -4.393210   -1.382220    5.567400
  H     -8.836740   -0.167790    8.597520
  H     -4.449310    2.403560    1.604030
  H     -8.226500    7.518210    0.089480
  H     -8.570480    7.211890    1.798820
  H     -9.812120    5.623180   -0.498320
  H    -10.612380    6.906000    0.416550
  H    -10.136480    5.405700    1.220080
  H     -3.659710    3.434100    0.149780
  H     -3.906920    4.805410   -0.917930
  H     -5.366550    2.129610   -1.141150
  H     -4.026620    2.662300   -2.158340
  H     -5.579390    3.506630   -2.228310
  H     -5.241470    6.142790   -1.727870
  H     -8.265590    6.500710   -1.927800
  H     -6.740460    9.113770   -7.303220
  H     -5.752100    6.216010   -7.483650
  H     -3.340970    9.111060   -7.093000
  H     -4.883880    9.704170   -6.493000
  H     -2.553220    8.803130   -4.744630
  H     -4.150030    9.231260   -4.141440
  H     -3.160870   10.441600   -4.962850
  H     -3.321400    6.503490   -4.988150
  H     -3.944580    5.536610   -6.311730
  H     -1.662830    7.563870   -6.421420
  H     -2.403760    6.910780   -7.878850
  H     -1.608670    5.835660   -6.732130
  H     -6.397750    7.636600  -10.627270
  H     -6.347940    9.161580   -9.690070
  H     -4.044560    5.839030   -8.918000
  H     -4.515250    8.655850  -11.644650
  H     -3.279610    8.085980  -13.817280
  H     -2.086680    6.998560  -15.614790
  H     -0.564690    5.457340  -17.004220
  H      0.875120    3.462530  -16.811420
  H     -0.784640    1.183760  -11.837400
  H     -1.554870   -0.035420  -12.888300
  H     -2.287550    1.579830  -12.699450
  H      1.638980   -2.402880  -12.806440
  H      0.829460   -1.959290  -11.282560
  H      2.425640   -1.269450  -11.670140
  H      3.135610   -1.015460  -13.841470

 Total Charge           Charge          ....    0
 Multiplicity           Mult            ....    1
 Number of Electrons    NEL             ....  580
 Basis Dimension        Dim             .... 1255

ORBITAL ENERGIES
----------------

  NO   OCC          E(Eh)            E(eV)
   0   2.0000    -482.885465    -13139.9815
   1   2.0000     -88.994066     -2421.6517
   2   2.0000     -88.975217     -2421.1388
   3   2.0000     -88.970041     -2420.9979
   4   2.0000     -88.958035     -2420.6712
   5   2.0000     -88.926791     -2419.8210
   6   2.0000     -88.921252     -2419.6703
   7   2.0000     -88.919117     -2419.6122
   8   2.0000     -62.563184     -1702.4308
   9   2.0000     -56.397135     -1534.6441
  10   2.0000     -56.394419     -1534.5702
  11   2.0000     -56.394384     -1534.5692
  12   2.0000     -19.251199      -523.8518
  13   2.0000     -19.241409      -523.5853
  14   2.0000     -19.217686      -522.9398
  15   2.0000     -14.436338      -392.8327
  16   2.0000     -14.417935      -392.3319
  17   2.0000     -14.412559      -392.1857
  18   2.0000     -14.412014      -392.1708
  19   2.0000     -14.411594      -392.1594
  20   2.0000     -14.410923      -392.1411
  21   2.0000     -10.366718      -282.0927
  22   2.0000     -10.358633      -281.8727
  23   2.0000     -10.342191      -281.4253
  24   2.0000     -10.340483      -281.3788
  25   2.0000     -10.338405      -281.3223
  26   2.0000     -10.338396      -281.3221
  27   2.0000     -10.335326      -281.2385
  28   2.0000     -10.330993      -281.1206
  29   2.0000     -10.325860      -280.9809
  30   2.0000     -10.324643      -280.9478
  31   2.0000     -10.321520      -280.8628
  32   2.0000     -10.320143      -280.8254
  33   2.0000     -10.315664      -280.7035
  34   2.0000     -10.315174      -280.6901
  35   2.0000     -10.312035      -280.6047
  36   2.0000     -10.311031      -280.5774
  37   2.0000     -10.307174      -280.4725
  38   2.0000     -10.306975      -280.4670
  39   2.0000     -10.306896      -280.4649
  40   2.0000     -10.306530      -280.4549
  41   2.0000     -10.304646      -280.4037
  42   2.0000     -10.304500      -280.3997
  43   2.0000     -10.301080      -280.3066
  44   2.0000     -10.300378      -280.2875
  45   2.0000     -10.299381      -280.2604
  46   2.0000     -10.299299      -280.2582
  47   2.0000     -10.299136      -280.2537
  48   2.0000     -10.298346      -280.2322
  49   2.0000     -10.296485      -280.1816
  50   2.0000     -10.294429      -280.1256
  51   2.0000     -10.292585      -280.0755
  52   2.0000     -10.291127      -280.0358
  53   2.0000     -10.289941      -280.0035
  54   2.0000     -10.288165      -279.9552
  55   2.0000     -10.287304      -279.9318
  56   2.0000     -10.286224      -279.9024
  57   2.0000     -10.286177      -279.9011
  58   2.0000     -10.285993      -279.8961
  59   2.0000     -10.284377      -279.8521
  60   2.0000     -10.283414      -279.8259
  61   2.0000     -10.277237      -279.6578
  62   2.0000     -10.276475      -279.6371
  63   2.0000     -10.276005      -279.6243
  64   2.0000     -10.271955      -279.5141
  65   2.0000     -10.270594      -279.4771
  66   2.0000     -10.267318      -279.3879
  67   2.0000     -10.264949      -279.3235
  68   2.0000     -10.262914      -279.2681
  69   2.0000     -10.262129      -279.2467
  70   2.0000     -10.260133      -279.1924
  71   2.0000     -10.259792      -279.1831
  72   2.0000     -10.255974      -279.0792
  73   2.0000     -10.249454      -278.9018
  74   2.0000     -10.249345      -278.8989
  75   2.0000      -8.792613      -239.2592
  76   2.0000      -8.086214      -220.0371
  77   2.0000      -8.071128      -219.6266
  78   2.0000      -8.065184      -219.4648
  79   2.0000      -8.052237      -219.1125
  80   2.0000      -8.023153      -218.3211
  81   2.0000      -8.016512      -218.1404
  82   2.0000      -8.015235      -218.1056
  83   2.0000      -6.628924      -180.3822
  84   2.0000      -6.614334      -179.9852
  85   2.0000      -6.614149      -179.9801
  86   2.0000      -6.057563      -164.8347
  87   2.0000      -6.049944      -164.6273
  88   2.0000      -6.048190      -164.5796
  89   2.0000      -6.040831      -164.3794
  90   2.0000      -6.036533      -164.2624
  91   2.0000      -6.034261      -164.2006
  92   2.0000      -6.032372      -164.1492
  93   2.0000      -6.030383      -164.0951
  94   2.0000      -6.027549      -164.0179
  95   2.0000      -6.021535      -163.8543
  96   2.0000      -6.017003      -163.7310
  97   2.0000      -6.014595      -163.6654
  98   2.0000      -5.993138      -163.0816
  99   2.0000      -5.989122      -162.9723
 100   2.0000      -5.986364      -162.8972
 101   2.0000      -5.985466      -162.8728
 102   2.0000      -5.983578      -162.8214
 103   2.0000      -5.982543      -162.7933
 104   2.0000      -5.982193      -162.7837
 105   2.0000      -5.977406      -162.6535
 106   2.0000      -5.974024      -162.5614
 107   2.0000      -2.744772       -74.6890
 108   2.0000      -2.740707       -74.5784
 109   2.0000      -2.740569       -74.5747
 110   2.0000      -2.728967       -74.2590
 111   2.0000      -2.728956       -74.2587
 112   2.0000      -1.160946       -31.5909
 113   2.0000      -1.137683       -30.9579
 114   2.0000      -1.132954       -30.8293
 115   2.0000      -1.096291       -29.8316
 116   2.0000      -1.071498       -29.1570
 117   2.0000      -1.059817       -28.8391
 118   2.0000      -1.022207       -27.8157
 119   2.0000      -1.013340       -27.5744
 120   2.0000      -0.997531       -27.1442
 121   2.0000      -0.993862       -27.0444
 122   2.0000      -0.987939       -26.8832
 123   2.0000      -0.975971       -26.5575
 124   2.0000      -0.959987       -26.1226
 125   2.0000      -0.953843       -25.9554
 126   2.0000      -0.948683       -25.8150
 127   2.0000      -0.942178       -25.6380
 128   2.0000      -0.936870       -25.4935
 129   2.0000      -0.915379       -24.9087
 130   2.0000      -0.911868       -24.8132
 131   2.0000      -0.907704       -24.6999
 132   2.0000      -0.903522       -24.5861
 133   2.0000      -0.889419       -24.2023
 134   2.0000      -0.888644       -24.1812
 135   2.0000      -0.885085       -24.0844
 136   2.0000      -0.871202       -23.7066
 137   2.0000      -0.868978       -23.6461
 138   2.0000      -0.857461       -23.3327
 139   2.0000      -0.851923       -23.1820
 140   2.0000      -0.847520       -23.0622
 141   2.0000      -0.846139       -23.0246
 142   2.0000      -0.831352       -22.6223
 143   2.0000      -0.830520       -22.5996
 144   2.0000      -0.828944       -22.5567
 145   2.0000      -0.826562       -22.4919
 146   2.0000      -0.817004       -22.2318
 147   2.0000      -0.802783       -21.8448
 148   2.0000      -0.801726       -21.8161
 149   2.0000      -0.795607       -21.6496
 150   2.0000      -0.788300       -21.4507
 151   2.0000      -0.778296       -21.1785
 152   2.0000      -0.769454       -20.9379
 153   2.0000      -0.763787       -20.7837
 154   2.0000      -0.758296       -20.6343
 155   2.0000      -0.753108       -20.4931
 156   2.0000      -0.737332       -20.0638
 157   2.0000      -0.726569       -19.7709
 158   2.0000      -0.719949       -19.5908
 159   2.0000      -0.713551       -19.4167
 160   2.0000      -0.707508       -19.2523
 161   2.0000      -0.697525       -18.9806
 162   2.0000      -0.693529       -18.8719
 163   2.0000      -0.691084       -18.8054
 164   2.0000      -0.688567       -18.7369
 165   2.0000      -0.682961       -18.5843
 166   2.0000      -0.676577       -18.4106
 167   2.0000      -0.671149       -18.2629
 168   2.0000      -0.668195       -18.1825
 169   2.0000      -0.659260       -17.9394
 170   2.0000      -0.657849       -17.9010
 171   2.0000      -0.645975       -17.5779
 172   2.0000      -0.640666       -17.4334
 173   2.0000      -0.629210       -17.1217
 174   2.0000      -0.625651       -17.0248
 175   2.0000      -0.623660       -16.9707
 176   2.0000      -0.620334       -16.8802
 177   2.0000      -0.613811       -16.7027
 178   2.0000      -0.608696       -16.5635
 179   2.0000      -0.606977       -16.5167
 180   2.0000      -0.601224       -16.3601
 181   2.0000      -0.600319       -16.3355
 182   2.0000      -0.595782       -16.2121
 183   2.0000      -0.594478       -16.1766
 184   2.0000      -0.592742       -16.1293
 185   2.0000      -0.581147       -15.8138
 186   2.0000      -0.578491       -15.7415
 187   2.0000      -0.574434       -15.6311
 188   2.0000      -0.571579       -15.5535
 189   2.0000      -0.563713       -15.3394
 190   2.0000      -0.558461       -15.1965
 191   2.0000      -0.554075       -15.0771
 192   2.0000      -0.552671       -15.0389
 193   2.0000      -0.546815       -14.8796
 194   2.0000      -0.543446       -14.7879
 195   2.0000      -0.541020       -14.7219
 196   2.0000      -0.540516       -14.7082
 197   2.0000      -0.538106       -14.6426
 198   2.0000      -0.536710       -14.6046
 199   2.0000      -0.535594       -14.5742
 200   2.0000      -0.530627       -14.4391
 201   2.0000      -0.528738       -14.3877
 202   2.0000      -0.527235       -14.3468
 203   2.0000      -0.522781       -14.2256
 204   2.0000      -0.522313       -14.2129
 205   2.0000      -0.517774       -14.0894
 206   2.0000      -0.516779       -14.0623
 207   2.0000      -0.515965       -14.0401
 208   2.0000      -0.512035       -13.9332
 209   2.0000      -0.511106       -13.9079
 210   2.0000      -0.509280       -13.8582
 211   2.0000      -0.506308       -13.7773
 212   2.0000      -0.501729       -13.6528
 213   2.0000      -0.498474       -13.5642
 214   2.0000      -0.497334       -13.5331
 215   2.0000      -0.495753       -13.4901
 216   2.0000      -0.494337       -13.4516
 217   2.0000      -0.493759       -13.4359
 218   2.0000      -0.487866       -13.2755
 219   2.0000      -0.483468       -13.1558
 220   2.0000      -0.480884       -13.0855
 221   2.0000      -0.478603       -13.0234
 222   2.0000      -0.477200       -12.9853
 223   2.0000      -0.474944       -12.9239
 224   2.0000      -0.472761       -12.8645
 225   2.0000      -0.470654       -12.8071
 226   2.0000      -0.465929       -12.6786
 227   2.0000      -0.464723       -12.6458
 228   2.0000      -0.464238       -12.6326
 229   2.0000      -0.461025       -12.5451
 230   2.0000      -0.458418       -12.4742
 231   2.0000      -0.457678       -12.4541
 232   2.0000      -0.454090       -12.3564
 233   2.0000      -0.451114       -12.2754
 234   2.0000      -0.449928       -12.2432
 235   2.0000      -0.447792       -12.1851
 236   2.0000      -0.446303       -12.1445
 237   2.0000      -0.444900       -12.1064
 238   2.0000      -0.443200       -12.0601
 239   2.0000      -0.442896       -12.0518
 240   2.0000      -0.440904       -11.9976
 241   2.0000      -0.440390       -11.9836
 242   2.0000      -0.438721       -11.9382
 243   2.0000      -0.436882       -11.8882
 244   2.0000      -0.436351       -11.8737
 245   2.0000      -0.427942       -11.6449
 246   2.0000      -0.426871       -11.6158
 247   2.0000      -0.425122       -11.5682
 248   2.0000      -0.424745       -11.5579
 249   2.0000      -0.423134       -11.5140
 250   2.0000      -0.420457       -11.4412
 251   2.0000      -0.419382       -11.4120
 252   2.0000      -0.419024       -11.4022
 253   2.0000      -0.414323       -11.2743
 254   2.0000      -0.413041       -11.2394
 255   2.0000      -0.411822       -11.2063
 256   2.0000      -0.408058       -11.1038
 257   2.0000      -0.407652       -11.0928
 258   2.0000      -0.400274       -10.8920
 259   2.0000      -0.398950       -10.8560
 260   2.0000      -0.396179       -10.7806
 261   2.0000      -0.391013       -10.6400
 262   2.0000      -0.389477       -10.5982
 263   2.0000      -0.387999       -10.5580
 264   2.0000      -0.384734       -10.4692
 265   2.0000      -0.381022       -10.3681
 266   2.0000      -0.377331       -10.2677
 267   2.0000      -0.375526       -10.2186
 268   2.0000      -0.374860       -10.2005
 269   2.0000      -0.373724       -10.1695
 270   2.0000      -0.372252       -10.1295
 271   2.0000      -0.363077        -9.8798
 272   2.0000      -0.358346        -9.7511
 273   2.0000      -0.349810        -9.5188
 274   2.0000      -0.345825        -9.4104
 275   2.0000      -0.344553        -9.3758
 276   2.0000      -0.340767        -9.2728
 277   2.0000      -0.332154        -9.0384
 278   2.0000      -0.323486        -8.8025
 279   2.0000      -0.322164        -8.7665
 280   2.0000      -0.314768        -8.5653
 281   2.0000      -0.308878        -8.4050
 282   2.0000      -0.299186        -8.1413
 283   2.0000      -0.294406        -8.0112
 284   2.0000      -0.293930        -7.9982
 285   2.0000      -0.282592        -7.6897
 286   2.0000      -0.278015        -7.5652
 287   2.0000      -0.263926        -7.1818
 288   2.0000      -0.258878        -7.0444
 289   2.0000      -0.195406        -5.3173
 290   0.0000      -0.087215        -2.3732
 291   0.0000      -0.057795        -1.5727
 292   0.0000      -0.054067        -1.4712
 293   0.0000      -0.037772        -1.0278
 294   0.0000      -0.020686        -0.5629

MULLIKEN ATOMIC CHARGES
-----------------------
   0 C :    0.325314
   1 C :   -0.366053
   2 C :   -0.185604
   3 N :    0.147622
   4 C :   -0.179529
   5 N :    0.141946
   6 C :    0.009220
   7 C :   -0.011634
   8 C :   -0.073736
   9 C :    0.120635
  10 C :   -0.094376
  11 C :   -0.020120
  12 S :    0.186939
  13 C :   -0.123195
  14 C :    0.037976
  15 Br:    0.022867
  16 C :    0.149360
  17 O :   -0.171674
  18 C :   -0.098190
  19 C :   -0.012017
  20 C :   -0.114423
  21 S :    0.191184
  22 C :   -0.243233
  23 C :    0.084421
  24 C :    0.003991
  25 C :    0.132455
  26 C :   -0.035671
  27 C :    0.051706
  28 C :    0.029688
  29 C :   -0.027079
  30 C :    0.051306
  31 C :   -0.117821
  32 N :   -0.042747
  33 C :   -0.035811
  34 C :   -0.076472
  35 S :    0.132082
  36 C :   -0.124559
  37 C :    0.088528
  38 C :   -0.159877
  39 C :    0.054409
  40 C :    0.034546
  41 C :    0.040691
  42 C :    0.033881
  43 N :   -0.252920
  44 C :    0.097518
  45 S :   -0.030825
  46 C :    0.080290
  47 C :   -0.080602
  48 C :    0.031185
  49 C :    0.012671
  50 C :   -0.048914
  51 S :    0.058474
  52 C :   -0.050797
  53 C :    0.029670
  54 C :    0.025614
  55 C :    0.012494
  56 S :    0.078554
  57 C :   -0.082389
  58 C :    0.031853
  59 C :    0.097461
  60 O :   -0.320720
  61 C :    0.217882
  62 C :    0.238211
  63 O :   -0.333562
  64 C :    0.180961
  65 C :   -0.203510
  66 C :    0.071844
  67 C :   -0.006119
  68 N :   -0.280809
  69 S :    0.461804
  70 N :   -0.272892
  71 H :   -0.011578
  72 H :   -0.006429
  73 H :   -0.004045
  74 H :   -0.018835
  75 H :    0.021087
  76 H :    0.021850
  77 H :    0.023084
  78 H :    0.025858
  79 H :    0.023887
  80 H :    0.026993
  81 H :    0.016625
  82 H :    0.010800
  83 H :    0.028480
  84 H :    0.020396
  85 H :    0.014006
  86 H :   -0.028266
  87 H :    0.064940
  88 H :    0.016236
  89 H :    0.011248
  90 H :   -0.015596
  91 H :    0.008709
  92 H :    0.018997
  93 H :    0.010795
  94 H :    0.017022
  95 H :   -0.011375
  96 H :    0.009164
  97 H :    0.015870
  98 H :    0.014202
  99 H :    0.061126
 100 H :    0.050867
 101 H :   -0.000655
 102 H :   -0.017483
 103 H :   -0.017478
 104 H :   -0.024129
 105 H :   -0.017207
 106 H :   -0.002083
 107 H :    0.016578
 108 H :    0.022316
 109 H :    0.027330
 110 H :    0.029172
 111 H :    0.037614
 112 H :    0.029489
 113 H :   -0.038962
Sum of atomic charges:   -0.0000000

LOEWDIN ATOMIC CHARGES
----------------------
   0 C :    0.081344
   1 C :   -0.151208
   2 C :   -0.018591
   3 N :   -0.058659
   4 C :   -0.018043
   5 N :   -0.060622
   6 C :   -0.021422
   7 C :   -0.049445
   8 C :    0.020564
   9 C :   -0.032872
  10 C :   -0.144766
  11 C :   -0.009004
  12 S :    0.432517
  13 C :   -0.271641
  14 C :   -0.070597
  15 Br:    0.136007
  16 C :    0.081449
  17 O :   -0.165618
  18 C :   -0.118272
  19 C :    0.063464
  20 C :   -0.201352
  21 S :    0.505293
  22 C :   -0.133756
  23 C :   -0.047658
  24 C :   -0.048585
  25 C :   -0.086231
  26 C :    0.011029
  27 C :   -0.031174
  28 C :   -0.042581
  29 C :    0.014702
  30 C :   -0.065471
  31 C :   -0.119082
  32 N :   -0.093646
  33 C :   -0.029180
  34 C :   -0.219737
  35 S :    0.417547
  36 C :   -0.134734
  37 C :    0.030195
  38 C :   -0.044480
  39 C :   -0.021017
  40 C :   -0.054598
  41 C :   -0.026974
  42 C :   -0.059321
  43 N :   -0.071742
  44 C :   -0.044428
  45 S :    0.202333
  46 C :   -0.006345
  47 C :   -0.191821
  48 C :   -0.046536
  49 C :   -0.032764
  50 C :   -0.177574
  51 S :    0.342941
  52 C :   -0.195800
  53 C :   -0.039185
  54 C :   -0.035659
  55 C :   -0.138674
  56 S :    0.390976
  57 C :   -0.056916
  58 C :   -0.062191
  59 C :    0.039910
  60 O :   -0.092626
  61 C :    0.072093
  62 C :    0.045846
  63 O :   -0.096334
  64 C :    0.078527
  65 C :   -0.092219
  66 C :   -0.057367
  67 C :   -0.047554
  68 N :   -0.294295
  69 S :    0.601906
  70 N :   -0.297522
  71 H :    0.040348
  72 H :    0.041063
  73 H :    0.038564
  74 H :    0.046234
  75 H :    0.033335
  76 H :    0.035928
  77 H :    0.022372
  78 H :    0.028173
  79 H :    0.026249
  80 H :    0.033175
  81 H :    0.035238
  82 H :    0.024274
  83 H :    0.031116
  84 H :    0.025494
  85 H :    0.034387
  86 H :    0.025726
  87 H :    0.027240
  88 H :    0.017623
  89 H :    0.023799
  90 H :    0.017990
  91 H :    0.021159
  92 H :    0.024656
  93 H :    0.025073
  94 H :    0.025960
  95 H :    0.018888
  96 H :    0.022245
  97 H :    0.023012
  98 H :    0.028574
  99 H :    0.027020
 100 H :    0.012885
 101 H :    0.021039
 102 H :    0.028667
 103 H :    0.030522
 104 H :    0.027074
 105 H :    0.030819
 106 H :    0.037044
 107 H :    0.013577
 108 H :    0.014286
 109 H :    0.016954
 110 H :    0.018320
 111 H :    0.029127
 112 H :    0.018737
 113 H :    0.035279

  Mayer bond orders larger than 0.100000
B(  0-C ,  1-C ) :   1.6094 B(  0-C ,  6-C ) :   1.0004 B(  0-C , 18-C ) :   1.0892
B(  1-C ,  2-C ) :   1.1477 B(  1-C ,  4-C ) :   1.1521 B(  2-C ,  3-N ) :   2.9654
B(  4-C ,  5-N ) :   2.9624 B(  6-C ,  7-C ) :   1.2748 B(  6-C , 11-C ) :   1.4113
B(  7-C ,  8-C ) :   1.4274 B(  7-C , 16-C ) :   0.9546 B(  8-C ,  9-C ) :   1.2407
B(  8-C , 71-H ) :   1.0173 B(  9-C , 10-C ) :   1.3076 B(  9-C , 14-C ) :   1.1637
B( 10-C , 11-C ) :   1.3302 B( 10-C , 12-S ) :   1.0862 B( 11-C , 72-H ) :   0.9791
B( 12-S , 13-C ) :   1.0867 B( 13-C , 14-C ) :   1.6182 B( 13-C , 15-Br) :   1.0179
B( 14-C , 73-H ) :   0.9999 B( 16-C , 17-O ) :   2.1603 B( 16-C , 18-C ) :   0.9629
B( 18-C , 19-C ) :   1.5208 B( 19-C , 20-C ) :   1.2748 B( 19-C , 74-H ) :   0.9249
B( 20-C , 21-S ) :   1.0697 B( 20-C , 26-C ) :   1.3972 B( 21-S , 22-C ) :   1.1850
B( 22-C , 23-C ) :   1.0572 B( 22-C , 25-C ) :   1.4401 B( 23-C , 24-C ) :   1.0913
B( 23-C , 75-H ) :   0.9263 B( 23-C , 76-H ) :   0.9189 B( 24-C , 77-H ) :   0.9683
B( 24-C , 78-H ) :   0.9680 B( 24-C , 79-H ) :   0.9667 B( 25-C , 26-C ) :   1.2901
B( 25-C , 29-C ) :   1.0469 B( 26-C , 27-C ) :   1.0952 B( 27-C , 28-C ) :   1.0954
B( 27-C , 80-H ) :   0.9075 B( 27-C , 81-H ) :   0.9094 B( 28-C , 82-H ) :   0.9666
B( 28-C , 83-H ) :   0.9656 B( 28-C , 84-H ) :   0.9689 B( 29-C , 30-C ) :   1.7627
B( 29-C , 85-H ) :   0.9447 B( 30-C , 31-C ) :   1.0856 B( 30-C , 86-H ) :   0.9506
B( 31-C , 32-N ) :   1.6758 B( 31-C , 35-S ) :   1.0958 B( 32-N , 33-C ) :   1.3667
B( 32-N , 35-S ) :   0.1011 B( 33-C , 34-C ) :   1.5612 B( 33-C , 38-C ) :   0.9537
B( 34-C , 35-S ) :   1.1065 B( 34-C , 36-C ) :   1.0487 B( 36-C , 37-C ) :   0.9699
B( 36-C , 45-S ) :   1.0030 B( 36-C , 87-H ) :   0.8718 B( 37-C , 38-C ) :   0.9829
B( 37-C , 43-N ) :   1.0151 B( 37-C , 88-H ) :   0.9164 B( 38-C , 39-C ) :   1.0045
B( 38-C , 41-C ) :   1.0385 B( 39-C , 40-C ) :   1.1117 B( 39-C , 89-H ) :   0.9341
B( 39-C , 90-H ) :   0.9355 B( 40-C , 91-H ) :   0.9607 B( 40-C , 92-H ) :   0.9593
B( 40-C , 93-H ) :   0.9640 B( 41-C , 42-C ) :   1.1124 B( 41-C , 94-H ) :   0.9296
B( 41-C , 95-H ) :   0.9344 B( 42-C , 96-H ) :   0.9525 B( 42-C , 97-H ) :   0.9616
B( 42-C , 98-H ) :   0.9596 B( 43-N , 44-C ) :   0.9814 B( 43-N , 46-C ) :   1.1321
B( 44-C , 45-S ) :   0.9980 B( 44-C , 99-H ) :   0.9463 B( 44-C ,100-H ) :   0.9487
B( 46-C , 47-C ) :   1.6462 B( 46-C ,101-H ) :   0.9400 B( 47-C , 48-C ) :   1.1039
B( 47-C , 51-S ) :   1.0120 B( 48-C , 49-C ) :   1.6291 B( 48-C ,102-H ) :   0.9904
B( 49-C , 50-C ) :   1.1758 B( 49-C ,103-H ) :   0.9923 B( 50-C , 51-S ) :   1.0393
B( 50-C , 52-C ) :   1.5354 B( 52-C , 53-C ) :   1.1669 B( 52-C , 56-S ) :   1.0265
B( 53-C , 54-C ) :   1.6123 B( 53-C ,104-H ) :   0.9928 B( 54-C , 55-C ) :   1.1262
B( 54-C ,105-H ) :   0.9979 B( 55-C , 56-S ) :   1.0378 B( 55-C , 57-C ) :   1.6089
B( 57-C , 58-C ) :   1.1311 B( 57-C ,106-H ) :   0.9519 B( 58-C , 59-C ) :   1.4335
B( 58-C , 65-C ) :   0.1070 B( 58-C , 67-C ) :   1.1720 B( 59-C , 60-O ) :   1.1856
B( 59-C , 62-C ) :   1.1484 B( 60-O , 61-C ) :   0.9168 B( 61-C ,107-H ) :   0.9748
B( 61-C ,108-H ) :   0.9767 B( 61-C ,109-H ) :   0.9689 B( 62-C , 63-O ) :   1.1261
B( 62-C , 65-C ) :   1.3900 B( 63-O , 64-C ) :   0.9587 B( 64-C ,110-H ) :   0.9685
B( 64-C ,111-H ) :   0.9773 B( 64-C ,112-H ) :   0.9687 B( 65-C , 66-C ) :   1.1345
B( 65-C ,113-H ) :   1.0383 B( 66-C , 67-C ) :   1.1623 B( 66-C , 70-N ) :   1.5467
B( 67-C , 68-N ) :   1.5766 B( 68-N , 69-S ) :   1.2332 B( 68-N , 70-N ) :   0.1459
B( 69-S , 70-N ) :   1.2423

-----------------------------------------------------------------------------
         ABSORPTION SPECTRUM VIA TRANSITION ELECTRIC DIPOLE MOMENTS
-----------------------------------------------------------------------------
State   Energy  Wavelength   fosc         T2         TX        TY        TZ
        (cm-1)    (nm)                  (au**2)     (au)      (au)      (au)
-----------------------------------------------------------------------------
   0   16235.9    615.9   0.969031044  19.64881  -2.72090   2.50601   2.44243
   1   16895.1    591.9   0.001041190   0.02029  -0.08586   0.11364   0.00097
   2   22743.6    439.7   0.493613900   7.14502  -0.67025  -0.29984   2.57019
   3   23155.1    431.9   0.770045092  10.94828  -1.54135   2.64404  -1.25761
   4   23619.3    423.4   0.004615166   0.06433   0.08851  -0.03206  -0.23551
   5   24225.1    412.8   0.002854623   0.03879   0.11159  -0.15661  -0.04258
   6   26448.9    378.1   0.096026750   1.19525  -0.40518   0.81375  -0.60736
   7   27810.0    359.6   0.086547558   1.02454  -0.59915   0.64189  -0.50352
   8   27988.8    357.3   0.259712032   3.05481  -0.41006  -0.70351   1.54652
   9   29260.1    341.8   0.974031298  10.95903  -0.79057  -1.59861   2.78899
  10   29765.5    336.0   0.008239400   0.09113   0.07587   0.19353  -0.21890
  11   30808.5    324.6   0.216431057   2.31273  -0.43481  -0.56109   1.34493
  12   31101.5    321.5   0.072068774   0.76285  -0.30278  -0.37628   0.72773
  13   31118.7    321.4   0.083002591   0.87810   0.38723   0.42186  -0.74175
  14   31875.0    313.7   0.019143360   0.19772   0.13194   0.13281  -0.40332
  15   31947.4    313.0   0.118714305   1.22333  -0.80792   0.65745  -0.37196
  16   32702.0    305.8   0.365626883   3.68077   0.23082  -0.39789   1.86257
  17   33098.4    302.1   0.002032274   0.02021   0.05039  -0.13182   0.01724
  18   33157.9    301.6   0.175097536   1.73847   0.83271   0.11874  -1.01536
  19   33689.2    296.8   0.066211437   0.64702   0.73788  -0.16239  -0.27602
  20   33708.7    296.7   0.245420369   2.39687  -1.18497  -0.02540   0.99603
  21   34389.0    290.8   0.000183673   0.00176   0.03025  -0.01686  -0.02364
  22   35049.1    285.3   0.014850016   0.13948  -0.30281   0.20992  -0.06103
  23   35275.0    283.5   0.222107152   2.07287   0.86397  -0.08983  -1.14820
  24   35848.6    279.0   0.000844017   0.00775   0.02437  -0.06100   0.05861
  25   35856.9    278.9   0.001314941   0.01207  -0.05194  -0.00663   0.09660
  26   36448.9    274.4   0.189920048   1.71539   0.45046  -0.74185   0.98088
  27   37854.0    264.2   0.001816534   0.01580   0.09449  -0.06380   0.05291
  28   38016.5    263.0   0.033923323   0.29377   0.08079   0.20022  -0.49714
  29   38092.5    262.5   0.017277455   0.14932  -0.06209  -0.30760   0.22549
  30   38542.9    259.5   0.005433921   0.04641   0.11344  -0.16178   0.08586
  31   38817.8    257.6   0.000887674   0.00753   0.03664  -0.06410   0.04557
  32   38971.6    256.6   0.002396443   0.02024   0.07243   0.04080  -0.11547
  33   39215.4    255.0   0.242898747   2.03913   0.51057  -1.19869   0.58445
  34   39883.0    250.7   0.022729598   0.18762  -0.10398  -0.02552   0.41971
  35   39919.4    250.5   0.026350947   0.21731  -0.15630   0.34481  -0.27201
  36   40070.8    249.6   0.091567276   0.75230  -0.53929  -0.38360   0.56064

FINAL SINGLE POINT ENERGY     -7994.781627573245

DIPOLE MOMENT
-------------
                                X             Y             Z
Electronic contribution:    -39.39614    -119.24057     201.30678
Nuclear contribution   :     36.58599     120.55216    -199.71798
                        -----------------------------------------
Total Dipole Moment    :     -2.81015       1.31159       1.58880
                        -----------------------------------------
Magnitude (a.u.)       :      3.48447
Magnitude (Debye)      :      8.85681

Rotational constants in cm-1:     0.000958     0.000174     0.000151
Rotational constants in MHz :    28.723714     5.225106     4.526799

                             ****ORCA TERMINATED NORMALLY****
TOTAL RUN TIME: 0 days 0 hours 10 minutes 47 seconds 839 msec
