                         Program Version 4.2.0 -  RELEASE  -
|  1> # ORCA input file
|  2> # SCF done       -173.012490209312          0.000456865151
|  3> ! CAM-B3LYP def2-SVP def2/J RIJCOSX Grid4 TightSCF
|  4> %maxcore 5000
|  5> %tddft
|  6>     Mode sTDDFT
|  7>     Ethresh 5.0
|  8>     maxcore 5000
|  9> end
| 10>
| 11> %pal
| 12>   nprocs 6
| 13>   end
| 14> * xyz 0 1
| 15>    C      -10.45984        -0.58428        -3.34678
| 16>    C      -10.97198        -1.63081        -2.62521
| 17>    C      -11.44876        -2.82969        -3.19405
| 18>    N      -11.85238        -3.82406        -3.60101
| 19>    C      -11.09238        -1.63893        -1.22046
| 20>    N      -11.20915        -1.68559        -0.07941
| 21>    C      -10.32508        -0.53129        -4.79992
| 22>    C       -9.76457         0.72037        -5.16729
| 23>    C       -9.51945         1.06764        -6.47445
| 24>    C       -9.84061         0.13698        -7.46802
| 25>    C      -10.39778        -1.10924        -7.09238
| 26>    C      -10.64622        -1.46021        -5.77030
| 27>    S      -10.72009        -2.10770        -8.47514
| 28>    C      -10.11178        -0.85666        -9.52673
| 29>    C       -9.68740         0.25355        -8.87618
| 30>   Br      -10.09937        -1.13310       -11.38097
| 31>    C       -9.52187         1.50316        -3.95167
| 32>    O       -9.05738         2.63752        -3.87170
| 33>    C       -9.95701         0.66889        -2.82971
| 34>    C       -9.86480         1.09719        -1.52865
| 35>    N       -9.36251         2.30193        -1.23476
| 36>    C       -9.19334         2.82022         0.01142
| 37>    S       -9.51769         1.85193         1.42031
| 38>    C       -8.98150         3.15989         2.41977
| 39>    N       -9.00759         2.98083         3.81136
| 40>    O       -8.62281         3.90309         4.50390
| 41>    O       -9.41344         1.90775         4.21773
| 42>    C       -8.57847         4.25783         1.71128
| 43>    C       -8.70566         4.09541         0.31575
| 44>    C       -8.34189         5.15912        -0.58773
| 45>    C       -8.72957         5.35414        -1.86186
| 46>    C       -8.27985         6.48429        -2.62286
| 47>    C       -8.60879         6.75438        -3.89664
| 48>    C       -9.47622         5.88441        -4.75013
| 49>    C       -8.06571         7.99229        -4.56915
| 50>    N       -7.13561         7.65801        -5.62371
| 51>    C       -7.50927         7.54430        -6.92289
| 52>    C       -6.81365         6.88499        -7.87142
| 53>    C       -7.16764         6.86284        -9.25168
| 54>    S       -8.56653         7.71280        -9.87580
| 55>    C       -8.23947         7.20597       -11.50309
| 56>    C       -7.08678         6.43089       -11.54760
| 57>    C       -6.51776         6.21537       -10.26495
| 58>    C       -6.39762         5.92436       -12.71618
| 59>    O       -5.80099         4.87461       -12.77805
| 60>    C       -6.25289         6.89048       -13.93736
| 61>    F       -6.81614         6.41216       -15.05606
| 62>    F       -6.74607         8.12259       -13.74480
| 63>    F       -4.94749         7.05060       -14.20160
| 64>    C       -9.18809         7.46029       -12.53870
| 65>    C      -10.09139         8.51517       -12.59618
| 66>    C      -10.85080         8.39237       -13.79142
| 67>    C      -11.84616         9.17836       -14.33091
| 68>    C      -12.40401         8.77308       -15.55146
| 69>    C      -13.40215         9.33772       -16.34383
| 70>    C      -13.59812         8.52358       -17.49605
| 71>    C      -12.71892         7.45374       -17.41698
| 72>    C      -11.95311         7.57021       -16.21770
| 73>    C      -10.96243         6.78441       -15.68377
| 74>    C      -10.39764         7.19312       -14.46116
| 75>    C       -9.39131         6.63446       -13.68541
| 76>    C      -14.53570         8.74703       -18.57124
| 77>    C      -15.37438         9.77480       -18.66726
| 78>    H       -9.09233         2.02595        -6.72565
| 79>    H      -11.07178        -2.42146        -5.53586
| 80>    H       -9.28232         1.11852        -9.36882
| 81>    H      -10.19678         0.48667        -0.69901
| 82>    H       -9.03649         2.84436        -2.04935
| 83>    H       -8.21921         5.15235         2.18752
| 84>    H       -7.70239         5.90640        -0.13416
| 85>    H       -9.42785         4.69396        -2.35028
| 86>    H       -7.62837         7.17243        -2.09799
| 87>    H       -9.29662         4.82952        -4.56080
| 88>    H       -9.29196         6.08163        -5.80428
| 89>    H      -10.52777         6.09340        -4.54899
| 90>    H       -7.55176         8.62516        -3.83867
| 91>    H       -8.88466         8.56667        -5.01151
| 92>    H       -6.34951         7.09154        -5.33660
| 93>    H       -8.40405         8.09145        -7.19257
| 94>    H       -5.91881         6.33863        -7.60745
| 95>    H       -5.62243         5.63691       -10.12750
| 96>    H      -10.17999         9.30342       -11.87151
| 97>    H      -12.18898        10.07648       -13.83639
| 98>    H      -13.93780        10.24249       -16.12157
| 99>    H      -12.62223         6.66108       -18.13650
|100>    H      -10.61243         5.88902       -16.17716
|101>    H       -8.87832         5.71022       -13.88210
|102>    H      -14.52355         7.99246       -19.34802
|103>    H      -15.42141        10.55088       -17.92277
|104>    H      -16.04573         9.87660       -19.50205
|105> *
|106>
|107>                          ****END OF INPUT****

CARTESIAN COORDINATES (ANGSTROEM)
---------------------------------
  C    -10.459840   -0.584280   -3.346780
  C    -10.971980   -1.630810   -2.625210
  C    -11.448760   -2.829690   -3.194050
  N    -11.852380   -3.824060   -3.601010
  C    -11.092380   -1.638930   -1.220460
  N    -11.209150   -1.685590   -0.079410
  C    -10.325080   -0.531290   -4.799920
  C     -9.764570    0.720370   -5.167290
  C     -9.519450    1.067640   -6.474450
  C     -9.840610    0.136980   -7.468020
  C    -10.397780   -1.109240   -7.092380
  C    -10.646220   -1.460210   -5.770300
  S    -10.720090   -2.107700   -8.475140
  C    -10.111780   -0.856660   -9.526730
  C     -9.687400    0.253550   -8.876180
  Br   -10.099370   -1.133100  -11.380970
  C     -9.521870    1.503160   -3.951670
  O     -9.057380    2.637520   -3.871700
  C     -9.957010    0.668890   -2.829710
  C     -9.864800    1.097190   -1.528650
  N     -9.362510    2.301930   -1.234760
  C     -9.193340    2.820220    0.011420
  S     -9.517690    1.851930    1.420310
  C     -8.981500    3.159890    2.419770
  N     -9.007590    2.980830    3.811360
  O     -8.622810    3.903090    4.503900
  O     -9.413440    1.907750    4.217730
  C     -8.578470    4.257830    1.711280
  C     -8.705660    4.095410    0.315750
  C     -8.341890    5.159120   -0.587730
  C     -8.729570    5.354140   -1.861860
  C     -8.279850    6.484290   -2.622860
  C     -8.608790    6.754380   -3.896640
  C     -9.476220    5.884410   -4.750130
  C     -8.065710    7.992290   -4.569150
  N     -7.135610    7.658010   -5.623710
  C     -7.509270    7.544300   -6.922890
  C     -6.813650    6.884990   -7.871420
  C     -7.167640    6.862840   -9.251680
  S     -8.566530    7.712800   -9.875800
  C     -8.239470    7.205970  -11.503090
  C     -7.086780    6.430890  -11.547600
  C     -6.517760    6.215370  -10.264950
  C     -6.397620    5.924360  -12.716180
  O     -5.800990    4.874610  -12.778050
  C     -6.252890    6.890480  -13.937360
  F     -6.816140    6.412160  -15.056060
  F     -6.746070    8.122590  -13.744800
  F     -4.947490    7.050600  -14.201600
  C     -9.188090    7.460290  -12.538700
  C    -10.091390    8.515170  -12.596180
  C    -10.850800    8.392370  -13.791420
  C    -11.846160    9.178360  -14.330910
  C    -12.404010    8.773080  -15.551460
  C    -13.402150    9.337720  -16.343830
  C    -13.598120    8.523580  -17.496050
  C    -12.718920    7.453740  -17.416980
  C    -11.953110    7.570210  -16.217700
  C    -10.962430    6.784410  -15.683770
  C    -10.397640    7.193120  -14.461160
  C     -9.391310    6.634460  -13.685410
  C    -14.535700    8.747030  -18.571240
  C    -15.374380    9.774800  -18.667260
  H     -9.092330    2.025950   -6.725650
  H    -11.071780   -2.421460   -5.535860
  H     -9.282320    1.118520   -9.368820
  H    -10.196780    0.486670   -0.699010
  H     -9.036490    2.844360   -2.049350
  H     -8.219210    5.152350    2.187520
  H     -7.702390    5.906400   -0.134160
  H     -9.427850    4.693960   -2.350280
  H     -7.628370    7.172430   -2.097990
  H     -9.296620    4.829520   -4.560800
  H     -9.291960    6.081630   -5.804280
  H    -10.527770    6.093400   -4.548990
  H     -7.551760    8.625160   -3.838670
  H     -8.884660    8.566670   -5.011510
  H     -6.349510    7.091540   -5.336600
  H     -8.404050    8.091450   -7.192570
  H     -5.918810    6.338630   -7.607450
  H     -5.622430    5.636910  -10.127500
  H    -10.179990    9.303420  -11.871510
  H    -12.188980   10.076480  -13.836390
  H    -13.937800   10.242490  -16.121570
  H    -12.622230    6.661080  -18.136500
  H    -10.612430    5.889020  -16.177160
  H     -8.878320    5.710220  -13.882100
  H    -14.523550    7.992460  -19.348020
  H    -15.421410   10.550880  -17.922770
  H    -16.045730    9.876600  -19.502050

 Total Charge           Charge          ....    0
 Multiplicity           Mult            ....    1
 Number of Electrons    NEL             ....  486
 Basis Dimension        Dim             .... 1047

ORBITAL ENERGIES
----------------

  NO   OCC          E(Eh)            E(eV)
   0   2.0000    -482.890079    -13140.1071
   1   2.0000     -88.994306     -2421.6582
   2   2.0000     -88.982830     -2421.3459
   3   2.0000     -88.955166     -2420.5931
   4   2.0000     -62.567808     -1702.5566
   5   2.0000     -56.401772     -1534.7702
   6   2.0000     -56.399028     -1534.6956
   7   2.0000     -56.399001     -1534.6948
   8   2.0000     -24.796636      -674.7508
   9   2.0000     -24.795370      -674.7163
  10   2.0000     -24.789664      -674.5610
  11   2.0000     -19.242984      -523.6282
  12   2.0000     -19.242139      -523.6052
  13   2.0000     -19.242025      -523.6021
  14   2.0000     -19.224621      -523.1285
  15   2.0000     -14.654468      -398.7683
  16   2.0000     -14.504317      -394.6825
  17   2.0000     -14.436522      -392.8377
  18   2.0000     -14.426016      -392.5518
  19   2.0000     -14.421311      -392.4238
  20   2.0000     -10.506728      -285.9026
  21   2.0000     -10.388625      -282.6889
  22   2.0000     -10.377135      -282.3762
  23   2.0000     -10.377115      -282.3757
  24   2.0000     -10.376939      -282.3709
  25   2.0000     -10.365226      -282.0521
  26   2.0000     -10.353505      -281.7332
  27   2.0000     -10.351214      -281.6708
  28   2.0000     -10.349652      -281.6283
  29   2.0000     -10.334072      -281.2044
  30   2.0000     -10.328203      -281.0447
  31   2.0000     -10.324307      -280.9387
  32   2.0000     -10.318497      -280.7806
  33   2.0000     -10.318244      -280.7737
  34   2.0000     -10.317500      -280.7535
  35   2.0000     -10.316059      -280.7142
  36   2.0000     -10.315326      -280.6943
  37   2.0000     -10.314864      -280.6817
  38   2.0000     -10.312935      -280.6292
  39   2.0000     -10.312498      -280.6173
  40   2.0000     -10.311321      -280.5853
  41   2.0000     -10.307250      -280.4745
  42   2.0000     -10.305036      -280.4143
  43   2.0000     -10.304771      -280.4071
  44   2.0000     -10.303034      -280.3598
  45   2.0000     -10.301783      -280.3258
  46   2.0000     -10.300442      -280.2893
  47   2.0000     -10.296460      -280.1809
  48   2.0000     -10.291837      -280.0551
  49   2.0000     -10.289713      -279.9973
  50   2.0000     -10.288455      -279.9631
  51   2.0000     -10.286341      -279.9056
  52   2.0000     -10.279449      -279.7180
  53   2.0000     -10.278912      -279.7034
  54   2.0000     -10.277944      -279.6771
  55   2.0000     -10.277874      -279.6752
  56   2.0000     -10.277298      -279.6595
  57   2.0000     -10.269750      -279.4541
  58   2.0000     -10.268724      -279.4262
  59   2.0000     -10.268082      -279.4087
  60   2.0000     -10.267223      -279.3853
  61   2.0000     -10.266359      -279.3618
  62   2.0000     -10.266257      -279.3591
  63   2.0000     -10.264878      -279.3215
  64   2.0000     -10.264840      -279.3205
  65   2.0000     -10.262421      -279.2547
  66   2.0000     -10.258047      -279.1356
  67   2.0000      -8.797258      -239.3856
  68   2.0000      -8.089558      -220.1281
  69   2.0000      -8.078912      -219.8384
  70   2.0000      -8.050898      -219.0761
  71   2.0000      -6.633628      -180.5102
  72   2.0000      -6.618969      -180.1113
  73   2.0000      -6.618737      -180.1050
  74   2.0000      -6.059192      -164.8790
  75   2.0000      -6.054786      -164.7591
  76   2.0000      -6.051064      -164.6578
  77   2.0000      -6.048574      -164.5901
  78   2.0000      -6.044294      -164.4736
  79   2.0000      -6.040149      -164.3608
  80   2.0000      -6.020117      -163.8157
  81   2.0000      -6.016175      -163.7085
  82   2.0000      -6.012954      -163.6208
  83   2.0000      -2.749472       -74.8169
  84   2.0000      -2.745396       -74.7060
  85   2.0000      -2.745201       -74.7007
  86   2.0000      -2.733553       -74.3838
  87   2.0000      -2.733543       -74.3835
  88   2.0000      -1.383698       -37.6523
  89   2.0000      -1.324603       -36.0443
  90   2.0000      -1.288014       -35.0487
  91   2.0000      -1.283334       -34.9213
  92   2.0000      -1.155926       -31.4543
  93   2.0000      -1.143820       -31.1249
  94   2.0000      -1.139858       -31.0171
  95   2.0000      -1.110778       -30.2258
  96   2.0000      -1.039907       -28.2973
  97   2.0000      -1.032310       -28.0906
  98   2.0000      -1.021745       -27.8031
  99   2.0000      -1.015134       -27.6232
 100   2.0000      -1.003024       -27.2937
 101   2.0000      -0.998829       -27.1795
 102   2.0000      -0.993431       -27.0326
 103   2.0000      -0.982281       -26.7292
 104   2.0000      -0.960485       -26.1361
 105   2.0000      -0.950592       -25.8669
 106   2.0000      -0.935113       -25.4457
 107   2.0000      -0.918362       -24.9899
 108   2.0000      -0.916486       -24.9389
 109   2.0000      -0.903120       -24.5751
 110   2.0000      -0.899197       -24.4684
 111   2.0000      -0.894880       -24.3509
 112   2.0000      -0.886599       -24.1256
 113   2.0000      -0.878943       -23.9172
 114   2.0000      -0.865475       -23.5508
 115   2.0000      -0.859777       -23.3957
 116   2.0000      -0.855577       -23.2814
 117   2.0000      -0.854209       -23.2442
 118   2.0000      -0.843110       -22.9422
 119   2.0000      -0.838214       -22.8090
 120   2.0000      -0.823143       -22.3989
 121   2.0000      -0.802095       -21.8261
 122   2.0000      -0.800403       -21.7801
 123   2.0000      -0.798713       -21.7341
 124   2.0000      -0.787129       -21.4189
 125   2.0000      -0.780894       -21.2492
 126   2.0000      -0.772506       -21.0210
 127   2.0000      -0.762804       -20.7570
 128   2.0000      -0.754150       -20.5215
 129   2.0000      -0.747322       -20.3357
 130   2.0000      -0.736519       -20.0417
 131   2.0000      -0.725418       -19.7396
 132   2.0000      -0.720715       -19.6116
 133   2.0000      -0.714999       -19.4561
 134   2.0000      -0.704419       -19.1682
 135   2.0000      -0.697838       -18.9891
 136   2.0000      -0.693489       -18.8708
 137   2.0000      -0.682554       -18.5732
 138   2.0000      -0.677050       -18.4235
 139   2.0000      -0.670627       -18.2487
 140   2.0000      -0.666401       -18.1337
 141   2.0000      -0.666017       -18.1232
 142   2.0000      -0.660901       -17.9840
 143   2.0000      -0.651571       -17.7301
 144   2.0000      -0.645356       -17.5610
 145   2.0000      -0.641349       -17.4520
 146   2.0000      -0.639567       -17.4035
 147   2.0000      -0.635869       -17.3029
 148   2.0000      -0.632554       -17.2127
 149   2.0000      -0.630808       -17.1652
 150   2.0000      -0.628590       -17.1048
 151   2.0000      -0.625246       -17.0138
 152   2.0000      -0.617756       -16.8100
 153   2.0000      -0.612092       -16.6559
 154   2.0000      -0.601056       -16.3556
 155   2.0000      -0.600104       -16.3296
 156   2.0000      -0.590255       -16.0617
 157   2.0000      -0.588094       -16.0028
 158   2.0000      -0.581809       -15.8318
 159   2.0000      -0.579842       -15.7783
 160   2.0000      -0.573659       -15.6101
 161   2.0000      -0.570385       -15.5210
 162   2.0000      -0.565881       -15.3984
 163   2.0000      -0.562693       -15.3116
 164   2.0000      -0.556128       -15.1330
 165   2.0000      -0.553851       -15.0710
 166   2.0000      -0.550418       -14.9776
 167   2.0000      -0.550243       -14.9729
 168   2.0000      -0.547111       -14.8876
 169   2.0000      -0.545810       -14.8522
 170   2.0000      -0.540691       -14.7129
 171   2.0000      -0.539395       -14.6777
 172   2.0000      -0.537058       -14.6141
 173   2.0000      -0.534256       -14.5378
 174   2.0000      -0.531999       -14.4764
 175   2.0000      -0.530397       -14.4328
 176   2.0000      -0.519375       -14.1329
 177   2.0000      -0.516781       -14.0623
 178   2.0000      -0.515503       -14.0275
 179   2.0000      -0.511988       -13.9319
 180   2.0000      -0.509706       -13.8698
 181   2.0000      -0.508949       -13.8492
 182   2.0000      -0.507419       -13.8076
 183   2.0000      -0.504601       -13.7309
 184   2.0000      -0.503464       -13.7000
 185   2.0000      -0.500407       -13.6168
 186   2.0000      -0.495851       -13.4928
 187   2.0000      -0.494707       -13.4617
 188   2.0000      -0.489774       -13.3274
 189   2.0000      -0.488861       -13.3026
 190   2.0000      -0.486092       -13.2272
 191   2.0000      -0.484889       -13.1945
 192   2.0000      -0.482619       -13.1327
 193   2.0000      -0.480330       -13.0705
 194   2.0000      -0.474730       -12.9181
 195   2.0000      -0.473560       -12.8862
 196   2.0000      -0.471354       -12.8262
 197   2.0000      -0.469457       -12.7746
 198   2.0000      -0.467372       -12.7178
 199   2.0000      -0.465167       -12.6578
 200   2.0000      -0.462974       -12.5982
 201   2.0000      -0.459302       -12.4983
 202   2.0000      -0.457931       -12.4609
 203   2.0000      -0.456463       -12.4210
 204   2.0000      -0.455262       -12.3883
 205   2.0000      -0.453158       -12.3310
 206   2.0000      -0.451080       -12.2745
 207   2.0000      -0.448157       -12.1950
 208   2.0000      -0.447273       -12.1709
 209   2.0000      -0.445681       -12.1276
 210   2.0000      -0.438034       -11.9195
 211   2.0000      -0.435940       -11.8625
 212   2.0000      -0.435477       -11.8499
 213   2.0000      -0.434473       -11.8226
 214   2.0000      -0.422457       -11.4956
 215   2.0000      -0.421655       -11.4738
 216   2.0000      -0.420257       -11.4358
 217   2.0000      -0.418087       -11.3767
 218   2.0000      -0.415501       -11.3064
 219   2.0000      -0.412008       -11.2113
 220   2.0000      -0.407042       -11.0762
 221   2.0000      -0.396615       -10.7925
 222   2.0000      -0.389709       -10.6045
 223   2.0000      -0.385765       -10.4972
 224   2.0000      -0.382740       -10.4149
 225   2.0000      -0.379398       -10.3239
 226   2.0000      -0.379011       -10.3134
 227   2.0000      -0.371608       -10.1120
 228   2.0000      -0.367233        -9.9929
 229   2.0000      -0.365895        -9.9565
 230   2.0000      -0.362335        -9.8596
 231   2.0000      -0.350683        -9.5426
 232   2.0000      -0.346481        -9.4282
 233   2.0000      -0.345046        -9.3892
 234   2.0000      -0.326447        -8.8831
 235   2.0000      -0.323468        -8.8020
 236   2.0000      -0.312775        -8.5110
 237   2.0000      -0.308208        -8.3868
 238   2.0000      -0.301047        -8.1919
 239   2.0000      -0.273826        -7.4512
 240   2.0000      -0.268509        -7.3065
 241   2.0000      -0.258138        -7.0243
 242   2.0000      -0.227368        -6.1870
 243   0.0000      -0.099964        -2.7202
 244   0.0000      -0.095102        -2.5879
 245   0.0000      -0.077690        -2.1141
 246   0.0000      -0.046257        -1.2587
 247   0.0000      -0.040374        -1.0986

MULLIKEN ATOMIC CHARGES
-----------------------
   0 C :    0.333115
   1 C :   -0.343906
   2 C :   -0.185091
   3 N :    0.156775
   4 C :   -0.195269
   5 N :    0.143728
   6 C :    0.005838
   7 C :   -0.008107
   8 C :   -0.067719
   9 C :    0.114000
  10 C :   -0.092365
  11 C :   -0.015617
  12 S :    0.194258
  13 C :   -0.124664
  14 C :    0.038227
  15 Br:    0.033055
  16 C :    0.175987
  17 O :   -0.216229
  18 C :   -0.122767
  19 C :    0.021720
  20 N :   -0.002295
  21 C :   -0.129260
  22 S :    0.172010
  23 C :    0.010803
  24 N :    0.275481
  25 O :   -0.246717
  26 O :   -0.253331
  27 C :    0.002394
  28 C :    0.143106
  29 C :   -0.039612
  30 C :    0.014356
  31 C :   -0.014340
  32 C :   -0.195201
  33 C :    0.072945
  34 C :    0.211345
  35 N :   -0.153060
  36 C :    0.040627
  37 C :   -0.013446
  38 C :   -0.024026
  39 S :    0.096129
  40 C :   -0.050392
  41 C :    0.042974
  42 C :   -0.040295
  43 C :   -0.043812
  44 O :   -0.158305
  45 C :    0.500167
  46 F :   -0.164210
  47 F :   -0.150317
  48 F :   -0.158615
  49 C :    0.026393
  50 C :   -0.038548
  51 C :    0.061762
  52 C :    0.001872
  53 C :    0.038580
  54 C :   -0.012645
  55 C :    0.056963
  56 C :   -0.023819
  57 C :    0.053419
  58 C :    0.009511
  59 C :    0.032420
  60 C :   -0.026780
  61 C :    0.012396
  62 C :   -0.027472
  63 H :   -0.008266
  64 H :   -0.004615
  65 H :    0.004278
  66 H :    0.049251
  67 H :    0.173348
  68 H :    0.012983
  69 H :   -0.009905
  70 H :   -0.008107
  71 H :   -0.029213
  72 H :    0.041985
  73 H :    0.014837
  74 H :    0.028917
  75 H :    0.006112
  76 H :    0.017533
  77 H :    0.115318
  78 H :    0.007823
  79 H :   -0.029475
  80 H :   -0.017032
  81 H :   -0.023835
  82 H :   -0.024902
  83 H :   -0.023766
  84 H :   -0.024300
  85 H :   -0.022245
  86 H :   -0.010632
  87 H :   -0.018092
  88 H :    0.007019
  89 H :    0.020856
Sum of atomic charges:   -0.0000000

LOEWDIN ATOMIC CHARGES
----------------------
   0 C :    0.078742
   1 C :   -0.146150
   2 C :   -0.020119
   3 N :   -0.050502
   4 C :   -0.020979
   5 N :   -0.050508
   6 C :   -0.018813
   7 C :   -0.053866
   8 C :    0.025519
   9 C :   -0.032832
  10 C :   -0.143156
  11 C :   -0.006243
  12 S :    0.439562
  13 C :   -0.269898
  14 C :   -0.068543
  15 Br:    0.143496
  16 C :    0.100082
  17 O :   -0.177987
  18 C :   -0.144346
  19 C :    0.111100
  20 N :    0.081163
  21 C :   -0.111836
  22 S :    0.475283
  23 C :   -0.203193
  24 N :    0.273178
  25 O :   -0.212148
  26 O :   -0.220425
  27 C :    0.001203
  28 C :   -0.084017
  29 C :   -0.032855
  30 C :   -0.018996
  31 C :   -0.055624
  32 C :   -0.029544
  33 C :   -0.061483
  34 C :    0.045601
  35 N :   -0.009861
  36 C :    0.026810
  37 C :   -0.137923
  38 C :   -0.149475
  39 S :    0.423628
  40 C :   -0.140369
  41 C :   -0.121749
  42 C :   -0.059180
  43 C :    0.034583
  44 O :   -0.112056
  45 C :    0.141424
  46 F :   -0.053850
  47 F :   -0.049320
  48 F :   -0.054295
  49 C :   -0.089549
  50 C :    0.012716
  51 C :   -0.063048
  52 C :    0.080924
  53 C :   -0.068896
  54 C :    0.054131
  55 C :   -0.064578
  56 C :    0.023702
  57 C :   -0.064985
  58 C :    0.079846
  59 C :   -0.066964
  60 C :    0.033701
  61 C :   -0.020978
  62 C :   -0.056102
  63 H :    0.042235
  64 H :    0.042312
  65 H :    0.041629
  66 H :    0.035671
  67 H :    0.087955
  68 H :    0.046992
  69 H :    0.032562
  70 H :    0.022189
  71 H :    0.023566
  72 H :    0.033546
  73 H :    0.031532
  74 H :    0.039922
  75 H :    0.024646
  76 H :    0.031679
  77 H :    0.077745
  78 H :    0.018885
  79 H :    0.027544
  80 H :    0.031396
  81 H :    0.021968
  82 H :    0.035093
  83 H :    0.025258
  84 H :    0.025003
  85 H :    0.036636
  86 H :    0.023658
  87 H :    0.029390
  88 H :    0.017311
  89 H :    0.024522

  Mayer bond orders larger than 0.100000
B(  0-C ,  1-C ) :   1.6312 B(  0-C ,  6-C ) :   1.0027 B(  0-C , 18-C ) :   1.0980
B(  1-C ,  2-C ) :   1.1432 B(  1-C ,  4-C ) :   1.1459 B(  2-C ,  3-N ) :   2.9705
B(  4-C ,  5-N ) :   2.9528 B(  6-C ,  7-C ) :   1.2697 B(  6-C , 11-C ) :   1.4267
B(  7-C ,  8-C ) :   1.4152 B(  7-C , 16-C ) :   0.9817 B(  8-C ,  9-C ) :   1.2486
B(  8-C , 63-H ) :   1.0185 B(  9-C , 10-C ) :   1.3053 B(  9-C , 14-C ) :   1.1637
B( 10-C , 11-C ) :   1.3198 B( 10-C , 12-S ) :   1.0934 B( 11-C , 64-H ) :   0.9790
B( 12-S , 13-C ) :   1.0876 B( 13-C , 14-C ) :   1.6175 B( 13-C , 15-Br) :   1.0247
B( 14-C , 65-H ) :   0.9999 B( 16-C , 17-O ) :   1.9879 B( 16-C , 18-C ) :   1.0098
B( 17-O , 67-H ) :   0.1258 B( 18-C , 19-C ) :   1.4541 B( 19-C , 20-N ) :   1.3399
B( 19-C , 66-H ) :   0.9272 B( 20-N , 21-C ) :   1.1791 B( 20-N , 67-H ) :   0.8345
B( 21-C , 22-S ) :   1.1397 B( 21-C , 28-C ) :   1.3928 B( 22-S , 23-C ) :   1.0870
B( 23-C , 24-N ) :   0.9623 B( 23-C , 27-C ) :   1.4968 B( 24-N , 25-O ) :   1.5380
B( 24-N , 26-O ) :   1.5190 B( 25-O , 26-O ) :   0.2635 B( 27-C , 28-C ) :   1.2105
B( 27-C , 68-H ) :   1.0067 B( 28-C , 29-C ) :   1.0484 B( 29-C , 30-C ) :   1.7215
B( 29-C , 69-H ) :   0.9721 B( 30-C , 31-C ) :   1.1141 B( 30-C , 70-H ) :   0.9544
B( 31-C , 32-C ) :   1.7660 B( 31-C , 71-H ) :   0.9796 B( 32-C , 33-C ) :   1.0632
B( 32-C , 34-C ) :   1.0470 B( 33-C , 72-H ) :   0.9364 B( 33-C , 73-H ) :   0.9448
B( 33-C , 74-H ) :   0.9379 B( 34-C , 35-N ) :   1.0103 B( 34-C , 75-H ) :   0.9413
B( 34-C , 76-H ) :   0.9290 B( 35-N , 36-C ) :   1.2134 B( 35-N , 77-H ) :   0.9397
B( 36-C , 37-C ) :   1.6260 B( 36-C , 78-H ) :   0.9587 B( 37-C , 38-C ) :   1.1633
B( 37-C , 79-H ) :   0.9672 B( 38-C , 39-S ) :   1.0749 B( 38-C , 42-C ) :   1.5201
B( 39-S , 40-C ) :   1.1475 B( 40-C , 41-C ) :   1.4820 B( 40-C , 49-C ) :   1.0616
B( 41-C , 42-C ) :   1.1997 B( 41-C , 43-C ) :   0.9567 B( 42-C , 80-H ) :   1.0134
B( 43-C , 44-O ) :   2.1911 B( 43-C , 45-C ) :   0.8816 B( 45-C , 46-F ) :   1.1213
B( 45-C , 47-F ) :   1.1440 B( 45-C , 48-F ) :   1.1643 B( 49-C , 50-C ) :   1.4657
B( 49-C , 60-C ) :   1.1918 B( 50-C , 51-C ) :   1.1257 B( 50-C , 81-H ) :   1.0132
B( 51-C , 52-C ) :   1.4002 B( 51-C , 59-C ) :   1.1544 B( 52-C , 53-C ) :   1.1628
B( 52-C , 82-H ) :   1.0046 B( 53-C , 54-C ) :   1.3875 B( 53-C , 57-C ) :   1.1426
B( 54-C , 55-C ) :   1.1791 B( 54-C , 83-H ) :   1.0083 B( 55-C , 56-C ) :   1.4754
B( 55-C , 61-C ) :   1.0831 B( 56-C , 57-C ) :   1.0997 B( 56-C , 84-H ) :   1.0164
B( 57-C , 58-C ) :   1.4361 B( 58-C , 59-C ) :   1.1437 B( 58-C , 85-H ) :   1.0061
B( 59-C , 60-C ) :   1.4134 B( 60-C , 86-H ) :   0.9927 B( 61-C , 62-C ) :   1.9379
B( 61-C , 87-H ) :   0.9659 B( 62-C , 88-H ) :   0.9527 B( 62-C , 89-H ) :   0.9491

-----------------------------------------------------------------------------
         ABSORPTION SPECTRUM VIA TRANSITION ELECTRIC DIPOLE MOMENTS
-----------------------------------------------------------------------------
State   Energy  Wavelength   fosc         T2         TX        TY        TZ
        (cm-1)    (nm)                  (au**2)     (au)      (au)      (au)
-----------------------------------------------------------------------------
   0    7702.1   1298.4   0.005494782   0.23486   0.30201  -0.13156   0.35545
   1   17951.2    557.1   0.058339520   1.06991  -0.59647   0.61035  -0.58446
   2   18778.2    532.5   0.044513681   0.78040   0.23014   0.85125  -0.05301
   3   21335.0    468.7   0.049249528   0.75995   0.08530   0.83346   0.24086
   4   22042.7    453.7   0.518007745   7.73655   0.61191   2.05479   1.77200
   5   22261.1    449.2   0.252004211   3.72680  -1.17692   0.26471  -1.50718
   6   23125.6    432.4   0.964297151  13.72759   2.27364  -0.67777   2.84583
   7   24739.0    404.2   0.042329833   0.56330  -0.11957   0.04917   0.73931
   8   27099.1    369.0   0.044055813   0.53521   0.01005   0.30479   0.66499
   9   28798.9    347.2   0.188644723   2.15647  -0.16462  -0.61357   1.32397
  10   28838.6    346.8   0.101182113   1.15506  -0.46341   0.45503   0.85630
  11   29266.9    341.7   0.038188374   0.42957  -0.17327  -0.46865   0.42416
  12   29738.4    336.3   0.242950957   2.68953  -0.06818   0.00568   1.63855
  13   30089.3    332.3   0.014668879   0.16049  -0.08857  -0.19551  -0.33827
  14   30218.5    330.9   0.014011127   0.15264  -0.12121   0.16361  -0.33344
  15   30311.1    329.9   0.113284471   1.23039   0.08350   0.07092   1.10381
  16   30441.0    328.5   0.084808391   0.91718  -0.15666  -0.25183  -0.91062
  17   30487.9    328.0   0.470249239   5.07781  -0.06349  -0.09673  -2.25043
  18   30756.1    325.1   0.011677354   0.12499   0.15565  -0.24880   0.19714
  19   31634.7    316.1   0.326152955   3.39416   1.49118  -0.64283   0.87024
  20   32077.6    311.7   0.040159976   0.41216   0.23082   0.05448   0.59659
  21   32226.2    310.3   0.182618733   1.86557   0.15425  -0.57957   1.22714
  22   32892.7    304.0   0.185244107   1.85405  -0.18523  -0.22991  -1.32924
  23   33525.2    298.3   0.008050561   0.07906   0.01058   0.16769  -0.22544
  24   33711.3    296.6   1.127581652  11.01155   0.42717  -0.92707   3.15747
  25   33798.0    295.9   0.283481396   2.76127  -1.38711  -0.31414  -0.85936
  26   34000.8    294.1   0.000144736   0.00140   0.00909  -0.02018   0.03019
  27   34487.8    290.0   0.002927403   0.02794  -0.00983   0.01195  -0.16645
  28   34785.5    287.5   0.000014519   0.00014   0.00001  -0.01168  -0.00100
  29   35379.6    282.6   0.000753326   0.00701  -0.03713   0.02349   0.07127
  30   36475.5    274.2   0.010200889   0.09207  -0.07526  -0.10924   0.27289
  31   36842.4    271.4   0.238994111   2.13558   0.87255   0.02627  -1.17198
  32   36938.2    270.7   0.311582893   2.77698   0.30755  -0.06054   1.63668
  33   37102.8    269.5   0.172445111   1.53010   0.70382   0.99966  -0.18821
  34   37431.7    267.2   0.229270335   2.01643  -0.13002  -1.14388   0.83131
  35   37865.8    264.1   0.202916579   1.76419   0.88228  -0.94620   0.30082
  36   38223.2    261.6   0.004357073   0.03753  -0.10325   0.13871  -0.08733
  37   38244.0    261.5   0.017551137   0.15108  -0.26674  -0.14082   0.24515
  38   38552.3    259.4   0.007248419   0.06190   0.19922  -0.09664  -0.11344
  39   38574.1    259.2   0.011411602   0.09739   0.00261   0.24166  -0.19745
  40   39030.1    256.2   0.011092589   0.09356  -0.04123  -0.01671  -0.30263
  41   39944.2    250.3   0.026863698   0.22141   0.26102  -0.22385  -0.32119
  42   40069.2    249.6   0.122991028   1.01050  -0.41154  -0.91258  -0.09124
  43   40127.4    249.2   0.006742632   0.05532  -0.05131   0.22946  -0.00585
  44   40151.2    249.1   0.052319278   0.42898   0.43136  -0.46499   0.16339

FINAL SINGLE POINT ENERGY     -6446.090527954741

DIPOLE MOMENT
-------------
                                X             Y             Z
Electronic contribution:     13.62516     -92.46571     -36.13059
Nuclear contribution   :    -14.12819      94.84838      34.60413
                        -----------------------------------------
Total Dipole Moment    :     -0.50303       2.38268      -1.52646
                        -----------------------------------------
Magnitude (a.u.)       :      2.87407
Magnitude (Debye)      :      7.30530

Rotational constants in cm-1:     0.001204     0.000382     0.000327
Rotational constants in MHz :    36.092884    11.458601     9.788972

                             ****ORCA TERMINATED NORMALLY****
TOTAL RUN TIME: 0 days 0 hours 7 minutes 45 seconds 646 msec
