                         Program Version 4.2.0 -  RELEASE  -
|  1> # ORCA input file
|  2> # SCF done       -199.731609766053          0.000804134232
|  3> ! CAM-B3LYP def2-SVP def2/J RIJCOSX Grid4 TightSCF
|  4> %maxcore 5000
|  5> %tddft
|  6>     Mode sTDDFT
|  7>     Ethresh 5.0
|  8>     maxcore 5000
|  9> end
| 10>
| 11> %pal
| 12>   nprocs 6
| 13>   end
| 14> * xyz 0 1
| 15>    C       -5.60618         3.72930         1.71098
| 16>    C       -5.27830         2.92193         2.76697
| 17>    C       -3.98078         2.81653         3.31034
| 18>    N       -2.95047         2.70586         3.80298
| 19>    C       -6.20864         2.12064         3.45987
| 20>    N       -6.94141         1.45886         4.04541
| 21>    C       -4.68654         4.57900         0.96331
| 22>    C       -5.42451         5.33647         0.01647
| 23>    C       -4.82821         6.22147        -0.85107
| 24>    C       -3.43686         6.34520        -0.80528
| 25>    C       -2.70674         5.56070         0.12121
| 26>    C       -3.31072         4.68585         1.01622
| 27>    S       -1.00112         5.82933        -0.02575
| 28>    C       -1.28361         6.98000        -1.30219
| 29>    C       -2.59160         7.15785        -1.60644
| 30>   Br        0.16545         7.84277        -2.10637
| 31>    C       -6.83130         4.93870         0.08459
| 32>    O       -7.75384         5.34659        -0.61821
| 33>    C       -6.91993         3.91121         1.12924
| 34>    C       -8.08611         3.23488         1.37924
| 35>    N       -9.17202         3.48488         0.63521
| 36>    C      -10.38560         2.87986         0.68446
| 37>    S      -10.96675         2.08075         2.10765
| 38>    C      -12.49532         1.84011         1.32091
| 39>    N      -13.49616         1.16117         2.03458
| 40>    O      -14.56909         1.00373         1.48673
| 41>    O      -13.20623         0.78543         3.15504
| 42>    C      -12.55013         2.34741         0.05077
| 43>    C      -11.33266         2.92834        -0.34996
| 44>    C      -11.07342         3.47670        -1.65745
| 45>    C       -9.84110         3.47303        -2.20775
| 46>    C       -9.42180         4.14150        -3.39732
| 47>    C       -8.03177         4.24971        -3.63906
| 48>    C       -7.50355         5.01812        -4.74008
| 49>    N       -6.17434         5.23685        -4.82981
| 50>    C       -5.38270         4.67772        -3.95620
| 51>    C       -5.90039         3.79229        -2.94723
| 52>    N       -7.18916         3.62427        -2.80223
| 53>    C       -5.01343         3.12786        -2.06742
| 54>    N       -4.27508         2.62143        -1.35149
| 55>    C       -3.99830         4.97845        -3.95006
| 56>    N       -2.88095         5.21653        -3.86013
| 57>    C       -8.34651         5.58670        -5.69781
| 58>    C       -9.72111         5.44811        -5.49523
| 59>    C      -10.26124         4.76731        -4.33620
| 60>    N      -11.59728         4.78838        -4.33785
| 61>    S      -12.11064         5.55782        -5.64543
| 62>    N      -10.69158         5.92179        -6.28776
| 63>    C       -7.79133         6.23842        -6.92529
| 64>    C       -8.00708         5.28100        -8.11611
| 65>    O       -7.61900         4.15783        -8.21314
| 66>    O       -8.74287         5.89919        -9.06291
| 67>    C       -9.05810         7.16858        -8.64893
| 68>    C       -8.52516         7.45291        -7.38982
| 69>    C       -8.72622         8.67863        -6.78483
| 70>    C       -9.48337         9.58503        -7.50557
| 71>    C      -10.02401         9.29737        -8.76058
| 72>    C       -9.81681         8.07297        -9.36784
| 73>    C      -10.77279        10.50577        -9.21776
| 74>    C      -10.56236        11.46311        -8.03354
| 75>    O      -10.97492        12.57435        -7.91198
| 76>    O       -9.79927        10.85237        -7.08945
| 77>    C      -10.26516        11.13227       -10.48332
| 78>    C      -11.01180        12.02815       -11.27761
| 79>    C      -10.21771        12.43066       -12.35673
| 80>    C      -10.47711        13.29244       -13.43054
| 81>    C       -9.47108        13.48096       -14.35343
| 82>    C       -9.40930        14.26840       -15.53755
| 83>    C       -8.15462        14.10618       -16.11996
| 84>    C       -7.40962        13.21382       -15.30631
| 85>    C       -8.19489        12.81792       -14.21875
| 86>    C       -7.93449        11.96031       -13.14412
| 87>    C       -8.94247        11.76880       -12.22181
| 88>    C       -9.00829        10.97533       -11.03887
| 89>    C       -7.64637        14.70675       -17.33088
| 90>    C       -8.30611        15.56539       -18.10365
| 91>    H       -5.41528         6.79599        -1.55197
| 92>    H       -2.71099         4.10885         1.69967
| 93>    H       -2.94243         7.82617        -2.37095
| 94>    H       -8.16595         2.46274         2.13360
| 95>    H       -9.02281         4.21321        -0.08845
| 96>    H      -13.42399         2.27085        -0.57042
| 97>    H      -11.91140         3.89124        -2.19865
| 98>    H       -9.03171         2.95135        -1.71799
| 99>    H       -6.71878         6.39549        -6.77193
|100>    H       -8.32504         8.91952        -5.81498
|101>    H      -10.21904         7.83468       -10.33781
|102>    H      -11.84720        10.31858        -9.32006
|103>    H      -12.01783        12.34590       -11.07430
|104>    H      -11.43353        13.78706       -13.52442
|105>    H      -10.21011        14.88044       -15.90851
|106>    H       -6.40031        12.89797       -15.50318
|107>    H       -6.97671        11.46849       -13.04648
|108>    H       -8.21524        10.35817       -10.65745
|109>    H       -6.64017        14.41050       -17.60049
|110>    H       -9.30641        15.89040       -17.87472
|111>    H       -7.86431        15.97438       -18.99558
|112> *
|113>
|114>                          ****END OF INPUT****

CARTESIAN COORDINATES (ANGSTROEM)
---------------------------------
  C     -5.606180    3.729300    1.710980
  C     -5.278300    2.921930    2.766970
  C     -3.980780    2.816530    3.310340
  N     -2.950470    2.705860    3.802980
  C     -6.208640    2.120640    3.459870
  N     -6.941410    1.458860    4.045410
  C     -4.686540    4.579000    0.963310
  C     -5.424510    5.336470    0.016470
  C     -4.828210    6.221470   -0.851070
  C     -3.436860    6.345200   -0.805280
  C     -2.706740    5.560700    0.121210
  C     -3.310720    4.685850    1.016220
  S     -1.001120    5.829330   -0.025750
  C     -1.283610    6.980000   -1.302190
  C     -2.591600    7.157850   -1.606440
  Br     0.165450    7.842770   -2.106370
  C     -6.831300    4.938700    0.084590
  O     -7.753840    5.346590   -0.618210
  C     -6.919930    3.911210    1.129240
  C     -8.086110    3.234880    1.379240
  N     -9.172020    3.484880    0.635210
  C    -10.385600    2.879860    0.684460
  S    -10.966750    2.080750    2.107650
  C    -12.495320    1.840110    1.320910
  N    -13.496160    1.161170    2.034580
  O    -14.569090    1.003730    1.486730
  O    -13.206230    0.785430    3.155040
  C    -12.550130    2.347410    0.050770
  C    -11.332660    2.928340   -0.349960
  C    -11.073420    3.476700   -1.657450
  C     -9.841100    3.473030   -2.207750
  C     -9.421800    4.141500   -3.397320
  C     -8.031770    4.249710   -3.639060
  C     -7.503550    5.018120   -4.740080
  N     -6.174340    5.236850   -4.829810
  C     -5.382700    4.677720   -3.956200
  C     -5.900390    3.792290   -2.947230
  N     -7.189160    3.624270   -2.802230
  C     -5.013430    3.127860   -2.067420
  N     -4.275080    2.621430   -1.351490
  C     -3.998300    4.978450   -3.950060
  N     -2.880950    5.216530   -3.860130
  C     -8.346510    5.586700   -5.697810
  C     -9.721110    5.448110   -5.495230
  C    -10.261240    4.767310   -4.336200
  N    -11.597280    4.788380   -4.337850
  S    -12.110640    5.557820   -5.645430
  N    -10.691580    5.921790   -6.287760
  C     -7.791330    6.238420   -6.925290
  C     -8.007080    5.281000   -8.116110
  O     -7.619000    4.157830   -8.213140
  O     -8.742870    5.899190   -9.062910
  C     -9.058100    7.168580   -8.648930
  C     -8.525160    7.452910   -7.389820
  C     -8.726220    8.678630   -6.784830
  C     -9.483370    9.585030   -7.505570
  C    -10.024010    9.297370   -8.760580
  C     -9.816810    8.072970   -9.367840
  C    -10.772790   10.505770   -9.217760
  C    -10.562360   11.463110   -8.033540
  O    -10.974920   12.574350   -7.911980
  O     -9.799270   10.852370   -7.089450
  C    -10.265160   11.132270  -10.483320
  C    -11.011800   12.028150  -11.277610
  C    -10.217710   12.430660  -12.356730
  C    -10.477110   13.292440  -13.430540
  C     -9.471080   13.480960  -14.353430
  C     -9.409300   14.268400  -15.537550
  C     -8.154620   14.106180  -16.119960
  C     -7.409620   13.213820  -15.306310
  C     -8.194890   12.817920  -14.218750
  C     -7.934490   11.960310  -13.144120
  C     -8.942470   11.768800  -12.221810
  C     -9.008290   10.975330  -11.038870
  C     -7.646370   14.706750  -17.330880
  C     -8.306110   15.565390  -18.103650
  H     -5.415280    6.795990   -1.551970
  H     -2.710990    4.108850    1.699670
  H     -2.942430    7.826170   -2.370950
  H     -8.165950    2.462740    2.133600
  H     -9.022810    4.213210   -0.088450
  H    -13.423990    2.270850   -0.570420
  H    -11.911400    3.891240   -2.198650
  H     -9.031710    2.951350   -1.717990
  H     -6.718780    6.395490   -6.771930
  H     -8.325040    8.919520   -5.814980
  H    -10.219040    7.834680  -10.337810
  H    -11.847200   10.318580   -9.320060
  H    -12.017830   12.345900  -11.074300
  H    -11.433530   13.787060  -13.524420
  H    -10.210110   14.880440  -15.908510
  H     -6.400310   12.897970  -15.503180
  H     -6.976710   11.468490  -13.046480
  H     -8.215240   10.358170  -10.657450
  H     -6.640170   14.410500  -17.600490
  H     -9.306410   15.890400  -17.874720
  H     -7.864310   15.974380  -18.995580

 Total Charge           Charge          ....    0
 Multiplicity           Mult            ....    1
 Number of Electrons    NEL             ....  560
 Basis Dimension        Dim             .... 1199

ORBITAL ENERGIES
----------------

  NO   OCC          E(Eh)            E(eV)
   0   2.0000    -482.884477    -13139.9546
   1   2.0000     -89.066814     -2423.6312
   2   2.0000     -89.001052     -2421.8418
   3   2.0000     -88.977104     -2421.1901
   4   2.0000     -62.562212     -1702.4043
   5   2.0000     -56.396157     -1534.6175
   6   2.0000     -56.393447     -1534.5437
   7   2.0000     -56.393417     -1534.5429
   8   2.0000     -19.294112      -525.0195
   9   2.0000     -19.286479      -524.8118
  10   2.0000     -19.247276      -523.7450
  11   2.0000     -19.246525      -523.7246
  12   2.0000     -19.240147      -523.5510
  13   2.0000     -19.225611      -523.1555
  14   2.0000     -19.216502      -522.9076
  15   2.0000     -14.658904      -398.8891
  16   2.0000     -14.500746      -394.5854
  17   2.0000     -14.480335      -394.0299
  18   2.0000     -14.479772      -394.0146
  19   2.0000     -14.474104      -393.8604
  20   2.0000     -14.472289      -393.8110
  21   2.0000     -14.448773      -393.1711
  22   2.0000     -14.445411      -393.0796
  23   2.0000     -14.422691      -392.4614
  24   2.0000     -14.416559      -392.2945
  25   2.0000     -10.423635      -283.6415
  26   2.0000     -10.412192      -283.3301
  27   2.0000     -10.400211      -283.0041
  28   2.0000     -10.395705      -282.8815
  29   2.0000     -10.386299      -282.6256
  30   2.0000     -10.384092      -282.5655
  31   2.0000     -10.375902      -282.3426
  32   2.0000     -10.364453      -282.0311
  33   2.0000     -10.363087      -281.9939
  34   2.0000     -10.361182      -281.9421
  35   2.0000     -10.360524      -281.9242
  36   2.0000     -10.358384      -281.8660
  37   2.0000     -10.357050      -281.8297
  38   2.0000     -10.351664      -281.6831
  39   2.0000     -10.351232      -281.6714
  40   2.0000     -10.348978      -281.6100
  41   2.0000     -10.345567      -281.5172
  42   2.0000     -10.341096      -281.3955
  43   2.0000     -10.339216      -281.3444
  44   2.0000     -10.336704      -281.2760
  45   2.0000     -10.334787      -281.2239
  46   2.0000     -10.328952      -281.0651
  47   2.0000     -10.325071      -280.9595
  48   2.0000     -10.323974      -280.9296
  49   2.0000     -10.322436      -280.8878
  50   2.0000     -10.319435      -280.8061
  51   2.0000     -10.317741      -280.7600
  52   2.0000     -10.314213      -280.6640
  53   2.0000     -10.312966      -280.6301
  54   2.0000     -10.311800      -280.5983
  55   2.0000     -10.311126      -280.5800
  56   2.0000     -10.310449      -280.5616
  57   2.0000     -10.310403      -280.5603
  58   2.0000     -10.306273      -280.4479
  59   2.0000     -10.305956      -280.4393
  60   2.0000     -10.305391      -280.4239
  61   2.0000     -10.305348      -280.4228
  62   2.0000     -10.304092      -280.3886
  63   2.0000     -10.303172      -280.3636
  64   2.0000     -10.302435      -280.3435
  65   2.0000     -10.302399      -280.3425
  66   2.0000     -10.301732      -280.3244
  67   2.0000     -10.296851      -280.1916
  68   2.0000     -10.287626      -279.9405
  69   2.0000     -10.286198      -279.9017
  70   2.0000     -10.282201      -279.7929
  71   2.0000     -10.280330      -279.7420
  72   2.0000     -10.279389      -279.7164
  73   2.0000     -10.268779      -279.4277
  74   2.0000     -10.266976      -279.3786
  75   2.0000     -10.264012      -279.2980
  76   2.0000     -10.263887      -279.2946
  77   2.0000     -10.263448      -279.2826
  78   2.0000     -10.262615      -279.2600
  79   2.0000     -10.256626      -279.0970
  80   2.0000      -8.791676      -239.2337
  81   2.0000      -8.157835      -221.9860
  82   2.0000      -8.096335      -220.3125
  83   2.0000      -8.073080      -219.6797
  84   2.0000      -6.627987      -180.3567
  85   2.0000      -6.613427      -179.9605
  86   2.0000      -6.613179      -179.9537
  87   2.0000      -6.128780      -166.7726
  88   2.0000      -6.121032      -166.5618
  89   2.0000      -6.120888      -166.5578
  90   2.0000      -6.065874      -165.0608
  91   2.0000      -6.061500      -164.9418
  92   2.0000      -6.057992      -164.8463
  93   2.0000      -6.042729      -164.4310
  94   2.0000      -6.038440      -164.3143
  95   2.0000      -6.034393      -164.2042
  96   2.0000      -2.743883       -74.6649
  97   2.0000      -2.739727       -74.5518
  98   2.0000      -2.739653       -74.5498
  99   2.0000      -2.728027       -74.2334
 100   2.0000      -2.728015       -74.2331
 101   2.0000      -1.329320       -36.1726
 102   2.0000      -1.230646       -33.4876
 103   2.0000      -1.221495       -33.2386
 104   2.0000      -1.161599       -31.6087
 105   2.0000      -1.154625       -31.4189
 106   2.0000      -1.148718       -31.2582
 107   2.0000      -1.137479       -30.9524
 108   2.0000      -1.136036       -30.9131
 109   2.0000      -1.127497       -30.6808
 110   2.0000      -1.110397       -30.2155
 111   2.0000      -1.064709       -28.9722
 112   2.0000      -1.033413       -28.1206
 113   2.0000      -1.027760       -27.9668
 114   2.0000      -1.021636       -27.8001
 115   2.0000      -1.020773       -27.7766
 116   2.0000      -1.016823       -27.6692
 117   2.0000      -1.015929       -27.6448
 118   2.0000      -0.999790       -27.2057
 119   2.0000      -0.999059       -27.1858
 120   2.0000      -0.994597       -27.0644
 121   2.0000      -0.990570       -26.9548
 122   2.0000      -0.980138       -26.6709
 123   2.0000      -0.964774       -26.2528
 124   2.0000      -0.948220       -25.8024
 125   2.0000      -0.944038       -25.6886
 126   2.0000      -0.933235       -25.3946
 127   2.0000      -0.923667       -25.1343
 128   2.0000      -0.916344       -24.9350
 129   2.0000      -0.913436       -24.8558
 130   2.0000      -0.905288       -24.6341
 131   2.0000      -0.893335       -24.3089
 132   2.0000      -0.891016       -24.2458
 133   2.0000      -0.885928       -24.1073
 134   2.0000      -0.877944       -23.8901
 135   2.0000      -0.865368       -23.5479
 136   2.0000      -0.864507       -23.5244
 137   2.0000      -0.858176       -23.3522
 138   2.0000      -0.853397       -23.2221
 139   2.0000      -0.847596       -23.0643
 140   2.0000      -0.846059       -23.0224
 141   2.0000      -0.833909       -22.6918
 142   2.0000      -0.815509       -22.1911
 143   2.0000      -0.807045       -21.9608
 144   2.0000      -0.798847       -21.7377
 145   2.0000      -0.795915       -21.6580
 146   2.0000      -0.775267       -21.0961
 147   2.0000      -0.768760       -20.9190
 148   2.0000      -0.766433       -20.8557
 149   2.0000      -0.756128       -20.5753
 150   2.0000      -0.753162       -20.4946
 151   2.0000      -0.750328       -20.4175
 152   2.0000      -0.744153       -20.2494
 153   2.0000      -0.734343       -19.9825
 154   2.0000      -0.732141       -19.9226
 155   2.0000      -0.722738       -19.6667
 156   2.0000      -0.715837       -19.4789
 157   2.0000      -0.704295       -19.1648
 158   2.0000      -0.701514       -19.0892
 159   2.0000      -0.696146       -18.9431
 160   2.0000      -0.689205       -18.7542
 161   2.0000      -0.683371       -18.5955
 162   2.0000      -0.682054       -18.5596
 163   2.0000      -0.670682       -18.2502
 164   2.0000      -0.666712       -18.1421
 165   2.0000      -0.665249       -18.1023
 166   2.0000      -0.661900       -18.0112
 167   2.0000      -0.651971       -17.7410
 168   2.0000      -0.647265       -17.6130
 169   2.0000      -0.646149       -17.5826
 170   2.0000      -0.640478       -17.4283
 171   2.0000      -0.639533       -17.4026
 172   2.0000      -0.638759       -17.3815
 173   2.0000      -0.637184       -17.3386
 174   2.0000      -0.628163       -17.0932
 175   2.0000      -0.625823       -17.0295
 176   2.0000      -0.624722       -16.9996
 177   2.0000      -0.613720       -16.7002
 178   2.0000      -0.611290       -16.6340
 179   2.0000      -0.602741       -16.4014
 180   2.0000      -0.601564       -16.3694
 181   2.0000      -0.596819       -16.2403
 182   2.0000      -0.595621       -16.2077
 183   2.0000      -0.592077       -16.1112
 184   2.0000      -0.589141       -16.0314
 185   2.0000      -0.582773       -15.8581
 186   2.0000      -0.582399       -15.8479
 187   2.0000      -0.577931       -15.7263
 188   2.0000      -0.575034       -15.6475
 189   2.0000      -0.572649       -15.5826
 190   2.0000      -0.564835       -15.3699
 191   2.0000      -0.560223       -15.2444
 192   2.0000      -0.558732       -15.2039
 193   2.0000      -0.555407       -15.1134
 194   2.0000      -0.553185       -15.0529
 195   2.0000      -0.552138       -15.0244
 196   2.0000      -0.550659       -14.9842
 197   2.0000      -0.544584       -14.8189
 198   2.0000      -0.543363       -14.7857
 199   2.0000      -0.538332       -14.6488
 200   2.0000      -0.534107       -14.5338
 201   2.0000      -0.533007       -14.5038
 202   2.0000      -0.530528       -14.4364
 203   2.0000      -0.527942       -14.3660
 204   2.0000      -0.525238       -14.2925
 205   2.0000      -0.523953       -14.2575
 206   2.0000      -0.519516       -14.1368
 207   2.0000      -0.517450       -14.0805
 208   2.0000      -0.515938       -14.0394
 209   2.0000      -0.515038       -14.0149
 210   2.0000      -0.507754       -13.8167
 211   2.0000      -0.505338       -13.7510
 212   2.0000      -0.501368       -13.6429
 213   2.0000      -0.500020       -13.6062
 214   2.0000      -0.497925       -13.5492
 215   2.0000      -0.497294       -13.5321
 216   2.0000      -0.495085       -13.4719
 217   2.0000      -0.493773       -13.4363
 218   2.0000      -0.490603       -13.3500
 219   2.0000      -0.488853       -13.3024
 220   2.0000      -0.486787       -13.2461
 221   2.0000      -0.482663       -13.1339
 222   2.0000      -0.480466       -13.0741
 223   2.0000      -0.478033       -13.0079
 224   2.0000      -0.475229       -12.9316
 225   2.0000      -0.474267       -12.9055
 226   2.0000      -0.472573       -12.8594
 227   2.0000      -0.471735       -12.8366
 228   2.0000      -0.464973       -12.6526
 229   2.0000      -0.463279       -12.6065
 230   2.0000      -0.462128       -12.5751
 231   2.0000      -0.461296       -12.5525
 232   2.0000      -0.460925       -12.5424
 233   2.0000      -0.455287       -12.3890
 234   2.0000      -0.454134       -12.3576
 235   2.0000      -0.452993       -12.3266
 236   2.0000      -0.452824       -12.3220
 237   2.0000      -0.450558       -12.2603
 238   2.0000      -0.446840       -12.1591
 239   2.0000      -0.446734       -12.1563
 240   2.0000      -0.442216       -12.0333
 241   2.0000      -0.440106       -11.9759
 242   2.0000      -0.436579       -11.8799
 243   2.0000      -0.434732       -11.8297
 244   2.0000      -0.432076       -11.7574
 245   2.0000      -0.431603       -11.7445
 246   2.0000      -0.431332       -11.7371
 247   2.0000      -0.428360       -11.6563
 248   2.0000      -0.425031       -11.5657
 249   2.0000      -0.421652       -11.4737
 250   2.0000      -0.414641       -11.2829
 251   2.0000      -0.413979       -11.2649
 252   2.0000      -0.408444       -11.1143
 253   2.0000      -0.407896       -11.0994
 254   2.0000      -0.404089       -10.9958
 255   2.0000      -0.396821       -10.7980
 256   2.0000      -0.393889       -10.7183
 257   2.0000      -0.391075       -10.6417
 258   2.0000      -0.386384       -10.5140
 259   2.0000      -0.384312       -10.4577
 260   2.0000      -0.378214       -10.2917
 261   2.0000      -0.375850       -10.2274
 262   2.0000      -0.375189       -10.2094
 263   2.0000      -0.373965       -10.1761
 264   2.0000      -0.373258       -10.1569
 265   2.0000      -0.367128        -9.9901
 266   2.0000      -0.364754        -9.9255
 267   2.0000      -0.363794        -9.8993
 268   2.0000      -0.362571        -9.8660
 269   2.0000      -0.356178        -9.6921
 270   2.0000      -0.346065        -9.4169
 271   2.0000      -0.342874        -9.3301
 272   2.0000      -0.320678        -8.7261
 273   2.0000      -0.318037        -8.6542
 274   2.0000      -0.307693        -8.3727
 275   2.0000      -0.300962        -8.1896
 276   2.0000      -0.295389        -8.0379
 277   2.0000      -0.276985        -7.5371
 278   2.0000      -0.266968        -7.2646
 279   2.0000      -0.245869        -6.6904
 280   0.0000      -0.136307        -3.7091
 281   0.0000      -0.102110        -2.7785
 282   0.0000      -0.090934        -2.4744
 283   0.0000      -0.079237        -2.1561
 284   0.0000      -0.064813        -1.7637

MULLIKEN ATOMIC CHARGES
-----------------------
   0 C :    0.327395
   1 C :   -0.332129
   2 C :   -0.188486
   3 N :    0.156346
   4 C :   -0.200340
   5 N :    0.146126
   6 C :    0.022524
   7 C :   -0.013056
   8 C :   -0.109915
   9 C :    0.122524
  10 C :   -0.082655
  11 C :   -0.001110
  12 S :    0.196578
  13 C :   -0.120798
  14 C :    0.063162
  15 Br:    0.029763
  16 C :    0.163321
  17 O :   -0.231799
  18 C :   -0.116473
  19 C :    0.033258
  20 N :   -0.031586
  21 C :   -0.106094
  22 S :    0.206522
  23 C :   -0.004789
  24 N :    0.275829
  25 O :   -0.243983
  26 O :   -0.252989
  27 C :    0.017349
  28 C :    0.106632
  29 C :    0.024083
  30 C :   -0.101942
  31 C :    0.059267
  32 C :    0.003896
  33 C :   -0.056914
  34 N :    0.049252
  35 C :   -0.123400
  36 C :   -0.154634
  37 N :    0.046675
  38 C :   -0.195244
  39 N :    0.236188
  40 C :   -0.192510
  41 N :    0.230221
  42 C :   -0.034738
  43 C :    0.015033
  44 C :    0.051840
  45 N :   -0.283486
  46 S :    0.572142
  47 N :   -0.287059
  48 C :    0.009660
  49 C :    0.222552
  50 O :   -0.129384
  51 O :   -0.202653
  52 C :    0.213851
  53 C :    0.035229
  54 C :   -0.121134
  55 C :    0.204005
  56 C :   -0.038656
  57 C :   -0.112184
  58 C :    0.062195
  59 C :    0.206415
  60 O :   -0.130009
  61 O :   -0.213304
  62 C :   -0.018739
  63 C :   -0.011518
  64 C :    0.041545
  65 C :    0.009822
  66 C :    0.035976
  67 C :   -0.014746
  68 C :    0.052872
  69 C :   -0.014670
  70 C :    0.041515
  71 C :    0.010138
  72 C :    0.045456
  73 C :   -0.024530
  74 C :    0.010959
  75 C :   -0.019694
  76 H :   -0.015873
  77 H :   -0.002620
  78 H :   -0.006728
  79 H :    0.042360
  80 H :    0.185795
  81 H :    0.015377
  82 H :    0.020039
  83 H :    0.014440
  84 H :    0.045752
  85 H :   -0.022168
  86 H :   -0.016800
  87 H :    0.039835
  88 H :   -0.022756
  89 H :   -0.023600
  90 H :   -0.026548
  91 H :   -0.022771
  92 H :   -0.025440
  93 H :   -0.021791
  94 H :   -0.022527
  95 H :    0.006684
  96 H :    0.018571
Sum of atomic charges:   -0.0000000

LOEWDIN ATOMIC CHARGES
----------------------
   0 C :    0.082372
   1 C :   -0.142215
   2 C :   -0.019048
   3 N :   -0.049354
   4 C :   -0.018900
   5 N :   -0.054088
   6 C :   -0.015685
   7 C :   -0.057556
   8 C :    0.006832
   9 C :   -0.032030
  10 C :   -0.138725
  11 C :    0.007321
  12 S :    0.445930
  13 C :   -0.265704
  14 C :   -0.065330
  15 Br:    0.145522
  16 C :    0.093415
  17 O :   -0.183314
  18 C :   -0.139057
  19 C :    0.112746
  20 N :    0.076068
  21 C :   -0.105398
  22 S :    0.485997
  23 C :   -0.201753
  24 N :    0.272698
  25 O :   -0.209497
  26 O :   -0.219546
  27 C :    0.003827
  28 C :   -0.090400
  29 C :    0.014525
  30 C :   -0.027115
  31 C :    0.001007
  32 C :   -0.000518
  33 C :   -0.002787
  34 N :    0.000066
  35 C :   -0.021584
  36 C :   -0.033092
  37 N :    0.013428
  38 C :   -0.035116
  39 N :   -0.008356
  40 C :   -0.032337
  41 N :    0.002653
  42 C :   -0.012154
  43 C :   -0.040064
  44 C :   -0.037452
  45 N :   -0.278587
  46 S :    0.701967
  47 N :   -0.281330
  48 C :   -0.037626
  49 C :    0.101041
  50 O :   -0.130720
  51 O :   -0.030659
  52 C :    0.049332
  53 C :   -0.037663
  54 C :   -0.030810
  55 C :    0.045672
  56 C :   -0.036913
  57 C :   -0.024390
  58 C :   -0.044880
  59 C :    0.103615
  60 O :   -0.129247
  61 O :   -0.044562
  62 C :   -0.066584
  63 C :    0.038288
  64 C :   -0.073941
  65 C :    0.087296
  66 C :   -0.070127
  67 C :    0.038783
  68 C :   -0.072247
  69 C :    0.051556
  70 C :   -0.081219
  71 C :    0.087520
  72 C :   -0.075328
  73 C :    0.015266
  74 C :   -0.024382
  75 C :   -0.051741
  76 H :    0.035102
  77 H :    0.043516
  78 H :    0.036536
  79 H :    0.038465
  80 H :    0.087079
  81 H :    0.049045
  82 H :    0.034914
  83 H :    0.030005
  84 H :    0.062399
  85 H :    0.039246
  86 H :    0.042419
  87 H :    0.058179
  88 H :    0.026436
  89 H :    0.035658
  90 H :    0.024157
  91 H :    0.025478
  92 H :    0.035018
  93 H :    0.024096
  94 H :    0.026960
  95 H :    0.017991
  96 H :    0.023691

  Mayer bond orders larger than 0.100000
B(  0-C ,  1-C ) :   1.6393 B(  0-C ,  6-C ) :   1.0068 B(  0-C , 18-C ) :   1.0875
B(  1-C ,  2-C ) :   1.1431 B(  1-C ,  4-C ) :   1.1448 B(  2-C ,  3-N ) :   2.9747
B(  4-C ,  5-N ) :   2.9592 B(  6-C ,  7-C ) :   1.2769 B(  6-C , 11-C ) :   1.4207
B(  7-C ,  8-C ) :   1.3964 B(  7-C , 16-C ) :   0.9876 B(  8-C ,  9-C ) :   1.2380
B(  8-C , 76-H ) :   1.0186 B(  9-C , 10-C ) :   1.3075 B(  9-C , 14-C ) :   1.1693
B( 10-C , 11-C ) :   1.3224 B( 10-C , 12-S ) :   1.0944 B( 11-C , 77-H ) :   0.9774
B( 12-S , 13-C ) :   1.0911 B( 13-C , 14-C ) :   1.6101 B( 13-C , 15-Br) :   1.0251
B( 14-C , 78-H ) :   0.9989 B( 16-C , 17-O ) :   2.0012 B( 16-C , 18-C ) :   1.0024
B( 17-O , 80-H ) :   0.1448 B( 18-C , 19-C ) :   1.4685 B( 19-C , 20-N ) :   1.3186
B( 19-C , 79-H ) :   0.9319 B( 20-N , 21-C ) :   1.1719 B( 20-N , 80-H ) :   0.8254
B( 21-C , 22-S ) :   1.1555 B( 21-C , 28-C ) :   1.3846 B( 22-S , 23-C ) :   1.0885
B( 23-C , 24-N ) :   0.9595 B( 23-C , 27-C ) :   1.4966 B( 24-N , 25-O ) :   1.5413
B( 24-N , 26-O ) :   1.5190 B( 25-O , 26-O ) :   0.2641 B( 27-C , 28-C ) :   1.2192
B( 27-C , 81-H ) :   1.0078 B( 28-C , 29-C ) :   1.0579 B( 29-C , 30-C ) :   1.6532
B( 29-C , 82-H ) :   0.9566 B( 30-C , 31-C ) :   1.2159 B( 30-C , 83-H ) :   0.9396
B( 31-C , 32-C ) :   1.2662 B( 31-C , 42-C ) :   0.1399 B( 31-C , 44-C ) :   1.1875
B( 32-C , 33-C ) :   1.1303 B( 32-C , 37-N ) :   1.4046 B( 33-C , 34-N ) :   1.3901
B( 33-C , 42-C ) :   1.3474 B( 34-N , 35-C ) :   1.7715 B( 35-C , 36-C ) :   1.1810
B( 35-C , 40-C ) :   1.1444 B( 36-C , 37-N ) :   1.7445 B( 36-C , 38-C ) :   1.1526
B( 38-C , 39-N ) :   3.0115 B( 40-C , 41-N ) :   2.9995 B( 42-C , 43-C ) :   1.2531
B( 42-C , 48-C ) :   1.0846 B( 43-C , 44-C ) :   1.1341 B( 43-C , 47-N ) :   1.4573
B( 44-C , 45-N ) :   1.4930 B( 45-N , 46-S ) :   1.2985 B( 45-N , 47-N ) :   0.1578
B( 46-S , 47-N ) :   1.2994 B( 48-C , 49-C ) :   0.8965 B( 48-C , 53-C ) :   0.9312
B( 48-C , 84-H ) :   0.8212 B( 49-C , 50-O ) :   2.2768 B( 49-C , 51-O ) :   1.1024
B( 51-O , 52-C ) :   1.0423 B( 52-C , 53-C ) :   1.3603 B( 52-C , 57-C ) :   1.3607
B( 53-C , 54-C ) :   1.3508 B( 53-C , 56-C ) :   0.1014 B( 54-C , 55-C ) :   1.3601
B( 54-C , 57-C ) :   0.1278 B( 54-C , 85-H ) :   1.0299 B( 55-C , 56-C ) :   1.3784
B( 55-C , 61-O ) :   1.0545 B( 56-C , 57-C ) :   1.3445 B( 56-C , 58-C ) :   0.9396
B( 57-C , 86-H ) :   1.0339 B( 58-C , 59-C ) :   0.9128 B( 58-C , 62-C ) :   0.9791
B( 58-C , 87-H ) :   0.8536 B( 59-C , 60-O ) :   2.2818 B( 59-C , 61-O ) :   1.0775
B( 62-C , 63-C ) :   1.2546 B( 62-C , 73-C ) :   1.5075 B( 63-C , 64-C ) :   1.3246
B( 63-C , 88-H ) :   1.0174 B( 64-C , 65-C ) :   1.1786 B( 64-C , 72-C ) :   1.1756
B( 65-C , 66-C ) :   1.3848 B( 65-C , 89-H ) :   1.0042 B( 66-C , 67-C ) :   1.1443
B( 66-C , 70-C ) :   1.1600 B( 67-C , 68-C ) :   1.4358 B( 67-C , 90-H ) :   1.0098
B( 68-C , 69-C ) :   1.2239 B( 68-C , 74-C ) :   1.0735 B( 69-C , 70-C ) :   1.3166
B( 69-C , 91-H ) :   1.0123 B( 70-C , 71-C ) :   1.1975 B( 71-C , 72-C ) :   1.3717
B( 71-C , 92-H ) :   1.0035 B( 72-C , 73-C ) :   1.1227 B( 73-C , 93-H ) :   1.0101
B( 74-C , 75-C ) :   1.9493 B( 74-C , 94-H ) :   0.9651 B( 75-C , 95-H ) :   0.9528
B( 75-C , 96-H ) :   0.9490

-----------------------------------------------------------------------------
         ABSORPTION SPECTRUM VIA TRANSITION ELECTRIC DIPOLE MOMENTS
-----------------------------------------------------------------------------
State   Energy  Wavelength   fosc         T2         TX        TY        TZ
        (cm-1)    (nm)                  (au**2)     (au)      (au)      (au)
-----------------------------------------------------------------------------
   0    7848.9   1274.1   0.000212447   0.00891   0.07898  -0.00254  -0.05164
   1   13516.9    739.8   0.177653105   4.32685   0.25333   0.63305  -1.96518
   2   15015.4    666.0   0.000049386   0.00108   0.00444  -0.00327  -0.03244
   3   18475.1    541.3   0.000604161   0.01077  -0.01949  -0.09333   0.04094
   4   19273.8    518.8   0.000019339   0.00033  -0.01002  -0.01336   0.00716
   5   20246.5    493.9   0.045263484   0.73599   0.31660  -0.12004   0.78826
   6   20701.6    483.1   0.105724661   1.68131   1.02098   0.63152  -0.48999
   7   22304.6    448.3   0.406119499   5.99426  -0.55946  -1.15558   2.08469
   8   23161.5    431.8   0.559482044   7.95235  -2.66010  -0.87704  -0.32711
   9   24618.3    406.2   0.059290859   0.79287   0.41714  -0.21352   0.75715
  10   24994.0    400.1   0.068522344   0.90255  -0.82472  -0.44749  -0.14880
  11   26547.2    376.7   0.002396711   0.02972   0.10303  -0.13565  -0.02654
  12   27667.7    361.4   0.000092830   0.00110  -0.03282  -0.00077   0.00517
  13   27839.9    359.2   0.039852545   0.47126   0.38718   0.31269  -0.47284
  14   28018.9    356.9   0.001574847   0.01850  -0.09836  -0.04365   0.08321
  15   28259.7    353.9   0.041281772   0.48091   0.07161  -0.52709   0.44493
  16   28537.1    350.4   0.176260822   2.03339  -0.66108  -0.84298   0.94115
  17   28678.9    348.7   0.088055250   1.01081  -0.55103  -0.62682   0.56060
  18   29006.3    344.8   0.070081358   0.79540  -0.75484   0.44915  -0.15453
  19   29093.9    343.7   0.045860137   0.51893  -0.54599  -0.37792   0.27930
  20   29355.4    340.7   0.024068830   0.26992   0.22602   0.20615  -0.41993
  21   29377.4    340.4   0.048703429   0.54579   0.29629   0.31199  -0.60055
  22   30216.0    331.0   0.057210884   0.62333   0.09935   0.40452  -0.67069
  23   30670.1    326.1   0.000034452   0.00037   0.00049  -0.01692   0.00913
  24   30783.1    324.9   0.320747425   3.43025   1.39368   0.89739  -0.82620
  25   31031.2    322.3   0.057028984   0.60502  -0.60923  -0.33635   0.34746
  26   31377.2    318.7   0.218772351   2.29538  -1.43493  -0.26887   0.40506
  27   31608.8    316.4   0.313940023   3.26974   1.80328  -0.07190   0.11297
  28   31872.3    313.8   0.000028132   0.00029  -0.01670   0.00223  -0.00261
  29   32049.7    312.0   0.000072885   0.00075   0.00556  -0.01584   0.02161
  30   32096.5    311.6   0.086572515   0.88797  -0.29274   0.53483  -0.71849
  31   32308.5    309.5   0.029810510   0.30376  -0.44354   0.18665  -0.26868
  32   32589.1    306.9   0.036301696   0.36672  -0.03169   0.23233  -0.55833
  33   32779.7    305.1   0.112573645   1.13060  -0.87740   0.43054  -0.41881
  34   32934.5    303.6   0.006071447   0.06069  -0.11196  -0.07311   0.20690
  35   33029.7    302.8   0.011529785   0.11492  -0.11961  -0.09637   0.30220
  36   33681.1    296.9   0.001810143   0.01769  -0.00394  -0.09103   0.09691
  37   33710.2    296.6   0.356303238   3.47964  -0.13238  -1.25767   1.37127
  38   33907.2    294.9   0.156592397   1.52039  -0.05628   0.73355  -0.98951
  39   34667.9    288.5   0.010456009   0.09929   0.15420   0.09769  -0.25685
  40   35064.3    285.2   0.009142024   0.08583  -0.20770  -0.16857   0.11949
  41   35083.1    285.0   0.205073188   1.92436   1.36109   0.23353   0.13139
  42   35296.8    283.3   0.024595283   0.22940   0.22985   0.21803  -0.35920
  43   35337.2    283.0   0.000344136   0.00321   0.00513   0.02550  -0.05030
  44   35453.2    282.1   0.731818844   6.79554   0.21709   1.22144  -2.29270
  45   35629.2    280.7   0.198312639   1.83240   0.36917   0.59079  -1.16064
  46   36134.0    276.7   0.009200636   0.08383  -0.18110   0.12558  -0.18778
  47   36154.6    276.6   0.048007084   0.43714  -0.07159  -0.32289   0.57250
  48   36199.9    276.2   1.226768667  11.15658  -0.26546  -1.62859   2.90410
  49   36283.1    275.6   0.006999983   0.06351  -0.19052  -0.07487   0.14701
  50   36657.7    272.8   0.271931116   2.44213  -1.54093  -0.22144   0.13645
  51   36704.7    272.4   0.000128344   0.00115   0.00079   0.01840  -0.02850
  52   36858.2    271.3   0.737797174   6.58990  -2.55974  -0.11273   0.15787
  53   37002.3    270.3   0.016461100   0.14646  -0.13916  -0.17456   0.31084
  54   37096.4    269.6   0.354880335   3.14938  -1.77334  -0.06237   0.02762
  55   37182.6    268.9   0.000131947   0.00117   0.02053  -0.01283   0.02413
  56   37498.0    266.7   0.150636005   1.32250   0.64721  -0.53653   0.78470
  57   37705.2    265.2   0.004132457   0.03608  -0.09710  -0.12763  -0.10179
  58   37782.4    264.7   0.009733631   0.08481  -0.26996  -0.01365  -0.10839
  59   37886.1    263.9   0.020987660   0.18237   0.26871   0.14859  -0.29680
  60   38304.0    261.1   0.026218252   0.22534   0.09185  -0.14988   0.44095
  61   38387.1    260.5   0.052141676   0.44717   0.37426   0.23146  -0.50351
  62   38675.0    258.6   0.031515733   0.26827  -0.51567   0.04213   0.02399
  63   39141.9    255.5   0.003699844   0.03112   0.16690   0.01666  -0.05464
  64   39469.9    253.4   0.000078132   0.00065   0.01189  -0.00857   0.02090
  65   39518.2    253.0   0.004594481   0.03827   0.17534   0.08130   0.03034
  66   39704.3    251.9   0.005895392   0.04888   0.20975  -0.06836  -0.01457
  67   39837.8    251.0   0.010213682   0.08440   0.01994  -0.15550   0.24459
  68   39875.2    250.8   0.000118807   0.00098  -0.02614   0.00858  -0.01497
  69   39918.4    250.5   0.000026231   0.00022   0.00895  -0.00273   0.01135
  70   39961.6    250.2   0.026550090   0.21873  -0.09353  -0.23590   0.39285
  71   40325.4    248.0   0.001553123   0.01268  -0.10769  -0.03288  -0.00080

FINAL SINGLE POINT ENERGY     -6946.574439435512

DIPOLE MOMENT
-------------
                                X             Y             Z
Electronic contribution:     90.00962     -35.50790      92.70373
Nuclear contribution   :    -91.24569      37.83840     -96.25319
                        -----------------------------------------
Total Dipole Moment    :     -1.23607       2.33049      -3.54946
                        -----------------------------------------
Magnitude (a.u.)       :      4.42241
Magnitude (Debye)      :     11.24088

Rotational constants in cm-1:     0.000981     0.000342     0.000268
Rotational constants in MHz :    29.421514    10.240654     8.027849

                             ****ORCA TERMINATED NORMALLY****
TOTAL RUN TIME: 0 days 0 hours 19 minutes 33 seconds 188 msec
