                         Program Version 4.2.0 -  RELEASE  -
|  1> # ORCA input file
|  2> # SCF done       -171.982480581509          0.000536067427
|  3> ! CAM-B3LYP def2-SVP def2/J RIJCOSX Grid4 TightSCF
|  4> %maxcore 5000
|  5> %tddft
|  6>     Mode sTDDFT
|  7>     Ethresh 5.0
|  8>     maxcore 5000
|  9> end
| 10>
| 11> %pal
| 12>   nprocs 6
| 13>   end
| 14> * xyz 0 1
| 15>    C       -5.08519         1.53115         0.43235
| 16>    O       -4.94580         0.92891         1.47699
| 17>    C       -5.17418         3.00497         0.30909
| 18>    C       -5.37603         3.35847        -1.03407
| 19>    C       -5.47373         4.69865        -1.37984
| 20>    C       -5.37101         5.65583        -0.38127
| 21>    C       -5.17722         5.28039         0.94078
| 22>    C       -5.07482         3.94693         1.31148
| 23>   Br       -5.04388         6.62866         2.27394
| 24>    C       -5.44371         2.13431        -1.83053
| 25>    C       -5.75673         2.09204        -3.16560
| 26>    C       -5.99766         3.23619        -3.95476
| 27>    N       -6.20197         4.12219        -4.65625
| 28>    C       -5.92718         0.93184        -3.95091
| 29>    N       -6.11182         0.05495        -4.66976
| 30>    C       -5.18974         1.01242        -0.94496
| 31>    C       -4.98696        -0.27128        -1.39564
| 32>    C       -4.74408        -1.47426        -0.71919
| 33>    S       -4.38895        -2.87776        -1.75117
| 34>    C       -4.22737        -3.87112        -0.36892
| 35>    N       -3.93396        -5.15581        -0.25132
| 36>    C       -3.91259        -5.52358         1.00164
| 37>    S       -4.27920        -4.22673         2.17192
| 38>    C       -4.45232        -3.14966         0.82974
| 39>    C       -4.73977        -1.81225         0.63146
| 40>    C       -3.61576        -6.82542         1.46704
| 41>    C       -3.27658        -7.89044         0.60203
| 42>    C       -2.94883        -9.20486         1.10980
| 43>    N       -2.62641       -10.17238         0.26514
| 44>    C       -2.60602        -9.94114        -1.04052
| 45>    C       -2.93483        -8.64594        -1.53199
| 46>    N       -3.25446        -7.66968        -0.72011
| 47>    C       -2.90787        -8.42636        -2.93367
| 48>    N       -2.85582        -8.33301        -4.07436
| 49>    C       -2.25813       -10.96606        -1.93871
| 50>    N       -1.97916       -11.74751        -2.73322
| 51>    C       -2.95600        -9.51297         2.50873
| 52>    C       -3.32267        -8.42516         3.36136
| 53>    C       -3.63642        -7.12013         2.85189
| 54>    N       -3.93648        -6.26529         3.82249
| 55>    S       -3.83740        -7.02583         5.24557
| 56>    N       -3.40570        -8.47641         4.68380
| 57>    C       -2.64123       -10.73078         3.09551
| 58>    C       -2.22096       -11.95288         2.57410
| 59>    C       -1.93408       -13.05701         3.40010
| 60>    C       -1.50852       -14.17703         2.73115
| 61>    C       -1.44958       -13.98623         1.34786
| 62>    S       -1.94920       -12.36617         0.90703
| 63>    C       -1.05442       -14.88880         0.35621
| 64>    C       -0.61368       -16.21584         0.49357
| 65>    C       -0.29360       -16.80966        -0.69801
| 66>    C       -0.46935       -15.97940        -1.82482
| 67>    S       -1.06066       -14.41058        -1.31087
| 68>    C       -0.20924       -16.33451        -3.13483
| 69>    C       -0.36624       -15.56064        -4.29037
| 70>    C       -0.85378       -14.23394        -4.41882
| 71>    C       -0.82866       -13.88174        -5.77021
| 72>    C       -1.20477       -12.70039        -6.40477
| 73>    C       -1.06392       -12.64611        -7.78447
| 74>    C       -1.34575       -11.62923        -8.70771
| 75>    C       -1.01945       -12.08424       -10.00673
| 76>    C       -0.53059       -13.38952        -9.89930
| 77>    C       -0.54224       -13.77823        -8.53721
| 78>    C       -0.16969       -14.94895        -7.91406
| 79>    C       -0.31007       -15.01542        -6.51881
| 80>    C       -0.03795       -16.02336        -5.60376
| 81>    C       -1.15437       -11.35885       -11.24752
| 82>    C       -1.63164       -10.12267       -11.36728
| 83>    H       -5.62108         5.01400        -2.39930
| 84>    H       -5.44163         6.70271        -0.63389
| 85>    H       -4.92224         3.64790         2.33693
| 86>    H       -4.98693        -0.39278        -2.47263
| 87>    H       -4.93322        -1.09901         1.41083
| 88>    H       -2.72938       -10.71857         4.17669
| 89>    H       -2.04395       -13.00002         4.46893
| 90>    H       -1.24580       -15.10299         3.21144
| 91>    H       -0.53964       -16.69973         1.45063
| 92>    H        0.06317       -17.82050        -0.79186
| 93>    H        0.16764       -17.34065        -3.27972
| 94>    H       -1.19600       -13.58645        -3.63546
| 95>    H       -1.58936       -11.86636        -5.83620
| 96>    H       -1.74434       -10.66372        -8.45840
| 97>    H       -0.19903       -14.00260       -10.71795
| 98>    H        0.21701       -15.78953        -8.47310
| 99>    H        0.35771       -16.99751        -5.82923
|100>    H       -0.83236       -11.89798       -12.12970
|101>    H       -1.96465        -9.55038       -10.51881
|102>    H       -1.70600        -9.63995       -12.32601
|103> *
|104>
|105>                          ****END OF INPUT****

CARTESIAN COORDINATES (ANGSTROEM)
---------------------------------
  C     -5.085190    1.531150    0.432350
  O     -4.945800    0.928910    1.476990
  C     -5.174180    3.004970    0.309090
  C     -5.376030    3.358470   -1.034070
  C     -5.473730    4.698650   -1.379840
  C     -5.371010    5.655830   -0.381270
  C     -5.177220    5.280390    0.940780
  C     -5.074820    3.946930    1.311480
  Br    -5.043880    6.628660    2.273940
  C     -5.443710    2.134310   -1.830530
  C     -5.756730    2.092040   -3.165600
  C     -5.997660    3.236190   -3.954760
  N     -6.201970    4.122190   -4.656250
  C     -5.927180    0.931840   -3.950910
  N     -6.111820    0.054950   -4.669760
  C     -5.189740    1.012420   -0.944960
  C     -4.986960   -0.271280   -1.395640
  C     -4.744080   -1.474260   -0.719190
  S     -4.388950   -2.877760   -1.751170
  C     -4.227370   -3.871120   -0.368920
  N     -3.933960   -5.155810   -0.251320
  C     -3.912590   -5.523580    1.001640
  S     -4.279200   -4.226730    2.171920
  C     -4.452320   -3.149660    0.829740
  C     -4.739770   -1.812250    0.631460
  C     -3.615760   -6.825420    1.467040
  C     -3.276580   -7.890440    0.602030
  C     -2.948830   -9.204860    1.109800
  N     -2.626410  -10.172380    0.265140
  C     -2.606020   -9.941140   -1.040520
  C     -2.934830   -8.645940   -1.531990
  N     -3.254460   -7.669680   -0.720110
  C     -2.907870   -8.426360   -2.933670
  N     -2.855820   -8.333010   -4.074360
  C     -2.258130  -10.966060   -1.938710
  N     -1.979160  -11.747510   -2.733220
  C     -2.956000   -9.512970    2.508730
  C     -3.322670   -8.425160    3.361360
  C     -3.636420   -7.120130    2.851890
  N     -3.936480   -6.265290    3.822490
  S     -3.837400   -7.025830    5.245570
  N     -3.405700   -8.476410    4.683800
  C     -2.641230  -10.730780    3.095510
  C     -2.220960  -11.952880    2.574100
  C     -1.934080  -13.057010    3.400100
  C     -1.508520  -14.177030    2.731150
  C     -1.449580  -13.986230    1.347860
  S     -1.949200  -12.366170    0.907030
  C     -1.054420  -14.888800    0.356210
  C     -0.613680  -16.215840    0.493570
  C     -0.293600  -16.809660   -0.698010
  C     -0.469350  -15.979400   -1.824820
  S     -1.060660  -14.410580   -1.310870
  C     -0.209240  -16.334510   -3.134830
  C     -0.366240  -15.560640   -4.290370
  C     -0.853780  -14.233940   -4.418820
  C     -0.828660  -13.881740   -5.770210
  C     -1.204770  -12.700390   -6.404770
  C     -1.063920  -12.646110   -7.784470
  C     -1.345750  -11.629230   -8.707710
  C     -1.019450  -12.084240  -10.006730
  C     -0.530590  -13.389520   -9.899300
  C     -0.542240  -13.778230   -8.537210
  C     -0.169690  -14.948950   -7.914060
  C     -0.310070  -15.015420   -6.518810
  C     -0.037950  -16.023360   -5.603760
  C     -1.154370  -11.358850  -11.247520
  C     -1.631640  -10.122670  -11.367280
  H     -5.621080    5.014000   -2.399300
  H     -5.441630    6.702710   -0.633890
  H     -4.922240    3.647900    2.336930
  H     -4.986930   -0.392780   -2.472630
  H     -4.933220   -1.099010    1.410830
  H     -2.729380  -10.718570    4.176690
  H     -2.043950  -13.000020    4.468930
  H     -1.245800  -15.102990    3.211440
  H     -0.539640  -16.699730    1.450630
  H      0.063170  -17.820500   -0.791860
  H      0.167640  -17.340650   -3.279720
  H     -1.196000  -13.586450   -3.635460
  H     -1.589360  -11.866360   -5.836200
  H     -1.744340  -10.663720   -8.458400
  H     -0.199030  -14.002600  -10.717950
  H      0.217010  -15.789530   -8.473100
  H      0.357710  -16.997510   -5.829230
  H     -0.832360  -11.897980  -12.129700
  H     -1.964650   -9.550380  -10.518810
  H     -1.706000   -9.639950  -12.326010

 Total Charge           Charge          ....    0
 Multiplicity           Mult            ....    1
 Number of Electrons    NEL             ....  518
 Basis Dimension        Dim             .... 1090

ORBITAL ENERGIES
----------------

  NO   OCC          E(Eh)            E(eV)
   0   2.0000    -482.857639    -13139.2243
   1   2.0000     -89.011369     -2422.1225
   2   2.0000     -88.976444     -2421.1721
   3   2.0000     -88.970337     -2421.0060
   4   2.0000     -88.941728     -2420.2275
   5   2.0000     -88.937824     -2420.1212
   6   2.0000     -62.535326     -1701.6727
   7   2.0000     -56.369140     -1533.8823
   8   2.0000     -56.366652     -1533.8146
   9   2.0000     -56.366648     -1533.8145
  10   2.0000     -19.200209      -522.4642
  11   2.0000     -14.450692      -393.2233
  12   2.0000     -14.435901      -392.8208
  13   2.0000     -14.425854      -392.5475
  14   2.0000     -14.424933      -392.5224
  15   2.0000     -14.423005      -392.4699
  16   2.0000     -14.417415      -392.3178
  17   2.0000     -14.396132      -391.7387
  18   2.0000     -14.394765      -391.7015
  19   2.0000     -14.386910      -391.4877
  20   2.0000     -10.363159      -281.9959
  21   2.0000     -10.351444      -281.6771
  22   2.0000     -10.351114      -281.6681
  23   2.0000     -10.346788      -281.5504
  24   2.0000     -10.336674      -281.2752
  25   2.0000     -10.333086      -281.1776
  26   2.0000     -10.330851      -281.1167
  27   2.0000     -10.329755      -281.0869
  28   2.0000     -10.328888      -281.0633
  29   2.0000     -10.328121      -281.0425
  30   2.0000     -10.327680      -281.0305
  31   2.0000     -10.327535      -281.0265
  32   2.0000     -10.326547      -280.9996
  33   2.0000     -10.326045      -280.9860
  34   2.0000     -10.321547      -280.8636
  35   2.0000     -10.321425      -280.8603
  36   2.0000     -10.320259      -280.8285
  37   2.0000     -10.320084      -280.8238
  38   2.0000     -10.318404      -280.7780
  39   2.0000     -10.315450      -280.6977
  40   2.0000     -10.312081      -280.6060
  41   2.0000     -10.311356      -280.5863
  42   2.0000     -10.311305      -280.5849
  43   2.0000     -10.309455      -280.5345
  44   2.0000     -10.307965      -280.4940
  45   2.0000     -10.306323      -280.4493
  46   2.0000     -10.304384      -280.3965
  47   2.0000     -10.303217      -280.3648
  48   2.0000     -10.301285      -280.3122
  49   2.0000     -10.300871      -280.3009
  50   2.0000     -10.299593      -280.2662
  51   2.0000     -10.298985      -280.2496
  52   2.0000     -10.297447      -280.2078
  53   2.0000     -10.293549      -280.1017
  54   2.0000     -10.292660      -280.0775
  55   2.0000     -10.292410      -280.0707
  56   2.0000     -10.291478      -280.0453
  57   2.0000     -10.290595      -280.0213
  58   2.0000     -10.290554      -280.0202
  59   2.0000     -10.290520      -280.0193
  60   2.0000     -10.289819      -280.0002
  61   2.0000     -10.287354      -279.9331
  62   2.0000     -10.286165      -279.9008
  63   2.0000     -10.285815      -279.8913
  64   2.0000     -10.284628      -279.8590
  65   2.0000     -10.284005      -279.8420
  66   2.0000     -10.279288      -279.7137
  67   2.0000     -10.276259      -279.6312
  68   2.0000     -10.274136      -279.5735
  69   2.0000     -10.273737      -279.5626
  70   2.0000     -10.273293      -279.5505
  71   2.0000     -10.273140      -279.5464
  72   2.0000      -8.764591      -238.4966
  73   2.0000      -8.103207      -220.4995
  74   2.0000      -8.071661      -219.6411
  75   2.0000      -8.062543      -219.3929
  76   2.0000      -8.037699      -218.7169
  77   2.0000      -8.032156      -218.5661
  78   2.0000      -6.600321      -179.6039
  79   2.0000      -6.586736      -179.2342
  80   2.0000      -6.586359      -179.2239
  81   2.0000      -6.074693      -165.3008
  82   2.0000      -6.067049      -165.0928
  83   2.0000      -6.064916      -165.0348
  84   2.0000      -6.041145      -164.3879
  85   2.0000      -6.036850      -164.2710
  86   2.0000      -6.033354      -164.1759
  87   2.0000      -6.032299      -164.1472
  88   2.0000      -6.027588      -164.0190
  89   2.0000      -6.024581      -163.9372
  90   2.0000      -6.006880      -163.4555
  91   2.0000      -6.003163      -163.3544
  92   2.0000      -6.001747      -163.3158
  93   2.0000      -5.999428      -163.2527
  94   2.0000      -5.997547      -163.2016
  95   2.0000      -5.993655      -163.0956
  96   2.0000      -2.716327       -73.9150
  97   2.0000      -2.712532       -73.8117
  98   2.0000      -2.712240       -73.8038
  99   2.0000      -2.701452       -73.5102
 100   2.0000      -2.701444       -73.5100
 101   2.0000      -1.116536       -30.3825
 102   2.0000      -1.115087       -30.3431
 103   2.0000      -1.101450       -29.9720
 104   2.0000      -1.054390       -28.6914
 105   2.0000      -1.027192       -27.9513
 106   2.0000      -1.018923       -27.7263
 107   2.0000      -1.012275       -27.5454
 108   2.0000      -1.009187       -27.4614
 109   2.0000      -1.000210       -27.2171
 110   2.0000      -0.994453       -27.0604
 111   2.0000      -0.991885       -26.9906
 112   2.0000      -0.985796       -26.8249
 113   2.0000      -0.982719       -26.7411
 114   2.0000      -0.975384       -26.5415
 115   2.0000      -0.974402       -26.5148
 116   2.0000      -0.962724       -26.1971
 117   2.0000      -0.953666       -25.9506
 118   2.0000      -0.943369       -25.6704
 119   2.0000      -0.928705       -25.2714
 120   2.0000      -0.906342       -24.6628
 121   2.0000      -0.893207       -24.3054
 122   2.0000      -0.892447       -24.2847
 123   2.0000      -0.889867       -24.2145
 124   2.0000      -0.889737       -24.2110
 125   2.0000      -0.882175       -24.0052
 126   2.0000      -0.875623       -23.8269
 127   2.0000      -0.871691       -23.7199
 128   2.0000      -0.863794       -23.5050
 129   2.0000      -0.859409       -23.3857
 130   2.0000      -0.850784       -23.1510
 131   2.0000      -0.840971       -22.8840
 132   2.0000      -0.836154       -22.7529
 133   2.0000      -0.825553       -22.4644
 134   2.0000      -0.821742       -22.3607
 135   2.0000      -0.810852       -22.0644
 136   2.0000      -0.802832       -21.8462
 137   2.0000      -0.797581       -21.7033
 138   2.0000      -0.790192       -21.5022
 139   2.0000      -0.777289       -21.1511
 140   2.0000      -0.773273       -21.0418
 141   2.0000      -0.763255       -20.7692
 142   2.0000      -0.749148       -20.3854
 143   2.0000      -0.741803       -20.1855
 144   2.0000      -0.727835       -19.8054
 145   2.0000      -0.715148       -19.4602
 146   2.0000      -0.705934       -19.2094
 147   2.0000      -0.697277       -18.9739
 148   2.0000      -0.690592       -18.7920
 149   2.0000      -0.683605       -18.6018
 150   2.0000      -0.681433       -18.5427
 151   2.0000      -0.677698       -18.4411
 152   2.0000      -0.676104       -18.3977
 153   2.0000      -0.669917       -18.2294
 154   2.0000      -0.664875       -18.0922
 155   2.0000      -0.659145       -17.9363
 156   2.0000      -0.653565       -17.7844
 157   2.0000      -0.649851       -17.6834
 158   2.0000      -0.639870       -17.4118
 159   2.0000      -0.635474       -17.2921
 160   2.0000      -0.633063       -17.2265
 161   2.0000      -0.628491       -17.1021
 162   2.0000      -0.624018       -16.9804
 163   2.0000      -0.620968       -16.8974
 164   2.0000      -0.610203       -16.6045
 165   2.0000      -0.605378       -16.4732
 166   2.0000      -0.601780       -16.3753
 167   2.0000      -0.595954       -16.2167
 168   2.0000      -0.593382       -16.1468
 169   2.0000      -0.585387       -15.9292
 170   2.0000      -0.577673       -15.7193
 171   2.0000      -0.576053       -15.6752
 172   2.0000      -0.564679       -15.3657
 173   2.0000      -0.561614       -15.2823
 174   2.0000      -0.558969       -15.2103
 175   2.0000      -0.557331       -15.1657
 176   2.0000      -0.556972       -15.1560
 177   2.0000      -0.540453       -14.7065
 178   2.0000      -0.536561       -14.6006
 179   2.0000      -0.536260       -14.5924
 180   2.0000      -0.533787       -14.5251
 181   2.0000      -0.531906       -14.4739
 182   2.0000      -0.528078       -14.3697
 183   2.0000      -0.522829       -14.2269
 184   2.0000      -0.522684       -14.2229
 185   2.0000      -0.521470       -14.1899
 186   2.0000      -0.520754       -14.1704
 187   2.0000      -0.517006       -14.0685
 188   2.0000      -0.515527       -14.0282
 189   2.0000      -0.511944       -13.9307
 190   2.0000      -0.507506       -13.8099
 191   2.0000      -0.506815       -13.7911
 192   2.0000      -0.503496       -13.7008
 193   2.0000      -0.502248       -13.6668
 194   2.0000      -0.497414       -13.5353
 195   2.0000      -0.494797       -13.4641
 196   2.0000      -0.490966       -13.3599
 197   2.0000      -0.488178       -13.2840
 198   2.0000      -0.487601       -13.2683
 199   2.0000      -0.482815       -13.1381
 200   2.0000      -0.478127       -13.0105
 201   2.0000      -0.477633       -12.9971
 202   2.0000      -0.477098       -12.9825
 203   2.0000      -0.471811       -12.8386
 204   2.0000      -0.468871       -12.7586
 205   2.0000      -0.466310       -12.6889
 206   2.0000      -0.464978       -12.6527
 207   2.0000      -0.464475       -12.6390
 208   2.0000      -0.464330       -12.6351
 209   2.0000      -0.460257       -12.5242
 210   2.0000      -0.458278       -12.4704
 211   2.0000      -0.455541       -12.3959
 212   2.0000      -0.450936       -12.2706
 213   2.0000      -0.448042       -12.1918
 214   2.0000      -0.445547       -12.1240
 215   2.0000      -0.443728       -12.0744
 216   2.0000      -0.439273       -11.9532
 217   2.0000      -0.438169       -11.9232
 218   2.0000      -0.435008       -11.8372
 219   2.0000      -0.429809       -11.6957
 220   2.0000      -0.427934       -11.6447
 221   2.0000      -0.427296       -11.6273
 222   2.0000      -0.424944       -11.5633
 223   2.0000      -0.423396       -11.5212
 224   2.0000      -0.422950       -11.5091
 225   2.0000      -0.416889       -11.3441
 226   2.0000      -0.415562       -11.3080
 227   2.0000      -0.410030       -11.1575
 228   2.0000      -0.408393       -11.1129
 229   2.0000      -0.407790       -11.0965
 230   2.0000      -0.403845       -10.9892
 231   2.0000      -0.401895       -10.9361
 232   2.0000      -0.395359       -10.7583
 233   2.0000      -0.391815       -10.6618
 234   2.0000      -0.391378       -10.6499
 235   2.0000      -0.391132       -10.6433
 236   2.0000      -0.387785       -10.5522
 237   2.0000      -0.376133       -10.2351
 238   2.0000      -0.369548       -10.0559
 239   2.0000      -0.362980        -9.8772
 240   2.0000      -0.359725        -9.7886
 241   2.0000      -0.354697        -9.6518
 242   2.0000      -0.352478        -9.5914
 243   2.0000      -0.347656        -9.4602
 244   2.0000      -0.341666        -9.2972
 245   2.0000      -0.338793        -9.2190
 246   2.0000      -0.336809        -9.1650
 247   2.0000      -0.334384        -9.0990
 248   2.0000      -0.333129        -9.0649
 249   2.0000      -0.326298        -8.8790
 250   2.0000      -0.321039        -8.7359
 251   2.0000      -0.303806        -8.2670
 252   2.0000      -0.298777        -8.1301
 253   2.0000      -0.292458        -7.9582
 254   2.0000      -0.290584        -7.9072
 255   2.0000      -0.284882        -7.7520
 256   2.0000      -0.271075        -7.3763
 257   2.0000      -0.251233        -6.8364
 258   2.0000      -0.213246        -5.8027
 259   0.0000      -0.125642        -3.4189
 260   0.0000      -0.119179        -3.2430
 261   0.0000      -0.073045        -1.9877
 262   0.0000      -0.068108        -1.8533
 263   0.0000      -0.047444        -1.2910

MULLIKEN ATOMIC CHARGES
-----------------------
   0 C :    0.151822
   1 O :   -0.160949
   2 C :   -0.018755
   3 C :    0.029430
   4 C :   -0.023427
   5 C :    0.042910
   6 C :   -0.002309
   7 C :   -0.016605
   8 Br:   -0.033297
   9 C :    0.307251
  10 C :   -0.360160
  11 C :   -0.189234
  12 N :    0.138302
  13 C :   -0.196886
  14 N :    0.149879
  15 C :   -0.103983
  16 C :    0.044239
  17 C :   -0.129641
  18 S :    0.139744
  19 C :   -0.050767
  20 N :    0.002992
  21 C :   -0.256766
  22 S :    0.136196
  23 C :    0.019971
  24 C :   -0.016343
  25 C :    0.149557
  26 C :   -0.072388
  27 C :   -0.007094
  28 N :   -0.042995
  29 C :   -0.098447
  30 C :   -0.142270
  31 N :    0.096445
  32 C :   -0.202076
  33 N :    0.208570
  34 C :   -0.215017
  35 N :    0.191668
  36 C :    0.113472
  37 C :   -0.010788
  38 C :    0.023071
  39 N :   -0.328994
  40 S :    0.492543
  41 N :   -0.276368
  42 C :   -0.132067
  43 C :    0.030711
  44 C :    0.009246
  45 C :    0.039800
  46 C :   -0.040724
  47 S :    0.137420
  48 C :    0.001807
  49 C :    0.005122
  50 C :    0.063612
  51 C :   -0.053149
  52 S :    0.115027
  53 C :    0.040298
  54 C :    0.032076
  55 C :    0.032088
  56 C :    0.007136
  57 C :    0.042966
  58 C :    0.035470
  59 C :    0.011131
  60 C :    0.054909
  61 C :   -0.004722
  62 C :    0.054362
  63 C :    0.015086
  64 C :    0.054487
  65 C :   -0.014847
  66 C :    0.008089
  67 C :   -0.013108
  68 H :    0.004835
  69 H :    0.000744
  70 H :   -0.002053
  71 H :    0.008454
  72 H :    0.016719
  73 H :    0.002670
  74 H :   -0.005412
  75 H :   -0.014737
  76 H :   -0.007170
  77 H :   -0.001527
  78 H :   -0.004928
  79 H :   -0.016078
  80 H :    0.011810
  81 H :    0.002576
  82 H :   -0.014468
  83 H :   -0.015975
  84 H :   -0.016621
  85 H :   -0.014782
  86 H :    0.020660
  87 H :    0.030552
Sum of atomic charges:   -0.0000000

LOEWDIN ATOMIC CHARGES
----------------------
   0 C :    0.085751
   1 O :   -0.147358
   2 C :   -0.034998
   3 C :   -0.015839
   4 C :    0.005579
   5 C :   -0.019369
   6 C :   -0.100787
   7 C :   -0.004775
   8 Br:    0.104943
   9 C :    0.077310
  10 C :   -0.151544
  11 C :   -0.017920
  12 N :   -0.065672
  13 C :   -0.026090
  14 N :   -0.056877
  15 C :   -0.120958
  16 C :    0.049060
  17 C :   -0.183132
  18 S :    0.435699
  19 C :   -0.163540
  20 N :   -0.105124
  21 C :   -0.083390
  22 S :    0.421626
  23 C :   -0.238154
  24 C :   -0.011216
  25 C :   -0.134892
  26 C :    0.024291
  27 C :   -0.004146
  28 N :   -0.038836
  29 C :   -0.082596
  30 C :   -0.016546
  31 N :   -0.007850
  32 C :   -0.022745
  33 N :   -0.028454
  34 C :   -0.019074
  35 N :   -0.068289
  36 C :   -0.025487
  37 C :   -0.052102
  38 C :   -0.037563
  39 N :   -0.315675
  40 S :    0.614529
  41 N :   -0.276483
  42 C :   -0.032375
  43 C :   -0.127980
  44 C :   -0.048237
  45 C :   -0.018687
  46 C :   -0.225175
  47 S :    0.492116
  48 C :   -0.124722
  49 C :   -0.061246
  50 C :    0.007359
  51 C :   -0.187716
  52 S :    0.464536
  53 C :    0.035645
  54 C :   -0.091762
  55 C :    0.063469
  56 C :   -0.064723
  57 C :    0.118247
  58 C :   -0.064476
  59 C :    0.076793
  60 C :   -0.053220
  61 C :    0.046217
  62 C :   -0.061050
  63 C :    0.088115
  64 C :   -0.070274
  65 C :    0.051086
  66 C :   -0.027761
  67 C :   -0.032014
  68 H :    0.041596
  69 H :    0.037995
  70 H :    0.041628
  71 H :    0.042483
  72 H :    0.035834
  73 H :    0.044509
  74 H :    0.034817
  75 H :    0.030749
  76 H :    0.034428
  77 H :    0.037933
  78 H :    0.043138
  79 H :    0.013755
  80 H :    0.051465
  81 H :    0.036156
  82 H :    0.029870
  83 H :    0.038865
  84 H :    0.028167
  85 H :    0.030531
  86 H :    0.023219
  87 H :    0.029385

  Mayer bond orders larger than 0.100000
B(  0-C ,  1-O ) :   2.1613 B(  0-C ,  2-C ) :   0.9484 B(  0-C , 15-C ) :   0.9639
B(  2-C ,  3-C ) :   1.3394 B(  2-C ,  7-C ) :   1.3817 B(  3-C ,  4-C ) :   1.3694
B(  3-C ,  9-C ) :   0.9811 B(  4-C ,  5-C ) :   1.3773 B(  4-C , 68-H ) :   0.9833
B(  5-C ,  6-C ) :   1.3953 B(  5-C , 69-H ) :   0.9850 B(  6-C ,  7-C ) :   1.3338
B(  6-C ,  8-Br) :   0.9837 B(  7-C , 70-H ) :   1.0072 B(  9-C , 10-C ) :   1.6016
B(  9-C , 15-C ) :   1.1106 B( 10-C , 11-C ) :   1.1485 B( 10-C , 13-C ) :   1.1389
B( 11-C , 12-N ) :   2.9703 B( 13-C , 14-N ) :   2.9801 B( 15-C , 16-C ) :   1.5072
B( 16-C , 17-C ) :   1.3100 B( 16-C , 71-H ) :   0.9131 B( 17-C , 18-S ) :   1.0506
B( 17-C , 24-C ) :   1.3759 B( 18-S , 19-C ) :   1.1335 B( 19-C , 20-N ) :   1.4292
B( 19-C , 23-C ) :   1.2472 B( 20-N , 21-C ) :   1.6876 B( 21-C , 22-S ) :   1.1022
B( 21-C , 25-C ) :   1.1397 B( 22-S , 23-C ) :   1.0139 B( 23-C , 24-C ) :   1.3302
B( 24-C , 72-H ) :   0.9812 B( 25-C , 26-C ) :   1.2454 B( 25-C , 38-C ) :   1.1570
B( 26-C , 27-C ) :   1.1020 B( 26-C , 31-N ) :   1.4970 B( 27-C , 28-N ) :   1.5188
B( 27-C , 36-C ) :   1.0794 B( 28-N , 29-C ) :   1.4989 B( 28-N , 47-S ) :   0.1112
B( 29-C , 30-C ) :   1.2860 B( 29-C , 34-C ) :   1.1347 B( 30-C , 31-N ) :   1.7163
B( 30-C , 32-C ) :   1.1494 B( 32-C , 33-N ) :   3.0459 B( 34-C , 35-N ) :   2.9499
B( 35-N , 79-H ) :   0.1272 B( 36-C , 37-C ) :   1.0947 B( 36-C , 42-C ) :   1.4926
B( 37-C , 38-C ) :   1.1380 B( 37-C , 41-N ) :   1.6040 B( 38-C , 39-N ) :   1.5363
B( 39-N , 40-S ) :   1.1982 B( 39-N , 41-N ) :   0.1248 B( 40-S , 41-N ) :   1.2397
B( 42-C , 43-C ) :   1.2514 B( 42-C , 73-H ) :   0.9529 B( 43-C , 44-C ) :   1.2873
B( 43-C , 47-S ) :   1.1261 B( 44-C , 45-C ) :   1.4269 B( 44-C , 74-H ) :   1.0034
B( 45-C , 46-C ) :   1.3213 B( 45-C , 75-H ) :   0.9938 B( 46-C , 47-S ) :   1.0260
B( 46-C , 48-C ) :   1.3039 B( 48-C , 49-C ) :   1.2821 B( 48-C , 52-S ) :   1.1482
B( 49-C , 50-C ) :   1.4754 B( 49-C , 76-H ) :   0.9966 B( 50-C , 51-C ) :   1.2247
B( 50-C , 77-H ) :   0.9991 B( 51-C , 52-S ) :   1.0378 B( 51-C , 53-C ) :   1.4348
B( 53-C , 54-C ) :   1.2423 B( 53-C , 78-H ) :   0.9719 B( 54-C , 55-C ) :   1.2338
B( 54-C , 65-C ) :   1.1701 B( 55-C , 56-C ) :   1.3250 B( 55-C , 79-H ) :   0.9702
B( 56-C , 57-C ) :   1.2659 B( 56-C , 64-C ) :   1.1274 B( 57-C , 58-C ) :   1.2599
B( 57-C , 80-H ) :   1.0070 B( 58-C , 59-C ) :   1.2914 B( 58-C , 62-C ) :   1.1135
B( 59-C , 60-C ) :   1.2567 B( 59-C , 81-H ) :   1.0105 B( 60-C , 61-C ) :   1.3858
B( 60-C , 66-C ) :   1.0764 B( 61-C , 62-C ) :   1.1634 B( 61-C , 82-H ) :   1.0159
B( 62-C , 63-C ) :   1.3946 B( 63-C , 64-C ) :   1.1669 B( 63-C , 83-H ) :   1.0051
B( 64-C , 65-C ) :   1.3767 B( 65-C , 84-H ) :   1.0150 B( 66-C , 67-C ) :   1.9402
B( 66-C , 85-H ) :   0.9674 B( 67-C , 86-H ) :   0.9545 B( 67-C , 87-H ) :   0.9499

-----------------------------------------------------------------------------
         ABSORPTION SPECTRUM VIA TRANSITION ELECTRIC DIPOLE MOMENTS
-----------------------------------------------------------------------------
State   Energy  Wavelength   fosc         T2         TX        TY        TZ
        (cm-1)    (nm)                  (au**2)     (au)      (au)      (au)
-----------------------------------------------------------------------------
   0    5842.4   1711.6   0.171046385   9.63819   0.86760  -2.44494  -1.70520
   1    7149.0   1398.8   0.452119517  20.82017  -1.31017   3.92340   1.92628
   2   11746.8    851.3   0.014161745   0.39689   0.13391  -0.18259  -0.58790
   3   15621.3    640.2   0.547561322  11.53960  -0.27797  -0.21439   3.37881
   4   16814.8    594.7   0.392671981   7.68800   0.28897  -1.95423   1.94563
   5   17199.3    581.4   0.965560804  18.48180   0.96532  -4.16141   0.48228
   6   19509.9    512.6   0.015284938   0.25792   0.03848  -0.03123  -0.50543
   7   21118.1    473.5   0.016491534   0.25709  -0.17984   0.36282   0.30513
   8   21371.6    467.9   0.103110084   1.58832   0.04073  -0.38347   1.19984
   9   22137.6    451.7   0.236667297   3.51952  -0.02490  -0.12819   1.87149
  10   22566.7    443.1   0.249002151   3.63254  -0.04751  -0.40337   1.86214
  11   22600.2    442.5   0.041565138   0.60547   0.13053  -0.09691   0.76095
  12   23279.6    429.6   0.142369040   2.01334   0.12560  -1.24439   0.67012
  13   23673.8    422.4   0.111773904   1.55434  -0.05087   0.67577  -1.04646
  14   24507.7    408.0   0.050255306   0.67508   0.00581   0.60704  -0.55367
  15   25103.5    398.4   0.068989005   0.90474   0.06823  -0.48571   0.81496
  16   26062.3    383.7   0.069318566   0.87561   0.15569  -0.27376  -0.88115
  17   26489.7    377.5   0.859612912  10.68322   0.68096  -2.65440   1.78148
  18   26698.7    374.6   0.030407413   0.37494  -0.18904   0.50030  -0.29818
  19   27363.8    365.4   0.006944916   0.08355   0.09323  -0.21326  -0.17141
  20   28676.3    348.7   0.394161572   4.52508   0.30999  -1.25052   1.69268
  21   28793.8    347.3   0.019757173   0.22589   0.21672  -0.33014   0.26444
  22   28910.7    345.9   0.000668718   0.00761  -0.02872  -0.08156  -0.01174
  23   28996.9    344.9   0.027649801   0.31392   0.04129   0.55374  -0.07473
  24   29346.5    340.8   0.016834721   0.18885  -0.09555   0.42384  -0.00921
  25   29518.9    338.8   0.025961488   0.28954   0.06981  -0.19025  -0.49847
  26   29858.7    334.9   0.112678278   1.24235  -0.22437   1.00325   0.43070
  27   30262.4    330.4   0.024013741   0.26124  -0.02939  -0.42728   0.27894
  28   30409.6    328.8   0.004566005   0.04943  -0.01802   0.15826   0.15512
  29   30879.3    323.8   0.023776149   0.25348   0.08211  -0.24942   0.42957
  30   31007.2    322.5   0.013386846   0.14213   0.02825  -0.18660   0.32636
  31   31284.1    319.7   0.046139745   0.48554   0.07904  -0.63993   0.26417
  32   31476.7    317.7   0.228564668   2.39054  -0.25295   0.50856   1.43803
  33   31835.3    314.1   0.160183485   1.65647  -0.02666   0.00737  -1.28674
  34   32108.5    311.4   0.028017317   0.28726   0.09056  -0.19758   0.48992
  35   32113.6    311.4   0.035186433   0.36071  -0.23704   0.16058  -0.52796
  36   32361.0    309.0   0.015512422   0.15781   0.07076   0.15793  -0.35757
  37   32877.2    304.2   0.138010239   1.38195  -0.22482   1.14809   0.11531
  38   33113.8    302.0   0.000464214   0.00462   0.03265   0.05032   0.03188
  39   33324.0    300.1   0.079929813   0.78964  -0.07054  -0.78737  -0.40584
  40   33498.2    298.5   0.147939826   1.45391   0.21098   0.79472   0.88194
  41   33718.3    296.6   0.014288337   0.13951  -0.11478   0.35421  -0.02942
  42   33953.3    294.5   0.003035402   0.02943   0.06067  -0.04089   0.15517
  43   34034.3    293.8   0.000289943   0.00280   0.05161  -0.00446   0.01101
  44   34269.1    291.8   0.008506782   0.08172   0.10208  -0.24158   0.11376
  45   34596.6    289.0   0.035567470   0.33845  -0.25154   0.51791   0.08334
  46   35079.2    285.1   0.017471256   0.16396  -0.30036   0.19021   0.19383
  47   35200.7    284.1   0.462053725   4.32133  -0.06709  -1.36751  -1.56420
  48   35460.9    282.0   0.001320295   0.01226   0.10715  -0.01354  -0.02435
  49   35623.6    280.7   0.004201116   0.03882   0.08264  -0.16023   0.07950
  50   35704.0    280.1   0.084322509   0.77750   0.07311  -0.01275   0.87863
  51   36003.0    277.8   0.013023542   0.11909   0.03532  -0.24584  -0.23959
  52   36166.6    276.5   0.062948925   0.57300  -0.24446   0.42232  -0.57870
  53   36247.5    275.9   0.080951859   0.73523   0.21286  -0.49176   0.66940
  54   36276.3    275.7   0.027946847   0.25362  -0.18820   0.34415  -0.31586
  55   36953.3    270.6   0.060045774   0.53494  -0.19559   0.40607  -0.57602
  56   37123.2    269.4   0.026257419   0.23285  -0.08876   0.31207  -0.35719
  57   37179.3    269.0   0.077536829   0.68657   0.16648  -0.80903   0.06571
  58   37489.0    266.7   0.001354565   0.01190  -0.02819   0.08147   0.06681
  59   37619.9    265.8   0.001100330   0.00963  -0.02909   0.05669  -0.07463
  60   37811.0    264.5   0.210111839   1.82940  -0.12961   0.46841  -1.26222
  61   37984.5    263.3   0.009600753   0.08321  -0.11927   0.11067   0.23820
  62   38015.2    263.1   0.039493062   0.34201   0.20755  -0.33505  -0.43206
  63   38097.7    262.5   0.013461798   0.11633   0.15487  -0.21834   0.21136
  64   38362.2    260.7   0.052509571   0.45062  -0.10713   0.64107   0.16784
  65   38418.8    260.3   0.198259419   1.69889   0.08339  -0.08593   1.29790
  66   39243.5    254.8   0.002783001   0.02335   0.03532  -0.13812   0.05498
  67   39487.5    253.2   0.012722270   0.10607   0.04806  -0.30984  -0.08806
  68   39586.6    252.6   0.030339555   0.25231   0.13857  -0.48061  -0.04608
  69   39633.0    252.3   0.015760606   0.13092   0.05849  -0.30725  -0.18191
  70   39759.0    251.5   0.002231674   0.01848  -0.03126   0.06200   0.11686
  71   39842.5    251.0   0.068130522   0.56295  -0.04964   0.21379   0.71748
  72   39937.1    250.4   0.106079178   0.87444  -0.22891   0.49314  -0.76082
  73   40141.0    249.1   0.000442752   0.00363  -0.03387   0.04239   0.02620
  74   40314.0    248.1   0.002512710   0.02052  -0.03696  -0.02856  -0.13542

FINAL SINGLE POINT ENERGY     -7122.421868220606

DIPOLE MOMENT
-------------
                                X             Y             Z
Electronic contribution:    -35.07764     170.98029      77.01315
Nuclear contribution   :     38.44637    -180.28686     -77.06791
                        -----------------------------------------
Total Dipole Moment    :      3.36873      -9.30657      -0.05477
                        -----------------------------------------
Magnitude (a.u.)       :      9.89766
Magnitude (Debye)      :     25.15785

Rotational constants in cm-1:     0.001210     0.000281     0.000230
Rotational constants in MHz :    36.278658     8.436623     6.905583

                             ****ORCA TERMINATED NORMALLY****
TOTAL RUN TIME: 0 days 0 hours 11 minutes 26 seconds 820 msec
