                         Program Version 4.2.0 -  RELEASE  -
|  1> # ORCA input file
|  2> # SCF done       -188.970005413887          0.000987934457
|  3> ! CAM-B3LYP def2-SVP def2/J RIJCOSX Grid4 TightSCF
|  4> %maxcore 5000
|  5> %tddft
|  6>     Mode sTDDFT
|  7>     Ethresh 5.0
|  8>     maxcore 5000
|  9> end
| 10>
| 11> %pal
| 12>   nprocs 6
| 13>   end
| 14> * xyz 0 1
| 15>    C       -4.29421        -0.41727         1.09020
| 16>    C       -4.36863        -0.78773        -0.24612
| 17>    C       -3.87869        -2.06386        -0.73201
| 18>    N       -3.90462        -2.30560        -2.04151
| 19>    C       -4.41621        -1.41893        -2.87107
| 20>    C       -4.96958        -0.19482        -2.37860
| 21>    N       -4.92409         0.09455        -1.10579
| 22>    C       -5.56864         0.71703        -3.28606
| 23>    N       -6.04293         1.41896        -4.05664
| 24>    C       -4.42681        -1.70698        -4.25539
| 25>    N       -4.46648        -1.92320        -5.38096
| 26>    C       -3.32954        -3.03536         0.15984
| 27>    C       -3.22978        -2.60186         1.50857
| 28>    C       -3.70949        -1.31982         1.96885
| 29>    N       -3.50845        -1.15773         3.28129
| 30>    S       -2.79407        -2.46290         3.87148
| 31>    N       -2.70217        -3.31135         2.50126
| 32>    C       -2.85896        -4.33262        -0.16240
| 33>    S       -1.97374        -5.20037         1.06693
| 34>    C       -1.68352        -6.60741         0.04744
| 35>    C       -2.30251        -6.39314        -1.18833
| 36>    C       -2.94605        -5.13554        -1.32295
| 37>    C       -3.51446        -4.98864        -2.60833
| 38>    C       -3.27066        -6.05469        -3.41944
| 39>    C       -3.64491        -6.21091        -4.83071
| 40>    O       -3.35464        -7.16826        -5.50611
| 41>    O       -4.32087        -5.14374        -5.25843
| 42>    C       -4.68321        -5.10853        -6.63264
| 43>    S       -2.36073        -7.31865        -2.64765
| 44>    C       -0.87912        -7.60623         0.58325
| 45>    C       -0.61698        -8.89309         0.13724
| 46>    C       -1.25626        -9.70238        -0.81824
| 47>    C       -0.72231       -10.95799        -0.93276
| 48>    C        0.37348       -11.18974        -0.08410
| 49>    S        0.68887        -9.78559         0.89502
| 50>    C        1.15327       -12.34157         0.00412
| 51>    C        0.99191       -13.55199        -0.69057
| 52>    C        1.94102       -14.48903        -0.38595
| 53>    C        2.90245       -14.05791         0.55239
| 54>    S        2.54216       -12.42019         1.05359
| 55>    C        3.97592       -14.81537         0.98609
| 56>    C        4.99573       -14.44730         1.85988
| 57>    C        5.21688       -13.24220         2.54149
| 58>    C        6.37831       -13.26558         3.28384
| 59>    C        7.08205       -14.49491         3.19823
| 60>    S        6.28048       -15.61963         2.19117
| 61>    C        8.25311       -14.40032         3.96311
| 62>    C        8.30761       -13.10624         4.54426
| 63>    C        7.12574       -12.36564         4.15396
| 64>    C        6.76524       -11.10540         4.53400
| 65>    C        7.54234       -10.34062         5.43080
| 66>    N        8.15647        -9.72274         6.17563
| 67>    C        5.57725       -10.49798         4.07703
| 68>    N        4.60982       -10.00730         3.70421
| 69>    C        9.45513       -12.90181         5.29377
| 70>    C       10.28128       -14.02047         5.30791
| 71>    S        9.60440       -15.36054         4.38342
| 72>    C       11.53532       -14.18824         5.95046
| 73>    C       12.25234       -13.14283         6.59249
| 74>    C       13.50832       -13.40632         7.26139
| 75>    N       14.15820       -12.40294         7.89236
| 76>    C       13.65629       -11.19913         7.85202
| 77>    C       12.44202       -10.92542         7.13538
| 78>    N       11.77757       -11.89122         6.54630
| 79>    C       11.96674        -9.59444         7.04211
| 80>    N       11.63041        -8.50089         6.98043
| 81>    C       14.33027       -10.14243         8.51840
| 82>    N       14.84867        -9.26676         9.04334
| 83>    C       14.08768       -14.66992         7.28517
| 84>    C       13.41885       -15.69508         6.62940
| 85>    C       12.15732       -15.45534         5.96677
| 86>    N       11.67730       -16.56154         5.39904
| 87>    S       12.70162       -17.77384         5.66826
| 88>    N       13.79949       -16.97396         6.51243
| 89>    H       -4.66986         0.53742         1.41412
| 90>    H       -4.05996        -4.13076        -2.94305
| 91>    H       -4.81700        -4.05776        -6.87605
| 92>    H       -5.61241        -5.65944        -6.78704
| 93>    H       -3.89662        -5.55609        -7.24178
| 94>    H       -0.37032        -7.32132         1.49665
| 95>    H       -2.11614        -9.37204        -1.36769
| 96>    H       -1.09370       -11.70600        -1.60915
| 97>    H        0.19067       -13.71048        -1.38895
| 98>    H        1.97909       -15.47372        -0.81685
| 99>    H        4.03850       -15.81501         0.57474
|100>    H        4.55225       -12.40158         2.47880
|101>    H        9.71272       -11.99574         5.81026
|102>    H       15.02217       -14.83088         7.79385
|103> *
|104>
|105>                          ****END OF INPUT****

CARTESIAN COORDINATES (ANGSTROEM)
---------------------------------
  C     -4.294210   -0.417270    1.090200
  C     -4.368630   -0.787730   -0.246120
  C     -3.878690   -2.063860   -0.732010
  N     -3.904620   -2.305600   -2.041510
  C     -4.416210   -1.418930   -2.871070
  C     -4.969580   -0.194820   -2.378600
  N     -4.924090    0.094550   -1.105790
  C     -5.568640    0.717030   -3.286060
  N     -6.042930    1.418960   -4.056640
  C     -4.426810   -1.706980   -4.255390
  N     -4.466480   -1.923200   -5.380960
  C     -3.329540   -3.035360    0.159840
  C     -3.229780   -2.601860    1.508570
  C     -3.709490   -1.319820    1.968850
  N     -3.508450   -1.157730    3.281290
  S     -2.794070   -2.462900    3.871480
  N     -2.702170   -3.311350    2.501260
  C     -2.858960   -4.332620   -0.162400
  S     -1.973740   -5.200370    1.066930
  C     -1.683520   -6.607410    0.047440
  C     -2.302510   -6.393140   -1.188330
  C     -2.946050   -5.135540   -1.322950
  C     -3.514460   -4.988640   -2.608330
  C     -3.270660   -6.054690   -3.419440
  C     -3.644910   -6.210910   -4.830710
  O     -3.354640   -7.168260   -5.506110
  O     -4.320870   -5.143740   -5.258430
  C     -4.683210   -5.108530   -6.632640
  S     -2.360730   -7.318650   -2.647650
  C     -0.879120   -7.606230    0.583250
  C     -0.616980   -8.893090    0.137240
  C     -1.256260   -9.702380   -0.818240
  C     -0.722310  -10.957990   -0.932760
  C      0.373480  -11.189740   -0.084100
  S      0.688870   -9.785590    0.895020
  C      1.153270  -12.341570    0.004120
  C      0.991910  -13.551990   -0.690570
  C      1.941020  -14.489030   -0.385950
  C      2.902450  -14.057910    0.552390
  S      2.542160  -12.420190    1.053590
  C      3.975920  -14.815370    0.986090
  C      4.995730  -14.447300    1.859880
  C      5.216880  -13.242200    2.541490
  C      6.378310  -13.265580    3.283840
  C      7.082050  -14.494910    3.198230
  S      6.280480  -15.619630    2.191170
  C      8.253110  -14.400320    3.963110
  C      8.307610  -13.106240    4.544260
  C      7.125740  -12.365640    4.153960
  C      6.765240  -11.105400    4.534000
  C      7.542340  -10.340620    5.430800
  N      8.156470   -9.722740    6.175630
  C      5.577250  -10.497980    4.077030
  N      4.609820  -10.007300    3.704210
  C      9.455130  -12.901810    5.293770
  C     10.281280  -14.020470    5.307910
  S      9.604400  -15.360540    4.383420
  C     11.535320  -14.188240    5.950460
  C     12.252340  -13.142830    6.592490
  C     13.508320  -13.406320    7.261390
  N     14.158200  -12.402940    7.892360
  C     13.656290  -11.199130    7.852020
  C     12.442020  -10.925420    7.135380
  N     11.777570  -11.891220    6.546300
  C     11.966740   -9.594440    7.042110
  N     11.630410   -8.500890    6.980430
  C     14.330270  -10.142430    8.518400
  N     14.848670   -9.266760    9.043340
  C     14.087680  -14.669920    7.285170
  C     13.418850  -15.695080    6.629400
  C     12.157320  -15.455340    5.966770
  N     11.677300  -16.561540    5.399040
  S     12.701620  -17.773840    5.668260
  N     13.799490  -16.973960    6.512430
  H     -4.669860    0.537420    1.414120
  H     -4.059960   -4.130760   -2.943050
  H     -4.817000   -4.057760   -6.876050
  H     -5.612410   -5.659440   -6.787040
  H     -3.896620   -5.556090   -7.241780
  H     -0.370320   -7.321320    1.496650
  H     -2.116140   -9.372040   -1.367690
  H     -1.093700  -11.706000   -1.609150
  H      0.190670  -13.710480   -1.388950
  H      1.979090  -15.473720   -0.816850
  H      4.038500  -15.815010    0.574740
  H      4.552250  -12.401580    2.478800
  H      9.712720  -11.995740    5.810260
  H     15.022170  -14.830880    7.793850

 Total Charge           Charge          ....    0
 Multiplicity           Mult            ....    1
 Number of Electrons    NEL             ....  556
 Basis Dimension        Dim             .... 1138

ORBITAL ENERGIES
----------------

  NO   OCC          E(Eh)            E(eV)
   0   2.0000     -89.053760     -2423.2760
   1   2.0000     -89.040761     -2422.9223
   2   2.0000     -88.992548     -2421.6103
   3   2.0000     -88.988347     -2421.4960
   4   2.0000     -88.969337     -2420.9787
   5   2.0000     -88.967869     -2420.9388
   6   2.0000     -88.966791     -2420.9094
   7   2.0000     -88.963653     -2420.8241
   8   2.0000     -19.255884      -523.9792
   9   2.0000     -19.202395      -522.5237
  10   2.0000     -14.463872      -393.5820
  11   2.0000     -14.463734      -393.5782
  12   2.0000     -14.460062      -393.4783
  13   2.0000     -14.458265      -393.4294
  14   2.0000     -14.456306      -393.3761
  15   2.0000     -14.453087      -393.2885
  16   2.0000     -14.450481      -393.2176
  17   2.0000     -14.446397      -393.1065
  18   2.0000     -14.432732      -392.7346
  19   2.0000     -14.429114      -392.6361
  20   2.0000     -14.428465      -392.6185
  21   2.0000     -14.426215      -392.5573
  22   2.0000     -14.424662      -392.5150
  23   2.0000     -14.424441      -392.5090
  24   2.0000     -10.403097      -283.0827
  25   2.0000     -10.382199      -282.5140
  26   2.0000     -10.380109      -282.4571
  27   2.0000     -10.375259      -282.3251
  28   2.0000     -10.370409      -282.1932
  29   2.0000     -10.366726      -282.0930
  30   2.0000     -10.353514      -281.7334
  31   2.0000     -10.351714      -281.6845
  32   2.0000     -10.349366      -281.6206
  33   2.0000     -10.349048      -281.6119
  34   2.0000     -10.346672      -281.5472
  35   2.0000     -10.346453      -281.5413
  36   2.0000     -10.340846      -281.3887
  37   2.0000     -10.340285      -281.3735
  38   2.0000     -10.336758      -281.2775
  39   2.0000     -10.334844      -281.2254
  40   2.0000     -10.334479      -281.2155
  41   2.0000     -10.334363      -281.2123
  42   2.0000     -10.333821      -281.1976
  43   2.0000     -10.332996      -281.1751
  44   2.0000     -10.332019      -281.1485
  45   2.0000     -10.330601      -281.1100
  46   2.0000     -10.330577      -281.1093
  47   2.0000     -10.330352      -281.1032
  48   2.0000     -10.328505      -281.0529
  49   2.0000     -10.328013      -281.0395
  50   2.0000     -10.327711      -281.0313
  51   2.0000     -10.327187      -281.0171
  52   2.0000     -10.325219      -280.9635
  53   2.0000     -10.321370      -280.8587
  54   2.0000     -10.320849      -280.8446
  55   2.0000     -10.317862      -280.7633
  56   2.0000     -10.317126      -280.7433
  57   2.0000     -10.315677      -280.7038
  58   2.0000     -10.312940      -280.6294
  59   2.0000     -10.310137      -280.5531
  60   2.0000     -10.309955      -280.5481
  61   2.0000     -10.309668      -280.5403
  62   2.0000     -10.306676      -280.4589
  63   2.0000     -10.305981      -280.4400
  64   2.0000     -10.305149      -280.4174
  65   2.0000     -10.304923      -280.4112
  66   2.0000     -10.303729      -280.3787
  67   2.0000     -10.303719      -280.3784
  68   2.0000     -10.303376      -280.3691
  69   2.0000     -10.302376      -280.3419
  70   2.0000     -10.302037      -280.3327
  71   2.0000     -10.299162      -280.2545
  72   2.0000     -10.289681      -279.9964
  73   2.0000     -10.284505      -279.8556
  74   2.0000      -8.144844      -221.6325
  75   2.0000      -8.132009      -221.2832
  76   2.0000      -8.087201      -220.0639
  77   2.0000      -8.081602      -219.9116
  78   2.0000      -8.064982      -219.4593
  79   2.0000      -8.061730      -219.3708
  80   2.0000      -8.061506      -219.3647
  81   2.0000      -8.060312      -219.3322
  82   2.0000      -6.115818      -166.4199
  83   2.0000      -6.108124      -166.2105
  84   2.0000      -6.107790      -166.2014
  85   2.0000      -6.103132      -166.0747
  86   2.0000      -6.095376      -165.8636
  87   2.0000      -6.094665      -165.8443
  88   2.0000      -6.056464      -164.8048
  89   2.0000      -6.052416      -164.6946
  90   2.0000      -6.051089      -164.6585
  91   2.0000      -6.049420      -164.6131
  92   2.0000      -6.046464      -164.5327
  93   2.0000      -6.043912      -164.4632
  94   2.0000      -6.034654      -164.2113
  95   2.0000      -6.031330      -164.1208
  96   2.0000      -6.031171      -164.1165
  97   2.0000      -6.030506      -164.0984
  98   2.0000      -6.029960      -164.0836
  99   2.0000      -6.026956      -164.0018
 100   2.0000      -6.026445      -163.9879
 101   2.0000      -6.026208      -163.9815
 102   2.0000      -6.025822      -163.9710
 103   2.0000      -6.023418      -163.9055
 104   2.0000      -6.023407      -163.9052
 105   2.0000      -6.021357      -163.8495
 106   2.0000      -1.188162       -32.3315
 107   2.0000      -1.149147       -31.2699
 108   2.0000      -1.138247       -30.9733
 109   2.0000      -1.119972       -30.4760
 110   2.0000      -1.112709       -30.2784
 111   2.0000      -1.096169       -29.8283
 112   2.0000      -1.048478       -28.5305
 113   2.0000      -1.045298       -28.4440
 114   2.0000      -1.039439       -28.2846
 115   2.0000      -1.023069       -27.8391
 116   2.0000      -1.020365       -27.7656
 117   2.0000      -1.016028       -27.6475
 118   2.0000      -1.012353       -27.5475
 119   2.0000      -1.009030       -27.4571
 120   2.0000      -1.008790       -27.4506
 121   2.0000      -1.007874       -27.4257
 122   2.0000      -0.999455       -27.1966
 123   2.0000      -0.999220       -27.1902
 124   2.0000      -0.997186       -27.1348
 125   2.0000      -0.994366       -27.0581
 126   2.0000      -0.991205       -26.9721
 127   2.0000      -0.977442       -26.5976
 128   2.0000      -0.971177       -26.4271
 129   2.0000      -0.958002       -26.0686
 130   2.0000      -0.953211       -25.9382
 131   2.0000      -0.924482       -25.1564
 132   2.0000      -0.913562       -24.8593
 133   2.0000      -0.908758       -24.7286
 134   2.0000      -0.901791       -24.5390
 135   2.0000      -0.896664       -24.3995
 136   2.0000      -0.884883       -24.0789
 137   2.0000      -0.877122       -23.8677
 138   2.0000      -0.867877       -23.6161
 139   2.0000      -0.861079       -23.4311
 140   2.0000      -0.858597       -23.3636
 141   2.0000      -0.854988       -23.2654
 142   2.0000      -0.848314       -23.0838
 143   2.0000      -0.840443       -22.8696
 144   2.0000      -0.836571       -22.7642
 145   2.0000      -0.828670       -22.5492
 146   2.0000      -0.827053       -22.5053
 147   2.0000      -0.810904       -22.0658
 148   2.0000      -0.804786       -21.8994
 149   2.0000      -0.795400       -21.6439
 150   2.0000      -0.789056       -21.4713
 151   2.0000      -0.780548       -21.2398
 152   2.0000      -0.773316       -21.0430
 153   2.0000      -0.758440       -20.6382
 154   2.0000      -0.743499       -20.2316
 155   2.0000      -0.735440       -20.0124
 156   2.0000      -0.725808       -19.7502
 157   2.0000      -0.716675       -19.5017
 158   2.0000      -0.712157       -19.3788
 159   2.0000      -0.708965       -19.2919
 160   2.0000      -0.703931       -19.1549
 161   2.0000      -0.697335       -18.9754
 162   2.0000      -0.697042       -18.9675
 163   2.0000      -0.692519       -18.8444
 164   2.0000      -0.681337       -18.5401
 165   2.0000      -0.679756       -18.4971
 166   2.0000      -0.677072       -18.4241
 167   2.0000      -0.666761       -18.1435
 168   2.0000      -0.654431       -17.8080
 169   2.0000      -0.651317       -17.7233
 170   2.0000      -0.644812       -17.5462
 171   2.0000      -0.642527       -17.4840
 172   2.0000      -0.640696       -17.4342
 173   2.0000      -0.638288       -17.3687
 174   2.0000      -0.634998       -17.2792
 175   2.0000      -0.631734       -17.1904
 176   2.0000      -0.627444       -17.0736
 177   2.0000      -0.622856       -16.9488
 178   2.0000      -0.616272       -16.7696
 179   2.0000      -0.609413       -16.5830
 180   2.0000      -0.603449       -16.4207
 181   2.0000      -0.597270       -16.2526
 182   2.0000      -0.591492       -16.0953
 183   2.0000      -0.582273       -15.8444
 184   2.0000      -0.579197       -15.7607
 185   2.0000      -0.574046       -15.6206
 186   2.0000      -0.572926       -15.5901
 187   2.0000      -0.571481       -15.5508
 188   2.0000      -0.566264       -15.4088
 189   2.0000      -0.564300       -15.3554
 190   2.0000      -0.561022       -15.2662
 191   2.0000      -0.552895       -15.0450
 192   2.0000      -0.549537       -14.9537
 193   2.0000      -0.548871       -14.9355
 194   2.0000      -0.547279       -14.8922
 195   2.0000      -0.542320       -14.7573
 196   2.0000      -0.539435       -14.6788
 197   2.0000      -0.534803       -14.5527
 198   2.0000      -0.531552       -14.4643
 199   2.0000      -0.525656       -14.3038
 200   2.0000      -0.523558       -14.2467
 201   2.0000      -0.520853       -14.1731
 202   2.0000      -0.517103       -14.0711
 203   2.0000      -0.514885       -14.0107
 204   2.0000      -0.511557       -13.9202
 205   2.0000      -0.507681       -13.8147
 206   2.0000      -0.506849       -13.7921
 207   2.0000      -0.502800       -13.6819
 208   2.0000      -0.500076       -13.6078
 209   2.0000      -0.498820       -13.5736
 210   2.0000      -0.494901       -13.4670
 211   2.0000      -0.491435       -13.3726
 212   2.0000      -0.488246       -13.2859
 213   2.0000      -0.485304       -13.2058
 214   2.0000      -0.483119       -13.1463
 215   2.0000      -0.481617       -13.1055
 216   2.0000      -0.480436       -13.0733
 217   2.0000      -0.477912       -13.0047
 218   2.0000      -0.475444       -12.9375
 219   2.0000      -0.472766       -12.8646
 220   2.0000      -0.471060       -12.8182
 221   2.0000      -0.470384       -12.7998
 222   2.0000      -0.464496       -12.6396
 223   2.0000      -0.463280       -12.6065
 224   2.0000      -0.459766       -12.5109
 225   2.0000      -0.456794       -12.4300
 226   2.0000      -0.454585       -12.3699
 227   2.0000      -0.453309       -12.3352
 228   2.0000      -0.453126       -12.3302
 229   2.0000      -0.449870       -12.2416
 230   2.0000      -0.448602       -12.2071
 231   2.0000      -0.448350       -12.2002
 232   2.0000      -0.447747       -12.1838
 233   2.0000      -0.447229       -12.1697
 234   2.0000      -0.443633       -12.0719
 235   2.0000      -0.442633       -12.0447
 236   2.0000      -0.441364       -12.0101
 237   2.0000      -0.440618       -11.9898
 238   2.0000      -0.438750       -11.9390
 239   2.0000      -0.438007       -11.9188
 240   2.0000      -0.433133       -11.7861
 241   2.0000      -0.432450       -11.7676
 242   2.0000      -0.428493       -11.6599
 243   2.0000      -0.427702       -11.6384
 244   2.0000      -0.425821       -11.5872
 245   2.0000      -0.423881       -11.5344
 246   2.0000      -0.421521       -11.4702
 247   2.0000      -0.418760       -11.3950
 248   2.0000      -0.417589       -11.3632
 249   2.0000      -0.416772       -11.3409
 250   2.0000      -0.416106       -11.3228
 251   2.0000      -0.410769       -11.1776
 252   2.0000      -0.408344       -11.1116
 253   2.0000      -0.408163       -11.1067
 254   2.0000      -0.404080       -10.9956
 255   2.0000      -0.402130       -10.9425
 256   2.0000      -0.399631       -10.8745
 257   2.0000      -0.387480       -10.5439
 258   2.0000      -0.381189       -10.3727
 259   2.0000      -0.373625       -10.1669
 260   2.0000      -0.370281       -10.0759
 261   2.0000      -0.360198        -9.8015
 262   2.0000      -0.360071        -9.7980
 263   2.0000      -0.356021        -9.6878
 264   2.0000      -0.355514        -9.6740
 265   2.0000      -0.352147        -9.5824
 266   2.0000      -0.351473        -9.5641
 267   2.0000      -0.349717        -9.5163
 268   2.0000      -0.346208        -9.4208
 269   2.0000      -0.343870        -9.3572
 270   2.0000      -0.338736        -9.2175
 271   2.0000      -0.323756        -8.8099
 272   2.0000      -0.321075        -8.7369
 273   2.0000      -0.315829        -8.5941
 274   2.0000      -0.310796        -8.4572
 275   2.0000      -0.280221        -7.6252
 276   2.0000      -0.255061        -6.9406
 277   2.0000      -0.212335        -5.7779
 278   0.0000      -0.137385        -3.7384
 279   0.0000      -0.121811        -3.3147
 280   0.0000      -0.104481        -2.8431
 281   0.0000      -0.087021        -2.3680
 282   0.0000      -0.051210        -1.3935

MULLIKEN ATOMIC CHARGES
-----------------------
   0 C :   -0.102650
   1 C :    0.023261
   2 C :   -0.091382
   3 N :    0.021399
   4 C :   -0.122374
   5 C :   -0.136663
   6 N :    0.045690
   7 C :   -0.206535
   8 N :    0.231530
   9 C :   -0.213577
  10 N :    0.223301
  11 C :    0.230288
  12 C :   -0.047163
  13 C :    0.122934
  14 N :   -0.269058
  15 S :    0.541342
  16 N :   -0.345296
  17 C :   -0.203273
  18 S :    0.179048
  19 C :   -0.125974
  20 C :   -0.051693
  21 C :    0.151583
  22 C :    0.019440
  23 C :   -0.135656
  24 C :    0.206064
  25 O :   -0.202762
  26 O :   -0.292774
  27 C :    0.174566
  28 S :    0.163791
  29 C :    0.065760
  30 C :   -0.073755
  31 C :    0.029390
  32 C :    0.011870
  33 C :   -0.040364
  34 S :    0.130639
  35 C :   -0.025280
  36 C :    0.028216
  37 C :    0.034080
  38 C :   -0.033731
  39 S :    0.082040
  40 C :    0.031931
  41 C :   -0.083765
  42 C :   -0.050763
  43 C :    0.007250
  44 C :   -0.107152
  45 S :    0.182568
  46 C :   -0.061742
  47 C :    0.032061
  48 C :    0.311779
  49 C :   -0.296315
  50 C :   -0.194767
  51 N :    0.189266
  52 C :   -0.183073
  53 N :    0.169409
  54 C :   -0.039666
  55 C :   -0.187494
  56 S :    0.204863
  57 C :    0.226261
  58 C :   -0.073114
  59 C :    0.013125
  60 N :    0.052616
  61 C :   -0.152298
  62 C :   -0.120216
  63 N :    0.040517
  64 C :   -0.208541
  65 N :    0.243048
  66 C :   -0.200493
  67 N :    0.239002
  68 C :   -0.089170
  69 C :    0.121023
  70 C :   -0.055289
  71 N :   -0.334222
  72 S :    0.551938
  73 N :   -0.266024
  74 H :   -0.023187
  75 H :   -0.006494
  76 H :    0.052387
  77 H :    0.027225
  78 H :    0.036378
  79 H :   -0.000742
  80 H :    0.001475
  81 H :   -0.004183
  82 H :   -0.005418
  83 H :   -0.006788
  84 H :   -0.012357
  85 H :    0.028169
  86 H :    0.023965
  87 H :   -0.019251
Sum of atomic charges:   -0.0000000

LOEWDIN ATOMIC CHARGES
----------------------
   0 C :   -0.034109
   1 C :   -0.004020
   2 C :   -0.016521
   3 N :    0.005767
   4 C :   -0.048090
   5 C :   -0.025403
   6 N :   -0.008709
   7 C :   -0.033121
   8 N :   -0.007748
   9 C :   -0.031984
  10 N :   -0.019260
  11 C :   -0.029603
  12 C :   -0.050509
  13 C :   -0.044601
  14 N :   -0.285742
  15 S :    0.668034
  16 N :   -0.306914
  17 C :   -0.161867
  18 S :    0.502076
  19 C :   -0.166399
  20 C :   -0.194260
  21 C :   -0.051689
  22 C :   -0.012304
  23 C :   -0.200085
  24 C :    0.062951
  25 O :   -0.182095
  26 O :   -0.079802
  27 C :    0.083493
  28 S :    0.463616
  29 C :   -0.076912
  30 C :   -0.135678
  31 C :   -0.042046
  32 C :   -0.019200
  33 C :   -0.176119
  34 S :    0.412765
  35 C :   -0.171791
  36 C :   -0.032497
  37 C :   -0.028057
  38 C :   -0.144257
  39 S :    0.415735
  40 C :   -0.074192
  41 C :   -0.152844
  42 C :   -0.039102
  43 C :   -0.049096
  44 C :   -0.192951
  45 S :    0.465665
  46 C :   -0.167392
  47 C :   -0.076951
  48 C :    0.077654
  49 C :   -0.097718
  50 C :   -0.020500
  51 N :   -0.019246
  52 C :   -0.015546
  53 N :   -0.033680
  54 C :    0.001631
  55 C :   -0.170092
  56 S :    0.507213
  57 C :   -0.022594
  58 C :   -0.015645
  59 C :   -0.005456
  60 N :   -0.001076
  61 C :   -0.023909
  62 C :   -0.029553
  63 N :    0.005653
  64 C :   -0.041018
  65 N :    0.003729
  66 C :   -0.034364
  67 N :   -0.001335
  68 C :   -0.022479
  69 C :   -0.044931
  70 C :   -0.053401
  71 N :   -0.308534
  72 S :    0.682331
  73 N :   -0.281675
  74 H :    0.045305
  75 H :    0.031670
  76 H :    0.028108
  77 H :    0.021388
  78 H :    0.023039
  79 H :    0.033520
  80 H :    0.019042
  81 H :    0.036233
  82 H :    0.035278
  83 H :    0.035863
  84 H :    0.036079
  85 H :    0.026064
  86 H :    0.039326
  87 H :    0.047441

  Mayer bond orders larger than 0.100000
B(  0-C ,  1-C ) :   1.3179 B(  0-C , 11-C ) :   0.1058 B(  0-C , 13-C ) :   1.1642
B(  0-C , 74-H ) :   1.0582 B(  1-C ,  2-C ) :   1.1058 B(  1-C ,  6-N ) :   1.3357
B(  2-C ,  3-N ) :   1.5055 B(  2-C , 11-C ) :   1.1863 B(  3-N ,  4-C ) :   1.6565
B(  4-C ,  5-C ) :   1.2093 B(  4-C ,  9-C ) :   1.1513 B(  5-C ,  6-N ) :   1.7734
B(  5-C ,  7-C ) :   1.1527 B(  7-C ,  8-N ) :   3.0529 B(  9-C , 10-N ) :   3.0058
B( 11-C , 12-C ) :   1.1774 B( 11-C , 17-C ) :   1.2622 B( 12-C , 13-C ) :   1.1306
B( 12-C , 16-N ) :   1.4697 B( 13-C , 14-N ) :   1.4754 B( 14-N , 15-S ) :   1.2892
B( 14-N , 16-N ) :   0.1466 B( 15-S , 16-N ) :   1.2467 B( 17-C , 18-S ) :   1.1325
B( 17-C , 21-C ) :   1.2600 B( 18-S , 19-C ) :   1.0904 B( 19-C , 20-C ) :   1.3633
B( 19-C , 29-C ) :   1.3004 B( 20-C , 21-C ) :   1.2978 B( 20-C , 28-S ) :   1.0645
B( 21-C , 22-C ) :   1.1765 B( 22-C , 23-C ) :   1.5588 B( 22-C , 75-H ) :   0.9970
B( 23-C , 24-C ) :   0.9486 B( 23-C , 28-S ) :   1.0830 B( 24-C , 25-O ) :   2.1448
B( 24-C , 26-O ) :   1.2590 B( 26-O , 27-C ) :   0.9090 B( 27-C , 76-H ) :   0.9727
B( 27-C , 77-H ) :   0.9814 B( 27-C , 78-H ) :   0.9685 B( 29-C , 30-C ) :   1.4640
B( 29-C , 79-H ) :   0.9266 B( 30-C , 31-C ) :   1.2063 B( 30-C , 34-S ) :   1.0684
B( 31-C , 32-C ) :   1.5479 B( 31-C , 80-H ) :   0.9735 B( 32-C , 33-C ) :   1.2345
B( 32-C , 81-H ) :   0.9955 B( 33-C , 34-S ) :   1.0733 B( 33-C , 35-C ) :   1.4167
B( 35-C , 36-C ) :   1.2320 B( 35-C , 39-S ) :   1.0651 B( 36-C , 37-C ) :   1.5409
B( 36-C , 82-H ) :   0.9941 B( 37-C , 38-C ) :   1.1833 B( 37-C , 83-H ) :   1.0001
B( 38-C , 39-S ) :   1.0555 B( 38-C , 40-C ) :   1.5296 B( 40-C , 41-C ) :   1.2251
B( 40-C , 84-H ) :   0.9509 B( 41-C , 42-C ) :   1.3543 B( 41-C , 45-S ) :   1.0934
B( 42-C , 43-C ) :   1.3877 B( 42-C , 85-H ) :   0.9672 B( 43-C , 44-C ) :   1.3817
B( 43-C , 48-C ) :   0.9861 B( 44-C , 45-S ) :   1.1017 B( 44-C , 46-C ) :   1.2506
B( 46-C , 47-C ) :   1.3577 B( 46-C , 56-S ) :   1.1056 B( 47-C , 48-C ) :   1.0014
B( 47-C , 54-C ) :   1.2943 B( 48-C , 49-C ) :   1.7106 B( 49-C , 50-C ) :   1.1355
B( 49-C , 52-C ) :   1.1365 B( 50-C , 51-N ) :   2.9948 B( 52-C , 53-N ) :   2.9797
B( 54-C , 55-C ) :   1.3941 B( 54-C , 86-H ) :   0.9830 B( 55-C , 56-S ) :   1.0794
B( 55-C , 57-C ) :   1.2070 B( 57-C , 58-C ) :   1.2424 B( 57-C , 68-C ) :   0.1265
B( 57-C , 70-C ) :   1.2003 B( 58-C , 59-C ) :   1.1205 B( 58-C , 63-N ) :   1.4505
B( 59-C , 60-N ) :   1.3349 B( 59-C , 68-C ) :   1.3131 B( 60-N , 61-C ) :   1.7831
B( 61-C , 62-C ) :   1.1918 B( 61-C , 66-C ) :   1.1530 B( 62-C , 63-N ) :   1.7242
B( 62-C , 64-C ) :   1.1498 B( 64-C , 65-N ) :   3.0309 B( 66-C , 67-N ) :   3.0557
B( 68-C , 69-C ) :   1.1742 B( 68-C , 87-H ) :   1.0590 B( 69-C , 70-C ) :   1.1300
B( 69-C , 73-N ) :   1.4585 B( 70-C , 71-N ) :   1.4725 B( 71-N , 72-S ) :   1.2656
B( 71-N , 73-N ) :   0.1562 B( 72-S , 73-N ) :   1.3088

-----------------------------------------------------------------------------
         ABSORPTION SPECTRUM VIA TRANSITION ELECTRIC DIPOLE MOMENTS
-----------------------------------------------------------------------------
State   Energy  Wavelength   fosc         T2         TX        TY        TZ
        (cm-1)    (nm)                  (au**2)     (au)      (au)      (au)
-----------------------------------------------------------------------------
   0    5010.1   1996.0   0.920603128  60.49248  -5.63206   4.97840  -1.99699
   1    8478.1   1179.5   0.183777752   7.13622   0.72519   2.27540   1.19703
   2   10621.9    941.5   0.137699761   4.26782  -1.79778   0.10754  -1.01206
   3   13339.5    749.7   0.200324811   4.94393   1.37016   1.23876   1.23777
   4   14909.3    670.7   0.298414396   6.58929   1.89874  -1.33211   1.09979
   5   16519.3    605.4   0.014497482   0.28892  -0.21728   0.31168  -0.38022
   6   18075.9    553.2   0.011988405   0.21834  -0.36909   0.24741  -0.14458
   7   20470.7    488.5   0.025203427   0.40532  -0.54413  -0.12641  -0.30539
   8   22191.9    450.6   0.002827774   0.04195  -0.12454   0.11620   0.11374
   9   22512.2    444.2   0.083215733   1.21692  -0.55146  -0.91906  -0.26103
  10   23057.9    433.7   0.091192182   1.30201   0.50910   0.76355   0.67809
  11   24283.4    411.8   0.113263128   1.53552  -0.70168  -0.49854  -0.89142
  12   24538.1    407.5   0.027138604   0.36410  -0.01735   0.04514  -0.60147
  13   24874.6    402.0   0.023465704   0.31057   0.21242   0.51511   0.01024
  14   25042.1    399.3   0.011850730   0.15579   0.03420  -0.01338  -0.39299
  15   25316.6    395.0   0.020903329   0.27182  -0.39413   0.33659   0.05647
  16   25796.7    387.6   0.022890534   0.29212   0.14802   0.46854   0.22512
  17   26180.6    382.0   0.011330112   0.14247   0.26351  -0.12614   0.23900
  18   26331.8    379.8   0.011117386   0.13899  -0.32167  -0.16665   0.08802
  19   26447.5    378.1   0.000783614   0.00975  -0.08714  -0.01077   0.04521
  20   26644.3    375.3   0.007422532   0.09171   0.18322  -0.19959  -0.13530
  21   26747.0    373.9   0.038519002   0.47411   0.32855  -0.60490   0.01598
  22   27586.0    362.5   0.053273306   0.63576   0.42846   0.59587   0.31165
  23   28590.5    349.8   0.009310569   0.10721   0.18856  -0.24357  -0.11101
  24   28871.2    346.4   0.001405931   0.01603   0.04423  -0.02166  -0.11664
  25   29571.0    338.2   0.080733604   0.89880   0.49125  -0.80557   0.09242
  26   30121.0    332.0   0.058615380   0.64065   0.41893   0.60713   0.31070
  27   30295.6    330.1   0.190524928   2.07037   0.30493  -1.40322   0.09144
  28   30403.9    328.9   0.114792990   1.24297  -0.34326  -0.17320   1.04649
  29   30710.1    325.6   0.051328472   0.55024  -0.53752   0.35888  -0.36403
  30   30917.1    323.4   0.369563482   3.93520   0.93247   0.12916   1.74614
  31   31195.5    320.6   0.028676428   0.30263   0.45864   0.16764   0.25332
  32   31855.2    313.9   0.015348206   0.15862  -0.07937  -0.30944  -0.23783
  33   31971.0    312.8   0.062100057   0.63946   0.02754  -0.47633  -0.64172
  34   32352.2    309.1   0.039218108   0.39908  -0.55219   0.17301  -0.25344
  35   32469.0    308.0   0.128938430   1.30734   0.91168  -0.50172   0.47377
  36   32785.4    305.0   0.032627468   0.32763   0.50191   0.27300  -0.03437
  37   33129.5    301.8   0.196231102   1.94997  -0.31571   1.29689   0.41034
  38   33295.4    300.3   0.036830724   0.36417   0.42588  -0.29678   0.30775
  39   33436.7    299.1   0.025387090   0.24996   0.06551   0.39935   0.29357
  40   33479.0    298.7   0.148964509   1.46483  -0.56685  -0.38838  -0.99633
  41   33754.3    296.3   0.003039963   0.02965  -0.15717   0.04705  -0.05226
  42   33893.0    295.0   0.102986283   1.00033  -0.09736   0.93792  -0.33342
  43   34459.7    290.2   0.917077589   8.76133   0.28188  -2.92290  -0.37219
  44   34580.1    289.2   0.038359448   0.36519   0.39530  -0.45058  -0.07689
  45   35034.3    285.4   0.136498196   1.28265   0.20116   0.11224   1.10887
  46   35597.5    280.9   0.148723533   1.37542   0.58111   0.63770   0.79440
  47   36059.4    277.3   0.050305222   0.45927  -0.44482  -0.27074  -0.43371
  48   36141.2    276.7   0.022968533   0.20922  -0.28527  -0.26180  -0.24352
  49   36717.2    272.4   0.017061471   0.15298  -0.25694   0.29419  -0.02031
  50   36760.4    272.0   0.066750751   0.59779   0.15603   0.04994  -0.75562
  51   36991.9    270.3   0.083124375   0.73977   0.60779  -0.17848   0.58181
  52   37331.2    267.9   0.091593561   0.80774  -0.01653  -0.61653  -0.65373
  53   37578.0    266.1   0.006537923   0.05728   0.08463  -0.01904   0.22305
  54   37712.8    265.2   0.168860914   1.47406  -0.60500   0.00101  -1.05263
  55   37863.5    264.1   0.113495115   0.98681   0.17559   0.56597   0.79728
  56   37971.8    263.4   0.001764785   0.01530  -0.04185  -0.11613  -0.00801
  57   38030.6    262.9   0.033258951   0.28791   0.11843  -0.41940   0.31302
  58   38252.7    261.4   0.043564124   0.37492   0.50216  -0.24530   0.25017
  59   38293.6    261.1   0.010825829   0.09307   0.03158  -0.14814  -0.26481
  60   38412.3    260.3   0.019948945   0.17097  -0.39215   0.09086  -0.09454
  61   38654.5    258.7   0.020923030   0.17820  -0.22816  -0.29119  -0.20334
  62   38687.5    258.5   0.020266246   0.17246   0.02009   0.40015   0.10922
  63   39025.4    256.2   0.007143991   0.06027  -0.19494  -0.03125  -0.14590
  64   39457.6    253.4   0.036683406   0.30607  -0.39182  -0.10976  -0.37483
  65   39505.7    253.1   0.001553162   0.01294  -0.01781  -0.09632  -0.05786
  66   39613.0    252.4   0.031281033   0.25997   0.04324  -0.48534   0.15015
  67   39633.3    252.3   0.029831064   0.24779   0.21524   0.41722  -0.16549
  68   39880.8    250.7   0.012570987   0.10377   0.08596  -0.15099   0.27126
  69   39918.1    250.5   0.032331848   0.26665  -0.14171   0.49494   0.03998
  70   40033.9    249.8   0.005918048   0.04867   0.01436  -0.05110  -0.21412
  71   40106.0    249.3   0.131934825   1.08299   0.02963   0.96724   0.38283
  72   40293.1    248.2   0.086118112   0.70362  -0.22989  -0.72440  -0.35499

FINAL SINGLE POINT ENERGY     -6011.513372083709

DIPOLE MOMENT
-------------
                                X             Y             Z
Electronic contribution:     33.06864      -3.25611      33.54412
Nuclear contribution   :    -33.30394      -3.03271     -33.49720
                        -----------------------------------------
Total Dipole Moment    :     -0.23530      -6.28882       0.04692
                        -----------------------------------------
Magnitude (a.u.)       :      6.29339
Magnitude (Debye)      :     15.99654

Rotational constants in cm-1:     0.001394     0.000198     0.000180
Rotational constants in MHz :    41.797740     5.949071     5.389755

                             ****ORCA TERMINATED NORMALLY****
TOTAL RUN TIME: 0 days 0 hours 10 minutes 12 seconds 856 msec
