                         Program Version 4.2.0 -  RELEASE  -
|  1> # ORCA input file
|  2> # SCF done       -173.023906366113          0.000479354510
|  3> ! CAM-B3LYP def2-SVP def2/J RIJCOSX Grid4 TightSCF
|  4> %maxcore 5000
|  5> %tddft
|  6>     Mode sTDDFT
|  7>     Ethresh 5.0
|  8>     maxcore 5000
|  9> end
| 10>
| 11> %pal
| 12>   nprocs 6
| 13>   end
| 14> * xyz 0 1
| 15>    O        6.75353        13.92516        -2.27605
| 16>    N        7.67950        13.36750        -3.05932
| 17>    C        7.80579        12.10993        -2.70981
| 18>    C        8.70702        11.22550        -3.34158
| 19>    N        9.42761        10.48639        -3.83390
| 20>    C        6.91747        11.80073        -1.63266
| 21>    C        6.27736        13.01353        -1.41126
| 22>    C        5.28657        13.35156        -0.47434
| 23>    N        4.47914        13.62717         0.28969
| 24>    C        6.70510        10.54353        -0.91529
| 25>    O        5.90912        10.40646        -0.01784
| 26>    O        7.52420         9.59882        -1.41300
| 27>    C        7.59609         8.30615        -0.96311
| 28>    C        6.73759         7.70043        -0.10385
| 29>    C        6.86662         6.36428         0.30554
| 30>    C        7.92238         5.51489        -0.26494
| 31>    C        8.86900         5.93786        -1.12980
| 32>    S        8.99531         7.55296        -1.71061
| 33>    C        7.70832         4.22113         0.28927
| 34>    C        6.61238         4.25787         1.14701
| 35>    C        6.35218         3.00073         1.73509
| 36>    C        7.23990         2.06183         1.31276
| 37>    S        8.42055         2.65997         0.19717
| 38>    C        6.08027         5.60148         1.18271
| 39>    C        4.97859         5.93310         2.00862
| 40>    C        4.49355         7.16406         2.32262
| 41>    C        3.38117         7.41702         3.17556
| 42>    C        2.59886         6.44726         3.76516
| 43>    C        1.53200         6.68187         4.62478
| 44>    C        1.05962         8.05088         4.87355
| 45>    C        1.66985         9.16090         4.39949
| 46>    S        3.08437         9.13141         3.43490
| 47>    C       -0.10858         7.91269         5.67039
| 48>    C       -0.34742         6.56141         5.92172
| 49>    C       -1.49846         6.36167         6.71648
| 50>    C       -2.09046         7.54102         7.03819
| 51>    S       -1.28177         8.93502         6.40111
| 52>    C        0.68604         5.77311         5.30208
| 53>    C        0.75422         4.37010         5.45110
| 54>    C        1.80936         3.55823         5.16526
| 55>    C        1.84692         2.14646         5.32851
| 56>    C        0.84730         1.36884         5.86574
| 57>    C        0.90870        -0.01225         6.03318
| 58>    C        2.08586        -0.78578         5.62029
| 59>    C        3.18953        -0.24243         5.06298
| 60>    S        3.36048         1.43673         4.76254
| 61>    C        1.78048        -2.13373         5.94981
| 62>    C        0.51229        -2.20916         6.53316
| 63>    C        0.17593        -3.53897         6.87603
| 64>    C        1.16806        -4.40932         6.55435
| 65>    S        2.54953        -3.66543         5.82493
| 66>    C       -0.04495        -0.88353         6.59214
| 67>    C       -1.29659        -0.46342         7.10804
| 68>    C       -2.23596        -1.22803         7.68830
| 69>    O       -3.37685        -0.60798         8.12662
| 70>    C       -4.34301        -1.31815         8.71971
| 71>    O       -4.32332        -2.50882         8.92031
| 72>    C       -5.44347        -0.42223         9.09466
| 73>    C       -5.54869         0.99266         8.91280
| 74>    N       -6.69227         1.43114         9.38405
| 75>    O       -7.36420         0.38841         9.87398
| 76>    C       -6.64216        -0.73616         9.71599
| 77>    C       -7.14025        -1.97426        10.15776
| 78>    N       -7.55178        -2.97949        10.51995
| 79>    C       -4.59046         1.84540         8.32341
| 80>    N       -3.80231         2.52369         7.84592
| 81>    H        5.90661         8.28376         0.25727
| 82>    H        9.63178         5.28068        -1.51603
| 83>    H        5.55908         2.78986         2.43002
| 84>    H        7.28176         1.02687         1.59064
| 85>    H        4.50756         5.06740         2.45554
| 86>    H        4.98147         8.05107         1.94878
| 87>    H        2.82713         5.42587         3.50812
| 88>    H        1.30648        10.15451         4.60988
| 89>    H       -1.87813         5.40693         7.03261
| 90>    H       -2.97523         7.69227         7.62512
| 91>    H       -0.13596         3.92868         5.87919
| 92>    H        2.73103         3.99098         4.80708
| 93>    H       -0.04562         1.87970         6.19366
| 94>    H        4.04602        -0.82863         4.77003
| 95>    H       -0.74305        -3.85389         7.33376
| 96>    H        1.18126        -5.47164         6.70122
| 97>    H       -1.52491         0.59163         7.03562
| 98>    H       -2.18851        -2.29244         7.85461
| 99> *
|100>
|101>                          ****END OF INPUT****

CARTESIAN COORDINATES (ANGSTROEM)
---------------------------------
  O      6.753530   13.925160   -2.276050
  N      7.679500   13.367500   -3.059320
  C      7.805790   12.109930   -2.709810
  C      8.707020   11.225500   -3.341580
  N      9.427610   10.486390   -3.833900
  C      6.917470   11.800730   -1.632660
  C      6.277360   13.013530   -1.411260
  C      5.286570   13.351560   -0.474340
  N      4.479140   13.627170    0.289690
  C      6.705100   10.543530   -0.915290
  O      5.909120   10.406460   -0.017840
  O      7.524200    9.598820   -1.413000
  C      7.596090    8.306150   -0.963110
  C      6.737590    7.700430   -0.103850
  C      6.866620    6.364280    0.305540
  C      7.922380    5.514890   -0.264940
  C      8.869000    5.937860   -1.129800
  S      8.995310    7.552960   -1.710610
  C      7.708320    4.221130    0.289270
  C      6.612380    4.257870    1.147010
  C      6.352180    3.000730    1.735090
  C      7.239900    2.061830    1.312760
  S      8.420550    2.659970    0.197170
  C      6.080270    5.601480    1.182710
  C      4.978590    5.933100    2.008620
  C      4.493550    7.164060    2.322620
  C      3.381170    7.417020    3.175560
  C      2.598860    6.447260    3.765160
  C      1.532000    6.681870    4.624780
  C      1.059620    8.050880    4.873550
  C      1.669850    9.160900    4.399490
  S      3.084370    9.131410    3.434900
  C     -0.108580    7.912690    5.670390
  C     -0.347420    6.561410    5.921720
  C     -1.498460    6.361670    6.716480
  C     -2.090460    7.541020    7.038190
  S     -1.281770    8.935020    6.401110
  C      0.686040    5.773110    5.302080
  C      0.754220    4.370100    5.451100
  C      1.809360    3.558230    5.165260
  C      1.846920    2.146460    5.328510
  C      0.847300    1.368840    5.865740
  C      0.908700   -0.012250    6.033180
  C      2.085860   -0.785780    5.620290
  C      3.189530   -0.242430    5.062980
  S      3.360480    1.436730    4.762540
  C      1.780480   -2.133730    5.949810
  C      0.512290   -2.209160    6.533160
  C      0.175930   -3.538970    6.876030
  C      1.168060   -4.409320    6.554350
  S      2.549530   -3.665430    5.824930
  C     -0.044950   -0.883530    6.592140
  C     -1.296590   -0.463420    7.108040
  C     -2.235960   -1.228030    7.688300
  O     -3.376850   -0.607980    8.126620
  C     -4.343010   -1.318150    8.719710
  O     -4.323320   -2.508820    8.920310
  C     -5.443470   -0.422230    9.094660
  C     -5.548690    0.992660    8.912800
  N     -6.692270    1.431140    9.384050
  O     -7.364200    0.388410    9.873980
  C     -6.642160   -0.736160    9.715990
  C     -7.140250   -1.974260   10.157760
  N     -7.551780   -2.979490   10.519950
  C     -4.590460    1.845400    8.323410
  N     -3.802310    2.523690    7.845920
  H      5.906610    8.283760    0.257270
  H      9.631780    5.280680   -1.516030
  H      5.559080    2.789860    2.430020
  H      7.281760    1.026870    1.590640
  H      4.507560    5.067400    2.455540
  H      4.981470    8.051070    1.948780
  H      2.827130    5.425870    3.508120
  H      1.306480   10.154510    4.609880
  H     -1.878130    5.406930    7.032610
  H     -2.975230    7.692270    7.625120
  H     -0.135960    3.928680    5.879190
  H      2.731030    3.990980    4.807080
  H     -0.045620    1.879700    6.193660
  H      4.046020   -0.828630    4.770030
  H     -0.743050   -3.853890    7.333760
  H      1.181260   -5.471640    6.701220
  H     -1.524910    0.591630    7.035620
  H     -2.188510   -2.292440    7.854610

 Total Charge           Charge          ....    0
 Multiplicity           Mult            ....    1
 Number of Electrons    NEL             ....  492
 Basis Dimension        Dim             .... 1038

ORBITAL ENERGIES
----------------

  NO   OCC          E(Eh)            E(eV)
   0   2.0000     -88.984960     -2421.4039
   1   2.0000     -88.967796     -2420.9368
   2   2.0000     -88.965793     -2420.8823
   3   2.0000     -88.958816     -2420.6924
   4   2.0000     -88.947876     -2420.3947
   5   2.0000     -88.946484     -2420.3569
   6   2.0000     -19.388028      -527.5751
   7   2.0000     -19.373797      -527.1878
   8   2.0000     -19.329091      -525.9713
   9   2.0000     -19.294351      -525.0260
  10   2.0000     -19.259034      -524.0649
  11   2.0000     -19.229598      -523.2640
  12   2.0000     -14.529963      -395.3804
  13   2.0000     -14.517220      -395.0337
  14   2.0000     -14.461514      -393.5178
  15   2.0000     -14.450372      -393.2146
  16   2.0000     -14.447426      -393.1344
  17   2.0000     -14.441031      -392.9604
  18   2.0000     -10.466079      -284.7965
  19   2.0000     -10.435295      -283.9588
  20   2.0000     -10.434684      -283.9422
  21   2.0000     -10.418362      -283.4980
  22   2.0000     -10.398414      -282.9552
  23   2.0000     -10.389200      -282.7045
  24   2.0000     -10.384195      -282.5683
  25   2.0000     -10.364138      -282.0225
  26   2.0000     -10.357225      -281.8344
  27   2.0000     -10.348586      -281.5993
  28   2.0000     -10.348050      -281.5848
  29   2.0000     -10.343668      -281.4655
  30   2.0000     -10.340274      -281.3732
  31   2.0000     -10.333522      -281.1894
  32   2.0000     -10.322256      -280.8829
  33   2.0000     -10.318733      -280.7870
  34   2.0000     -10.318342      -280.7764
  35   2.0000     -10.315071      -280.6873
  36   2.0000     -10.311873      -280.6003
  37   2.0000     -10.304126      -280.3895
  38   2.0000     -10.300576      -280.2929
  39   2.0000     -10.298673      -280.2411
  40   2.0000     -10.290982      -280.0319
  41   2.0000     -10.290186      -280.0102
  42   2.0000     -10.288185      -279.9557
  43   2.0000     -10.288093      -279.9532
  44   2.0000     -10.288061      -279.9524
  45   2.0000     -10.287184      -279.9285
  46   2.0000     -10.285037      -279.8701
  47   2.0000     -10.283970      -279.8411
  48   2.0000     -10.283183      -279.8196
  49   2.0000     -10.280028      -279.7338
  50   2.0000     -10.279773      -279.7268
  51   2.0000     -10.279087      -279.7082
  52   2.0000     -10.276935      -279.6496
  53   2.0000     -10.276606      -279.6407
  54   2.0000     -10.276439      -279.6361
  55   2.0000     -10.276311      -279.6326
  56   2.0000     -10.275796      -279.6186
  57   2.0000     -10.274956      -279.5958
  58   2.0000     -10.272740      -279.5355
  59   2.0000     -10.271891      -279.5124
  60   2.0000     -10.266856      -279.3754
  61   2.0000     -10.265737      -279.3449
  62   2.0000     -10.264588      -279.3137
  63   2.0000     -10.264219      -279.3036
  64   2.0000     -10.263513      -279.2844
  65   2.0000     -10.263135      -279.2741
  66   2.0000      -8.080944      -219.8937
  67   2.0000      -8.063211      -219.4111
  68   2.0000      -8.061006      -219.3511
  69   2.0000      -8.054257      -219.1675
  70   2.0000      -8.043368      -218.8712
  71   2.0000      -8.041891      -218.8310
  72   2.0000      -6.050639      -164.6463
  73   2.0000      -6.046084      -164.5223
  74   2.0000      -6.042303      -164.4194
  75   2.0000      -6.032627      -164.1561
  76   2.0000      -6.030472      -164.0975
  77   2.0000      -6.028188      -164.0353
  78   2.0000      -6.026129      -163.9793
  79   2.0000      -6.025299      -163.9567
  80   2.0000      -6.023710      -163.9135
  81   2.0000      -6.023006      -163.8943
  82   2.0000      -6.019452      -163.7976
  83   2.0000      -6.016267      -163.7109
  84   2.0000      -6.012784      -163.6162
  85   2.0000      -6.011359      -163.5774
  86   2.0000      -6.008593      -163.5021
  87   2.0000      -6.007147      -163.4628
  88   2.0000      -6.005390      -163.4150
  89   2.0000      -6.003852      -163.3731
  90   2.0000      -1.329367       -36.1739
  91   2.0000      -1.315412       -35.7942
  92   2.0000      -1.254950       -34.1489
  93   2.0000      -1.224429       -33.3184
  94   2.0000      -1.161171       -31.5971
  95   2.0000      -1.128004       -30.6945
  96   2.0000      -1.051155       -28.6034
  97   2.0000      -1.038935       -28.2709
  98   2.0000      -1.038210       -28.2511
  99   2.0000      -1.025907       -27.9164
 100   2.0000      -1.015778       -27.6407
 101   2.0000      -1.009132       -27.4599
 102   2.0000      -1.003630       -27.3102
 103   2.0000      -0.996634       -27.1198
 104   2.0000      -0.995509       -27.0892
 105   2.0000      -0.982909       -26.7463
 106   2.0000      -0.970305       -26.4033
 107   2.0000      -0.964735       -26.2518
 108   2.0000      -0.962968       -26.2037
 109   2.0000      -0.962294       -26.1853
 110   2.0000      -0.931943       -25.3595
 111   2.0000      -0.922882       -25.1129
 112   2.0000      -0.917726       -24.9726
 113   2.0000      -0.904625       -24.6161
 114   2.0000      -0.897433       -24.4204
 115   2.0000      -0.891054       -24.2468
 116   2.0000      -0.879069       -23.9207
 117   2.0000      -0.863797       -23.5051
 118   2.0000      -0.853913       -23.2362
 119   2.0000      -0.851144       -23.1608
 120   2.0000      -0.837419       -22.7873
 121   2.0000      -0.836520       -22.7629
 122   2.0000      -0.829390       -22.5688
 123   2.0000      -0.821886       -22.3647
 124   2.0000      -0.817643       -22.2492
 125   2.0000      -0.808495       -22.0003
 126   2.0000      -0.802626       -21.8406
 127   2.0000      -0.802458       -21.8360
 128   2.0000      -0.799468       -21.7546
 129   2.0000      -0.787516       -21.4294
 130   2.0000      -0.781774       -21.2732
 131   2.0000      -0.771431       -20.9917
 132   2.0000      -0.760531       -20.6951
 133   2.0000      -0.751916       -20.4607
 134   2.0000      -0.748982       -20.3808
 135   2.0000      -0.737784       -20.0761
 136   2.0000      -0.728085       -19.8122
 137   2.0000      -0.724536       -19.7156
 138   2.0000      -0.705949       -19.2098
 139   2.0000      -0.693593       -18.8736
 140   2.0000      -0.682957       -18.5842
 141   2.0000      -0.672964       -18.3123
 142   2.0000      -0.666574       -18.1384
 143   2.0000      -0.662401       -18.0248
 144   2.0000      -0.658058       -17.9067
 145   2.0000      -0.655220       -17.8294
 146   2.0000      -0.648881       -17.6569
 147   2.0000      -0.648689       -17.6517
 148   2.0000      -0.641896       -17.4669
 149   2.0000      -0.636049       -17.3078
 150   2.0000      -0.634216       -17.2579
 151   2.0000      -0.628464       -17.1014
 152   2.0000      -0.627692       -17.0804
 153   2.0000      -0.620712       -16.8904
 154   2.0000      -0.615487       -16.7482
 155   2.0000      -0.608761       -16.5652
 156   2.0000      -0.607076       -16.5194
 157   2.0000      -0.605438       -16.4748
 158   2.0000      -0.601750       -16.3745
 159   2.0000      -0.591507       -16.0957
 160   2.0000      -0.583781       -15.8855
 161   2.0000      -0.579250       -15.7622
 162   2.0000      -0.575887       -15.6707
 163   2.0000      -0.574517       -15.6334
 164   2.0000      -0.571020       -15.5382
 165   2.0000      -0.568039       -15.4571
 166   2.0000      -0.560977       -15.2650
 167   2.0000      -0.556955       -15.1555
 168   2.0000      -0.555692       -15.1211
 169   2.0000      -0.551847       -15.0165
 170   2.0000      -0.549976       -14.9656
 171   2.0000      -0.545161       -14.8346
 172   2.0000      -0.541345       -14.7307
 173   2.0000      -0.533084       -14.5059
 174   2.0000      -0.525707       -14.3052
 175   2.0000      -0.517576       -14.0840
 176   2.0000      -0.513774       -13.9805
 177   2.0000      -0.511544       -13.9198
 178   2.0000      -0.508976       -13.8499
 179   2.0000      -0.508551       -13.8384
 180   2.0000      -0.505426       -13.7533
 181   2.0000      -0.502444       -13.6722
 182   2.0000      -0.502325       -13.6689
 183   2.0000      -0.500368       -13.6157
 184   2.0000      -0.499426       -13.5901
 185   2.0000      -0.496593       -13.5130
 186   2.0000      -0.495087       -13.4720
 187   2.0000      -0.490378       -13.3439
 188   2.0000      -0.483356       -13.1528
 189   2.0000      -0.481872       -13.1124
 190   2.0000      -0.479449       -13.0465
 191   2.0000      -0.476657       -12.9705
 192   2.0000      -0.475630       -12.9426
 193   2.0000      -0.474735       -12.9182
 194   2.0000      -0.472812       -12.8659
 195   2.0000      -0.470225       -12.7955
 196   2.0000      -0.468961       -12.7611
 197   2.0000      -0.466492       -12.6939
 198   2.0000      -0.461850       -12.5676
 199   2.0000      -0.460272       -12.5246
 200   2.0000      -0.459697       -12.5090
 201   2.0000      -0.458567       -12.4783
 202   2.0000      -0.456705       -12.4276
 203   2.0000      -0.453146       -12.3307
 204   2.0000      -0.450678       -12.2636
 205   2.0000      -0.448988       -12.2176
 206   2.0000      -0.447469       -12.1763
 207   2.0000      -0.446672       -12.1546
 208   2.0000      -0.443217       -12.0605
 209   2.0000      -0.440946       -11.9988
 210   2.0000      -0.437976       -11.9179
 211   2.0000      -0.434868       -11.8334
 212   2.0000      -0.430976       -11.7275
 213   2.0000      -0.430124       -11.7043
 214   2.0000      -0.425399       -11.5757
 215   2.0000      -0.424836       -11.5604
 216   2.0000      -0.423168       -11.5150
 217   2.0000      -0.420721       -11.4484
 218   2.0000      -0.418446       -11.3865
 219   2.0000      -0.415099       -11.2954
 220   2.0000      -0.414833       -11.2882
 221   2.0000      -0.414023       -11.2661
 222   2.0000      -0.409252       -11.1363
 223   2.0000      -0.405600       -11.0369
 224   2.0000      -0.403076       -10.9682
 225   2.0000      -0.401131       -10.9153
 226   2.0000      -0.398406       -10.8412
 227   2.0000      -0.395884       -10.7726
 228   2.0000      -0.395122       -10.7518
 229   2.0000      -0.391214       -10.6455
 230   2.0000      -0.387552       -10.5458
 231   2.0000      -0.382488       -10.4080
 232   2.0000      -0.376295       -10.2395
 233   2.0000      -0.375140       -10.2081
 234   2.0000      -0.352559        -9.5936
 235   2.0000      -0.346579        -9.4309
 236   2.0000      -0.339246        -9.2314
 237   2.0000      -0.324487        -8.8298
 238   2.0000      -0.315554        -8.5867
 239   2.0000      -0.313666        -8.5353
 240   2.0000      -0.285580        -7.7710
 241   2.0000      -0.276817        -7.5326
 242   2.0000      -0.272178        -7.4063
 243   2.0000      -0.252995        -6.8844
 244   2.0000      -0.232839        -6.3359
 245   2.0000      -0.204490        -5.5645
 246   0.0000      -0.090457        -2.4615
 247   0.0000      -0.074726        -2.0334
 248   0.0000      -0.068818        -1.8726
 249   0.0000      -0.053028        -1.4430
 250   0.0000      -0.046148        -1.2558

MULLIKEN ATOMIC CHARGES
-----------------------
   0 O :   -0.131551
   1 N :    0.076277
   2 C :   -0.173988
   3 C :   -0.163753
   4 N :    0.248262
   5 C :    0.037158
   6 C :    0.011018
   7 C :   -0.145784
   8 N :    0.250609
   9 C :    0.208519
  10 O :   -0.164569
  11 O :   -0.250145
  12 C :    0.033313
  13 C :   -0.019167
  14 C :    0.020577
  15 C :    0.078802
  16 C :   -0.150060
  17 S :    0.169980
  18 C :   -0.111005
  19 C :    0.047318
  20 C :    0.007217
  21 C :   -0.067563
  22 S :    0.129407
  23 C :    0.090470
  24 C :   -0.000617
  25 C :    0.021275
  26 C :   -0.079878
  27 C :   -0.053775
  28 C :    0.054331
  29 C :    0.059696
  30 C :   -0.137780
  31 S :    0.143815
  32 C :   -0.111581
  33 C :    0.052316
  34 C :    0.001636
  35 C :   -0.069041
  36 S :    0.119102
  37 C :    0.070985
  38 C :    0.003968
  39 C :    0.008135
  40 C :   -0.063049
  41 C :   -0.048112
  42 C :    0.061671
  43 C :    0.061864
  44 C :   -0.130201
  45 S :    0.112945
  46 C :   -0.119956
  47 C :    0.062134
  48 C :   -0.011134
  49 C :   -0.069294
  50 S :    0.118584
  51 C :    0.059342
  52 C :    0.013364
  53 C :    0.088857
  54 O :   -0.239926
  55 C :    0.182194
  56 O :   -0.169314
  57 C :    0.041523
  58 C :   -0.191927
  59 N :    0.070327
  60 O :   -0.135876
  61 C :   -0.005269
  62 C :   -0.149055
  63 N :    0.252466
  64 C :   -0.139533
  65 N :    0.231176
  66 H :    0.021147
  67 H :    0.041094
  68 H :   -0.022122
  69 H :    0.024651
  70 H :   -0.029217
  71 H :   -0.016685
  72 H :   -0.025125
  73 H :    0.034928
  74 H :   -0.006855
  75 H :    0.025130
  76 H :   -0.020435
  77 H :   -0.030671
  78 H :   -0.025215
  79 H :    0.028057
  80 H :   -0.016416
  81 H :    0.023612
  82 H :   -0.011362
  83 H :    0.007754
Sum of atomic charges:   -0.0000000

LOEWDIN ATOMIC CHARGES
----------------------
   0 O :    0.078627
   1 N :    0.026582
   2 C :   -0.052421
   3 C :   -0.034330
   4 N :    0.001846
   5 C :   -0.076749
   6 C :    0.043669
   7 C :   -0.039754
   8 N :    0.028879
   9 C :    0.105288
  10 O :   -0.133112
  11 O :   -0.040297
  12 C :   -0.104434
  13 C :   -0.053436
  14 C :   -0.024868
  15 C :   -0.042205
  16 C :   -0.142524
  17 S :    0.457728
  18 C :   -0.206830
  19 C :   -0.038646
  20 C :   -0.065038
  21 C :   -0.165151
  22 S :    0.423148
  23 C :   -0.047475
  24 C :   -0.007962
  25 C :   -0.056446
  26 C :   -0.161206
  27 C :   -0.026823
  28 C :   -0.011293
  29 C :   -0.046297
  30 C :   -0.146970
  31 S :    0.462313
  32 C :   -0.209262
  33 C :   -0.036566
  34 C :   -0.064155
  35 C :   -0.163702
  36 S :    0.413028
  37 C :   -0.064236
  38 C :    0.005155
  39 C :   -0.079783
  40 C :   -0.153079
  41 C :   -0.033694
  42 C :   -0.009964
  43 C :   -0.050332
  44 C :   -0.147438
  45 S :    0.437201
  46 C :   -0.207043
  47 C :   -0.036658
  48 C :   -0.068825
  49 C :   -0.167178
  50 S :    0.415667
  51 C :   -0.069167
  52 C :   -0.027722
  53 C :    0.024204
  54 O :   -0.022295
  55 C :    0.083538
  56 O :   -0.152471
  57 C :   -0.070931
  58 C :   -0.055804
  59 N :    0.021911
  60 O :    0.074072
  61 C :    0.036125
  62 C :   -0.038855
  63 N :    0.022918
  64 C :   -0.022201
  65 N :   -0.014669
  66 H :    0.041309
  67 H :    0.038237
  68 H :    0.026239
  69 H :    0.022971
  70 H :    0.028336
  71 H :    0.023776
  72 H :    0.032068
  73 H :    0.035750
  74 H :    0.033298
  75 H :    0.022909
  76 H :    0.030918
  77 H :    0.016942
  78 H :    0.034996
  79 H :    0.033309
  80 H :    0.028907
  81 H :    0.022596
  82 H :    0.036871
  83 H :    0.018972

  Mayer bond orders larger than 0.100000
B(  0-O ,  1-N ) :   1.0247 B(  0-O ,  6-C ) :   1.1846 B(  1-N ,  2-C ) :   1.7094
B(  1-N ,  6-C ) :   0.1021 B(  2-C ,  3-C ) :   1.1536 B(  2-C ,  5-C ) :   1.2205
B(  3-C ,  4-N ) :   3.0573 B(  5-C ,  6-C ) :   1.5384 B(  5-C ,  9-C ) :   0.9016
B(  6-C ,  7-C ) :   1.1377 B(  7-C ,  8-N ) :   3.0278 B(  9-C , 10-O ) :   2.1244
B(  9-C , 11-O ) :   1.1692 B( 11-O , 12-C ) :   0.9761 B( 12-C , 13-C ) :   1.5782
B( 12-C , 17-S ) :   1.0738 B( 13-C , 14-C ) :   1.1582 B( 13-C , 66-H ) :   0.9645
B( 14-C , 15-C ) :   1.0548 B( 14-C , 23-C ) :   1.4319 B( 15-C , 16-C ) :   1.6226
B( 15-C , 18-C ) :   1.1702 B( 16-C , 17-S ) :   1.1157 B( 16-C , 67-H ) :   0.9400
B( 18-C , 19-C ) :   1.4575 B( 18-C , 22-S ) :   1.0748 B( 19-C , 20-C ) :   1.2228
B( 19-C , 23-C ) :   1.0849 B( 20-C , 21-C ) :   1.5819 B( 20-C , 68-H ) :   0.9941
B( 21-C , 22-S ) :   1.1593 B( 21-C , 69-H ) :   0.9662 B( 23-C , 24-C ) :   1.1751
B( 24-C , 25-C ) :   1.6408 B( 24-C , 70-H ) :   0.9512 B( 25-C , 26-C ) :   1.1155
B( 25-C , 71-H ) :   0.9624 B( 26-C , 27-C ) :   1.5164 B( 26-C , 31-S ) :   1.0683
B( 27-C , 28-C ) :   1.2594 B( 27-C , 72-H ) :   0.9609 B( 28-C , 29-C ) :   1.0590
B( 28-C , 37-C ) :   1.3512 B( 29-C , 30-C ) :   1.5963 B( 29-C , 32-C ) :   1.1850
B( 30-C , 31-S ) :   1.1440 B( 30-C , 73-H ) :   0.9417 B( 32-C , 33-C ) :   1.4388
B( 32-C , 36-S ) :   1.0672 B( 33-C , 34-C ) :   1.2142 B( 33-C , 37-C ) :   1.1026
B( 34-C , 35-C ) :   1.5888 B( 34-C , 74-H ) :   0.9971 B( 35-C , 36-S ) :   1.1523
B( 35-C , 75-H ) :   0.9657 B( 37-C , 38-C ) :   1.1935 B( 38-C , 39-C ) :   1.6353
B( 38-C , 76-H ) :   0.9524 B( 39-C , 40-C ) :   1.1102 B( 39-C , 77-H ) :   0.9559
B( 40-C , 41-C ) :   1.5447 B( 40-C , 45-S ) :   1.0501 B( 41-C , 42-C ) :   1.2434
B( 41-C , 78-H ) :   0.9622 B( 42-C , 43-C ) :   1.0464 B( 42-C , 51-C ) :   1.4007
B( 43-C , 44-C ) :   1.6140 B( 43-C , 46-C ) :   1.1817 B( 44-C , 45-S ) :   1.1354
B( 44-C , 79-H ) :   0.9399 B( 46-C , 47-C ) :   1.4527 B( 46-C , 50-S ) :   1.0705
B( 47-C , 48-C ) :   1.2077 B( 47-C , 51-C ) :   1.0823 B( 48-C , 49-C ) :   1.5870
B( 48-C , 80-H ) :   1.0015 B( 49-C , 50-S ) :   1.1575 B( 49-C , 81-H ) :   0.9647
B( 51-C , 52-C ) :   1.1680 B( 52-C , 53-C ) :   1.6620 B( 52-C , 82-H ) :   0.9537
B( 53-C , 54-O ) :   0.9695 B( 53-C , 83-H ) :   0.9922 B( 54-O , 55-C ) :   1.2134
B( 55-C , 56-O ) :   2.1476 B( 55-C , 57-C ) :   0.8772 B( 57-C , 58-C ) :   1.2246
B( 57-C , 61-C ) :   1.5450 B( 58-C , 59-N ) :   1.7026 B( 58-C , 64-C ) :   1.1586
B( 59-N , 60-O ) :   1.0283 B( 59-N , 61-C ) :   0.1033 B( 60-O , 61-C ) :   1.1751
B( 61-C , 62-C ) :   1.1387 B( 62-C , 63-N ) :   3.0338 B( 64-C , 65-N ) :   3.0317

-----------------------------------------------------------------------------
         ABSORPTION SPECTRUM VIA TRANSITION ELECTRIC DIPOLE MOMENTS
-----------------------------------------------------------------------------
State   Energy  Wavelength   fosc         T2         TX        TY        TZ
        (cm-1)    (nm)                  (au**2)     (au)      (au)      (au)
-----------------------------------------------------------------------------
   0   13074.5    764.8   0.604704736  15.22625  -2.12873  -2.51710   2.08781
   1   15220.6    657.0   0.535539694  11.58337  -2.23897  -1.97042   1.63946
   2   17165.4    582.6   0.022588400   0.43322   0.16976   0.32642  -0.54576
   3   18769.6    532.8   0.047486363   0.83289   0.19287   0.72678  -0.51719
   4   19638.6    509.2   0.056121969   0.94080   0.61612  -0.52080  -0.53848
   5   20118.6    497.1   0.021277423   0.34817   0.30993  -0.49003  -0.10949
   6   21259.9    470.4   0.114126939   1.76727  -0.26979   1.27726   0.25119
   7   22209.2    450.3   0.017875229   0.26497  -0.44385  -0.18823   0.18036
   8   22321.8    448.0   0.029492234   0.43496   0.46475  -0.34225  -0.31912
   9   22710.3    440.3   0.015324918   0.22215  -0.29123   0.35788   0.09620
  10   23791.0    420.3   0.058311102   0.80689   0.33163   0.72291  -0.41751
  11   24402.7    409.8   0.177958507   2.40080  -1.32752   0.18380   0.77764
  12   25386.1    393.9   0.197547039   2.56183   0.58576  -1.45738  -0.30783
  13   26429.6    378.4   0.256313741   3.19269   0.94719  -1.41816  -0.53324
  14   27087.2    369.2   0.401275630   4.87702  -1.11113   1.85078   0.46586
  15   27565.3    362.8   0.064413105   0.76928   0.57198   0.44744  -0.49186
  16   28216.6    354.4   0.002464989   0.02876  -0.11045  -0.06648   0.11018
  17   28538.0    350.4   0.000359518   0.00415  -0.04220   0.04765   0.00982
  18   29102.8    343.6   0.081248497   0.91909  -0.54441  -0.74434   0.26204
  19   29317.7    341.1   0.049407001   0.55480   0.52909  -0.47623  -0.21926
  20   29857.1    334.9   0.038045268   0.41950   0.35679  -0.40075  -0.36277
  21   30131.3    331.9   0.029300491   0.32013   0.40647  -0.31689  -0.23345
  22   30377.0    329.2   0.069893287   0.75747   0.44706  -0.70535  -0.24515
  23   30711.3    325.6   0.178030846   1.90841  -1.15691   0.01641   0.75478
  24   31135.0    321.2   0.021754781   0.23003  -0.35220   0.07697   0.31633
  25   31352.7    319.0   0.346519791   3.63856   1.02787   1.22346  -1.04173
  26   32288.9    309.7   0.032327761   0.32961  -0.20357   0.52909   0.09074
  27   32670.9    306.1   0.030860874   0.31097   0.25980  -0.48887  -0.06697
  28   33528.9    298.2   0.072458280   0.71145  -0.08355  -0.83735   0.05761
  29   33752.5    296.3   0.064558824   0.62969   0.57272  -0.40846  -0.36720
  30   33851.6    295.4   0.080006253   0.77807  -0.33498   0.80948   0.10301
  31   34316.1    291.4   0.056008243   0.53732   0.56590  -0.06414  -0.46148
  32   34792.6    287.4   0.142222169   1.34572   0.87941   0.46141  -0.59955
  33   35225.7    283.9   0.101527017   0.94885   0.52989   0.66223  -0.47908
  34   35911.2    278.5   0.158086066   1.44924   0.50564  -1.04674  -0.31290
  35   36158.1    276.6   0.002970153   0.02704  -0.15695   0.01785   0.04573
  36   36349.4    275.1   0.114568170   1.03763   0.80588   0.26562  -0.56359
  37   36448.9    274.4   0.019112133   0.17262   0.01907   0.38377  -0.15805
  38   36688.5    272.6   0.265255527   2.38018  -0.66560  -1.27238   0.56411
  39   36972.5    270.5   0.031850933   0.28361  -0.25456   0.46777  -0.00136
  40   37076.3    269.7   0.000018304   0.00016  -0.00409   0.00916  -0.00787
  41   37332.5    267.9   0.117682860   1.03777  -0.80958   0.37462   0.49195
  42   37417.5    267.3   0.088576021   0.77932  -0.00825  -0.88256   0.01872
  43   37997.3    263.2   0.325557951   2.82067   1.12313  -1.20200  -0.33831
  44   38168.6    262.0   0.000221181   0.00191  -0.00978   0.04163  -0.00890
  45   38761.5    258.0   0.018236201   0.15488  -0.32190   0.02529   0.22500
  46   38789.4    257.8   0.007635844   0.06481   0.14191  -0.21101  -0.01194
  47   38832.9    257.5   0.187135210   1.58647  -0.99221  -0.45759   0.62658
  48   39039.4    256.2   0.193093711   1.62832   0.80677   0.81199  -0.56401
  49   39478.3    253.3   0.037094593   0.30933  -0.11781   0.54176   0.04414
  50   39784.2    251.4   0.027503489   0.22759  -0.20027   0.42814  -0.06465
  51   39850.3    250.9   0.008008924   0.06616  -0.02390  -0.25611   0.00098
  52   40197.2    248.8   0.015978632   0.13086  -0.11635   0.32210  -0.11652

FINAL SINGLE POINT ENERGY     -5004.664778928116

DIPOLE MOMENT
-------------
                                X             Y             Z
Electronic contribution:      4.25440      23.83593     -13.55950
Nuclear contribution   :     -2.23705     -22.74110      12.21898
                        -----------------------------------------
Total Dipole Moment    :      2.01734       1.09483      -1.34051
                        -----------------------------------------
Magnitude (a.u.)       :      2.65807
Magnitude (Debye)      :      6.75627

Rotational constants in cm-1:     0.001480     0.000336     0.000278
Rotational constants in MHz :    44.365218    10.082769     8.321371

                             ****ORCA TERMINATED NORMALLY****
TOTAL RUN TIME: 0 days 0 hours 7 minutes 40 seconds 161 msec
