                         Program Version 4.2.0 -  RELEASE  -
|  1> # ORCA input file
|  2> # SCF done       -160.047478155042          0.000462037671
|  3> ! CAM-B3LYP def2-SVP def2/J RIJCOSX Grid4 TightSCF
|  4> %maxcore 5000
|  5> %tddft
|  6>     Mode sTDDFT
|  7>     Ethresh 5.0
|  8>     maxcore 5000
|  9> end
| 10>
| 11> %pal
| 12>   nprocs 6
| 13>   end
| 14> * xyz 0 1
| 15>    C        1.85513         2.77661         0.69332
| 16>    C        0.85802         3.61442         1.08339
| 17>    S        0.72470         3.65344         2.80517
| 18>    C        2.03708         2.52115         3.02133
| 19>    C        2.48592         2.08067         4.35987
| 20>    C        2.52140         2.15812         1.80217
| 21>    C        3.57345         1.27834         1.30339
| 22>    O        4.33962         0.59110         1.95768
| 23>    C        3.52158         1.39318        -0.16702
| 24>    C        2.45952         2.31329        -0.53942
| 25>    C        2.06441         2.70495        -1.79347
| 26>    C        1.00581         3.61951        -1.97090
| 27>    N        0.14688         4.36331        -2.13201
| 28>    C        2.62587         2.27721        -3.01062
| 29>    N        3.04116         1.96591        -4.03598
| 30>    C        4.35063         0.74244        -1.04080
| 31>    C        5.40806        -0.14905        -0.79036
| 32>    C        6.16142        -0.69966        -1.82424
| 33>    C        7.17663        -1.54715        -1.40157
| 34>    S        8.30131        -2.39404        -2.44532
| 35>    C        7.70605        -1.95592        -4.10368
| 36>    C        7.21525        -1.66683        -0.00635
| 37>    S        5.97741        -0.71059         0.75718
| 38>    C        8.09772        -2.41823         0.79964
| 39>    C        8.02887        -2.53131         2.18392
| 40>    C        9.04954        -3.32130         2.69694
| 41>    C        9.91221        -3.81481         1.69922
| 42>    S        9.45339        -3.31459         0.13194
| 43>    C       10.92587        -4.58087         2.32262
| 44>    C       10.70712        -4.57896         3.71224
| 45>    C        9.51679        -3.79418         3.99319
| 46>    C        8.95660        -3.55188         5.21226
| 47>    C        7.79131        -2.77166         5.37033
| 48>    N        6.84503        -2.14102         5.51589
| 49>    C        9.50637        -4.06637         6.40611
| 50>    N        9.95069        -4.47763         7.37964
| 51>    C       11.67609        -5.29561         4.41535
| 52>    C       12.62967        -5.83774         3.57598
| 53>    S       12.31830        -5.46469         1.88472
| 54>    C       13.77032        -6.60018         3.93674
| 55>    C       14.73338        -7.10823         3.09349
| 56>    C       15.73388        -7.82933         3.75521
| 57>    S       17.15734        -8.47806         2.97990
| 58>    C       17.08796        -7.72528         1.32916
| 59>    C       15.54063        -7.88780         5.14019
| 60>    S       14.11098        -6.98800         5.59030
| 61>    C       16.32035        -8.43416         6.17501
| 62>    C       17.24090        -9.44466         6.16948
| 63>    C       18.23335        -9.50037         7.28842
| 64>    O       18.21945        -8.82999         8.29697
| 65>    C       19.21982       -10.49347         6.85952
| 66>    C       20.39916       -10.97914         7.33226
| 67>    S       21.01237       -12.18715         6.22906
| 68>    C       19.66212       -12.02054         5.16174
| 69>    C       18.79484       -11.08365         5.62328
| 70>    C       17.51473       -10.51648         5.24553
| 71>    C       16.67113       -11.05842         4.30446
| 72>    C       17.07778       -12.12856         3.48472
| 73>    N       17.40031       -12.98581         2.79263
| 74>    C       15.33202       -10.67460         4.12276
| 75>    N       14.22928       -10.39646         3.96052
| 76>    C       21.12014       -10.60694         8.56980
| 77>    H        0.19169         4.21067         0.49283
| 78>    H        2.82424         2.93146         4.95083
| 79>    H        3.30428         1.37262         4.24961
| 80>    H        1.66935         1.60469         4.90199
| 81>    H        4.19306         0.93074        -2.09617
| 82>    H        5.95056        -0.46263        -2.85094
| 83>    H        8.35044        -2.49380        -4.79220
| 84>    H        7.80466        -0.88676        -4.26501
| 85>    H        6.67832        -2.28354        -4.22648
| 86>    H        7.26120        -2.04855         2.76175
| 87>    H       11.70599        -5.42349         5.48251
| 88>    H       14.68640        -6.96558         2.02967
| 89>    H       18.02244        -7.99967         0.84918
| 90>    H       17.01610        -6.64556         1.41560
| 91>    H       16.25390        -8.13785         0.76962
| 92>    H       16.21805        -7.93638         7.13598
| 93>    H       19.61784       -12.61897         4.27403
| 94>    H       20.55096        -9.84558         9.09834
| 95>    H       22.11098       -10.21836         8.33575
| 96>    H       21.24726       -11.47445         9.21672
| 97> *
| 98>
| 99>                          ****END OF INPUT****

CARTESIAN COORDINATES (ANGSTROEM)
---------------------------------
  C      1.855130    2.776610    0.693320
  C      0.858020    3.614420    1.083390
  S      0.724700    3.653440    2.805170
  C      2.037080    2.521150    3.021330
  C      2.485920    2.080670    4.359870
  C      2.521400    2.158120    1.802170
  C      3.573450    1.278340    1.303390
  O      4.339620    0.591100    1.957680
  C      3.521580    1.393180   -0.167020
  C      2.459520    2.313290   -0.539420
  C      2.064410    2.704950   -1.793470
  C      1.005810    3.619510   -1.970900
  N      0.146880    4.363310   -2.132010
  C      2.625870    2.277210   -3.010620
  N      3.041160    1.965910   -4.035980
  C      4.350630    0.742440   -1.040800
  C      5.408060   -0.149050   -0.790360
  C      6.161420   -0.699660   -1.824240
  C      7.176630   -1.547150   -1.401570
  S      8.301310   -2.394040   -2.445320
  C      7.706050   -1.955920   -4.103680
  C      7.215250   -1.666830   -0.006350
  S      5.977410   -0.710590    0.757180
  C      8.097720   -2.418230    0.799640
  C      8.028870   -2.531310    2.183920
  C      9.049540   -3.321300    2.696940
  C      9.912210   -3.814810    1.699220
  S      9.453390   -3.314590    0.131940
  C     10.925870   -4.580870    2.322620
  C     10.707120   -4.578960    3.712240
  C      9.516790   -3.794180    3.993190
  C      8.956600   -3.551880    5.212260
  C      7.791310   -2.771660    5.370330
  N      6.845030   -2.141020    5.515890
  C      9.506370   -4.066370    6.406110
  N      9.950690   -4.477630    7.379640
  C     11.676090   -5.295610    4.415350
  C     12.629670   -5.837740    3.575980
  S     12.318300   -5.464690    1.884720
  C     13.770320   -6.600180    3.936740
  C     14.733380   -7.108230    3.093490
  C     15.733880   -7.829330    3.755210
  S     17.157340   -8.478060    2.979900
  C     17.087960   -7.725280    1.329160
  C     15.540630   -7.887800    5.140190
  S     14.110980   -6.988000    5.590300
  C     16.320350   -8.434160    6.175010
  C     17.240900   -9.444660    6.169480
  C     18.233350   -9.500370    7.288420
  O     18.219450   -8.829990    8.296970
  C     19.219820  -10.493470    6.859520
  C     20.399160  -10.979140    7.332260
  S     21.012370  -12.187150    6.229060
  C     19.662120  -12.020540    5.161740
  C     18.794840  -11.083650    5.623280
  C     17.514730  -10.516480    5.245530
  C     16.671130  -11.058420    4.304460
  C     17.077780  -12.128560    3.484720
  N     17.400310  -12.985810    2.792630
  C     15.332020  -10.674600    4.122760
  N     14.229280  -10.396460    3.960520
  C     21.120140  -10.606940    8.569800
  H      0.191690    4.210670    0.492830
  H      2.824240    2.931460    4.950830
  H      3.304280    1.372620    4.249610
  H      1.669350    1.604690    4.901990
  H      4.193060    0.930740   -2.096170
  H      5.950560   -0.462630   -2.850940
  H      8.350440   -2.493800   -4.792200
  H      7.804660   -0.886760   -4.265010
  H      6.678320   -2.283540   -4.226480
  H      7.261200   -2.048550    2.761750
  H     11.705990   -5.423490    5.482510
  H     14.686400   -6.965580    2.029670
  H     18.022440   -7.999670    0.849180
  H     17.016100   -6.645560    1.415600
  H     16.253900   -8.137850    0.769620
  H     16.218050   -7.936380    7.135980
  H     19.617840  -12.618970    4.274030
  H     20.550960   -9.845580    9.098340
  H     22.110980  -10.218360    8.335750
  H     21.247260  -11.474450    9.216720

 Total Charge           Charge          ....    0
 Multiplicity           Mult            ....    1
 Number of Electrons    NEL             ....  482
 Basis Dimension        Dim             .... 1000

ORBITAL ENERGIES
----------------

  NO   OCC          E(Eh)            E(eV)
   0   2.0000     -88.996536     -2421.7189
   1   2.0000     -88.995576     -2421.6928
   2   2.0000     -88.977856     -2421.2106
   3   2.0000     -88.971936     -2421.0495
   4   2.0000     -88.971200     -2421.0294
   5   2.0000     -88.968212     -2420.9481
   6   2.0000     -88.953662     -2420.5522
   7   2.0000     -88.948127     -2420.4016
   8   2.0000     -19.224320      -523.1203
   9   2.0000     -19.207997      -522.6762
  10   2.0000     -14.432750      -392.7351
  11   2.0000     -14.432576      -392.7304
  12   2.0000     -14.419161      -392.3653
  13   2.0000     -14.413487      -392.2109
  14   2.0000     -14.407434      -392.0462
  15   2.0000     -14.406225      -392.0133
  16   2.0000     -10.375004      -282.3182
  17   2.0000     -10.368213      -282.1334
  18   2.0000     -10.361467      -281.9499
  19   2.0000     -10.355424      -281.7854
  20   2.0000     -10.343864      -281.4709
  21   2.0000     -10.340404      -281.3767
  22   2.0000     -10.339814      -281.3606
  23   2.0000     -10.333794      -281.1968
  24   2.0000     -10.333667      -281.1934
  25   2.0000     -10.332831      -281.1706
  26   2.0000     -10.332751      -281.1685
  27   2.0000     -10.332650      -281.1657
  28   2.0000     -10.332513      -281.1620
  29   2.0000     -10.332429      -281.1597
  30   2.0000     -10.329970      -281.0928
  31   2.0000     -10.329731      -281.0863
  32   2.0000     -10.329427      -281.0780
  33   2.0000     -10.326400      -280.9956
  34   2.0000     -10.325183      -280.9625
  35   2.0000     -10.322624      -280.8929
  36   2.0000     -10.322350      -280.8854
  37   2.0000     -10.321072      -280.8506
  38   2.0000     -10.321038      -280.8497
  39   2.0000     -10.319610      -280.8109
  40   2.0000     -10.319092      -280.7968
  41   2.0000     -10.316331      -280.7216
  42   2.0000     -10.312803      -280.6256
  43   2.0000     -10.312714      -280.6232
  44   2.0000     -10.311646      -280.5941
  45   2.0000     -10.310370      -280.5594
  46   2.0000     -10.309020      -280.5227
  47   2.0000     -10.308722      -280.5146
  48   2.0000     -10.308489      -280.5082
  49   2.0000     -10.308317      -280.5036
  50   2.0000     -10.308245      -280.5016
  51   2.0000     -10.305846      -280.4363
  52   2.0000     -10.303220      -280.3649
  53   2.0000     -10.301849      -280.3276
  54   2.0000     -10.301162      -280.3089
  55   2.0000     -10.295679      -280.1597
  56   2.0000     -10.292195      -280.0649
  57   2.0000     -10.291887      -280.0565
  58   2.0000     -10.285230      -279.8753
  59   2.0000     -10.283886      -279.8388
  60   2.0000     -10.278931      -279.7039
  61   2.0000     -10.276004      -279.6243
  62   2.0000      -8.091011      -220.1676
  63   2.0000      -8.089323      -220.1217
  64   2.0000      -8.073765      -219.6983
  65   2.0000      -8.066759      -219.5077
  66   2.0000      -8.064888      -219.4568
  67   2.0000      -8.064126      -219.4360
  68   2.0000      -8.048104      -219.0000
  69   2.0000      -8.043395      -218.8719
  70   2.0000      -6.060289      -164.9088
  71   2.0000      -6.058700      -164.8656
  72   2.0000      -6.056145      -164.7961
  73   2.0000      -6.054255      -164.7446
  74   2.0000      -6.053305      -164.7188
  75   2.0000      -6.051757      -164.6767
  76   2.0000      -6.043015      -164.4388
  77   2.0000      -6.038420      -164.3138
  78   2.0000      -6.036335      -164.2570
  79   2.0000      -6.036258      -164.2549
  80   2.0000      -6.034524      -164.2077
  81   2.0000      -6.033437      -164.1782
  82   2.0000      -6.032105      -164.1419
  83   2.0000      -6.029880      -164.0814
  84   2.0000      -6.028839      -164.0530
  85   2.0000      -6.028387      -164.0407
  86   2.0000      -6.026819      -163.9981
  87   2.0000      -6.026604      -163.9922
  88   2.0000      -6.018335      -163.7672
  89   2.0000      -6.013921      -163.6471
  90   2.0000      -6.013870      -163.6457
  91   2.0000      -6.009574      -163.5288
  92   2.0000      -6.008518      -163.5001
  93   2.0000      -6.003215      -163.3558
  94   2.0000      -1.139820       -31.0161
  95   2.0000      -1.123042       -30.5595
  96   2.0000      -1.049555       -28.5599
  97   2.0000      -1.025274       -27.8991
  98   2.0000      -1.023394       -27.8480
  99   2.0000      -1.019137       -27.7321
 100   2.0000      -1.014215       -27.5982
 101   2.0000      -1.009940       -27.4819
 102   2.0000      -1.008365       -27.4390
 103   2.0000      -1.007606       -27.4183
 104   2.0000      -0.997386       -27.1402
 105   2.0000      -0.994647       -27.0657
 106   2.0000      -0.993077       -27.0230
 107   2.0000      -0.985026       -26.8039
 108   2.0000      -0.965495       -26.2725
 109   2.0000      -0.961261       -26.1572
 110   2.0000      -0.953800       -25.9542
 111   2.0000      -0.927164       -25.2294
 112   2.0000      -0.922608       -25.1054
 113   2.0000      -0.914614       -24.8879
 114   2.0000      -0.904326       -24.6080
 115   2.0000      -0.899146       -24.4670
 116   2.0000      -0.890366       -24.2281
 117   2.0000      -0.884060       -24.0565
 118   2.0000      -0.874435       -23.7946
 119   2.0000      -0.871765       -23.7219
 120   2.0000      -0.864915       -23.5355
 121   2.0000      -0.861656       -23.4468
 122   2.0000      -0.853352       -23.2209
 123   2.0000      -0.837697       -22.7949
 124   2.0000      -0.834657       -22.7122
 125   2.0000      -0.830932       -22.6108
 126   2.0000      -0.800709       -21.7884
 127   2.0000      -0.795720       -21.6526
 128   2.0000      -0.787948       -21.4412
 129   2.0000      -0.785592       -21.3771
 130   2.0000      -0.774620       -21.0785
 131   2.0000      -0.770786       -20.9741
 132   2.0000      -0.759046       -20.6547
 133   2.0000      -0.742890       -20.2151
 134   2.0000      -0.737737       -20.0748
 135   2.0000      -0.731044       -19.8927
 136   2.0000      -0.717313       -19.5191
 137   2.0000      -0.707688       -19.2572
 138   2.0000      -0.694191       -18.8899
 139   2.0000      -0.689381       -18.7590
 140   2.0000      -0.683293       -18.5934
 141   2.0000      -0.680182       -18.5087
 142   2.0000      -0.669594       -18.2206
 143   2.0000      -0.667255       -18.1569
 144   2.0000      -0.662705       -18.0331
 145   2.0000      -0.656639       -17.8681
 146   2.0000      -0.643325       -17.5058
 147   2.0000      -0.636051       -17.3078
 148   2.0000      -0.624808       -17.0019
 149   2.0000      -0.620309       -16.8795
 150   2.0000      -0.616521       -16.7764
 151   2.0000      -0.607780       -16.5385
 152   2.0000      -0.600685       -16.3455
 153   2.0000      -0.599193       -16.3049
 154   2.0000      -0.597589       -16.2612
 155   2.0000      -0.591093       -16.0844
 156   2.0000      -0.584932       -15.9168
 157   2.0000      -0.577817       -15.7232
 158   2.0000      -0.560826       -15.2608
 159   2.0000      -0.552449       -15.0329
 160   2.0000      -0.550291       -14.9742
 161   2.0000      -0.547869       -14.9083
 162   2.0000      -0.547340       -14.8939
 163   2.0000      -0.541611       -14.7380
 164   2.0000      -0.538135       -14.6434
 165   2.0000      -0.537151       -14.6166
 166   2.0000      -0.534241       -14.5374
 167   2.0000      -0.533814       -14.5258
 168   2.0000      -0.531440       -14.4612
 169   2.0000      -0.523603       -14.2480
 170   2.0000      -0.519842       -14.1456
 171   2.0000      -0.519347       -14.1322
 172   2.0000      -0.517454       -14.0806
 173   2.0000      -0.515763       -14.0346
 174   2.0000      -0.513665       -13.9775
 175   2.0000      -0.511801       -13.9268
 176   2.0000      -0.511360       -13.9148
 177   2.0000      -0.509655       -13.8684
 178   2.0000      -0.509174       -13.8553
 179   2.0000      -0.507722       -13.8158
 180   2.0000      -0.505292       -13.7497
 181   2.0000      -0.501214       -13.6387
 182   2.0000      -0.498566       -13.5667
 183   2.0000      -0.495743       -13.4899
 184   2.0000      -0.494485       -13.4556
 185   2.0000      -0.491241       -13.3673
 186   2.0000      -0.485218       -13.2035
 187   2.0000      -0.481348       -13.0981
 188   2.0000      -0.480579       -13.0772
 189   2.0000      -0.479521       -13.0484
 190   2.0000      -0.474342       -12.9075
 191   2.0000      -0.472151       -12.8479
 192   2.0000      -0.468010       -12.7352
 193   2.0000      -0.463335       -12.6080
 194   2.0000      -0.461825       -12.5669
 195   2.0000      -0.459739       -12.5101
 196   2.0000      -0.458147       -12.4668
 197   2.0000      -0.453283       -12.3345
 198   2.0000      -0.452336       -12.3087
 199   2.0000      -0.451008       -12.2725
 200   2.0000      -0.449163       -12.2223
 201   2.0000      -0.446276       -12.1438
 202   2.0000      -0.445125       -12.1125
 203   2.0000      -0.442808       -12.0494
 204   2.0000      -0.442504       -12.0412
 205   2.0000      -0.442103       -12.0302
 206   2.0000      -0.438175       -11.9234
 207   2.0000      -0.437304       -11.8996
 208   2.0000      -0.435284       -11.8447
 209   2.0000      -0.432357       -11.7650
 210   2.0000      -0.429649       -11.6913
 211   2.0000      -0.428516       -11.6605
 212   2.0000      -0.428203       -11.6520
 213   2.0000      -0.427268       -11.6266
 214   2.0000      -0.421817       -11.4782
 215   2.0000      -0.421423       -11.4675
 216   2.0000      -0.417607       -11.3637
 217   2.0000      -0.414618       -11.2823
 218   2.0000      -0.413641       -11.2557
 219   2.0000      -0.408225       -11.1084
 220   2.0000      -0.407225       -11.0812
 221   2.0000      -0.399646       -10.8749
 222   2.0000      -0.398481       -10.8432
 223   2.0000      -0.392534       -10.6814
 224   2.0000      -0.384284       -10.4569
 225   2.0000      -0.372860       -10.1460
 226   2.0000      -0.366989        -9.9863
 227   2.0000      -0.354551        -9.6478
 228   2.0000      -0.349893        -9.5211
 229   2.0000      -0.336968        -9.1694
 230   2.0000      -0.332877        -9.0581
 231   2.0000      -0.331171        -9.0116
 232   2.0000      -0.327155        -8.9024
 233   2.0000      -0.325392        -8.8544
 234   2.0000      -0.320504        -8.7214
 235   2.0000      -0.312124        -8.4933
 236   2.0000      -0.303956        -8.2711
 237   2.0000      -0.300973        -8.1899
 238   2.0000      -0.288784        -7.8582
 239   2.0000      -0.276747        -7.5307
 240   2.0000      -0.245246        -6.6735
 241   0.0000      -0.112784        -3.0690
 242   0.0000      -0.093720        -2.5503
 243   0.0000      -0.081900        -2.2286
 244   0.0000      -0.050211        -1.3663
 245   0.0000      -0.042916        -1.1678

MULLIKEN ATOMIC CHARGES
-----------------------
   0 C :    0.034785
   1 C :   -0.138989
   2 S :    0.154141
   3 C :   -0.313498
   4 C :    0.112001
   5 C :    0.053388
   6 C :    0.171802
   7 O :   -0.187870
   8 C :   -0.103534
   9 C :    0.310130
  10 C :   -0.342847
  11 C :   -0.195495
  12 N :    0.150904
  13 C :   -0.182506
  14 N :    0.142763
  15 C :   -0.024854
  16 C :   -0.014949
  17 C :   -0.047362
  18 C :    0.020407
  19 S :   -0.042886
  20 C :   -0.067920
  21 C :   -0.069726
  22 S :    0.191743
  23 C :   -0.084194
  24 C :   -0.068909
  25 C :    0.036966
  26 C :   -0.093345
  27 S :    0.195103
  28 C :   -0.091272
  29 C :    0.010238
  30 C :    0.299808
  31 C :   -0.296600
  32 C :   -0.191141
  33 N :    0.179758
  34 C :   -0.193339
  35 N :    0.182548
  36 C :   -0.054827
  37 C :   -0.037559
  38 S :    0.185504
  39 C :    0.001943
  40 C :   -0.079819
  41 C :    0.034732
  42 S :    0.023112
  43 C :   -0.077564
  44 C :   -0.144444
  45 S :    0.162917
  46 C :    0.059441
  47 C :   -0.154591
  48 C :    0.128317
  49 O :   -0.152783
  50 C :    0.064554
  51 C :   -0.316743
  52 S :    0.138964
  53 C :   -0.149426
  54 C :    0.028644
  55 C :    0.287135
  56 C :   -0.326865
  57 C :   -0.190956
  58 N :    0.146572
  59 C :   -0.201110
  60 N :    0.162973
  61 C :    0.116524
  62 H :    0.049656
  63 H :    0.039673
  64 H :    0.054909
  65 H :    0.040308
  66 H :    0.004989
  67 H :   -0.001028
  68 H :    0.069552
  69 H :    0.075555
  70 H :    0.075281
  71 H :    0.027257
  72 H :    0.018610
  73 H :   -0.015080
  74 H :    0.072298
  75 H :    0.070276
  76 H :    0.077980
  77 H :    0.026646
  78 H :    0.042612
  79 H :    0.048016
  80 H :    0.035063
  81 H :    0.037536
Sum of atomic charges:   -0.0000000

LOEWDIN ATOMIC CHARGES
----------------------
   0 C :   -0.062749
   1 C :   -0.148687
   2 S :    0.465356
   3 C :   -0.126596
   4 C :   -0.057943
   5 C :   -0.103966
   6 C :    0.087020
   7 O :   -0.169558
   8 C :   -0.102695
   9 C :    0.078905
  10 C :   -0.147924
  11 C :   -0.015397
  12 N :   -0.057649
  13 C :   -0.021141
  14 N :   -0.060036
  15 C :    0.053496
  16 C :   -0.180044
  17 C :   -0.043088
  18 C :   -0.200649
  19 S :    0.286054
  20 C :   -0.147686
  21 C :   -0.194766
  22 S :    0.519176
  23 C :   -0.184461
  24 C :   -0.026029
  25 C :   -0.063235
  26 C :   -0.190028
  27 S :    0.490539
  28 C :   -0.171092
  29 C :   -0.069988
  30 C :    0.080358
  31 C :   -0.098190
  32 C :   -0.018130
  33 N :   -0.027685
  34 C :   -0.017527
  35 N :   -0.028320
  36 C :   -0.023151
  37 C :   -0.180196
  38 S :    0.479224
  39 C :   -0.154052
  40 C :   -0.088328
  41 C :   -0.157777
  42 S :    0.376594
  43 C :   -0.152223
  44 C :   -0.198848
  45 S :    0.463755
  46 C :    0.029646
  47 C :   -0.096646
  48 C :    0.084778
  49 O :   -0.151697
  50 C :   -0.106427
  51 C :   -0.129458
  52 S :    0.451508
  53 C :   -0.159420
  54 C :   -0.057604
  55 C :    0.048081
  56 C :   -0.153885
  57 C :   -0.015369
  58 N :   -0.063463
  59 C :   -0.026439
  60 N :   -0.057627
  61 C :   -0.058267
  62 H :    0.035123
  63 H :    0.044191
  64 H :    0.050260
  65 H :    0.044350
  66 H :    0.050233
  67 H :    0.034991
  68 H :    0.038297
  69 H :    0.030159
  70 H :    0.031216
  71 H :    0.038495
  72 H :    0.039800
  73 H :    0.023569
  74 H :    0.038901
  75 H :    0.030416
  76 H :    0.030732
  77 H :    0.045505
  78 H :    0.032688
  79 H :    0.048138
  80 H :    0.041899
  81 H :    0.042681

  Mayer bond orders larger than 0.100000
B(  0-C ,  1-C ) :   1.5506 B(  0-C ,  5-C ) :   1.2020 B(  0-C ,  9-C ) :   0.9915
B(  1-C ,  2-S ) :   1.1567 B(  1-C , 62-H ) :   0.9558 B(  2-S ,  3-C ) :   1.1641
B(  3-C ,  4-C ) :   1.0868 B(  3-C ,  5-C ) :   1.5432 B(  4-C , 63-H ) :   0.9419
B(  4-C , 64-H ) :   0.9459 B(  4-C , 65-H ) :   0.9422 B(  5-C ,  6-C ) :   0.9893
B(  6-C ,  7-O ) :   2.0779 B(  6-C ,  8-C ) :   0.9868 B(  8-C ,  9-C ) :   1.0884
B(  8-C , 15-C ) :   1.5138 B(  9-C , 10-C ) :   1.6269 B( 10-C , 11-C ) :   1.1532
B( 10-C , 13-C ) :   1.1434 B( 11-C , 12-N ) :   2.9900 B( 13-C , 14-N ) :   2.9570
B( 15-C , 16-C ) :   1.2421 B( 15-C , 66-H ) :   0.9414 B( 16-C , 17-C ) :   1.3651
B( 16-C , 22-S ) :   1.0932 B( 17-C , 18-C ) :   1.3124 B( 17-C , 67-H ) :   1.0051
B( 18-C , 19-S ) :   1.0074 B( 18-C , 21-C ) :   1.4087 B( 19-S , 20-C ) :   1.0157
B( 20-C , 68-H ) :   0.9693 B( 20-C , 69-H ) :   0.9659 B( 20-C , 70-H ) :   0.9663
B( 21-C , 22-S ) :   1.1178 B( 21-C , 23-C ) :   1.2066 B( 23-C , 24-C ) :   1.4148
B( 23-C , 27-S ) :   1.1052 B( 24-C , 25-C ) :   1.3300 B( 24-C , 71-H ) :   0.9882
B( 25-C , 26-C ) :   1.4129 B( 25-C , 30-C ) :   0.9870 B( 26-C , 27-S ) :   1.1266
B( 26-C , 28-C ) :   1.1901 B( 28-C , 29-C ) :   1.4336 B( 28-C , 38-S ) :   1.1291
B( 29-C , 30-C ) :   0.9977 B( 29-C , 36-C ) :   1.2952 B( 30-C , 31-C ) :   1.7180
B( 31-C , 32-C ) :   1.1357 B( 31-C , 34-C ) :   1.1334 B( 32-C , 33-N ) :   2.9939
B( 34-C , 35-N ) :   2.9961 B( 36-C , 37-C ) :   1.4591 B( 36-C , 72-H ) :   0.9908
B( 37-C , 38-S ) :   1.0962 B( 37-C , 39-C ) :   1.1628 B( 39-C , 40-C ) :   1.4782
B( 39-C , 45-S ) :   1.1464 B( 40-C , 41-C ) :   1.2639 B( 40-C , 73-H ) :   0.9893
B( 41-C , 42-S ) :   1.0696 B( 41-C , 44-C ) :   1.4352 B( 42-S , 43-C ) :   1.0139
B( 43-C , 74-H ) :   0.9695 B( 43-C , 75-H ) :   0.9655 B( 43-C , 76-H ) :   0.9633
B( 44-C , 45-S ) :   1.0919 B( 44-C , 46-C ) :   1.1841 B( 46-C , 47-C ) :   1.6185
B( 46-C , 77-H ) :   0.9231 B( 47-C , 48-C ) :   0.9542 B( 47-C , 55-C ) :   1.0849
B( 48-C , 49-O ) :   2.2219 B( 48-C , 50-C ) :   0.9458 B( 50-C , 51-C ) :   1.5559
B( 50-C , 54-C ) :   1.2025 B( 51-C , 52-S ) :   1.1621 B( 51-C , 61-C ) :   1.0866
B( 52-S , 53-C ) :   1.1428 B( 53-C , 54-C ) :   1.5642 B( 53-C , 78-H ) :   0.9589
B( 54-C , 55-C ) :   1.0020 B( 55-C , 56-C ) :   1.6027 B( 56-C , 57-C ) :   1.1472
B( 56-C , 59-C ) :   1.1611 B( 57-C , 58-N ) :   2.9999 B( 59-C , 60-N ) :   3.0090
B( 61-C , 79-H ) :   0.9456 B( 61-C , 80-H ) :   0.9427 B( 61-C , 81-H ) :   0.9431

-----------------------------------------------------------------------------
         ABSORPTION SPECTRUM VIA TRANSITION ELECTRIC DIPOLE MOMENTS
-----------------------------------------------------------------------------
State   Energy  Wavelength   fosc         T2         TX        TY        TZ
        (cm-1)    (nm)                  (au**2)     (au)      (au)      (au)
-----------------------------------------------------------------------------
   0   11698.1    854.8   0.379504674  10.68012   2.32134  -1.91996   1.26700
   1   17769.9    562.8   1.753740911  32.49055  -4.14334   3.57053  -1.60457
   2   21121.1    473.5   0.082578199   1.28714   0.70800  -0.87635   0.13374
   3   21427.9    466.7   0.195785648   3.00800  -1.02701   1.25532  -0.61434
   4   25058.9    399.1   0.046812420   0.61500  -0.37421   0.17987   0.66529
   5   25761.1    388.2   0.011189776   0.14300  -0.32849   0.18706   0.00993
   6   27128.8    368.6   0.048584314   0.58958  -0.57514   0.40905  -0.30245
   7   27341.1    365.7   0.018812139   0.22652   0.44766  -0.06917  -0.14606
   8   27734.0    360.6   0.008504415   0.10095   0.18891  -0.06687  -0.24656
   9   28113.1    355.7   0.030251718   0.35426  -0.02411   0.54774  -0.23164
  10   28173.5    354.9   0.008273689   0.09668   0.10236  -0.26990   0.11557
  11   28826.9    346.9   0.101119048   1.15481   0.62078   0.36740   0.79653
  12   29562.6    338.3   0.093691440   1.04336  -0.63618   0.27439  -0.75056
  13   29917.7    334.3   0.045840687   0.50443   0.08539  -0.47645  -0.51974
  14   30434.9    328.6   0.008430529   0.09119  -0.04112   0.18404   0.23586
  15   30766.6    325.0   0.051953416   0.55592   0.55106  -0.50052   0.04157
  16   31150.6    321.0   0.122145323   1.29088  -0.87733   0.51226  -0.50869
  17   31472.7    317.7   0.834526732   8.72934   1.49097  -0.70384  -2.45172
  18   32448.7    308.2   0.120068108   1.21816   0.53323  -0.63621   0.72737
  19   32703.5    305.8   0.067777890   0.68229   0.49437  -0.33830  -0.56872
  20   32889.7    304.0   0.008879102   0.08888   0.23624  -0.15655  -0.09252
  21   33666.0    297.0   0.120502389   1.17837   1.01003  -0.33977   0.20677
  22   33820.8    295.7   0.121951135   1.18707  -0.84129   0.47191  -0.50656
  23   34192.6    292.5   0.192300632   1.85150  -1.01480   0.24476  -0.87280
  24   34547.1    289.5   0.096118435   0.91595  -0.73247   0.02758   0.61537
  25   35141.4    284.6   0.000103125   0.00097   0.02811   0.01257   0.00420
  26   35185.9    284.2   0.051513527   0.48198   0.66059  -0.14467   0.15706
  27   35812.6    279.2   0.142499703   1.30995   0.73852   0.01376   0.87427
  28   35983.7    277.9   0.133691305   1.22313   0.95059  -0.45504  -0.33535
  29   36030.2    277.5   0.064662676   0.59083  -0.63488   0.35897   0.24271
  30   36198.5    276.3   0.056137553   0.51055   0.17700  -0.23299   0.65187
  31   36516.6    273.8   0.030091748   0.27129   0.43339  -0.26539  -0.11415
  32   36668.5    272.7   0.030942376   0.27780   0.40402  -0.08883   0.32662
  33   37272.6    268.3   0.041639717   0.36778   0.29199  -0.17086  -0.50332
  34   37544.3    266.4   0.496375773   4.35254   0.31616  -0.08040  -2.06061
  35   37752.9    264.9   0.167707411   1.46244   0.86944   0.11269   0.83296
  36   38040.3    262.9   0.076952718   0.66597   0.21408  -0.15464   0.77216
  37   38191.1    261.8   0.091333607   0.78731   0.68896  -0.22274   0.51286
  38   38569.3    259.3   0.156618881   1.33683  -0.03017  -0.03563   1.15527
  39   38646.8    258.8   0.012713829   0.10830   0.10393   0.10260  -0.29491
  40   38754.8    258.0   0.051132242   0.43435   0.51808  -0.00225   0.40736
  41   39356.8    254.1   0.004143239   0.03466  -0.04862  -0.17158   0.05343
  42   39624.9    252.4   0.169443476   1.40777   0.52638  -0.84519  -0.64525
  43   40171.3    248.9   0.032980557   0.27028   0.29134   0.06451   0.42572

FINAL SINGLE POINT ENERGY     -5425.438324648523

DIPOLE MOMENT
-------------
                                X             Y             Z
Electronic contribution:    -13.73841       1.06669       3.46822
Nuclear contribution   :     15.71261      -0.26036      -4.38707
                        -----------------------------------------
Total Dipole Moment    :      1.97419       0.80632      -0.91885
                        -----------------------------------------
Magnitude (a.u.)       :      2.32204
Magnitude (Debye)      :      5.90216

Rotational constants in cm-1:     0.003204     0.000263     0.000246
Rotational constants in MHz :    96.065228     7.872017     7.380048

                             ****ORCA TERMINATED NORMALLY****
TOTAL RUN TIME: 0 days 0 hours 7 minutes 16 seconds 771 msec
