                         Program Version 4.2.0 -  RELEASE  -
|  1> # ORCA input file
|  2> # SCF done       -210.181252114121          0.000903523129
|  3> ! CAM-B3LYP def2-SVP def2/J RIJCOSX Grid4 TightSCF
|  4> %maxcore 5000
|  5> %tddft
|  6>     Mode sTDDFT
|  7>     Ethresh 5.0
|  8>     maxcore 5000
|  9> end
| 10>
| 11> %pal
| 12>   nprocs 6
| 13>   end
| 14> * xyz 0 1
| 15>    C       -7.62303        -4.63001        -5.60020
| 16>    O       -6.97973        -5.62557        -5.34628
| 17>    C       -8.03928        -4.20812        -6.95764
| 18>    C       -8.82290        -3.04595        -6.87766
| 19>    C       -9.30571        -2.46591        -8.04256
| 20>    C       -9.00208        -3.05799        -9.25918
| 21>    C       -8.23248        -4.21258        -9.31201
| 22>    C       -7.73595        -4.80925        -8.16153
| 23>   Br       -7.84731        -4.99029       -11.00235
| 24>    C       -8.96626        -2.67868        -5.47124
| 25>    C       -9.79048        -1.69023        -5.00117
| 26>    C      -10.56492        -0.85081        -5.83035
| 27>    N      -11.21361        -0.13170        -6.44676
| 28>    C      -10.03468        -1.38401        -3.64455
| 29>    N      -10.31946        -1.07938        -2.57445
| 30>    C       -8.14818        -3.59157        -4.68705
| 31>    C       -7.85345        -3.38762        -3.36504
| 32>    C       -7.08497        -4.13449        -2.44912
| 33>    C       -6.50825        -5.38432        -2.51623
| 34>    C       -5.81861        -5.74268        -1.34693
| 35>    C       -5.87173        -4.73877        -0.35552
| 36>    S       -6.79174        -3.37041        -0.88048
| 37>    C       -5.24917        -4.84483         0.88090
| 38>    O       -5.41296        -3.76126         1.68706
| 39>    C       -5.25584        -3.84106         3.08389
| 40>    C       -4.51351        -6.02065         1.11608
| 41>    C       -4.48840        -7.05774         0.12602
| 42>    C       -5.12653        -6.95545        -1.09768
| 43>    O       -5.19076        -7.84445        -2.11123
| 44>    C       -4.53679        -9.08856        -2.04376
| 45>    S       -3.51190        -8.41191         0.68216
| 46>    C       -3.11708        -7.58316         2.16432
| 47>    C       -3.71794        -6.35996         2.23918
| 48>    C       -2.24535        -8.17993         3.11475
| 49>    C       -1.64586        -9.42113         3.06106
| 50>    C       -0.81934        -9.69650         4.15340
| 51>    C       -0.79866        -8.62590         5.05143
| 52>    S       -1.78787        -7.30929         4.56060
| 53>    C        0.03244        -8.78698         6.18756
| 54>    C        0.72068       -10.00133         6.26963
| 55>   Si        0.29351       -11.06626         4.78680
| 56>    C       -0.64515       -12.62199         5.23888
| 57>    C        1.76137       -11.40117         3.67419
| 58>    C        1.52801       -10.04399         7.40843
| 59>    C        1.46807        -8.89941         8.17748
| 60>    S        0.37394        -7.72184         7.49224
| 61>    C        2.18364        -8.60257         9.36775
| 62>    C        2.15770        -7.45262        10.10435
| 63>    C        3.02089        -7.46762        11.22135
| 64>    C        3.73995        -8.68419        11.34468
| 65>    S        3.28883        -9.77695        10.04612
| 66>    C        4.66058        -8.87815        12.36190
| 67>    O        5.42964        -9.95932        12.61984
| 68>    C        5.39789       -11.07931        11.76658
| 69>    C        4.82897        -7.80513        13.26843
| 70>    C        4.09492        -6.59304        13.15149
| 71>    C        3.18909        -6.39522        12.12603
| 72>    O        2.42694        -5.30520        11.86137
| 73>    C        2.68070        -4.09056        12.52819
| 74>    S        4.53517        -5.50120        14.44815
| 75>    C        5.72662        -6.62944        15.07437
| 76>    C        5.71769        -7.80020        14.35824
| 77>    C        6.50346        -6.36895        16.22634
| 78>    C        6.75864        -5.17793        16.83699
| 79>    C        7.17512        -5.14953        18.26197
| 80>    O        7.56723        -6.07715        18.93021
| 81>    C        6.94245        -3.75134        18.69651
| 82>    C        6.54582        -2.97394        17.59218
| 83>    C        6.57867        -3.81246        16.39688
| 84>    C        6.70320        -3.35769        15.10963
| 85>    C        6.55326        -2.00859        14.73534
| 86>    N        6.40629        -0.92745        14.37795
| 87>    C        7.10181        -4.18330        14.03644
| 88>    N        7.49395        -4.79740        13.14938
| 89>    C        6.24630        -1.63139        17.76530
| 90>    C        6.35126        -1.08429        19.03528
| 91>    C        6.75773        -1.86514        20.10933
| 92>    C        7.05974        -3.21247        19.96083
| 93>   Br        6.90047        -1.06713        21.82794
| 94>    H       -9.90118        -1.56826        -8.02602
| 95>    H       -9.36674        -2.61792       -10.17466
| 96>    H       -7.13500        -5.70476        -8.19531
| 97>    H       -8.24282        -2.47309        -2.93224
| 98>    H       -6.57104        -6.02311        -3.37737
| 99>    H       -5.82841        -3.00492         3.48633
|100>    H       -4.20834        -3.71986         3.37659
|101>    H       -5.65362        -4.77623         3.48530
|102>    H       -4.77120        -9.58239        -2.98589
|103>    H       -4.90720        -9.69809        -1.21526
|104>    H       -3.45325        -8.97312        -1.95796
|105>    H       -3.55315        -5.72407         3.08759
|106>    H       -1.81106       -10.09813         2.24106
|107>    H       -1.49870       -12.41751         5.88237
|108>    H       -0.01151       -13.33315         5.76475
|109>    H       -1.02554       -13.13060         4.35542
|110>    H        2.30533       -10.49272         3.42281
|111>    H        1.45668       -11.86113         2.73638
|112>    H        2.47149       -12.07941         4.14279
|113>    H        2.15245       -10.87832         7.67693
|114>    H        1.54381        -6.60554         9.85893
|115>    H        5.70606       -10.82061        10.75048
|116>    H        4.40726       -11.54077        11.74177
|117>    H        6.11228       -11.78311        12.19141
|118>    H        2.44648        -4.15482        13.59440
|119>    H        2.01952        -3.36267        12.06011
|120>    H        3.71801        -3.77047        12.39943
|121>    H        6.36206        -8.63087        14.58148
|122>    H        6.87960        -7.24679        16.74257
|123>    H        5.92625        -1.01413        16.94138
|124>    H        6.11745        -0.04246        19.19226
|125>    H        7.37591        -3.82057        20.79415
|126> *
|127>
|128>                          ****END OF INPUT****

CARTESIAN COORDINATES (ANGSTROEM)
---------------------------------
  C     -7.623030   -4.630010   -5.600200
  O     -6.979730   -5.625570   -5.346280
  C     -8.039280   -4.208120   -6.957640
  C     -8.822900   -3.045950   -6.877660
  C     -9.305710   -2.465910   -8.042560
  C     -9.002080   -3.057990   -9.259180
  C     -8.232480   -4.212580   -9.312010
  C     -7.735950   -4.809250   -8.161530
  Br    -7.847310   -4.990290  -11.002350
  C     -8.966260   -2.678680   -5.471240
  C     -9.790480   -1.690230   -5.001170
  C    -10.564920   -0.850810   -5.830350
  N    -11.213610   -0.131700   -6.446760
  C    -10.034680   -1.384010   -3.644550
  N    -10.319460   -1.079380   -2.574450
  C     -8.148180   -3.591570   -4.687050
  C     -7.853450   -3.387620   -3.365040
  C     -7.084970   -4.134490   -2.449120
  C     -6.508250   -5.384320   -2.516230
  C     -5.818610   -5.742680   -1.346930
  C     -5.871730   -4.738770   -0.355520
  S     -6.791740   -3.370410   -0.880480
  C     -5.249170   -4.844830    0.880900
  O     -5.412960   -3.761260    1.687060
  C     -5.255840   -3.841060    3.083890
  C     -4.513510   -6.020650    1.116080
  C     -4.488400   -7.057740    0.126020
  C     -5.126530   -6.955450   -1.097680
  O     -5.190760   -7.844450   -2.111230
  C     -4.536790   -9.088560   -2.043760
  S     -3.511900   -8.411910    0.682160
  C     -3.117080   -7.583160    2.164320
  C     -3.717940   -6.359960    2.239180
  C     -2.245350   -8.179930    3.114750
  C     -1.645860   -9.421130    3.061060
  C     -0.819340   -9.696500    4.153400
  C     -0.798660   -8.625900    5.051430
  S     -1.787870   -7.309290    4.560600
  C      0.032440   -8.786980    6.187560
  C      0.720680  -10.001330    6.269630
  Si     0.293510  -11.066260    4.786800
  C     -0.645150  -12.621990    5.238880
  C      1.761370  -11.401170    3.674190
  C      1.528010  -10.043990    7.408430
  C      1.468070   -8.899410    8.177480
  S      0.373940   -7.721840    7.492240
  C      2.183640   -8.602570    9.367750
  C      2.157700   -7.452620   10.104350
  C      3.020890   -7.467620   11.221350
  C      3.739950   -8.684190   11.344680
  S      3.288830   -9.776950   10.046120
  C      4.660580   -8.878150   12.361900
  O      5.429640   -9.959320   12.619840
  C      5.397890  -11.079310   11.766580
  C      4.828970   -7.805130   13.268430
  C      4.094920   -6.593040   13.151490
  C      3.189090   -6.395220   12.126030
  O      2.426940   -5.305200   11.861370
  C      2.680700   -4.090560   12.528190
  S      4.535170   -5.501200   14.448150
  C      5.726620   -6.629440   15.074370
  C      5.717690   -7.800200   14.358240
  C      6.503460   -6.368950   16.226340
  C      6.758640   -5.177930   16.836990
  C      7.175120   -5.149530   18.261970
  O      7.567230   -6.077150   18.930210
  C      6.942450   -3.751340   18.696510
  C      6.545820   -2.973940   17.592180
  C      6.578670   -3.812460   16.396880
  C      6.703200   -3.357690   15.109630
  C      6.553260   -2.008590   14.735340
  N      6.406290   -0.927450   14.377950
  C      7.101810   -4.183300   14.036440
  N      7.493950   -4.797400   13.149380
  C      6.246300   -1.631390   17.765300
  C      6.351260   -1.084290   19.035280
  C      6.757730   -1.865140   20.109330
  C      7.059740   -3.212470   19.960830
  Br     6.900470   -1.067130   21.827940
  H     -9.901180   -1.568260   -8.026020
  H     -9.366740   -2.617920  -10.174660
  H     -7.135000   -5.704760   -8.195310
  H     -8.242820   -2.473090   -2.932240
  H     -6.571040   -6.023110   -3.377370
  H     -5.828410   -3.004920    3.486330
  H     -4.208340   -3.719860    3.376590
  H     -5.653620   -4.776230    3.485300
  H     -4.771200   -9.582390   -2.985890
  H     -4.907200   -9.698090   -1.215260
  H     -3.453250   -8.973120   -1.957960
  H     -3.553150   -5.724070    3.087590
  H     -1.811060  -10.098130    2.241060
  H     -1.498700  -12.417510    5.882370
  H     -0.011510  -13.333150    5.764750
  H     -1.025540  -13.130600    4.355420
  H      2.305330  -10.492720    3.422810
  H      1.456680  -11.861130    2.736380
  H      2.471490  -12.079410    4.142790
  H      2.152450  -10.878320    7.676930
  H      1.543810   -6.605540    9.858930
  H      5.706060  -10.820610   10.750480
  H      4.407260  -11.540770   11.741770
  H      6.112280  -11.783110   12.191410
  H      2.446480   -4.154820   13.594400
  H      2.019520   -3.362670   12.060110
  H      3.718010   -3.770470   12.399430
  H      6.362060   -8.630870   14.581480
  H      6.879600   -7.246790   16.742570
  H      5.926250   -1.014130   16.941380
  H      6.117450   -0.042460   19.192260
  H      7.375910   -3.820570   20.794150

 Total Charge           Charge          ....    0
 Multiplicity           Mult            ....    1
 Number of Electrons    NEL             ....  648
 Basis Dimension        Dim             .... 1330

ORBITAL ENERGIES
----------------

  NO   OCC          E(Eh)            E(eV)
   0   2.0000    -482.870379    -13139.5710
   1   2.0000    -482.869729    -13139.5533
   2   2.0000     -88.971087     -2421.0264
   3   2.0000     -88.970085     -2420.9991
   4   2.0000     -88.960941     -2420.7503
   5   2.0000     -88.958561     -2420.6855
   6   2.0000     -88.956558     -2420.6310
   7   2.0000     -88.949190     -2420.4305
   8   2.0000     -66.203078     -1801.4773
   9   2.0000     -62.548105     -1702.0205
  10   2.0000     -62.547441     -1702.0024
  11   2.0000     -56.381942     -1534.2306
  12   2.0000     -56.381270     -1534.2124
  13   2.0000     -56.379416     -1534.1619
  14   2.0000     -56.379414     -1534.1619
  15   2.0000     -56.378757     -1534.1440
  16   2.0000     -56.378750     -1534.1438
  17   2.0000     -19.262127      -524.1491
  18   2.0000     -19.257413      -524.0208
  19   2.0000     -19.252447      -523.8857
  20   2.0000     -19.250317      -523.8277
  21   2.0000     -19.218589      -522.9644
  22   2.0000     -19.216200      -522.8994
  23   2.0000     -14.416351      -392.2889
  24   2.0000     -14.412650      -392.1881
  25   2.0000     -14.411292      -392.1512
  26   2.0000     -14.408368      -392.0716
  27   2.0000     -10.369191      -282.1600
  28   2.0000     -10.367457      -282.1129
  29   2.0000     -10.353308      -281.7278
  30   2.0000     -10.349719      -281.6302
  31   2.0000     -10.343177      -281.4521
  32   2.0000     -10.342865      -281.4437
  33   2.0000     -10.342680      -281.4386
  34   2.0000     -10.341835      -281.4156
  35   2.0000     -10.339927      -281.3637
  36   2.0000     -10.339790      -281.3600
  37   2.0000     -10.339778      -281.3597
  38   2.0000     -10.338855      -281.3346
  39   2.0000     -10.334018      -281.2029
  40   2.0000     -10.330325      -281.1024
  41   2.0000     -10.328982      -281.0659
  42   2.0000     -10.325878      -280.9814
  43   2.0000     -10.319391      -280.8049
  44   2.0000     -10.319231      -280.8005
  45   2.0000     -10.318861      -280.7905
  46   2.0000     -10.318713      -280.7864
  47   2.0000     -10.318188      -280.7722
  48   2.0000     -10.316334      -280.7217
  49   2.0000     -10.315455      -280.6978
  50   2.0000     -10.315212      -280.6912
  51   2.0000     -10.314423      -280.6697
  52   2.0000     -10.313966      -280.6573
  53   2.0000     -10.313291      -280.6389
  54   2.0000     -10.312844      -280.6267
  55   2.0000     -10.312523      -280.6180
  56   2.0000     -10.312204      -280.6093
  57   2.0000     -10.311693      -280.5954
  58   2.0000     -10.311240      -280.5831
  59   2.0000     -10.309524      -280.5364
  60   2.0000     -10.306651      -280.4582
  61   2.0000     -10.306490      -280.4538
  62   2.0000     -10.302963      -280.3579
  63   2.0000     -10.302845      -280.3547
  64   2.0000     -10.302236      -280.3381
  65   2.0000     -10.301327      -280.3134
  66   2.0000     -10.300912      -280.3021
  67   2.0000     -10.300354      -280.2869
  68   2.0000     -10.300049      -280.2786
  69   2.0000     -10.298987      -280.2497
  70   2.0000     -10.297943      -280.2213
  71   2.0000     -10.297028      -280.1964
  72   2.0000     -10.296065      -280.1702
  73   2.0000     -10.295272      -280.1486
  74   2.0000     -10.294786      -280.1354
  75   2.0000     -10.292494      -280.0730
  76   2.0000     -10.289100      -279.9806
  77   2.0000     -10.287567      -279.9389
  78   2.0000     -10.286663      -279.9143
  79   2.0000     -10.283853      -279.8379
  80   2.0000     -10.282942      -279.8131
  81   2.0000     -10.282601      -279.8038
  82   2.0000     -10.279080      -279.7080
  83   2.0000     -10.263901      -279.2949
  84   2.0000     -10.263622      -279.2874
  85   2.0000     -10.257827      -279.1297
  86   2.0000     -10.257792      -279.1287
  87   2.0000      -8.777391      -238.8450
  88   2.0000      -8.776722      -238.8268
  89   2.0000      -8.066422      -219.4985
  90   2.0000      -8.065392      -219.4705
  91   2.0000      -8.055784      -219.2090
  92   2.0000      -8.053607      -219.1498
  93   2.0000      -8.051099      -219.0816
  94   2.0000      -8.044409      -218.8995
  95   2.0000      -6.613244      -179.9555
  96   2.0000      -6.612535      -179.9362
  97   2.0000      -6.599481      -179.5810
  98   2.0000      -6.599086      -179.5702
  99   2.0000      -6.598837      -179.5635
 100   2.0000      -6.598435      -179.5525
 101   2.0000      -6.035629      -164.2378
 102   2.0000      -6.034599      -164.2098
 103   2.0000      -6.031674      -164.1302
 104   2.0000      -6.030620      -164.1015
 105   2.0000      -6.028550      -164.0452
 106   2.0000      -6.027543      -164.0178
 107   2.0000      -6.025725      -163.9683
 108   2.0000      -6.023573      -163.9097
 109   2.0000      -6.021406      -163.8508
 110   2.0000      -6.021096      -163.8423
 111   2.0000      -6.019263      -163.7925
 112   2.0000      -6.016812      -163.7258
 113   2.0000      -6.016771      -163.7247
 114   2.0000      -6.014528      -163.6636
 115   2.0000      -6.013986      -163.6489
 116   2.0000      -6.011997      -163.5948
 117   2.0000      -6.009970      -163.5396
 118   2.0000      -6.005774      -163.4254
 119   2.0000      -5.369424      -146.1095
 120   2.0000      -3.732888      -101.5771
 121   2.0000      -3.731544      -101.5405
 122   2.0000      -3.730416      -101.5098
 123   2.0000      -2.729138       -74.2636
 124   2.0000      -2.728481       -74.2457
 125   2.0000      -2.725407       -74.1621
 126   2.0000      -2.725122       -74.1543
 127   2.0000      -2.724731       -74.1437
 128   2.0000      -2.724397       -74.1346
 129   2.0000      -2.714181       -73.8566
 130   2.0000      -2.714166       -73.8562
 131   2.0000      -2.713527       -73.8388
 132   2.0000      -2.713517       -73.8385
 133   2.0000      -1.167616       -31.7724
 134   2.0000      -1.163443       -31.6589
 135   2.0000      -1.157570       -31.4991
 136   2.0000      -1.153586       -31.3907
 137   2.0000      -1.133452       -30.8428
 138   2.0000      -1.131376       -30.7863
 139   2.0000      -1.019164       -27.7329
 140   2.0000      -1.016895       -27.6711
 141   2.0000      -1.010810       -27.5055
 142   2.0000      -1.004818       -27.3425
 143   2.0000      -0.999786       -27.2056
 144   2.0000      -0.999375       -27.1944
 145   2.0000      -0.998448       -27.1691
 146   2.0000      -0.992362       -27.0035
 147   2.0000      -0.990463       -26.9519
 148   2.0000      -0.988549       -26.8998
 149   2.0000      -0.981906       -26.7190
 150   2.0000      -0.971763       -26.4430
 151   2.0000      -0.962168       -26.1819
 152   2.0000      -0.960796       -26.1446
 153   2.0000      -0.925553       -25.1856
 154   2.0000      -0.920579       -25.0502
 155   2.0000      -0.908247       -24.7146
 156   2.0000      -0.907259       -24.6878
 157   2.0000      -0.898491       -24.4492
 158   2.0000      -0.893907       -24.3244
 159   2.0000      -0.883570       -24.0432
 160   2.0000      -0.882182       -24.0054
 161   2.0000      -0.880601       -23.9624
 162   2.0000      -0.872906       -23.7530
 163   2.0000      -0.867532       -23.6067
 164   2.0000      -0.853873       -23.2351
 165   2.0000      -0.852631       -23.2013
 166   2.0000      -0.850846       -23.1527
 167   2.0000      -0.848370       -23.0853
 168   2.0000      -0.842211       -22.9177
 169   2.0000      -0.833882       -22.6911
 170   2.0000      -0.829806       -22.5802
 171   2.0000      -0.819721       -22.3057
 172   2.0000      -0.812741       -22.1158
 173   2.0000      -0.811278       -22.0760
 174   2.0000      -0.806065       -21.9341
 175   2.0000      -0.804533       -21.8925
 176   2.0000      -0.800671       -21.7874
 177   2.0000      -0.790694       -21.5159
 178   2.0000      -0.777191       -21.1484
 179   2.0000      -0.776459       -21.1285
 180   2.0000      -0.766492       -20.8573
 181   2.0000      -0.765052       -20.8181
 182   2.0000      -0.762795       -20.7567
 183   2.0000      -0.752893       -20.4873
 184   2.0000      -0.748919       -20.3791
 185   2.0000      -0.734347       -19.9826
 186   2.0000      -0.714323       -19.4377
 187   2.0000      -0.703565       -19.1450
 188   2.0000      -0.697121       -18.9696
 189   2.0000      -0.694452       -18.8970
 190   2.0000      -0.689344       -18.7580
 191   2.0000      -0.687271       -18.7016
 192   2.0000      -0.681145       -18.5349
 193   2.0000      -0.677622       -18.4390
 194   2.0000      -0.675217       -18.3736
 195   2.0000      -0.674383       -18.3509
 196   2.0000      -0.666153       -18.1269
 197   2.0000      -0.665610       -18.1122
 198   2.0000      -0.649132       -17.6638
 199   2.0000      -0.645473       -17.5642
 200   2.0000      -0.640167       -17.4198
 201   2.0000      -0.635950       -17.3051
 202   2.0000      -0.624250       -16.9867
 203   2.0000      -0.617721       -16.8090
 204   2.0000      -0.616929       -16.7875
 205   2.0000      -0.615571       -16.7505
 206   2.0000      -0.612854       -16.6766
 207   2.0000      -0.612409       -16.6645
 208   2.0000      -0.608613       -16.5612
 209   2.0000      -0.600970       -16.3532
 210   2.0000      -0.596136       -16.2217
 211   2.0000      -0.594732       -16.1835
 212   2.0000      -0.591221       -16.0879
 213   2.0000      -0.587959       -15.9992
 214   2.0000      -0.583833       -15.8869
 215   2.0000      -0.578869       -15.7518
 216   2.0000      -0.571231       -15.5440
 217   2.0000      -0.567915       -15.4537
 218   2.0000      -0.564608       -15.3638
 219   2.0000      -0.560229       -15.2446
 220   2.0000      -0.559574       -15.2268
 221   2.0000      -0.557352       -15.1663
 222   2.0000      -0.556388       -15.1401
 223   2.0000      -0.550232       -14.9726
 224   2.0000      -0.545181       -14.8351
 225   2.0000      -0.544203       -14.8085
 226   2.0000      -0.543505       -14.7895
 227   2.0000      -0.540243       -14.7007
 228   2.0000      -0.537159       -14.6168
 229   2.0000      -0.536980       -14.6120
 230   2.0000      -0.535075       -14.5601
 231   2.0000      -0.534812       -14.5530
 232   2.0000      -0.531132       -14.4528
 233   2.0000      -0.529479       -14.4079
 234   2.0000      -0.524618       -14.2756
 235   2.0000      -0.522541       -14.2191
 236   2.0000      -0.520290       -14.1578
 237   2.0000      -0.515885       -14.0379
 238   2.0000      -0.514059       -13.9883
 239   2.0000      -0.513433       -13.9712
 240   2.0000      -0.510064       -13.8795
 241   2.0000      -0.508024       -13.8240
 242   2.0000      -0.504318       -13.7232
 243   2.0000      -0.501631       -13.6501
 244   2.0000      -0.498449       -13.5635
 245   2.0000      -0.496355       -13.5065
 246   2.0000      -0.494474       -13.4553
 247   2.0000      -0.493751       -13.4357
 248   2.0000      -0.493157       -13.4195
 249   2.0000      -0.492208       -13.3937
 250   2.0000      -0.490724       -13.3533
 251   2.0000      -0.487943       -13.2776
 252   2.0000      -0.485780       -13.2188
 253   2.0000      -0.481210       -13.0944
 254   2.0000      -0.479670       -13.0525
 255   2.0000      -0.479406       -13.0453
 256   2.0000      -0.476291       -12.9605
 257   2.0000      -0.474891       -12.9224
 258   2.0000      -0.472907       -12.8685
 259   2.0000      -0.470141       -12.7932
 260   2.0000      -0.467178       -12.7126
 261   2.0000      -0.465275       -12.6608
 262   2.0000      -0.462484       -12.5848
 263   2.0000      -0.461912       -12.5693
 264   2.0000      -0.458752       -12.4833
 265   2.0000      -0.457463       -12.4482
 266   2.0000      -0.457063       -12.4373
 267   2.0000      -0.451781       -12.2936
 268   2.0000      -0.449274       -12.2254
 269   2.0000      -0.447797       -12.1852
 270   2.0000      -0.445830       -12.1316
 271   2.0000      -0.445430       -12.1208
 272   2.0000      -0.444589       -12.0979
 273   2.0000      -0.444243       -12.0885
 274   2.0000      -0.441311       -12.0087
 275   2.0000      -0.440018       -11.9735
 276   2.0000      -0.439692       -11.9646
 277   2.0000      -0.438991       -11.9455
 278   2.0000      -0.436474       -11.8771
 279   2.0000      -0.432818       -11.7776
 280   2.0000      -0.429957       -11.6997
 281   2.0000      -0.426419       -11.6035
 282   2.0000      -0.423856       -11.5337
 283   2.0000      -0.421853       -11.4792
 284   2.0000      -0.421639       -11.4734
 285   2.0000      -0.420086       -11.4311
 286   2.0000      -0.418113       -11.3774
 287   2.0000      -0.417545       -11.3620
 288   2.0000      -0.415305       -11.3010
 289   2.0000      -0.411964       -11.2101
 290   2.0000      -0.407857       -11.0983
 291   2.0000      -0.405880       -11.0446
 292   2.0000      -0.404841       -11.0163
 293   2.0000      -0.404198       -10.9988
 294   2.0000      -0.403357       -10.9759
 295   2.0000      -0.400204       -10.8901
 296   2.0000      -0.392687       -10.6856
 297   2.0000      -0.387279       -10.5384
 298   2.0000      -0.386989       -10.5305
 299   2.0000      -0.384930       -10.4745
 300   2.0000      -0.383950       -10.4478
 301   2.0000      -0.365792        -9.9537
 302   2.0000      -0.364568        -9.9204
 303   2.0000      -0.364392        -9.9156
 304   2.0000      -0.359695        -9.7878
 305   2.0000      -0.351677        -9.5696
 306   2.0000      -0.349733        -9.5167
 307   2.0000      -0.347972        -9.4688
 308   2.0000      -0.345953        -9.4139
 309   2.0000      -0.342702        -9.3254
 310   2.0000      -0.337947        -9.1960
 311   2.0000      -0.336401        -9.1539
 312   2.0000      -0.335251        -9.1226
 313   2.0000      -0.333344        -9.0707
 314   2.0000      -0.330880        -9.0037
 315   2.0000      -0.327575        -8.9138
 316   2.0000      -0.313794        -8.5388
 317   2.0000      -0.308396        -8.3919
 318   2.0000      -0.304914        -8.2971
 319   2.0000      -0.291386        -7.9290
 320   2.0000      -0.283081        -7.7030
 321   2.0000      -0.258429        -7.0322
 322   2.0000      -0.240061        -6.5324
 323   2.0000      -0.228458        -6.2167
 324   0.0000      -0.093565        -2.5460
 325   0.0000      -0.088628        -2.4117
 326   0.0000      -0.064799        -1.7633
 327   0.0000      -0.060969        -1.6590
 328   0.0000      -0.051959        -1.4139

MULLIKEN ATOMIC CHARGES
-----------------------
   0 C :    0.157495
   1 O :   -0.148238
   2 C :   -0.020315
   3 C :    0.033443
   4 C :   -0.026464
   5 C :    0.048550
   6 C :   -0.002597
   7 C :   -0.013644
   8 Br:   -0.023629
   9 C :    0.297791
  10 C :   -0.350436
  11 C :   -0.189976
  12 N :    0.152447
  13 C :   -0.198080
  14 N :    0.163028
  15 C :   -0.087869
  16 C :    0.052500
  17 C :   -0.084113
  18 C :   -0.029491
  19 C :    0.045054
  20 C :   -0.090038
  21 S :    0.150227
  22 C :    0.108059
  23 O :   -0.316484
  24 C :    0.182450
  25 C :    0.080976
  26 C :   -0.131641
  27 C :    0.122355
  28 O :   -0.295232
  29 C :    0.168317
  30 S :    0.067870
  31 C :    0.033909
  32 C :   -0.118383
  33 C :   -0.058169
  34 C :   -0.053153
  35 C :   -0.119639
  36 C :   -0.076234
  37 S :    0.139654
  38 C :   -0.082585
  39 C :   -0.114809
  40 Si:    0.523282
  41 C :   -0.198948
  42 C :   -0.198541
  43 C :   -0.054295
  44 C :   -0.052020
  45 S :    0.152628
  46 C :    0.022142
  47 C :   -0.078770
  48 C :    0.065219
  49 C :   -0.113858
  50 S :    0.074669
  51 C :    0.120275
  52 O :   -0.304729
  53 C :    0.166113
  54 C :    0.050640
  55 C :   -0.091930
  56 C :    0.104773
  57 O :   -0.312798
  58 C :    0.164890
  59 S :    0.084529
  60 C :   -0.049247
  61 C :    0.012493
  62 C :    0.049355
  63 C :   -0.133263
  64 C :    0.141013
  65 O :   -0.138806
  66 C :   -0.011033
  67 C :    0.025175
  68 C :    0.248930
  69 C :   -0.320601
  70 C :   -0.177490
  71 N :    0.151283
  72 C :   -0.210725
  73 N :    0.174223
  74 C :   -0.027045
  75 C :    0.049252
  76 C :   -0.005867
  77 C :   -0.011351
  78 Br:   -0.023106
  79 H :    0.009309
  80 H :    0.004143
  81 H :    0.000656
  82 H :    0.012369
  83 H :    0.014157
  84 H :    0.040036
  85 H :    0.034129
  86 H :    0.029628
  87 H :    0.045151
  88 H :    0.036000
  89 H :    0.038138
  90 H :   -0.032071
  91 H :   -0.014602
  92 H :    0.056411
  93 H :    0.043783
  94 H :    0.043409
  95 H :    0.055981
  96 H :    0.043523
  97 H :    0.043817
  98 H :   -0.015098
  99 H :   -0.008302
 100 H :    0.038854
 101 H :    0.037747
 102 H :    0.043647
 103 H :    0.036470
 104 H :    0.040988
 105 H :    0.042039
 106 H :   -0.001244
 107 H :    0.024871
 108 H :    0.008315
 109 H :    0.004812
 110 H :    0.003564
Sum of atomic charges:   -0.0000000

LOEWDIN ATOMIC CHARGES
----------------------
   0 C :    0.087582
   1 O :   -0.134443
   2 C :   -0.036195
   3 C :   -0.016404
   4 C :    0.007724
   5 C :   -0.014611
   6 C :   -0.098685
   7 C :   -0.001960
   8 Br:    0.112254
   9 C :    0.076303
  10 C :   -0.139905
  11 C :   -0.018114
  12 N :   -0.053868
  13 C :   -0.026453
  14 N :   -0.047093
  15 C :   -0.100784
  16 C :    0.056047
  17 C :   -0.176528
  18 C :    0.018614
  19 C :   -0.072776
  20 C :   -0.161096
  21 S :    0.425735
  22 C :    0.014527
  23 O :   -0.110588
  24 C :    0.080559
  25 C :   -0.055330
  26 C :   -0.189682
  27 C :    0.040224
  28 O :   -0.088744
  29 C :    0.066158
  30 S :    0.397053
  31 C :   -0.160632
  32 C :   -0.075921
  33 C :   -0.189111
  34 C :   -0.052550
  35 C :   -0.202794
  36 C :   -0.186984
  37 S :    0.440172
  38 C :   -0.189044
  39 C :   -0.201784
  40 Si:    0.666477
  41 C :   -0.242693
  42 C :   -0.242501
  43 C :   -0.054071
  44 C :   -0.188510
  45 S :    0.447166
  46 C :   -0.159708
  47 C :   -0.056007
  48 C :   -0.041121
  49 C :   -0.188611
  50 S :    0.399535
  51 C :    0.042168
  52 O :   -0.094142
  53 C :    0.067514
  54 C :   -0.069861
  55 C :   -0.169306
  56 C :    0.021642
  57 O :   -0.102890
  58 C :    0.067184
  59 S :    0.423261
  60 C :   -0.176815
  61 C :    0.021672
  62 C :    0.056869
  63 C :   -0.103727
  64 C :    0.084225
  65 O :   -0.138681
  66 C :   -0.039718
  67 C :   -0.011475
  68 C :    0.058259
  69 C :   -0.141286
  70 C :   -0.019965
  71 N :   -0.053554
  72 C :   -0.040359
  73 N :   -0.049730
  74 C :    0.003403
  75 C :   -0.012952
  76 C :   -0.100374
  77 C :    0.000268
  78 Br:    0.112537
  79 H :    0.042835
  80 H :    0.039791
  81 H :    0.042846
  82 H :    0.043555
  83 H :    0.035813
  84 H :    0.031153
  85 H :    0.015283
  86 H :    0.018907
  87 H :    0.033813
  88 H :    0.012878
  89 H :    0.013890
  90 H :    0.021224
  91 H :    0.025028
  92 H :    0.042504
  93 H :    0.036951
  94 H :    0.036922
  95 H :    0.042655
  96 H :    0.036981
  97 H :    0.037131
  98 H :    0.024457
  99 H :    0.029944
 100 H :    0.015318
 101 H :    0.013431
 102 H :    0.032899
 103 H :    0.010323
 104 H :    0.031858
 105 H :    0.018707
 106 H :    0.040141
 107 H :    0.051762
 108 H :    0.042048
 109 H :    0.039779
 110 H :    0.044175

  Mayer bond orders larger than 0.100000
B(  0-C ,  1-O ) :   2.1762 B(  0-C ,  2-C ) :   0.9472 B(  0-C , 15-C ) :   0.9468
B(  2-C ,  3-C ) :   1.3362 B(  2-C ,  7-C ) :   1.3821 B(  3-C ,  4-C ) :   1.3621
B(  3-C ,  9-C ) :   0.9894 B(  4-C ,  5-C ) :   1.3842 B(  4-C , 79-H ) :   0.9834
B(  5-C ,  6-C ) :   1.3891 B(  5-C , 80-H ) :   0.9848 B(  6-C ,  7-C ) :   1.3358
B(  6-C ,  8-Br) :   0.9898 B(  7-C , 81-H ) :   1.0069 B(  9-C , 10-C ) :   1.6304
B(  9-C , 15-C ) :   1.0807 B( 10-C , 11-C ) :   1.1450 B( 10-C , 13-C ) :   1.1373
B( 11-C , 12-N ) :   2.9767 B( 13-C , 14-N ) :   2.9890 B( 15-C , 16-C ) :   1.5815
B( 16-C , 17-C ) :   1.2182 B( 16-C , 82-H ) :   0.9176 B( 17-C , 18-C ) :   1.4598
B( 17-C , 21-S ) :   1.0474 B( 18-C , 19-C ) :   1.2027 B( 18-C , 83-H ) :   0.9902
B( 19-C , 20-C ) :   1.3441 B( 19-C , 27-C ) :   1.2358 B( 20-C , 21-S ) :   1.0664
B( 20-C , 22-C ) :   1.3866 B( 22-C , 23-O ) :   1.2528 B( 22-C , 25-C ) :   1.2421
B( 23-O , 24-C ) :   0.9466 B( 24-C , 84-H ) :   0.9745 B( 24-C , 85-H ) :   0.9695
B( 24-C , 86-H ) :   0.9683 B( 25-C , 26-C ) :   1.2573 B( 25-C , 32-C ) :   1.1608
B( 26-C , 27-C ) :   1.4167 B( 26-C , 30-S ) :   0.9927 B( 27-C , 28-O ) :   1.2415
B( 28-O , 29-C ) :   0.9406 B( 29-C , 87-H ) :   0.9757 B( 29-C , 88-H ) :   0.9662
B( 29-C , 89-H ) :   0.9670 B( 30-S , 31-C ) :   1.0626 B( 31-C , 32-C ) :   1.5662
B( 31-C , 33-C ) :   1.1537 B( 32-C , 90-H ) :   0.9915 B( 33-C , 34-C ) :   1.4901
B( 33-C , 37-S ) :   1.1031 B( 34-C , 35-C ) :   1.2553 B( 34-C , 91-H ) :   0.9943
B( 35-C , 36-C ) :   1.5231 B( 35-C , 40-Si) :   0.8792 B( 36-C , 37-S ) :   1.1148
B( 36-C , 38-C ) :   1.1503 B( 38-C , 39-C ) :   1.5219 B( 38-C , 45-S ) :   1.1161
B( 39-C , 40-Si) :   0.8800 B( 39-C , 43-C ) :   1.2577 B( 40-Si, 41-C ) :   1.0564
B( 40-Si, 42-C ) :   1.0564 B( 41-C , 92-H ) :   0.9499 B( 41-C , 93-H ) :   0.9539
B( 41-C , 94-H ) :   0.9537 B( 42-C , 95-H ) :   0.9506 B( 42-C , 96-H ) :   0.9530
B( 42-C , 97-H ) :   0.9537 B( 43-C , 44-C ) :   1.4885 B( 43-C , 98-H ) :   0.9932
B( 44-C , 45-S ) :   1.1073 B( 44-C , 46-C ) :   1.1594 B( 46-C , 47-C ) :   1.5255
B( 46-C , 50-S ) :   1.0621 B( 47-C , 48-C ) :   1.1936 B( 47-C , 99-H ) :   1.0026
B( 48-C , 49-C ) :   1.3170 B( 48-C , 56-C ) :   1.2827 B( 49-C , 50-S ) :   1.0011
B( 49-C , 51-C ) :   1.3710 B( 51-C , 52-O ) :   1.2351 B( 51-C , 54-C ) :   1.2762
B( 52-O , 53-C ) :   0.9417 B( 53-C ,100-H ) :   0.9684 B( 53-C ,101-H ) :   0.9666
B( 53-C ,102-H ) :   0.9762 B( 54-C , 55-C ) :   1.2912 B( 54-C , 61-C ) :   1.2097
B( 55-C , 56-C ) :   1.3935 B( 55-C , 59-S ) :   1.0135 B( 56-C , 57-O ) :   1.2216
B( 57-O , 58-C ) :   0.9431 B( 58-C ,103-H ) :   0.9646 B( 58-C ,104-H ) :   0.9759
B( 58-C ,105-H ) :   0.9707 B( 59-S , 60-C ) :   1.0435 B( 60-C , 61-C ) :   1.4612
B( 60-C , 62-C ) :   1.1457 B( 61-C ,106-H ) :   1.0105 B( 62-C , 63-C ) :   1.6182
B( 62-C ,107-H ) :   0.9525 B( 63-C , 64-C ) :   0.9487 B( 63-C , 68-C ) :   1.0409
B( 64-C , 65-O ) :   2.2722 B( 64-C , 66-C ) :   0.9173 B( 66-C , 67-C ) :   1.3355
B( 66-C , 77-C ) :   1.3862 B( 67-C , 68-C ) :   1.0113 B( 67-C , 74-C ) :   1.3714
B( 68-C , 69-C ) :   1.6507 B( 69-C , 70-C ) :   1.1378 B( 69-C , 72-C ) :   1.1477
B( 70-C , 71-N ) :   2.9913 B( 72-C , 73-N ) :   3.0275 B( 74-C , 75-C ) :   1.3790
B( 74-C ,108-H ) :   0.9857 B( 75-C , 76-C ) :   1.3939 B( 75-C ,109-H ) :   0.9845
B( 76-C , 77-C ) :   1.3411 B( 76-C , 78-Br) :   0.9898 B( 77-C ,110-H ) :   1.0060

-----------------------------------------------------------------------------
         ABSORPTION SPECTRUM VIA TRANSITION ELECTRIC DIPOLE MOMENTS
-----------------------------------------------------------------------------
State   Energy  Wavelength   fosc         T2         TX        TY        TZ
        (cm-1)    (nm)                  (au**2)     (au)      (au)      (au)
-----------------------------------------------------------------------------
   0   15097.0    662.4   1.202091910  26.21331  -2.73278  -1.30010  -4.12976
   1   16535.8    604.7   0.713841411  14.21191   1.85040  -2.72430   1.83469
   2   20816.9    480.4   0.990638036  15.66656  -2.27536   0.06714  -3.23802
   3   22103.4    452.4   0.193625934   2.88390  -0.68047   0.45242  -1.48868
   4   22768.1    439.2   0.006713490   0.09707  -0.25521   0.01891   0.17772
   5   23375.3    427.8   0.070975656   0.99960  -0.39769   0.87342  -0.28032
   6   24191.3    413.4   0.134675025   1.83275   0.00250   1.33493   0.22520
   7   25036.6    399.4   0.118489257   1.55804  -0.34497   0.93340  -0.75352
   8   25923.4    385.8   0.380480507   4.83188   1.44870  -0.42940   1.59648
   9   26878.4    372.0   0.127948967   1.56714  -0.30711   0.38728  -1.15015
  10   27301.2    366.3   0.010758467   0.12973  -0.10439  -0.17388  -0.29766
  11   28790.3    347.3   0.036296025   0.41504   0.11558   0.63378   0.00030
  12   29301.2    341.3   0.062396504   0.70105  -0.31602   0.54555   0.55096
  13   29745.5    336.2   0.010687352   0.11828   0.12340   0.30183   0.10935
  14   30418.2    328.8   0.175119702   1.89530   0.64862   0.21421   1.19528
  15   30456.5    328.3   0.035836014   0.38736  -0.05625   0.51149   0.35011
  16   30910.6    323.5   0.056690353   0.60378  -0.01337  -0.21258   0.74727
  17   31127.1    321.3   0.058582320   0.61959   0.36564  -0.63332  -0.29120
  18   31635.9    316.1   0.151675960   1.57838  -0.40231   0.84370   0.83946
  19   31826.0    314.2   0.031676630   0.32767   0.30994  -0.46132  -0.13708
  20   32689.1    305.9   0.371839130   3.74479  -0.08624  -0.26160  -1.91544
  21   32886.3    304.1   0.200044952   2.00257  -0.08701  -0.10456  -1.40857
  22   32959.0    303.4   0.099036628   0.98923  -0.07100  -0.33871  -0.93245
  23   33424.8    299.2   0.152123067   1.49831   0.32884   0.67516   0.96661
  24   33979.3    294.3   0.051194545   0.49600   0.01392   0.67672   0.19458
  25   34052.2    293.7   0.160118146   1.54800   0.69065  -0.25661   1.00257
  26   34468.0    290.1   0.025453519   0.24311  -0.09327  -0.18244  -0.44847
  27   34803.6    287.3   0.004134086   0.03910   0.01363  -0.09641   0.17212
  28   35383.8    282.6   0.409312210   3.80825   0.75953  -1.10972  -1.41417
  29   35587.0    281.0   0.360552386   3.33544  -0.07586  -0.46634  -1.76415
  30   35852.7    278.9   0.105475029   0.96851  -0.54931   0.74072   0.34367
  31   36052.6    277.4   0.167747780   1.53178   0.19151  -0.27691   1.19098
  32   36475.1    274.2   0.055234281   0.49853  -0.64607   0.27953   0.05464
  33   37512.5    266.6   0.012937243   0.11354   0.00805   0.20714   0.26564
  34   37747.6    264.9   0.012886990   0.11239  -0.01412  -0.29908   0.15080
  35   37842.8    264.3   0.075392791   0.65588   0.20415  -0.77534  -0.11421
  36   38030.6    262.9   0.028232322   0.24439   0.10280   0.13020   0.46570
  37   38620.1    258.9   0.041221781   0.35139   0.05299   0.44106   0.39249
  38   38726.6    258.2   0.035821689   0.30452   0.05309  -0.10051  -0.54000
  39   39398.8    253.8   0.020762378   0.17349  -0.12299   0.22040  -0.33134
  40   39675.6    252.0   0.024744995   0.20532   0.02034  -0.12523  -0.43500
  41   40253.3    248.4   0.117658106   0.96227   0.55150  -0.80798  -0.07262

FINAL SINGLE POINT ENERGY    -10797.948715470011

DIPOLE MOMENT
-------------
                                X             Y             Z
Electronic contribution:     -4.80571      91.16806      -4.11327
Nuclear contribution   :      5.97295     -95.34177       4.78166
                        -----------------------------------------
Total Dipole Moment    :      1.16724      -4.17371       0.66839
                        -----------------------------------------
Magnitude (a.u.)       :      4.38510
Magnitude (Debye)      :     11.14603

Rotational constants in cm-1:     0.001176     0.000103     0.000096
Rotational constants in MHz :    35.267222     3.078334     2.887711

                             ****ORCA TERMINATED NORMALLY****
TOTAL RUN TIME: 0 days 0 hours 12 minutes 55 seconds 286 msec
