                         Program Version 4.2.0 -  RELEASE  -
|  1> # ORCA input file
|  2> # SCF done       -191.052221730092          0.000718553924
|  3> ! CAM-B3LYP def2-SVP def2/J RIJCOSX Grid4 TightSCF
|  4> %maxcore 5000
|  5> %tddft
|  6>     Mode sTDDFT
|  7>     Ethresh 5.0
|  8>     maxcore 5000
|  9> end
| 10>
| 11> %pal
| 12>   nprocs 6
| 13>   end
| 14> * xyz 0 1
| 15>    C       -7.60129        -4.46623         9.54849
| 16>    O       -7.37206        -4.66923         8.37775
| 17>    C       -7.07412        -3.35303        10.36818
| 18>    C       -7.74985        -3.31094        11.60015
| 19>    C       -7.42129        -2.33152        12.52748
| 20>    C       -6.42743        -1.41826        12.21128
| 21>    C       -5.77603        -1.47773        10.98615
| 22>    C       -6.09129        -2.44308        10.03968
| 23>   Br       -4.41914        -0.20648        10.60037
| 24>    C       -8.72271        -4.39981        11.64529
| 25>    C       -9.56836        -4.66642        12.69018
| 26>    C       -9.64362        -3.89191        13.86747
| 27>    N       -9.76242        -3.30391        14.84619
| 28>    C      -10.48736        -5.73542        12.74557
| 29>    N      -11.25510        -6.57994        12.87216
| 30>    C       -8.58563        -5.16043        10.41726
| 31>    C       -9.31461        -6.24982        10.04431
| 32>    C       -9.01171        -7.12310         8.95833
| 33>    C      -10.00983        -7.81781         8.28099
| 34>    C       -9.76805        -8.67065         7.20801
| 35>    C       -8.49022        -8.95108         6.73176
| 36>    C       -7.43187        -8.31598         7.44555
| 37>    C       -7.68478        -7.41788         8.54245
| 38>    N       -6.51381        -7.07442         9.03992
| 39>    O       -5.59524        -7.68584         8.30402
| 40>    N       -6.12352        -8.43766         7.33525
| 41>    C       -8.21299        -9.83356         5.65312
| 42>    N       -6.92232       -10.06214         5.23228
| 43>    C       -6.95223       -10.96590         4.22457
| 44>    C       -6.16254       -11.68435         3.33656
| 45>    C       -7.04591       -12.47490         2.58530
| 46>    N       -8.34209       -12.23910         3.00016
| 47>    C       -8.31530       -11.31922         3.99790
| 48>    C       -9.10403       -10.60652         4.88722
| 49>    C       -6.77281       -13.41914         1.56964
| 50>    C       -5.54407       -13.67058         1.04767
| 51>    C       -5.30219       -14.65048         0.05974
| 52>    S       -6.55600       -15.73748        -0.45817
| 53>    C       -4.10758       -14.90502        -0.61940
| 54>    C       -2.85513       -14.16889        -0.35933
| 55>    O       -2.74931       -13.25754         0.44618
| 56>    C       -1.74830       -14.65589        -1.16429
| 57>    C       -0.43392       -14.24268        -1.18972
| 58>    N        0.23301       -14.97763        -2.11097
| 59>    C        1.64660       -14.89157        -2.37940
| 60>    C        2.43213       -15.85537        -1.49241
| 61>    C       -0.61415       -15.86566        -2.68094
| 62>    C       -1.86453       -15.70132        -2.12382
| 63>    C       -3.10114       -16.40190        -2.41872
| 64>    O       -3.19598       -17.25775        -3.28274
| 65>    C       -4.22275       -15.95446        -1.56320
| 66>    C       -5.50044       -16.51937        -1.60546
| 67>    C       -5.90243       -17.62129        -2.39077
| 68>    C       -7.14971       -18.16288        -2.49781
| 69>    C       -8.35644       -17.59354        -2.03883
| 70>    C       -9.55434       -18.22943        -1.87198
| 71>    C      -10.81551       -17.45592        -1.80107
| 72>    O      -10.93397       -16.26207        -1.64339
| 73>    C      -11.89099       -18.45673        -1.99858
| 74>    C      -11.32664       -19.74373        -2.06553
| 75>    C      -12.13625       -20.84834        -2.27287
| 76>    C      -13.50064       -20.63744        -2.40845
| 77>    C      -14.05480       -19.35930        -2.33094
| 78>    C      -13.25046       -18.24994        -2.12350
| 79>    F      -15.37787       -19.20267        -2.46041
| 80>    F      -14.30116       -21.68754        -2.62005
| 81>    C       -9.88290       -19.63530        -1.85016
| 82>    C       -9.05016       -20.65908        -1.48067
| 83>    C       -7.75376       -20.45709        -0.95992
| 84>    N       -6.72682       -20.33607        -0.46261
| 85>    C       -9.43598       -22.01527        -1.45544
| 86>    N       -9.69756       -23.13246        -1.44022
| 87>    H       -7.91666        -2.26440        13.48200
| 88>    H       -6.15730        -0.65256        12.92225
| 89>    H       -5.58947        -2.49334         9.08595
| 90>    H      -10.20975        -6.49852        10.60025
| 91>    H      -11.03435        -7.65477         8.58311
| 92>    H      -10.61272        -9.13570         6.72549
| 93>    H       -6.12164        -9.62467         5.66619
| 94>    H       -5.09749       -11.66639         3.23159
| 95>    H       -9.15542       -12.67999         2.60568
| 96>    H      -10.16949       -10.63191         4.99069
| 97>    H       -7.62356       -13.97409         1.18894
| 98>    H       -4.68150       -13.10439         1.36621
| 99>    H        0.04634       -13.47505        -0.61606
|100>    H        1.97241       -13.86452        -2.19678
|101>    H        1.81589       -15.13044        -3.43254
|102>    H        2.27289       -15.61996        -0.44287
|103>    H        3.49346       -15.77884        -1.71028
|104>    H        2.11215       -16.87937        -1.66931
|105>    H       -0.29627       -16.55217        -3.44032
|106>    H       -5.08981       -18.10402        -2.91884
|107>    H       -7.22654       -19.10256        -3.02995
|108>    H       -8.39404       -16.51752        -1.90357
|109>    H      -11.75259       -21.85338        -2.34098
|110>    H      -13.67845       -17.26198        -2.06397
|111> *
|112>
|113>                          ****END OF INPUT****

CARTESIAN COORDINATES (ANGSTROEM)
---------------------------------
  C     -7.601290   -4.466230    9.548490
  O     -7.372060   -4.669230    8.377750
  C     -7.074120   -3.353030   10.368180
  C     -7.749850   -3.310940   11.600150
  C     -7.421290   -2.331520   12.527480
  C     -6.427430   -1.418260   12.211280
  C     -5.776030   -1.477730   10.986150
  C     -6.091290   -2.443080   10.039680
  Br    -4.419140   -0.206480   10.600370
  C     -8.722710   -4.399810   11.645290
  C     -9.568360   -4.666420   12.690180
  C     -9.643620   -3.891910   13.867470
  N     -9.762420   -3.303910   14.846190
  C    -10.487360   -5.735420   12.745570
  N    -11.255100   -6.579940   12.872160
  C     -8.585630   -5.160430   10.417260
  C     -9.314610   -6.249820   10.044310
  C     -9.011710   -7.123100    8.958330
  C    -10.009830   -7.817810    8.280990
  C     -9.768050   -8.670650    7.208010
  C     -8.490220   -8.951080    6.731760
  C     -7.431870   -8.315980    7.445550
  C     -7.684780   -7.417880    8.542450
  N     -6.513810   -7.074420    9.039920
  O     -5.595240   -7.685840    8.304020
  N     -6.123520   -8.437660    7.335250
  C     -8.212990   -9.833560    5.653120
  N     -6.922320  -10.062140    5.232280
  C     -6.952230  -10.965900    4.224570
  C     -6.162540  -11.684350    3.336560
  C     -7.045910  -12.474900    2.585300
  N     -8.342090  -12.239100    3.000160
  C     -8.315300  -11.319220    3.997900
  C     -9.104030  -10.606520    4.887220
  C     -6.772810  -13.419140    1.569640
  C     -5.544070  -13.670580    1.047670
  C     -5.302190  -14.650480    0.059740
  S     -6.556000  -15.737480   -0.458170
  C     -4.107580  -14.905020   -0.619400
  C     -2.855130  -14.168890   -0.359330
  O     -2.749310  -13.257540    0.446180
  C     -1.748300  -14.655890   -1.164290
  C     -0.433920  -14.242680   -1.189720
  N      0.233010  -14.977630   -2.110970
  C      1.646600  -14.891570   -2.379400
  C      2.432130  -15.855370   -1.492410
  C     -0.614150  -15.865660   -2.680940
  C     -1.864530  -15.701320   -2.123820
  C     -3.101140  -16.401900   -2.418720
  O     -3.195980  -17.257750   -3.282740
  C     -4.222750  -15.954460   -1.563200
  C     -5.500440  -16.519370   -1.605460
  C     -5.902430  -17.621290   -2.390770
  C     -7.149710  -18.162880   -2.497810
  C     -8.356440  -17.593540   -2.038830
  C     -9.554340  -18.229430   -1.871980
  C    -10.815510  -17.455920   -1.801070
  O    -10.933970  -16.262070   -1.643390
  C    -11.890990  -18.456730   -1.998580
  C    -11.326640  -19.743730   -2.065530
  C    -12.136250  -20.848340   -2.272870
  C    -13.500640  -20.637440   -2.408450
  C    -14.054800  -19.359300   -2.330940
  C    -13.250460  -18.249940   -2.123500
  F    -15.377870  -19.202670   -2.460410
  F    -14.301160  -21.687540   -2.620050
  C     -9.882900  -19.635300   -1.850160
  C     -9.050160  -20.659080   -1.480670
  C     -7.753760  -20.457090   -0.959920
  N     -6.726820  -20.336070   -0.462610
  C     -9.435980  -22.015270   -1.455440
  N     -9.697560  -23.132460   -1.440220
  H     -7.916660   -2.264400   13.482000
  H     -6.157300   -0.652560   12.922250
  H     -5.589470   -2.493340    9.085950
  H    -10.209750   -6.498520   10.600250
  H    -11.034350   -7.654770    8.583110
  H    -10.612720   -9.135700    6.725490
  H     -6.121640   -9.624670    5.666190
  H     -5.097490  -11.666390    3.231590
  H     -9.155420  -12.679990    2.605680
  H    -10.169490  -10.631910    4.990690
  H     -7.623560  -13.974090    1.188940
  H     -4.681500  -13.104390    1.366210
  H      0.046340  -13.475050   -0.616060
  H      1.972410  -13.864520   -2.196780
  H      1.815890  -15.130440   -3.432540
  H      2.272890  -15.619960   -0.442870
  H      3.493460  -15.778840   -1.710280
  H      2.112150  -16.879370   -1.669310
  H     -0.296270  -16.552170   -3.440320
  H     -5.089810  -18.104020   -2.918840
  H     -7.226540  -19.102560   -3.029950
  H     -8.394040  -16.517520   -1.903570
  H    -11.752590  -21.853380   -2.340980
  H    -13.678450  -17.261980   -2.063970

 Total Charge           Charge          ....    0
 Multiplicity           Mult            ....    1
 Number of Electrons    NEL             ....  520
 Basis Dimension        Dim             .... 1150

ORBITAL ENERGIES
----------------

  NO   OCC          E(Eh)            E(eV)
   0   2.0000    -482.870198    -13139.5661
   1   2.0000     -88.975167     -2421.1374
   2   2.0000     -62.547908     -1702.0151
   3   2.0000     -56.381740     -1534.2251
   4   2.0000     -56.379228     -1534.1568
   5   2.0000     -56.379217     -1534.1565
   6   2.0000     -24.803926      -674.9491
   7   2.0000     -24.803277      -674.9315
   8   2.0000     -19.361589      -526.8556
   9   2.0000     -19.222864      -523.0807
  10   2.0000     -19.215100      -522.8695
  11   2.0000     -19.206960      -522.6479
  12   2.0000     -19.203677      -522.5586
  13   2.0000     -14.492205      -394.3529
  14   2.0000     -14.491821      -394.3425
  15   2.0000     -14.482535      -394.0898
  16   2.0000     -14.470995      -393.7758
  17   2.0000     -14.463300      -393.5664
  18   2.0000     -14.420617      -392.4049
  19   2.0000     -14.417347      -392.3160
  20   2.0000     -14.415862      -392.2755
  21   2.0000     -14.414712      -392.2442
  22   2.0000     -10.389656      -282.7169
  23   2.0000     -10.388845      -282.6948
  24   2.0000     -10.373671      -282.2819
  25   2.0000     -10.366635      -282.0905
  26   2.0000     -10.365904      -282.0706
  27   2.0000     -10.363864      -282.0151
  28   2.0000     -10.350234      -281.6442
  29   2.0000     -10.346514      -281.5430
  30   2.0000     -10.343393      -281.4580
  31   2.0000     -10.342798      -281.4419
  32   2.0000     -10.341799      -281.4146
  33   2.0000     -10.336919      -281.2819
  34   2.0000     -10.335408      -281.2407
  35   2.0000     -10.328819      -281.0615
  36   2.0000     -10.327652      -281.0297
  37   2.0000     -10.326111      -280.9878
  38   2.0000     -10.324216      -280.9362
  39   2.0000     -10.322547      -280.8908
  40   2.0000     -10.322460      -280.8884
  41   2.0000     -10.321989      -280.8756
  42   2.0000     -10.320366      -280.8314
  43   2.0000     -10.319996      -280.8214
  44   2.0000     -10.317764      -280.7606
  45   2.0000     -10.317709      -280.7591
  46   2.0000     -10.317547      -280.7547
  47   2.0000     -10.316658      -280.7305
  48   2.0000     -10.316281      -280.7203
  49   2.0000     -10.315873      -280.7092
  50   2.0000     -10.312382      -280.6142
  51   2.0000     -10.311412      -280.5878
  52   2.0000     -10.310457      -280.5618
  53   2.0000     -10.309157      -280.5264
  54   2.0000     -10.308698      -280.5139
  55   2.0000     -10.307956      -280.4937
  56   2.0000     -10.306766      -280.4614
  57   2.0000     -10.305921      -280.4384
  58   2.0000     -10.301152      -280.3086
  59   2.0000     -10.301088      -280.3068
  60   2.0000     -10.300726      -280.2970
  61   2.0000     -10.300196      -280.2826
  62   2.0000     -10.299929      -280.2753
  63   2.0000     -10.299661      -280.2680
  64   2.0000     -10.299573      -280.2656
  65   2.0000     -10.299169      -280.2546
  66   2.0000     -10.298076      -280.2249
  67   2.0000     -10.296264      -280.1756
  68   2.0000     -10.292474      -280.0725
  69   2.0000     -10.292082      -280.0618
  70   2.0000     -10.285065      -279.8709
  71   2.0000     -10.284850      -279.8650
  72   2.0000     -10.283957      -279.8407
  73   2.0000     -10.275572      -279.6125
  74   2.0000     -10.272906      -279.5400
  75   2.0000     -10.272474      -279.5282
  76   2.0000      -8.777182      -238.8393
  77   2.0000      -8.070435      -219.6077
  78   2.0000      -6.613012      -179.9492
  79   2.0000      -6.599315      -179.5765
  80   2.0000      -6.598856      -179.5640
  81   2.0000      -6.039477      -164.3425
  82   2.0000      -6.035504      -164.2344
  83   2.0000      -6.032821      -164.1614
  84   2.0000      -2.728935       -74.2581
  85   2.0000      -2.725185       -74.1561
  86   2.0000      -2.724889       -74.1480
  87   2.0000      -2.713986       -73.8513
  88   2.0000      -2.713962       -73.8507
  89   2.0000      -1.327368       -36.1195
  90   2.0000      -1.314748       -35.7761
  91   2.0000      -1.312136       -35.7050
  92   2.0000      -1.137397       -30.9501
  93   2.0000      -1.130903       -30.7734
  94   2.0000      -1.125015       -30.6132
  95   2.0000      -1.119638       -30.4669
  96   2.0000      -1.111377       -30.2421
  97   2.0000      -1.103641       -30.0316
  98   2.0000      -1.067878       -29.0584
  99   2.0000      -1.024623       -27.8814
 100   2.0000      -1.019586       -27.7443
 101   2.0000      -1.018230       -27.7074
 102   2.0000      -1.006216       -27.3805
 103   2.0000      -1.005443       -27.3595
 104   2.0000      -1.004852       -27.3434
 105   2.0000      -1.000505       -27.2251
 106   2.0000      -0.996544       -27.1173
 107   2.0000      -0.994234       -27.0545
 108   2.0000      -0.962729       -26.1972
 109   2.0000      -0.961986       -26.1770
 110   2.0000      -0.942037       -25.6341
 111   2.0000      -0.929852       -25.3025
 112   2.0000      -0.929175       -25.2841
 113   2.0000      -0.918095       -24.9826
 114   2.0000      -0.913427       -24.8556
 115   2.0000      -0.909049       -24.7365
 116   2.0000      -0.904406       -24.6101
 117   2.0000      -0.890852       -24.2413
 118   2.0000      -0.885674       -24.1004
 119   2.0000      -0.880847       -23.9691
 120   2.0000      -0.877711       -23.8837
 121   2.0000      -0.876759       -23.8578
 122   2.0000      -0.865557       -23.5530
 123   2.0000      -0.857841       -23.3430
 124   2.0000      -0.845219       -22.9996
 125   2.0000      -0.844393       -22.9771
 126   2.0000      -0.839297       -22.8384
 127   2.0000      -0.832072       -22.6418
 128   2.0000      -0.805645       -21.9227
 129   2.0000      -0.795767       -21.6539
 130   2.0000      -0.783320       -21.3152
 131   2.0000      -0.775806       -21.1108
 132   2.0000      -0.769736       -20.9456
 133   2.0000      -0.768403       -20.9093
 134   2.0000      -0.765772       -20.8377
 135   2.0000      -0.758226       -20.6324
 136   2.0000      -0.754434       -20.5292
 137   2.0000      -0.747318       -20.3356
 138   2.0000      -0.728798       -19.8316
 139   2.0000      -0.717174       -19.5153
 140   2.0000      -0.706623       -19.2282
 141   2.0000      -0.705196       -19.1894
 142   2.0000      -0.703586       -19.1455
 143   2.0000      -0.696085       -18.9414
 144   2.0000      -0.693223       -18.8636
 145   2.0000      -0.690884       -18.7999
 146   2.0000      -0.688778       -18.7426
 147   2.0000      -0.685350       -18.6493
 148   2.0000      -0.674334       -18.3496
 149   2.0000      -0.665991       -18.1225
 150   2.0000      -0.659642       -17.9498
 151   2.0000      -0.654295       -17.8043
 152   2.0000      -0.646090       -17.5810
 153   2.0000      -0.643588       -17.5129
 154   2.0000      -0.641931       -17.4678
 155   2.0000      -0.636578       -17.3222
 156   2.0000      -0.630822       -17.1655
 157   2.0000      -0.627299       -17.0697
 158   2.0000      -0.618917       -16.8416
 159   2.0000      -0.617502       -16.8031
 160   2.0000      -0.614584       -16.7237
 161   2.0000      -0.611913       -16.6510
 162   2.0000      -0.607858       -16.5407
 163   2.0000      -0.604716       -16.4552
 164   2.0000      -0.597133       -16.2488
 165   2.0000      -0.592275       -16.1166
 166   2.0000      -0.587296       -15.9811
 167   2.0000      -0.582689       -15.8558
 168   2.0000      -0.578543       -15.7430
 169   2.0000      -0.575186       -15.6516
 170   2.0000      -0.573574       -15.6077
 171   2.0000      -0.566575       -15.4173
 172   2.0000      -0.562531       -15.3072
 173   2.0000      -0.556301       -15.1377
 174   2.0000      -0.555161       -15.1067
 175   2.0000      -0.553038       -15.0489
 176   2.0000      -0.552243       -15.0273
 177   2.0000      -0.549236       -14.9455
 178   2.0000      -0.548703       -14.9310
 179   2.0000      -0.544032       -14.8039
 180   2.0000      -0.541772       -14.7424
 181   2.0000      -0.540165       -14.6986
 182   2.0000      -0.538749       -14.6601
 183   2.0000      -0.536686       -14.6040
 184   2.0000      -0.536197       -14.5907
 185   2.0000      -0.533559       -14.5189
 186   2.0000      -0.528630       -14.3847
 187   2.0000      -0.526511       -14.3271
 188   2.0000      -0.524357       -14.2685
 189   2.0000      -0.522386       -14.2148
 190   2.0000      -0.521270       -14.1845
 191   2.0000      -0.518451       -14.1078
 192   2.0000      -0.515061       -14.0155
 193   2.0000      -0.510750       -13.8982
 194   2.0000      -0.508849       -13.8465
 195   2.0000      -0.505741       -13.7619
 196   2.0000      -0.502773       -13.6811
 197   2.0000      -0.500671       -13.6239
 198   2.0000      -0.497938       -13.5496
 199   2.0000      -0.497228       -13.5303
 200   2.0000      -0.496726       -13.5166
 201   2.0000      -0.493981       -13.4419
 202   2.0000      -0.493638       -13.4326
 203   2.0000      -0.488276       -13.2867
 204   2.0000      -0.481993       -13.1157
 205   2.0000      -0.481262       -13.0958
 206   2.0000      -0.478060       -13.0087
 207   2.0000      -0.476970       -12.9790
 208   2.0000      -0.476295       -12.9606
 209   2.0000      -0.472594       -12.8599
 210   2.0000      -0.468206       -12.7405
 211   2.0000      -0.466691       -12.6993
 212   2.0000      -0.462191       -12.5769
 213   2.0000      -0.461691       -12.5633
 214   2.0000      -0.460456       -12.5296
 215   2.0000      -0.456758       -12.4290
 216   2.0000      -0.455101       -12.3839
 217   2.0000      -0.454313       -12.3625
 218   2.0000      -0.453289       -12.3346
 219   2.0000      -0.451548       -12.2872
 220   2.0000      -0.450761       -12.2658
 221   2.0000      -0.449082       -12.2201
 222   2.0000      -0.447216       -12.1694
 223   2.0000      -0.444934       -12.1073
 224   2.0000      -0.443820       -12.0770
 225   2.0000      -0.442730       -12.0473
 226   2.0000      -0.433770       -11.8035
 227   2.0000      -0.429555       -11.6888
 228   2.0000      -0.428084       -11.6488
 229   2.0000      -0.427882       -11.6433
 230   2.0000      -0.425400       -11.5757
 231   2.0000      -0.422166       -11.4877
 232   2.0000      -0.417591       -11.3632
 233   2.0000      -0.416882       -11.3439
 234   2.0000      -0.411396       -11.1947
 235   2.0000      -0.409021       -11.1300
 236   2.0000      -0.408198       -11.1076
 237   2.0000      -0.398299       -10.8383
 238   2.0000      -0.385130       -10.4799
 239   2.0000      -0.383893       -10.4463
 240   2.0000      -0.375882       -10.2283
 241   2.0000      -0.367033        -9.9875
 242   2.0000      -0.364635        -9.9222
 243   2.0000      -0.355485        -9.6732
 244   2.0000      -0.351765        -9.5720
 245   2.0000      -0.347362        -9.4522
 246   2.0000      -0.346052        -9.4166
 247   2.0000      -0.342754        -9.3268
 248   2.0000      -0.336793        -9.1646
 249   2.0000      -0.334426        -9.1002
 250   2.0000      -0.333011        -9.0617
 251   2.0000      -0.330547        -8.9946
 252   2.0000      -0.329167        -8.9571
 253   2.0000      -0.317659        -8.6439
 254   2.0000      -0.310076        -8.4376
 255   2.0000      -0.307680        -8.3724
 256   2.0000      -0.303807        -8.2670
 257   2.0000      -0.299734        -8.1562
 258   2.0000      -0.277660        -7.5555
 259   2.0000      -0.231753        -6.3063
 260   0.0000      -0.109616        -2.9828
 261   0.0000      -0.098229        -2.6729
 262   0.0000      -0.072069        -1.9611
 263   0.0000      -0.068798        -1.8721
 264   0.0000      -0.058431        -1.5900

MULLIKEN ATOMIC CHARGES
-----------------------
   0 C :    0.143168
   1 O :   -0.140899
   2 C :   -0.017651
   3 C :    0.033692
   4 C :   -0.024496
   5 C :    0.047989
   6 C :   -0.004279
   7 C :   -0.009468
   8 Br:   -0.021441
   9 C :    0.303780
  10 C :   -0.347550
  11 C :   -0.190549
  12 N :    0.155338
  13 C :   -0.186951
  14 N :    0.152551
  15 C :   -0.066711
  16 C :   -0.057897
  17 C :    0.064851
  18 C :   -0.000102
  19 C :   -0.049831
  20 C :    0.139156
  21 C :   -0.027029
  22 C :    0.011506
  23 N :    0.057147
  24 O :   -0.092202
  25 N :    0.001886
  26 C :    0.001451
  27 N :   -0.025539
  28 C :    0.129717
  29 C :   -0.167708
  30 C :    0.107079
  31 N :   -0.028095
  32 C :    0.120576
  33 C :   -0.157171
  34 C :    0.014073
  35 C :   -0.015173
  36 C :   -0.108028
  37 S :    0.119141
  38 C :    0.005997
  39 C :    0.139335
  40 O :   -0.173103
  41 C :   -0.016271
  42 C :    0.009849
  43 N :   -0.133820
  44 C :    0.091215
  45 C :    0.000478
  46 C :    0.012752
  47 C :   -0.019013
  48 C :    0.135840
  49 O :   -0.169506
  50 C :    0.049761
  51 C :   -0.148735
  52 C :    0.060000
  53 C :   -0.005486
  54 C :    0.023834
  55 C :   -0.114898
  56 C :    0.138736
  57 O :   -0.145868
  58 C :   -0.001294
  59 C :    0.038996
  60 C :   -0.090165
  61 C :    0.236840
  62 C :    0.233959
  63 C :   -0.101247
  64 F :   -0.169565
  65 F :   -0.164641
  66 C :    0.258728
  67 C :   -0.318813
  68 C :   -0.214344
  69 N :    0.177911
  70 C :   -0.181087
  71 N :    0.154511
  72 H :    0.007093
  73 H :    0.004796
  74 H :    0.001912
  75 H :    0.022115
  76 H :   -0.001623
  77 H :   -0.018152
  78 H :    0.134802
  79 H :   -0.012250
  80 H :    0.126368
  81 H :   -0.029534
  82 H :   -0.014442
  83 H :    0.024096
  84 H :    0.007802
  85 H :    0.033499
  86 H :    0.034375
  87 H :    0.031620
  88 H :    0.032567
  89 H :    0.031730
  90 H :    0.008976
  91 H :    0.036626
  92 H :    0.017534
  93 H :    0.027607
  94 H :    0.017127
  95 H :    0.010143
Sum of atomic charges:   -0.0000000

LOEWDIN ATOMIC CHARGES
----------------------
   0 C :    0.082401
   1 O :   -0.132715
   2 C :   -0.031881
   3 C :   -0.016927
   4 C :    0.008234
   5 C :   -0.014969
   6 C :   -0.097277
   7 C :   -0.000262
   8 Br:    0.114621
   9 C :    0.076498
  10 C :   -0.136875
  11 C :   -0.018867
  12 N :   -0.050877
  13 C :   -0.019952
  14 N :   -0.051368
  15 C :   -0.088949
  16 C :    0.071292
  17 C :   -0.057684
  18 C :    0.032161
  19 C :   -0.028811
  20 C :   -0.000062
  21 C :   -0.042057
  22 C :   -0.036036
  23 N :   -0.010108
  24 O :    0.080573
  25 N :   -0.038194
  26 C :   -0.001830
  27 N :    0.080623
  28 C :   -0.000790
  29 C :   -0.077254
  30 C :    0.009743
  31 N :    0.071034
  32 C :   -0.014504
  33 C :   -0.073914
  34 C :   -0.018306
  35 C :   -0.039448
  36 C :   -0.116973
  37 S :    0.476852
  38 C :   -0.092164
  39 C :    0.081848
  40 O :   -0.168921
  41 C :   -0.101247
  42 C :    0.031330
  43 N :    0.090668
  44 C :    0.044344
  45 C :   -0.056990
  46 C :    0.033399
  47 C :   -0.102680
  48 C :    0.083106
  49 O :   -0.159973
  50 C :   -0.061281
  51 C :   -0.144514
  52 C :    0.024092
  53 C :   -0.041108
  54 C :    0.048721
  55 C :   -0.093633
  56 C :    0.082280
  57 O :   -0.144462
  58 C :   -0.047822
  59 C :   -0.011524
  60 C :   -0.020321
  61 C :    0.074673
  62 C :    0.069164
  63 C :   -0.005677
  64 F :   -0.046201
  65 F :   -0.042831
  66 C :    0.066398
  67 C :   -0.131587
  68 C :   -0.024452
  69 N :   -0.040607
  70 C :   -0.021004
  71 N :   -0.045068
  72 H :    0.042533
  73 H :    0.040010
  74 H :    0.043879
  75 H :    0.045748
  76 H :    0.040944
  77 H :    0.034274
  78 H :    0.079934
  79 H :    0.033200
  80 H :    0.092482
  81 H :    0.026652
  82 H :    0.021689
  83 H :    0.039727
  84 H :    0.029893
  85 H :    0.033952
  86 H :    0.034046
  87 H :    0.031082
  88 H :    0.033825
  89 H :    0.030947
  90 H :    0.030370
  91 H :    0.049248
  92 H :    0.040387
  93 H :    0.029100
  94 H :    0.051527
  95 H :    0.051451

  Mayer bond orders larger than 0.100000
B(  0-C ,  1-O ) :   2.2332 B(  0-C ,  2-C ) :   0.9356 B(  0-C , 15-C ) :   0.9428
B(  2-C ,  3-C ) :   1.3325 B(  2-C ,  7-C ) :   1.3821 B(  3-C ,  4-C ) :   1.3609
B(  3-C ,  9-C ) :   0.9975 B(  4-C ,  5-C ) :   1.3869 B(  4-C , 72-H ) :   0.9824
B(  5-C ,  6-C ) :   1.3865 B(  5-C , 73-H ) :   0.9845 B(  6-C ,  7-C ) :   1.3387
B(  6-C ,  8-Br) :   0.9916 B(  7-C , 74-H ) :   1.0067 B(  9-C , 10-C ) :   1.6379
B(  9-C , 15-C ) :   1.0767 B( 10-C , 11-C ) :   1.1412 B( 10-C , 13-C ) :   1.1433
B( 11-C , 12-N ) :   2.9755 B( 13-C , 14-N ) :   2.9679 B( 15-C , 16-C ) :   1.6097
B( 16-C , 17-C ) :   1.1340 B( 16-C , 75-H ) :   0.9420 B( 17-C , 18-C ) :   1.3929
B( 17-C , 22-C ) :   1.1380 B( 18-C , 19-C ) :   1.2578 B( 18-C , 76-H ) :   0.9936
B( 19-C , 20-C ) :   1.4504 B( 19-C , 77-H ) :   0.9915 B( 20-C , 21-C ) :   1.0960
B( 20-C , 26-C ) :   1.1126 B( 21-C , 22-C ) :   1.1671 B( 21-C , 25-N ) :   1.5631
B( 22-C , 23-N ) :   1.5883 B( 23-N , 24-O ) :   1.0727 B( 23-N , 25-N ) :   0.1783
B( 24-O , 25-N ) :   1.0704 B( 26-C , 27-N ) :   1.2392 B( 26-C , 33-C ) :   1.3526
B( 27-N , 28-C ) :   1.1882 B( 27-N , 78-H ) :   0.8958 B( 28-C , 29-C ) :   1.2635
B( 28-C , 32-C ) :   1.2696 B( 29-C , 30-C ) :   1.3894 B( 29-C , 79-H ) :   1.0366
B( 30-C , 31-N ) :   1.1692 B( 30-C , 34-C ) :   1.1320 B( 31-N , 32-C ) :   1.1679
B( 31-N , 80-H ) :   0.9345 B( 32-C , 33-C ) :   1.2985 B( 33-C , 81-H ) :   1.0187
B( 34-C , 35-C ) :   1.5886 B( 34-C , 82-H ) :   0.9604 B( 35-C , 36-C ) :   1.1987
B( 35-C , 83-H ) :   0.9557 B( 36-C , 37-S ) :   1.1302 B( 36-C , 38-C ) :   1.4306
B( 37-S , 51-C ) :   1.0946 B( 38-C , 39-C ) :   0.9423 B( 38-C , 50-C ) :   1.2200
B( 39-C , 40-O ) :   2.1851 B( 39-C , 41-C ) :   0.9983 B( 41-C , 42-C ) :   1.4259
B( 41-C , 47-C ) :   1.2921 B( 42-C , 43-N ) :   1.2332 B( 42-C , 84-H ) :   0.9936
B( 43-N , 44-C ) :   0.9504 B( 43-N , 46-C ) :   1.2379 B( 44-C , 45-C ) :   1.1084
B( 44-C , 85-H ) :   0.9514 B( 44-C , 86-H ) :   0.9514 B( 45-C , 87-H ) :   0.9678
B( 45-C , 88-H ) :   0.9685 B( 45-C , 89-H ) :   0.9679 B( 46-C , 47-C ) :   1.4238
B( 46-C , 90-H ) :   0.9934 B( 47-C , 48-C ) :   1.0003 B( 48-C , 49-O ) :   2.1863
B( 48-C , 50-C ) :   0.9302 B( 50-C , 51-C ) :   1.4656 B( 51-C , 52-C ) :   1.1944
B( 52-C , 53-C ) :   1.6337 B( 52-C , 91-H ) :   0.9371 B( 53-C , 54-C ) :   1.1251
B( 53-C , 92-H ) :   0.9497 B( 54-C , 55-C ) :   1.6380 B( 54-C , 93-H ) :   0.9185
B( 55-C , 56-C ) :   0.9502 B( 55-C , 66-C ) :   1.0559 B( 56-C , 57-O ) :   2.2603
B( 56-C , 58-C ) :   0.9308 B( 58-C , 59-C ) :   1.3407 B( 58-C , 63-C ) :   1.3245
B( 59-C , 60-C ) :   1.3187 B( 59-C , 66-C ) :   1.0157 B( 60-C , 61-C ) :   1.3330
B( 60-C , 63-C ) :   0.1044 B( 60-C , 94-H ) :   0.9955 B( 61-C , 62-C ) :   1.2912
B( 61-C , 65-F ) :   1.1437 B( 62-C , 63-C ) :   1.3207 B( 62-C , 64-F ) :   1.1304
B( 63-C , 95-H ) :   1.0203 B( 66-C , 67-C ) :   1.6493 B( 67-C , 68-C ) :   1.1568
B( 67-C , 70-C ) :   1.1244 B( 68-C , 69-N ) :   3.0181 B( 70-C , 71-N ) :   2.9907

-----------------------------------------------------------------------------
         ABSORPTION SPECTRUM VIA TRANSITION ELECTRIC DIPOLE MOMENTS
-----------------------------------------------------------------------------
State   Energy  Wavelength   fosc         T2         TX        TY        TZ
        (cm-1)    (nm)                  (au**2)     (au)      (au)      (au)
-----------------------------------------------------------------------------
   0   12609.8    793.0   1.835752213  47.92716   0.15409  -5.00079  -4.78493
   1   16173.9    618.3   0.273731347   5.57167   1.90701  -0.19427  -1.37741
   2   22061.3    453.3   0.067061248   1.00073   0.84230  -0.25421  -0.47606
   3   22779.0    439.0   0.097591278   1.41043   0.87211   0.59545  -0.54340
   4   23208.6    430.9   0.127065000   1.80241   0.67977  -0.71517  -0.91041
   5   23526.1    425.1   0.308761104   4.32064  -1.96788  -0.27018   0.61244
   6   25305.8    395.2   0.096732087   1.25842   0.58213   0.87249   0.39787
   7   26058.5    383.8   0.141001263   1.78135  -1.25970  -0.42897   0.10247
   8   27057.8    369.6   0.009914413   0.12063   0.22086  -0.25702  -0.07610
   9   27363.8    365.4   0.068653971   0.82597  -0.40369  -0.75308  -0.30963
  10   27475.6    364.0   0.013824646   0.16565  -0.26590  -0.30375   0.05177
  11   28085.2    356.1   0.093195962   1.09243   0.76854   0.64382  -0.29542
  12   28606.6    349.6   0.034062002   0.39199   0.15334  -0.56869   0.21230
  13   29184.1    342.7   0.052576129   0.59309   0.51767  -0.27637  -0.49872
  14   29572.3    338.2   0.013619426   0.15162  -0.38071   0.04588   0.06760
  15   30045.5    332.8   0.004887342   0.05355   0.14199   0.16921   0.06898
  16   30323.4    329.8   0.009235459   0.10027   0.14584  -0.19294   0.20438
  17   30357.0    329.4   0.144923436   1.57165  -0.84299  -0.88220  -0.28766
  18   31008.0    322.5   0.034503321   0.36632  -0.45158   0.01141  -0.40282
  19   31111.9    321.4   0.142909711   1.51221   1.17093  -0.02561   0.37481
  20   31649.6    316.0   0.062821580   0.65345  -0.74084  -0.23841   0.21858
  21   32136.3    311.2   0.006458568   0.06616   0.14749   0.18542   0.10016
  22   32470.5    308.0   0.077920385   0.79002   0.73225   0.45438  -0.21765
  23   32726.3    305.6   0.192338730   1.93484  -1.24668  -0.42723   0.44508
  24   33113.4    302.0   0.116518376   1.15842   1.06164   0.04478  -0.17131
  25   33453.4    298.9   0.044791048   0.44079   0.24728  -0.42688   0.44431
  26   33739.2    296.4   0.052124240   0.50860   0.44533  -0.19633  -0.52129
  27   33999.3    294.1   0.053283694   0.51594   0.69171  -0.01599  -0.19292
  28   34406.7    290.6   0.254642579   2.43648   1.07682   0.92554  -0.64831
  29   35690.4    280.2   0.079120887   0.72982   0.43298   0.61200  -0.40964
  30   35785.2    279.4   0.250300602   2.30268  -1.15887  -0.52904   0.82451
  31   35873.8    278.8   0.004424719   0.04061   0.15488  -0.12567  -0.02875
  32   35950.2    278.2   0.008737028   0.08001  -0.10226  -0.05783   0.25731
  33   36243.1    275.9   0.014431468   0.13109   0.03296  -0.18087  -0.31191
  34   36469.7    274.2   0.055900064   0.50461   0.53935  -0.10703  -0.44972
  35   36524.1    273.8   0.025972429   0.23410  -0.35084  -0.13339   0.30532
  36   36759.7    272.0   0.376445632   3.37136   1.57458  -0.82014  -0.46844
  37   37046.9    269.9   0.210963387   1.87470  -1.03756  -0.17855  -0.87537
  38   37443.3    267.1   0.107223854   0.94274  -0.22509   0.44380  -0.83374
  39   37735.8    265.0   0.383845607   3.34872  -1.33334   1.23933   0.18701
  40   38143.3    262.2   0.009971341   0.08606  -0.09510  -0.27560  -0.03257
  41   38220.9    261.6   0.014222644   0.12251   0.28536  -0.01687   0.20196
  42   38436.2    260.2   0.075223688   0.64430   0.78645  -0.11601  -0.11111
  43   38609.8    259.0   0.011432207   0.09748  -0.20098   0.17429   0.16342
  44   38934.0    256.8   0.057604687   0.48708   0.52563  -0.43888  -0.13483
  45   39080.0    255.9   0.003822894   0.03220  -0.15807  -0.04957  -0.06900
  46   39253.6    254.8   0.011826225   0.09918   0.19420  -0.14215   0.20313
  47   39535.2    252.9   0.026568431   0.22124  -0.40891  -0.18358  -0.14258
  48   39567.5    252.7   0.051809560   0.43107   0.48861  -0.04753  -0.43597
  49   39888.9    250.7   0.123233918   1.01708   0.58082   0.81535   0.12217
  50   40106.7    249.3   0.020404314   0.16749  -0.34613  -0.21700  -0.02440
  51   40156.1    249.0   0.024841048   0.20365  -0.37235  -0.25373  -0.02509

FINAL SINGLE POINT ENERGY     -6108.745026927320

DIPOLE MOMENT
-------------
                                X             Y             Z
Electronic contribution:    -26.83824     109.88739      80.96192
Nuclear contribution   :     29.18981    -109.20820     -84.08221
                        -----------------------------------------
Total Dipole Moment    :      2.35157       0.67919      -3.12029
                        -----------------------------------------
Magnitude (a.u.)       :      3.96578
Magnitude (Debye)      :     10.08021

Rotational constants in cm-1:     0.001061     0.000214     0.000183
Rotational constants in MHz :    31.806056     6.425196     5.483828

                             ****ORCA TERMINATED NORMALLY****
TOTAL RUN TIME: 0 days 0 hours 8 minutes 35 seconds 440 msec
