                         Program Version 4.2.0 -  RELEASE  -
|  1> # ORCA input file
|  2> # SCF done       -199.858663111755          0.000485235597
|  3> ! CAM-B3LYP def2-SVP def2/J RIJCOSX Grid4 TightSCF
|  4> %maxcore 5000
|  5> %tddft
|  6>     Mode sTDDFT
|  7>     Ethresh 5.0
|  8>     maxcore 5000
|  9> end
| 10>
| 11> %pal
| 12>   nprocs 6
| 13>   end
| 14> * xyz 0 1
| 15>    C       -6.99439        -0.42555         9.96881
| 16>    O       -6.02505        -0.54797         9.24646
| 17>    C       -7.30280         0.74615        10.82203
| 18>    C       -8.43394         0.47349        11.60977
| 19>    C       -8.89827         1.43336        12.49598
| 20>    C       -8.22906         2.64641        12.57780
| 21>    C       -7.11483         2.89318        11.78848
| 22>    C       -6.62745         1.94545        10.89800
| 23>   Br       -6.23395         4.57191        11.92982
| 24>    C       -8.91051        -0.87173        11.28964
| 25>    C      -10.03735        -1.46261        11.80653
| 26>    C      -10.86299        -0.86857        12.78168
| 27>    N      -11.56712        -0.43785        13.58002
| 28>    C      -10.53244        -2.72432        11.41927
| 29>    N      -11.00259        -3.73404        11.13776
| 30>    C       -8.03218        -1.42218        10.28666
| 31>    C       -8.00996        -2.73651         9.86790
| 32>    C       -7.30854        -3.24753         8.77566
| 33>    S       -6.86059        -4.94582         8.78441
| 34>    C       -5.99752        -4.83878         7.27451
| 35>    C       -6.12448        -3.55051         6.76799
| 36>    C       -6.86793        -2.65953         7.58083
| 37>    C       -7.05837        -1.40963         6.95047
| 38>    C       -6.43124        -1.34810         5.73987
| 39>    C       -6.37541        -0.23158         4.79199
| 40>    O       -5.78104        -0.26917         3.74265
| 41>    O       -7.06507         0.82995         5.22877
| 42>    C       -7.05313         1.96304         4.37145
| 43>    S       -5.59879        -2.81167         5.29389
| 44>    C       -5.29340        -5.93368         6.73510
| 45>    N       -5.30354        -7.18153         7.32531
| 46>    C       -4.51557        -8.00808         6.59107
| 47>    C       -4.02085        -9.30236         6.50323
| 48>    C       -3.19127        -9.32292         5.37098
| 49>    N       -3.19078        -8.07518         4.78238
| 50>    C       -3.98938        -7.25261         5.50466
| 51>    C       -4.47993        -5.95694         5.59095
| 52>    C       -2.40095       -10.35863         4.81705
| 53>    C       -2.34894       -11.62784         5.29139
| 54>    C       -1.58422       -12.72532         4.81199
| 55>    S       -1.97868       -14.22412         5.61251
| 56>    C       -0.58485       -12.92148         3.84761
| 57>    C        0.02886       -11.88871         2.99023
| 58>    O       -0.23268       -10.69457         3.02023
| 59>    C        1.02004       -12.41622         2.06793
| 60>    C        1.75007       -11.74789         1.10871
| 61>    N        2.53315       -12.64245         0.45922
| 62>    C        3.48790       -12.31409        -0.56977
| 63>    C        4.83240       -11.91850         0.03696
| 64>    C        2.33988       -13.87546         0.97868
| 65>    C        1.40029       -13.78257         1.98443
| 66>    C        0.83392       -14.81055         2.82526
| 67>    O        1.14637       -15.99049         2.73716
| 68>    C       -0.16270       -14.28346         3.78295
| 69>    C       -0.82234       -15.11368         4.68348
| 70>    C       -0.66192       -16.51335         4.81099
| 71>    C       -1.52307       -17.36162         5.42518
| 72>    C       -1.35030       -18.76942         5.42772
| 73>    C       -0.63181       -19.54348         4.56470
| 74>    C       -0.26603       -20.92298         4.98334
| 75>    O       -0.72563       -21.55149         5.90776
| 76>    C        0.82130       -21.32884         4.06484
| 77>    C        1.00258       -20.33347         3.08796
| 78>    C       -0.00269       -19.28876         3.27920
| 79>    C       -0.40815       -18.42672         2.29837
| 80>    C       -1.52349       -17.56994         2.39736
| 81>    N       -2.43954       -16.87880         2.39658
| 82>    C        0.21243       -18.31543         1.03601
| 83>    N        0.67739       -18.18055        -0.00423
| 84>    C        2.00947       -20.46425         2.14712
| 85>    C        2.80982       -21.59945         2.18703
| 86>    C        2.60789       -22.59608         3.14385
| 87>    C        1.60743       -22.46229         4.09780
| 88>   Br        3.70159       -24.13836         3.15997
| 89>   Br        4.19788       -21.77520         0.91631
| 90>    H       -9.75807         1.25976        13.12186
| 91>    H       -8.57669         3.40473        13.26243
| 92>    H       -5.75955         2.13083        10.28433
| 93>    H       -8.53531        -3.46926        10.46867
| 94>    H       -7.64060        -0.59795         7.34102
| 95>    H       -7.65357         2.72235         4.86519
| 96>    H       -7.47878         1.70695         3.39898
| 97>    H       -6.03045         2.31619         4.22491
| 98>    H       -5.81833        -7.41160         8.15829
| 99>    H       -4.21193       -10.12726         7.15837
|100>    H       -2.65910        -7.84150         3.96082
|101>    H       -4.29083        -5.12447         4.94510
|102>    H       -1.79440       -10.09086         3.96518
|103>    H       -2.97928       -11.88374         6.13458
|104>    H        1.74303       -10.70665         0.85426
|105>    H        3.08877       -11.48851        -1.16432
|106>    H        3.61108       -13.18494        -1.21783
|107>    H        4.71686       -11.05266         0.68454
|108>    H        5.53748       -11.67276        -0.75184
|109>    H        5.23811       -12.73819         0.62474
|110>    H        2.85530       -14.74041         0.61103
|111>    H        0.22566       -16.90938         4.33812
|112>    H       -2.36818       -16.96389         5.97266
|113>    H       -1.80648       -19.31587         6.24759
|114>    H        2.19579       -19.70686         1.40300
|115>    H        1.44899       -23.22261         4.84671
|116> *
|117>
|118>                          ****END OF INPUT****

CARTESIAN COORDINATES (ANGSTROEM)
---------------------------------
  C     -6.994390   -0.425550    9.968810
  O     -6.025050   -0.547970    9.246460
  C     -7.302800    0.746150   10.822030
  C     -8.433940    0.473490   11.609770
  C     -8.898270    1.433360   12.495980
  C     -8.229060    2.646410   12.577800
  C     -7.114830    2.893180   11.788480
  C     -6.627450    1.945450   10.898000
  Br    -6.233950    4.571910   11.929820
  C     -8.910510   -0.871730   11.289640
  C    -10.037350   -1.462610   11.806530
  C    -10.862990   -0.868570   12.781680
  N    -11.567120   -0.437850   13.580020
  C    -10.532440   -2.724320   11.419270
  N    -11.002590   -3.734040   11.137760
  C     -8.032180   -1.422180   10.286660
  C     -8.009960   -2.736510    9.867900
  C     -7.308540   -3.247530    8.775660
  S     -6.860590   -4.945820    8.784410
  C     -5.997520   -4.838780    7.274510
  C     -6.124480   -3.550510    6.767990
  C     -6.867930   -2.659530    7.580830
  C     -7.058370   -1.409630    6.950470
  C     -6.431240   -1.348100    5.739870
  C     -6.375410   -0.231580    4.791990
  O     -5.781040   -0.269170    3.742650
  O     -7.065070    0.829950    5.228770
  C     -7.053130    1.963040    4.371450
  S     -5.598790   -2.811670    5.293890
  C     -5.293400   -5.933680    6.735100
  N     -5.303540   -7.181530    7.325310
  C     -4.515570   -8.008080    6.591070
  C     -4.020850   -9.302360    6.503230
  C     -3.191270   -9.322920    5.370980
  N     -3.190780   -8.075180    4.782380
  C     -3.989380   -7.252610    5.504660
  C     -4.479930   -5.956940    5.590950
  C     -2.400950  -10.358630    4.817050
  C     -2.348940  -11.627840    5.291390
  C     -1.584220  -12.725320    4.811990
  S     -1.978680  -14.224120    5.612510
  C     -0.584850  -12.921480    3.847610
  C      0.028860  -11.888710    2.990230
  O     -0.232680  -10.694570    3.020230
  C      1.020040  -12.416220    2.067930
  C      1.750070  -11.747890    1.108710
  N      2.533150  -12.642450    0.459220
  C      3.487900  -12.314090   -0.569770
  C      4.832400  -11.918500    0.036960
  C      2.339880  -13.875460    0.978680
  C      1.400290  -13.782570    1.984430
  C      0.833920  -14.810550    2.825260
  O      1.146370  -15.990490    2.737160
  C     -0.162700  -14.283460    3.782950
  C     -0.822340  -15.113680    4.683480
  C     -0.661920  -16.513350    4.810990
  C     -1.523070  -17.361620    5.425180
  C     -1.350300  -18.769420    5.427720
  C     -0.631810  -19.543480    4.564700
  C     -0.266030  -20.922980    4.983340
  O     -0.725630  -21.551490    5.907760
  C      0.821300  -21.328840    4.064840
  C      1.002580  -20.333470    3.087960
  C     -0.002690  -19.288760    3.279200
  C     -0.408150  -18.426720    2.298370
  C     -1.523490  -17.569940    2.397360
  N     -2.439540  -16.878800    2.396580
  C      0.212430  -18.315430    1.036010
  N      0.677390  -18.180550   -0.004230
  C      2.009470  -20.464250    2.147120
  C      2.809820  -21.599450    2.187030
  C      2.607890  -22.596080    3.143850
  C      1.607430  -22.462290    4.097800
  Br     3.701590  -24.138360    3.159970
  Br     4.197880  -21.775200    0.916310
  H     -9.758070    1.259760   13.121860
  H     -8.576690    3.404730   13.262430
  H     -5.759550    2.130830   10.284330
  H     -8.535310   -3.469260   10.468670
  H     -7.640600   -0.597950    7.341020
  H     -7.653570    2.722350    4.865190
  H     -7.478780    1.706950    3.398980
  H     -6.030450    2.316190    4.224910
  H     -5.818330   -7.411600    8.158290
  H     -4.211930  -10.127260    7.158370
  H     -2.659100   -7.841500    3.960820
  H     -4.290830   -5.124470    4.945100
  H     -1.794400  -10.090860    3.965180
  H     -2.979280  -11.883740    6.134580
  H      1.743030  -10.706650    0.854260
  H      3.088770  -11.488510   -1.164320
  H      3.611080  -13.184940   -1.217830
  H      4.716860  -11.052660    0.684540
  H      5.537480  -11.672760   -0.751840
  H      5.238110  -12.738190    0.624740
  H      2.855300  -14.740410    0.611030
  H      0.225660  -16.909380    4.338120
  H     -2.368180  -16.963890    5.972660
  H     -1.806480  -19.315870    6.247590
  H      2.195790  -19.706860    1.403000
  H      1.448990  -23.222610    4.846710

 Total Charge           Charge          ....    0
 Multiplicity           Mult            ....    1
 Number of Electrons    NEL             ....  612
 Basis Dimension        Dim             .... 1246

ORBITAL ENERGIES
----------------

  NO   OCC          E(Eh)            E(eV)
   0   2.0000    -482.873819    -13139.6646
   1   2.0000    -482.873421    -13139.6538
   2   2.0000    -482.867426    -13139.4907
   3   2.0000     -88.980169     -2421.2735
   4   2.0000     -88.973019     -2421.0789
   5   2.0000     -88.967703     -2420.9343
   6   2.0000     -62.551414     -1702.1105
   7   2.0000     -62.551027     -1702.1000
   8   2.0000     -62.545142     -1701.9398
   9   2.0000     -56.385359     -1534.3236
  10   2.0000     -56.384973     -1534.3131
  11   2.0000     -56.382711     -1534.2516
  12   2.0000     -56.382626     -1534.2493
  13   2.0000     -56.382329     -1534.2412
  14   2.0000     -56.382233     -1534.2385
  15   2.0000     -56.378966     -1534.1497
  16   2.0000     -56.376464     -1534.0816
  17   2.0000     -56.376458     -1534.0814
  18   2.0000     -19.266256      -524.2615
  19   2.0000     -19.216127      -522.8974
  20   2.0000     -19.210882      -522.7547
  21   2.0000     -19.209714      -522.7229
  22   2.0000     -19.208816      -522.6985
  23   2.0000     -19.206337      -522.6310
  24   2.0000     -14.492238      -394.3538
  25   2.0000     -14.475997      -393.9119
  26   2.0000     -14.470575      -393.7644
  27   2.0000     -14.414136      -392.2286
  28   2.0000     -14.412455      -392.1828
  29   2.0000     -14.408530      -392.0760
  30   2.0000     -14.407010      -392.0347
  31   2.0000     -10.410466      -283.2832
  32   2.0000     -10.368510      -282.1415
  33   2.0000     -10.367573      -282.1160
  34   2.0000     -10.367035      -282.1014
  35   2.0000     -10.360668      -281.9281
  36   2.0000     -10.350506      -281.6516
  37   2.0000     -10.349458      -281.6231
  38   2.0000     -10.342673      -281.4384
  39   2.0000     -10.342627      -281.4372
  40   2.0000     -10.339909      -281.3632
  41   2.0000     -10.338575      -281.3269
  42   2.0000     -10.336299      -281.2650
  43   2.0000     -10.333584      -281.1911
  44   2.0000     -10.332977      -281.1746
  45   2.0000     -10.332154      -281.1522
  46   2.0000     -10.330719      -281.1131
  47   2.0000     -10.326049      -280.9861
  48   2.0000     -10.321192      -280.8539
  49   2.0000     -10.319618      -280.8111
  50   2.0000     -10.318494      -280.7805
  51   2.0000     -10.318264      -280.7742
  52   2.0000     -10.317491      -280.7532
  53   2.0000     -10.317011      -280.7401
  54   2.0000     -10.316067      -280.7144
  55   2.0000     -10.315801      -280.7072
  56   2.0000     -10.315108      -280.6884
  57   2.0000     -10.314965      -280.6845
  58   2.0000     -10.313507      -280.6448
  59   2.0000     -10.313471      -280.6438
  60   2.0000     -10.313123      -280.6343
  61   2.0000     -10.311968      -280.6029
  62   2.0000     -10.310560      -280.5646
  63   2.0000     -10.310238      -280.5558
  64   2.0000     -10.308001      -280.4950
  65   2.0000     -10.306813      -280.4626
  66   2.0000     -10.305374      -280.4235
  67   2.0000     -10.302231      -280.3380
  68   2.0000     -10.299563      -280.2653
  69   2.0000     -10.299153      -280.2542
  70   2.0000     -10.297561      -280.2109
  71   2.0000     -10.297540      -280.2103
  72   2.0000     -10.297074      -280.1976
  73   2.0000     -10.296733      -280.1884
  74   2.0000     -10.296648      -280.1860
  75   2.0000     -10.295507      -280.1550
  76   2.0000     -10.295173      -280.1459
  77   2.0000     -10.291540      -280.0470
  78   2.0000     -10.291537      -280.0470
  79   2.0000     -10.290867      -280.0287
  80   2.0000     -10.287692      -279.9423
  81   2.0000     -10.287576      -279.9392
  82   2.0000     -10.286832      -279.9189
  83   2.0000     -10.285058      -279.8707
  84   2.0000     -10.278026      -279.6793
  85   2.0000     -10.272981      -279.5420
  86   2.0000     -10.272067      -279.5171
  87   2.0000      -8.780714      -238.9354
  88   2.0000      -8.780335      -238.9251
  89   2.0000      -8.774417      -238.7640
  90   2.0000      -8.075518      -219.7460
  91   2.0000      -8.069085      -219.5710
  92   2.0000      -8.062585      -219.3941
  93   2.0000      -6.616805      -180.0524
  94   2.0000      -6.616429      -180.0422
  95   2.0000      -6.610219      -179.8732
  96   2.0000      -6.602833      -179.6722
  97   2.0000      -6.602475      -179.6625
  98   2.0000      -6.602104      -179.6524
  99   2.0000      -6.601699      -179.6414
 100   2.0000      -6.596543      -179.5011
 101   2.0000      -6.596133      -179.4899
 102   2.0000      -6.044918      -164.4906
 103   2.0000      -6.040800      -164.3785
 104   2.0000      -6.038149      -164.3064
 105   2.0000      -6.037404      -164.2861
 106   2.0000      -6.034102      -164.1963
 107   2.0000      -6.032313      -164.1476
 108   2.0000      -6.031398      -164.1227
 109   2.0000      -6.028046      -164.0315
 110   2.0000      -6.023931      -163.9195
 111   2.0000      -2.732750       -74.3619
 112   2.0000      -2.732390       -74.3521
 113   2.0000      -2.728937       -74.2582
 114   2.0000      -2.728566       -74.2481
 115   2.0000      -2.728373       -74.2428
 116   2.0000      -2.727982       -74.2322
 117   2.0000      -2.726118       -74.1814
 118   2.0000      -2.722396       -74.0802
 119   2.0000      -2.722153       -74.0736
 120   2.0000      -2.717281       -73.9410
 121   2.0000      -2.717249       -73.9401
 122   2.0000      -2.716874       -73.9299
 123   2.0000      -2.716868       -73.9297
 124   2.0000      -2.711251       -73.7769
 125   2.0000      -2.711233       -73.7764
 126   2.0000      -1.197974       -32.5985
 127   2.0000      -1.131718       -30.7956
 128   2.0000      -1.126863       -30.6635
 129   2.0000      -1.124813       -30.6077
 130   2.0000      -1.122316       -30.5398
 131   2.0000      -1.112054       -30.2605
 132   2.0000      -1.107399       -30.1338
 133   2.0000      -1.104543       -30.0561
 134   2.0000      -1.071046       -29.1446
 135   2.0000      -1.021971       -27.8092
 136   2.0000      -1.020286       -27.7634
 137   2.0000      -1.012000       -27.5379
 138   2.0000      -1.005024       -27.3481
 139   2.0000      -1.003358       -27.3028
 140   2.0000      -0.994325       -27.0569
 141   2.0000      -0.991228       -26.9727
 142   2.0000      -0.986615       -26.8472
 143   2.0000      -0.973282       -26.4843
 144   2.0000      -0.964426       -26.2434
 145   2.0000      -0.956096       -26.0167
 146   2.0000      -0.942453       -25.6455
 147   2.0000      -0.930059       -25.3082
 148   2.0000      -0.916076       -24.9277
 149   2.0000      -0.914932       -24.8966
 150   2.0000      -0.911460       -24.8021
 151   2.0000      -0.906760       -24.6742
 152   2.0000      -0.902765       -24.5655
 153   2.0000      -0.891386       -24.2559
 154   2.0000      -0.890217       -24.2240
 155   2.0000      -0.884047       -24.0561
 156   2.0000      -0.879259       -23.9258
 157   2.0000      -0.872982       -23.7551
 158   2.0000      -0.859707       -23.3938
 159   2.0000      -0.856421       -23.3044
 160   2.0000      -0.852062       -23.1858
 161   2.0000      -0.849232       -23.1088
 162   2.0000      -0.844526       -22.9807
 163   2.0000      -0.844205       -22.9720
 164   2.0000      -0.841193       -22.8900
 165   2.0000      -0.826624       -22.4936
 166   2.0000      -0.816013       -22.2049
 167   2.0000      -0.806288       -21.9402
 168   2.0000      -0.794173       -21.6106
 169   2.0000      -0.779526       -21.2120
 170   2.0000      -0.774373       -21.0718
 171   2.0000      -0.769803       -20.9474
 172   2.0000      -0.763291       -20.7702
 173   2.0000      -0.760251       -20.6875
 174   2.0000      -0.746033       -20.3006
 175   2.0000      -0.736469       -20.0403
 176   2.0000      -0.725201       -19.7337
 177   2.0000      -0.719507       -19.5788
 178   2.0000      -0.709103       -19.2957
 179   2.0000      -0.706445       -19.2234
 180   2.0000      -0.703969       -19.1560
 181   2.0000      -0.702541       -19.1171
 182   2.0000      -0.696350       -18.9486
 183   2.0000      -0.688358       -18.7312
 184   2.0000      -0.684528       -18.6270
 185   2.0000      -0.681320       -18.5397
 186   2.0000      -0.675988       -18.3946
 187   2.0000      -0.664117       -18.0716
 188   2.0000      -0.660500       -17.9731
 189   2.0000      -0.655066       -17.8252
 190   2.0000      -0.647245       -17.6124
 191   2.0000      -0.643222       -17.5030
 192   2.0000      -0.639636       -17.4054
 193   2.0000      -0.630988       -17.1700
 194   2.0000      -0.625633       -17.0243
 195   2.0000      -0.621106       -16.9012
 196   2.0000      -0.617529       -16.8038
 197   2.0000      -0.612525       -16.6677
 198   2.0000      -0.607860       -16.5407
 199   2.0000      -0.605890       -16.4871
 200   2.0000      -0.591984       -16.1087
 201   2.0000      -0.591006       -16.0821
 202   2.0000      -0.585392       -15.9293
 203   2.0000      -0.580736       -15.8026
 204   2.0000      -0.578142       -15.7320
 205   2.0000      -0.576556       -15.6889
 206   2.0000      -0.573769       -15.6131
 207   2.0000      -0.571726       -15.5575
 208   2.0000      -0.570691       -15.5293
 209   2.0000      -0.563655       -15.3378
 210   2.0000      -0.558760       -15.2046
 211   2.0000      -0.555059       -15.1039
 212   2.0000      -0.553342       -15.0572
 213   2.0000      -0.551487       -15.0067
 214   2.0000      -0.550269       -14.9736
 215   2.0000      -0.546143       -14.8613
 216   2.0000      -0.542555       -14.7637
 217   2.0000      -0.539695       -14.6858
 218   2.0000      -0.538966       -14.6660
 219   2.0000      -0.536703       -14.6044
 220   2.0000      -0.535787       -14.5795
 221   2.0000      -0.532048       -14.4778
 222   2.0000      -0.531247       -14.4560
 223   2.0000      -0.527714       -14.3598
 224   2.0000      -0.527131       -14.3440
 225   2.0000      -0.524612       -14.2754
 226   2.0000      -0.523874       -14.2553
 227   2.0000      -0.523166       -14.2361
 228   2.0000      -0.521353       -14.1867
 229   2.0000      -0.515882       -14.0379
 230   2.0000      -0.513207       -13.9651
 231   2.0000      -0.511198       -13.9104
 232   2.0000      -0.508313       -13.8319
 233   2.0000      -0.503969       -13.7137
 234   2.0000      -0.502621       -13.6770
 235   2.0000      -0.496702       -13.5159
 236   2.0000      -0.495984       -13.4964
 237   2.0000      -0.492330       -13.3970
 238   2.0000      -0.489231       -13.3127
 239   2.0000      -0.488329       -13.2881
 240   2.0000      -0.487955       -13.2779
 241   2.0000      -0.481785       -13.1100
 242   2.0000      -0.481144       -13.0926
 243   2.0000      -0.480724       -13.0812
 244   2.0000      -0.479813       -13.0564
 245   2.0000      -0.479193       -13.0395
 246   2.0000      -0.475761       -12.9461
 247   2.0000      -0.472786       -12.8652
 248   2.0000      -0.468658       -12.7528
 249   2.0000      -0.463760       -12.6195
 250   2.0000      -0.460636       -12.5345
 251   2.0000      -0.460136       -12.5209
 252   2.0000      -0.458544       -12.4776
 253   2.0000      -0.458065       -12.4646
 254   2.0000      -0.455088       -12.3836
 255   2.0000      -0.454170       -12.3586
 256   2.0000      -0.452531       -12.3140
 257   2.0000      -0.448088       -12.1931
 258   2.0000      -0.446553       -12.1513
 259   2.0000      -0.444926       -12.1071
 260   2.0000      -0.442838       -12.0502
 261   2.0000      -0.441950       -12.0261
 262   2.0000      -0.441854       -12.0234
 263   2.0000      -0.438480       -11.9316
 264   2.0000      -0.438048       -11.9199
 265   2.0000      -0.436423       -11.8757
 266   2.0000      -0.434250       -11.8165
 267   2.0000      -0.428074       -11.6485
 268   2.0000      -0.425473       -11.5777
 269   2.0000      -0.425338       -11.5740
 270   2.0000      -0.421277       -11.4635
 271   2.0000      -0.420635       -11.4461
 272   2.0000      -0.420365       -11.4387
 273   2.0000      -0.415613       -11.3094
 274   2.0000      -0.415372       -11.3029
 275   2.0000      -0.405581       -11.0364
 276   2.0000      -0.403098       -10.9689
 277   2.0000      -0.401052       -10.9132
 278   2.0000      -0.397957       -10.8290
 279   2.0000      -0.394815       -10.7435
 280   2.0000      -0.387674       -10.5491
 281   2.0000      -0.383951       -10.4478
 282   2.0000      -0.375680       -10.2228
 283   2.0000      -0.369585       -10.0569
 284   2.0000      -0.364600        -9.9213
 285   2.0000      -0.362474        -9.8634
 286   2.0000      -0.358045        -9.7429
 287   2.0000      -0.346472        -9.4280
 288   2.0000      -0.345029        -9.3887
 289   2.0000      -0.345002        -9.3880
 290   2.0000      -0.341010        -9.2793
 291   2.0000      -0.338537        -9.2121
 292   2.0000      -0.336409        -9.1541
 293   2.0000      -0.335938        -9.1413
 294   2.0000      -0.332994        -9.0612
 295   2.0000      -0.329069        -8.9544
 296   2.0000      -0.327271        -8.9055
 297   2.0000      -0.322652        -8.7798
 298   2.0000      -0.318292        -8.6612
 299   2.0000      -0.308821        -8.4034
 300   2.0000      -0.307360        -8.3637
 301   2.0000      -0.305212        -8.3052
 302   2.0000      -0.301806        -8.2126
 303   2.0000      -0.291367        -7.9285
 304   2.0000      -0.269149        -7.3239
 305   2.0000      -0.229415        -6.2427
 306   0.0000      -0.103123        -2.8061
 307   0.0000      -0.094707        -2.5771
 308   0.0000      -0.066086        -1.7983
 309   0.0000      -0.063652        -1.7321
 310   0.0000      -0.058470        -1.5910

MULLIKEN ATOMIC CHARGES
-----------------------
   0 C :    0.122812
   1 O :   -0.152607
   2 C :   -0.023287
   3 C :    0.038015
   4 C :   -0.033175
   5 C :    0.047121
   6 C :   -0.001645
   7 C :   -0.019278
   8 Br:   -0.029072
   9 C :    0.301421
  10 C :   -0.349455
  11 C :   -0.188008
  12 N :    0.142985
  13 C :   -0.205008
  14 N :    0.155450
  15 C :   -0.123704
  16 C :    0.030077
  17 C :   -0.136837
  18 S :    0.142928
  19 C :   -0.080329
  20 C :   -0.078528
  21 C :    0.176830
  22 C :    0.048174
  23 C :   -0.143539
  24 C :    0.212434
  25 O :   -0.202349
  26 O :   -0.297910
  27 C :    0.190000
  28 S :    0.162669
  29 C :    0.053763
  30 N :   -0.047056
  31 C :    0.124649
  32 C :   -0.169948
  33 C :    0.099048
  34 N :   -0.023743
  35 C :    0.112687
  36 C :   -0.153760
  37 C :    0.022337
  38 C :    0.017493
  39 C :   -0.117539
  40 S :    0.150278
  41 C :    0.006484
  42 C :    0.143045
  43 O :   -0.189376
  44 C :   -0.000099
  45 C :    0.007072
  46 N :   -0.134326
  47 C :    0.089085
  48 C :    0.001609
  49 C :    0.021559
  50 C :   -0.020409
  51 C :    0.149917
  52 O :   -0.191207
  53 C :    0.028550
  54 C :   -0.136212
  55 C :    0.022753
  56 C :    0.003512
  57 C :    0.047886
  58 C :   -0.121677
  59 C :    0.133182
  60 O :   -0.139858
  61 C :    0.006954
  62 C :    0.008136
  63 C :    0.266567
  64 C :   -0.313482
  65 C :   -0.204254
  66 N :    0.174473
  67 C :   -0.163571
  68 N :    0.152054
  69 C :   -0.006612
  70 C :   -0.023569
  71 C :   -0.015821
  72 C :   -0.025873
  73 Br:    0.008612
  74 Br:    0.013556
  75 H :    0.006478
  76 H :    0.002185
  77 H :   -0.002512
  78 H :    0.019521
  79 H :    0.002589
  80 H :    0.037545
  81 H :    0.035148
  82 H :    0.036278
  83 H :    0.131797
  84 H :   -0.025931
  85 H :    0.134134
  86 H :   -0.017400
  87 H :    0.001575
  88 H :   -0.021058
  89 H :    0.004498
  90 H :    0.034539
  91 H :    0.038631
  92 H :    0.030112
  93 H :    0.032494
  94 H :    0.031200
  95 H :    0.013801
  96 H :    0.052564
  97 H :    0.003975
  98 H :    0.025350
  99 H :    0.012593
 100 H :    0.006838
Sum of atomic charges:    0.0000000

LOEWDIN ATOMIC CHARGES
----------------------
   0 C :    0.073285
   1 O :   -0.143428
   2 C :   -0.035526
   3 C :   -0.016450
   4 C :    0.006199
   5 C :   -0.017979
   6 C :   -0.100031
   7 C :   -0.005337
   8 Br:    0.107924
   9 C :    0.074176
  10 C :   -0.149188
  11 C :   -0.019603
  12 N :   -0.060006
  13 C :   -0.024188
  14 N :   -0.059336
  15 C :   -0.122741
  16 C :    0.040368
  17 C :   -0.184422
  18 S :    0.445275
  19 C :   -0.152680
  20 C :   -0.193356
  21 C :   -0.032127
  22 C :    0.001250
  23 C :   -0.186889
  24 C :    0.065694
  25 O :   -0.176040
  26 O :   -0.088271
  27 C :    0.084207
  28 S :    0.448880
  29 C :   -0.025287
  30 N :    0.067936
  31 C :   -0.003344
  32 C :   -0.087680
  33 C :    0.008419
  34 N :    0.080202
  35 C :   -0.016671
  36 C :   -0.071324
  37 C :    0.002074
  38 C :   -0.064719
  39 C :   -0.105347
  40 S :    0.474659
  41 C :   -0.097632
  42 C :    0.087987
  43 O :   -0.172472
  44 C :   -0.098010
  45 C :    0.030243
  46 N :    0.092229
  47 C :    0.044755
  48 C :   -0.057165
  49 C :    0.040040
  50 C :   -0.103986
  51 C :    0.091664
  52 O :   -0.172927
  53 C :   -0.066336
  54 C :   -0.145372
  55 C :    0.016229
  56 C :   -0.042796
  57 C :    0.067418
  58 C :   -0.089433
  59 C :    0.082665
  60 O :   -0.139175
  61 C :   -0.044649
  62 C :   -0.005483
  63 C :    0.060675
  64 C :   -0.117823
  65 C :   -0.012743
  66 N :   -0.041699
  67 C :   -0.013309
  68 N :   -0.053502
  69 C :   -0.009226
  70 C :   -0.118881
  71 C :   -0.125563
  72 C :    0.005848
  73 Br:    0.132790
  74 Br:    0.136343
  75 H :    0.042225
  76 H :    0.038927
  77 H :    0.041810
  78 H :    0.043168
  79 H :    0.038474
  80 H :    0.027527
  81 H :    0.024736
  82 H :    0.025263
  83 H :    0.086512
  84 H :    0.026572
  85 H :    0.096673
  86 H :    0.022492
  87 H :    0.029341
  88 H :    0.023517
  89 H :    0.028553
  90 H :    0.034053
  91 H :    0.035985
  92 H :    0.030138
  93 H :    0.033987
  94 H :    0.030974
  95 H :    0.032796
  96 H :    0.040952
  97 H :    0.028083
  98 H :    0.046655
  99 H :    0.045263
 100 H :    0.046046

  Mayer bond orders larger than 0.100000
B(  0-C ,  1-O ) :   2.1969 B(  0-C ,  2-C ) :   0.9318 B(  0-C , 15-C ) :   0.9820
B(  2-C ,  3-C ) :   1.3349 B(  2-C ,  7-C ) :   1.3856 B(  3-C ,  4-C ) :   1.3687
B(  3-C ,  9-C ) :   0.9851 B(  4-C ,  5-C ) :   1.3732 B(  4-C , 75-H ) :   0.9851
B(  5-C ,  6-C ) :   1.3969 B(  5-C , 76-H ) :   0.9851 B(  6-C ,  7-C ) :   1.3280
B(  6-C ,  8-Br) :   0.9871 B(  7-C , 77-H ) :   1.0087 B(  9-C , 10-C ) :   1.6195
B(  9-C , 15-C ) :   1.1077 B( 10-C , 11-C ) :   1.1425 B( 10-C , 13-C ) :   1.1433
B( 11-C , 12-N ) :   2.9724 B( 13-C , 14-N ) :   2.9919 B( 15-C , 16-C ) :   1.4743
B( 16-C , 17-C ) :   1.3012 B( 16-C , 78-H ) :   0.9311 B( 17-C , 18-S ) :   1.0618
B( 17-C , 21-C ) :   1.2952 B( 18-S , 19-C ) :   1.1470 B( 19-C , 20-C ) :   1.4548
B( 19-C , 29-C ) :   1.1527 B( 20-C , 21-C ) :   1.2980 B( 20-C , 28-S ) :   1.0590
B( 21-C , 22-C ) :   1.1558 B( 22-C , 23-C ) :   1.6022 B( 22-C , 79-H ) :   0.9926
B( 23-C , 24-C ) :   0.9546 B( 23-C , 28-S ) :   1.0884 B( 24-C , 25-O ) :   2.1375
B( 24-C , 26-O ) :   1.2515 B( 26-O , 27-C ) :   0.9181 B( 27-C , 80-H ) :   0.9811
B( 27-C , 81-H ) :   0.9762 B( 27-C , 82-H ) :   0.9761 B( 29-C , 30-N ) :   1.1872
B( 29-C , 36-C ) :   1.3816 B( 30-N , 31-C ) :   1.1716 B( 30-N , 83-H ) :   0.9300
B( 31-C , 32-C ) :   1.2771 B( 31-C , 35-C ) :   1.2870 B( 32-C , 33-C ) :   1.3772
B( 32-C , 84-H ) :   1.0316 B( 33-C , 34-N ) :   1.1834 B( 33-C , 37-C ) :   1.1150
B( 34-N , 35-C ) :   1.1750 B( 34-N , 85-H ) :   0.9315 B( 35-C , 36-C ) :   1.2967
B( 36-C , 86-H ) :   1.0154 B( 37-C , 38-C ) :   1.6668 B( 37-C , 87-H ) :   0.9328
B( 38-C , 39-C ) :   1.1621 B( 38-C , 88-H ) :   0.9433 B( 39-C , 40-S ) :   1.1608
B( 39-C , 41-C ) :   1.4280 B( 40-S , 54-C ) :   1.1085 B( 41-C , 42-C ) :   0.9541
B( 41-C , 53-C ) :   1.2024 B( 42-C , 43-O ) :   2.1277 B( 42-C , 44-C ) :   1.0067
B( 43-O , 87-H ) :   0.1133 B( 44-C , 45-C ) :   1.4263 B( 44-C , 50-C ) :   1.2889
B( 45-C , 46-N ) :   1.2296 B( 45-C , 89-H ) :   0.9938 B( 46-N , 47-C ) :   0.9490
B( 46-N , 49-C ) :   1.2438 B( 47-C , 48-C ) :   1.1112 B( 47-C , 90-H ) :   0.9511
B( 47-C , 91-H ) :   0.9511 B( 48-C , 92-H ) :   0.9675 B( 48-C , 93-H ) :   0.9681
B( 48-C , 94-H ) :   0.9674 B( 49-C , 50-C ) :   1.4127 B( 49-C , 95-H ) :   0.9929
B( 50-C , 51-C ) :   1.0173 B( 51-C , 52-O ) :   2.1128 B( 51-C , 53-C ) :   0.9449
B( 53-C , 54-C ) :   1.4846 B( 54-C , 55-C ) :   1.1988 B( 55-C , 56-C ) :   1.6157
B( 55-C , 96-H ) :   0.9355 B( 56-C , 57-C ) :   1.1555 B( 56-C , 97-H ) :   0.9596
B( 57-C , 58-C ) :   1.6758 B( 57-C , 98-H ) :   0.9331 B( 58-C , 59-C ) :   0.9529
B( 58-C , 63-C ) :   1.0193 B( 59-C , 60-O ) :   2.2664 B( 59-C , 61-C ) :   0.9172
B( 61-C , 62-C ) :   1.3310 B( 61-C , 72-C ) :   1.3695 B( 62-C , 63-C ) :   1.0035
B( 62-C , 69-C ) :   1.3744 B( 63-C , 64-C ) :   1.6859 B( 64-C , 65-C ) :   1.1695
B( 64-C , 67-C ) :   1.1232 B( 65-C , 66-N ) :   2.9898 B( 67-C , 68-N ) :   2.9868
B( 69-C , 70-C ) :   1.3698 B( 69-C , 99-H ) :   0.9823 B( 70-C , 71-C ) :   1.4220
B( 70-C , 74-Br) :   1.0475 B( 71-C , 72-C ) :   1.3588 B( 71-C , 73-Br) :   1.0299
B( 72-C ,100-H ) :   1.0081

-----------------------------------------------------------------------------
         ABSORPTION SPECTRUM VIA TRANSITION ELECTRIC DIPOLE MOMENTS
-----------------------------------------------------------------------------
State   Energy  Wavelength   fosc         T2         TX        TY        TZ
        (cm-1)    (nm)                  (au**2)     (au)      (au)      (au)
-----------------------------------------------------------------------------
   0   13365.5    748.2   2.137954595  52.66104  -3.20447   5.74623   3.06157
   1   16483.2    606.7   0.115402954   2.30490   0.83150   0.88584  -0.91038
   2   21636.5    462.2   0.133392420   2.02965  -0.21904   1.38636  -0.24430
   3   22286.8    448.7   0.260981495   3.85512  -1.15913   1.58407   0.04751
   4   22773.6    439.1   0.033939670   0.49063  -0.65719  -0.18307   0.15880
   5   23643.4    423.0   0.116173145   1.61760   0.29640  -0.10031  -1.23275
   6   24824.6    402.8   0.098002760   1.29966  -0.26714  -1.09596   0.16484
   7   26219.9    381.4   0.028236451   0.35453  -0.06684  -0.45862  -0.37381
   8   27114.2    368.8   0.069485471   0.84367  -0.08446   0.89686  -0.17941
   9   27775.6    360.0   0.035066795   0.41563  -0.31180   0.48918  -0.28127
  10   27956.8    357.7   0.083212118   0.97988   0.36407  -0.87201   0.29485
  11   28572.7    350.0   0.061138408   0.70443   0.54729   0.63142   0.07880
  12   29407.8    340.0   0.038115276   0.42669   0.36052   0.32002  -0.44080
  13   29440.7    339.7   0.074953297   0.83814  -0.09909  -0.29181   0.86207
  14   29899.0    334.5   0.017257783   0.19002  -0.21947   0.27232   0.26019
  15   30240.7    330.7   0.035958934   0.39146  -0.53021   0.31109   0.11645
  16   30810.1    324.6   0.012046369   0.12872   0.24290   0.15306   0.21515
  17   30994.0    322.6   0.026628668   0.28284   0.27483  -0.34232   0.30021
  18   31160.9    320.9   0.010156875   0.10731  -0.10907  -0.09589   0.29362
  19   31252.0    320.0   0.046045398   0.48505   0.28780   0.01088  -0.63411
  20   31463.3    317.8   0.175116803   1.83231  -0.21534   1.28102  -0.38071
  21   31894.9    313.5   0.140393766   1.44911   0.32698  -1.15754   0.04785
  22   32515.2    307.5   0.084344399   0.85398   0.41114   0.73910  -0.37240
  23   32534.3    307.4   0.037269766   0.37713   0.43157  -0.41156   0.14661
  24   32895.0    304.0   0.169605043   1.69740   0.02256   0.97379  -0.86523
  25   33088.6    302.2   0.021433776   0.21325  -0.31627   0.33362   0.04391
  26   33676.6    296.9   0.138488086   1.35381   0.13680  -1.14801  -0.13108
  27   33840.9    295.5   0.014449341   0.14057   0.04455   0.12444   0.35085
  28   33996.4    294.1   0.038899238   0.37669   0.52290   0.22717  -0.22729
  29   34187.9    292.5   0.078239560   0.75341  -0.04745   0.58463   0.63981
  30   34260.4    291.9   0.019083794   0.18338   0.21533  -0.35084   0.11801
  31   34523.0    289.7   0.089399167   0.85251   0.18429  -0.86696  -0.25872
  32   34975.8    285.9   0.421464224   3.96706  -1.47595  -1.30518   0.29182
  33   35734.5    279.8   0.139289808   1.28324  -0.42653   1.01426  -0.26943
  34   35865.5    278.8   0.132667809   1.21777   0.65385  -0.88885   0.01399
  35   36024.3    277.6   0.156582289   1.43094   0.23059  -0.81642   0.84335
  36   36531.2    273.7   0.199918335   1.80162  -0.66020   1.13233  -0.28915
  37   36663.1    272.8   0.033095542   0.29718  -0.21802   0.07088   0.49459
  38   36903.9    271.0   0.305322576   2.72372  -1.18306  -1.06931   0.42505
  39   36931.2    270.8   0.022547104   0.20099  -0.19526  -0.07399   0.39672
  40   37171.6    269.0   0.027728299   0.24558   0.24940  -0.31520   0.28987
  41   37857.9    264.1   0.021770661   0.18932   0.35602  -0.19755  -0.15343
  42   38051.8    262.8   0.018182789   0.15731  -0.29492  -0.16035   0.21123
  43   38100.0    262.5   0.058987859   0.50970  -0.43558   0.06641   0.56174
  44   38549.7    259.4   0.029380711   0.25091   0.33164  -0.37473   0.02233
  45   38642.6    258.8   0.043939218   0.37434   0.33184   0.31127  -0.40906
  46   38829.0    257.5   0.004175589   0.03540   0.07163  -0.01131  -0.17362
  47   38922.9    256.9   0.005348394   0.04524  -0.12065  -0.02632   0.17317
  48   39002.2    256.4   0.012369975   0.10441  -0.21730   0.01967   0.23834
  49   39154.2    255.4   0.027470956   0.23098  -0.06406  -0.07595   0.47022
  50   39284.9    254.6   0.067896716   0.56898  -0.33852  -0.17070   0.65211
  51   39399.1    253.8   0.042338589   0.35377   0.16346   0.37681  -0.43019
  52   39774.6    251.4   0.020694347   0.17129  -0.06052  -0.40872   0.02398
  53   39983.7    250.1   0.091596767   0.75418  -0.25804   0.71622   0.41788
  54   40032.0    249.8   0.035266750   0.29002   0.33775   0.13224  -0.39807

FINAL SINGLE POINT ENERGY    -11896.518674529718

DIPOLE MOMENT
-------------
                                X             Y             Z
Electronic contribution:     81.25228    -137.30387      11.06180
Nuclear contribution   :    -77.67028     138.08024     -12.92766
                        -----------------------------------------
Total Dipole Moment    :      3.58200       0.77638      -1.86586
                        -----------------------------------------
Magnitude (a.u.)       :      4.11278
Magnitude (Debye)      :     10.45384

Rotational constants in cm-1:     0.001686     0.000123     0.000118
Rotational constants in MHz :    50.535715     3.687571     3.544882

                             ****ORCA TERMINATED NORMALLY****
TOTAL RUN TIME: 0 days 0 hours 10 minutes 49 seconds 23 msec
