                         Program Version 4.2.0 -  RELEASE  -
|  1> # ORCA input file
|  2> # SCF done       -192.503027591171          0.000761149694
|  3> ! CAM-B3LYP def2-SVP def2/J RIJCOSX Grid4 TightSCF
|  4> %maxcore 5000
|  5> %tddft
|  6>     Mode sTDDFT
|  7>     Ethresh 5.0
|  8>     maxcore 5000
|  9> end
| 10>
| 11> %pal
| 12>   nprocs 6
| 13>   end
| 14> * xyz 0 1
| 15>    C        2.16223         0.07803        -3.64695
| 16>    C        3.12199         0.98930        -4.05636
| 17>    F        2.78637         2.27389        -4.18136
| 18>    C        4.43505         0.59673        -4.33334
| 19>    F        5.32629         1.51004        -4.72613
| 20>    C        4.82210        -0.72626        -4.19951
| 21>    C        3.86825        -1.63450        -3.78188
| 22>    C        2.54234        -1.24945        -3.51163
| 23>    C        1.76918        -2.42807        -3.14336
| 24>    C        0.40971        -2.48703        -3.02591
| 25>    C       -0.45534        -1.38049        -3.19204
| 26>    N       -1.22964        -0.54480        -3.32177
| 27>    C       -0.35183        -3.65812        -2.82329
| 28>    N       -1.05925        -4.55603        -2.70929
| 29>    C        2.69933        -3.54843        -3.05625
| 30>    C        4.02485        -3.08760        -3.56685
| 31>    O        4.99371        -3.76685        -3.80169
| 32>    C        2.40551        -4.80445        -2.66189
| 33>    C        3.31325        -5.92840        -2.58801
| 34>    C        4.53964        -5.94382        -1.99189
| 35>    F        5.12319        -4.92929        -1.37269
| 36>    S        5.28311        -7.50585        -1.91801
| 37>    C        3.89995        -8.16298        -2.72174
| 38>    F        3.86807        -9.45672        -3.01736
| 39>    C        2.93178        -7.24820        -3.03637
| 40>    C        1.71090        -7.53550        -3.73963
| 41>    C        1.07210        -6.58223        -4.44969
| 42>    C       -0.21515        -6.66681        -5.05320
| 43>    C       -0.74420        -5.51476        -5.68303
| 44>    C       -2.05102        -5.49688        -6.28758
| 45>    N       -2.55380        -4.33979        -6.75994
| 46>    C       -1.82354        -3.25816        -6.71577
| 47>    C       -0.48565        -3.29719        -6.19642
| 48>    N        0.00186        -4.39884        -5.68480
| 49>    C        0.33565        -2.14258        -6.19222
| 50>    N        1.00956        -1.21581        -6.17597
| 51>    C       -2.35875        -2.03878        -7.20371
| 52>    N       -2.75018        -1.04605        -7.61790
| 53>    C       -2.83804        -6.65829        -6.36547
| 54>    C       -2.33792        -7.79213        -5.70827
| 55>    C       -1.05806        -7.79085        -5.03253
| 56>    N       -0.81816        -8.96512        -4.44067
| 57>    S       -2.04781        -9.95099        -4.70391
| 58>    N       -2.94200        -8.98401        -5.60713
| 59>    C       -4.12461        -6.65915        -7.04293
| 60>    C       -5.23107        -7.29763        -6.55472
| 61>    F       -5.32604        -7.96852        -5.41604
| 62>    S       -6.67451        -7.08475        -7.48616
| 63>    C       -5.77243        -6.06818        -8.55039
| 64>    F       -6.37577        -5.53752        -9.60399
| 65>    C       -4.44456        -5.92791        -8.24403
| 66>    C       -3.59468        -5.09882        -9.07427
| 67>    C       -2.30579        -5.28142        -9.43238
| 68>    C       -1.43025        -6.36054        -9.12404
| 69>    C       -1.65325        -7.68782        -8.92441
| 70>    C       -0.56784        -8.49144        -8.29727
| 71>    O        0.54509        -8.10901        -8.01892
| 72>    C       -1.17440        -9.80305        -7.99603
| 73>    C       -2.51815        -9.80463        -8.41283
| 74>    C       -3.31543       -10.91243        -8.17322
| 75>    C       -2.74355       -11.99754        -7.52650
| 76>    C       -1.40366       -11.99455        -7.13209
| 77>    C       -0.60074       -10.88803        -7.36189
| 78>    F       -0.89622       -13.06168        -6.50629
| 79>    F       -3.49569       -13.06920        -7.26757
| 80>    C       -2.80106        -8.54898        -9.10863
| 81>    C       -3.86731        -8.33695        -9.94050
| 82>    C       -3.94048        -7.27992       -10.87133
| 83>    N       -4.01426        -6.47662       -11.68624
| 84>    C       -4.98148        -9.19858       -10.02739
| 85>    N       -5.93216        -9.83568       -10.10438
| 86>    H        1.16145         0.42683        -3.45291
| 87>    H        5.83396        -1.03162        -4.41394
| 88>    H        1.39175        -5.04504        -2.36530
| 89>    H        1.31860        -8.54049        -3.68234
| 90>    H        1.55051        -5.62341        -4.59268
| 91>    H       -4.09558        -4.22025        -9.46049
| 92>    H       -1.83660        -4.46960        -9.97493
| 93>    H       -0.38372        -6.08175        -9.01107
| 94>    H       -4.35465       -10.96173        -8.45317
| 95>    H        0.43280       -10.87878        -7.05318
| 96> *
| 97>
| 98>                          ****END OF INPUT****

CARTESIAN COORDINATES (ANGSTROEM)
---------------------------------
  C      2.162230    0.078030   -3.646950
  C      3.121990    0.989300   -4.056360
  F      2.786370    2.273890   -4.181360
  C      4.435050    0.596730   -4.333340
  F      5.326290    1.510040   -4.726130
  C      4.822100   -0.726260   -4.199510
  C      3.868250   -1.634500   -3.781880
  C      2.542340   -1.249450   -3.511630
  C      1.769180   -2.428070   -3.143360
  C      0.409710   -2.487030   -3.025910
  C     -0.455340   -1.380490   -3.192040
  N     -1.229640   -0.544800   -3.321770
  C     -0.351830   -3.658120   -2.823290
  N     -1.059250   -4.556030   -2.709290
  C      2.699330   -3.548430   -3.056250
  C      4.024850   -3.087600   -3.566850
  O      4.993710   -3.766850   -3.801690
  C      2.405510   -4.804450   -2.661890
  C      3.313250   -5.928400   -2.588010
  C      4.539640   -5.943820   -1.991890
  F      5.123190   -4.929290   -1.372690
  S      5.283110   -7.505850   -1.918010
  C      3.899950   -8.162980   -2.721740
  F      3.868070   -9.456720   -3.017360
  C      2.931780   -7.248200   -3.036370
  C      1.710900   -7.535500   -3.739630
  C      1.072100   -6.582230   -4.449690
  C     -0.215150   -6.666810   -5.053200
  C     -0.744200   -5.514760   -5.683030
  C     -2.051020   -5.496880   -6.287580
  N     -2.553800   -4.339790   -6.759940
  C     -1.823540   -3.258160   -6.715770
  C     -0.485650   -3.297190   -6.196420
  N      0.001860   -4.398840   -5.684800
  C      0.335650   -2.142580   -6.192220
  N      1.009560   -1.215810   -6.175970
  C     -2.358750   -2.038780   -7.203710
  N     -2.750180   -1.046050   -7.617900
  C     -2.838040   -6.658290   -6.365470
  C     -2.337920   -7.792130   -5.708270
  C     -1.058060   -7.790850   -5.032530
  N     -0.818160   -8.965120   -4.440670
  S     -2.047810   -9.950990   -4.703910
  N     -2.942000   -8.984010   -5.607130
  C     -4.124610   -6.659150   -7.042930
  C     -5.231070   -7.297630   -6.554720
  F     -5.326040   -7.968520   -5.416040
  S     -6.674510   -7.084750   -7.486160
  C     -5.772430   -6.068180   -8.550390
  F     -6.375770   -5.537520   -9.603990
  C     -4.444560   -5.927910   -8.244030
  C     -3.594680   -5.098820   -9.074270
  C     -2.305790   -5.281420   -9.432380
  C     -1.430250   -6.360540   -9.124040
  C     -1.653250   -7.687820   -8.924410
  C     -0.567840   -8.491440   -8.297270
  O      0.545090   -8.109010   -8.018920
  C     -1.174400   -9.803050   -7.996030
  C     -2.518150   -9.804630   -8.412830
  C     -3.315430  -10.912430   -8.173220
  C     -2.743550  -11.997540   -7.526500
  C     -1.403660  -11.994550   -7.132090
  C     -0.600740  -10.888030   -7.361890
  F     -0.896220  -13.061680   -6.506290
  F     -3.495690  -13.069200   -7.267570
  C     -2.801060   -8.548980   -9.108630
  C     -3.867310   -8.336950   -9.940500
  C     -3.940480   -7.279920  -10.871330
  N     -4.014260   -6.476620  -11.686240
  C     -4.981480   -9.198580  -10.027390
  N     -5.932160   -9.835680  -10.104380
  H      1.161450    0.426830   -3.452910
  H      5.833960   -1.031620   -4.413940
  H      1.391750   -5.045040   -2.365300
  H      1.318600   -8.540490   -3.682340
  H      1.550510   -5.623410   -4.592680
  H     -4.095580   -4.220250   -9.460490
  H     -1.836600   -4.469600   -9.974930
  H     -0.383720   -6.081750   -9.011070
  H     -4.354650  -10.961730   -8.453170
  H      0.432800  -10.878780   -7.053180

 Total Charge           Charge          ....    0
 Multiplicity           Mult            ....    1
 Number of Electrons    NEL             ....  504
 Basis Dimension        Dim             .... 1056

ORBITAL ENERGIES
----------------

  NO   OCC          E(Eh)            E(eV)
   0   2.0000     -89.060761     -2423.4665
   1   2.0000     -88.999067     -2421.7877
   2   2.0000     -88.996127     -2421.7077
   3   2.0000     -24.825984      -675.5494
   4   2.0000     -24.822944      -675.4667
   5   2.0000     -24.821797      -675.4354
   6   2.0000     -24.821680      -675.4323
   7   2.0000     -24.815290      -675.2584
   8   2.0000     -24.814135      -675.2269
   9   2.0000     -24.806009      -675.0058
  10   2.0000     -24.802996      -674.9238
  11   2.0000     -19.235686      -523.4296
  12   2.0000     -19.229886      -523.2718
  13   2.0000     -14.473181      -393.8353
  14   2.0000     -14.471853      -393.7991
  15   2.0000     -14.463924      -393.5834
  16   2.0000     -14.463681      -393.5768
  17   2.0000     -14.443175      -393.0188
  18   2.0000     -14.436626      -392.8406
  19   2.0000     -14.434289      -392.7770
  20   2.0000     -14.429992      -392.6601
  21   2.0000     -14.427543      -392.5934
  22   2.0000     -14.425160      -392.5285
  23   2.0000     -10.409688      -283.2620
  24   2.0000     -10.408449      -283.2283
  25   2.0000     -10.405451      -283.1467
  26   2.0000     -10.400774      -283.0194
  27   2.0000     -10.400620      -283.0153
  28   2.0000     -10.399942      -282.9968
  29   2.0000     -10.391458      -282.7659
  30   2.0000     -10.390743      -282.7465
  31   2.0000     -10.389704      -282.7182
  32   2.0000     -10.389532      -282.7136
  33   2.0000     -10.385098      -282.5929
  34   2.0000     -10.380992      -282.4811
  35   2.0000     -10.359151      -281.8868
  36   2.0000     -10.358178      -281.8604
  37   2.0000     -10.357520      -281.8424
  38   2.0000     -10.356334      -281.8102
  39   2.0000     -10.355210      -281.7796
  40   2.0000     -10.354186      -281.7517
  41   2.0000     -10.353944      -281.7451
  42   2.0000     -10.352392      -281.7029
  43   2.0000     -10.337987      -281.3109
  44   2.0000     -10.337686      -281.3027
  45   2.0000     -10.333936      -281.2007
  46   2.0000     -10.331958      -281.1469
  47   2.0000     -10.331745      -281.1411
  48   2.0000     -10.331105      -281.1237
  49   2.0000     -10.329544      -281.0812
  50   2.0000     -10.329491      -281.0797
  51   2.0000     -10.327887      -281.0361
  52   2.0000     -10.326633      -281.0020
  53   2.0000     -10.325835      -280.9803
  54   2.0000     -10.323813      -280.9252
  55   2.0000     -10.322011      -280.8762
  56   2.0000     -10.321940      -280.8743
  57   2.0000     -10.321167      -280.8532
  58   2.0000     -10.320121      -280.8248
  59   2.0000     -10.317410      -280.7510
  60   2.0000     -10.315796      -280.7071
  61   2.0000     -10.313734      -280.6510
  62   2.0000     -10.313211      -280.6367
  63   2.0000     -10.313091      -280.6335
  64   2.0000     -10.312953      -280.6297
  65   2.0000     -10.312460      -280.6163
  66   2.0000     -10.310456      -280.5618
  67   2.0000     -10.308808      -280.5169
  68   2.0000     -10.304732      -280.4060
  69   2.0000     -10.300002      -280.2773
  70   2.0000     -10.293911      -280.1116
  71   2.0000      -8.150904      -221.7974
  72   2.0000      -8.096080      -220.3055
  73   2.0000      -8.093291      -220.2296
  74   2.0000      -6.121888      -166.5850
  75   2.0000      -6.114203      -166.3759
  76   2.0000      -6.114020      -166.3709
  77   2.0000      -6.065237      -165.0435
  78   2.0000      -6.062425      -164.9670
  79   2.0000      -6.061633      -164.9454
  80   2.0000      -6.058791      -164.8681
  81   2.0000      -6.057437      -164.8312
  82   2.0000      -6.054738      -164.7578
  83   2.0000      -1.343552       -36.5599
  84   2.0000      -1.341494       -36.5039
  85   2.0000      -1.339462       -36.4486
  86   2.0000      -1.339373       -36.4462
  87   2.0000      -1.338499       -36.4224
  88   2.0000      -1.329541       -36.1786
  89   2.0000      -1.324011       -36.0282
  90   2.0000      -1.314028       -35.7565
  91   2.0000      -1.155183       -31.4341
  92   2.0000      -1.150432       -31.3049
  93   2.0000      -1.146284       -31.1920
  94   2.0000      -1.130974       -30.7754
  95   2.0000      -1.059266       -28.8241
  96   2.0000      -1.035673       -28.1821
  97   2.0000      -1.034774       -28.1576
  98   2.0000      -1.026249       -27.9256
  99   2.0000      -1.022441       -27.8220
 100   2.0000      -1.018359       -27.7110
 101   2.0000      -1.016225       -27.6529
 102   2.0000      -1.014307       -27.6007
 103   2.0000      -1.012462       -27.5505
 104   2.0000      -1.008074       -27.4311
 105   2.0000      -1.006578       -27.3904
 106   2.0000      -1.005420       -27.3589
 107   2.0000      -0.988590       -26.9009
 108   2.0000      -0.971607       -26.4388
 109   2.0000      -0.966542       -26.3010
 110   2.0000      -0.937289       -25.5049
 111   2.0000      -0.932166       -25.3655
 112   2.0000      -0.919319       -25.0159
 113   2.0000      -0.918757       -25.0006
 114   2.0000      -0.916251       -24.9325
 115   2.0000      -0.908042       -24.7091
 116   2.0000      -0.894843       -24.3499
 117   2.0000      -0.888498       -24.1773
 118   2.0000      -0.886234       -24.1157
 119   2.0000      -0.880106       -23.9489
 120   2.0000      -0.863750       -23.5038
 121   2.0000      -0.845346       -23.0030
 122   2.0000      -0.842041       -22.9131
 123   2.0000      -0.838444       -22.8152
 124   2.0000      -0.828566       -22.5464
 125   2.0000      -0.801966       -21.8226
 126   2.0000      -0.799884       -21.7659
 127   2.0000      -0.794384       -21.6163
 128   2.0000      -0.785038       -21.3620
 129   2.0000      -0.782935       -21.3047
 130   2.0000      -0.760916       -20.7056
 131   2.0000      -0.751105       -20.4386
 132   2.0000      -0.742011       -20.1912
 133   2.0000      -0.738232       -20.0883
 134   2.0000      -0.727597       -19.7989
 135   2.0000      -0.723752       -19.6943
 136   2.0000      -0.717645       -19.5281
 137   2.0000      -0.710627       -19.3371
 138   2.0000      -0.708048       -19.2670
 139   2.0000      -0.706968       -19.2376
 140   2.0000      -0.703469       -19.1424
 141   2.0000      -0.699312       -19.0293
 142   2.0000      -0.694720       -18.9043
 143   2.0000      -0.687970       -18.7206
 144   2.0000      -0.676422       -18.4064
 145   2.0000      -0.671302       -18.2671
 146   2.0000      -0.668934       -18.2026
 147   2.0000      -0.662808       -18.0359
 148   2.0000      -0.656550       -17.8656
 149   2.0000      -0.650815       -17.7096
 150   2.0000      -0.650040       -17.6885
 151   2.0000      -0.646115       -17.5817
 152   2.0000      -0.640943       -17.4409
 153   2.0000      -0.638101       -17.3636
 154   2.0000      -0.623701       -16.9718
 155   2.0000      -0.623203       -16.9582
 156   2.0000      -0.621277       -16.9058
 157   2.0000      -0.620604       -16.8875
 158   2.0000      -0.618221       -16.8227
 159   2.0000      -0.614233       -16.7141
 160   2.0000      -0.608458       -16.5570
 161   2.0000      -0.607237       -16.5238
 162   2.0000      -0.605483       -16.4760
 163   2.0000      -0.604391       -16.4463
 164   2.0000      -0.598158       -16.2767
 165   2.0000      -0.594128       -16.1671
 166   2.0000      -0.593158       -16.1407
 167   2.0000      -0.592536       -16.1237
 168   2.0000      -0.586762       -15.9666
 169   2.0000      -0.586272       -15.9533
 170   2.0000      -0.583444       -15.8763
 171   2.0000      -0.577525       -15.7153
 172   2.0000      -0.576008       -15.6740
 173   2.0000      -0.573970       -15.6185
 174   2.0000      -0.567579       -15.4446
 175   2.0000      -0.565660       -15.3924
 176   2.0000      -0.563935       -15.3454
 177   2.0000      -0.557540       -15.1714
 178   2.0000      -0.556704       -15.1487
 179   2.0000      -0.553487       -15.0611
 180   2.0000      -0.550979       -14.9929
 181   2.0000      -0.549191       -14.9442
 182   2.0000      -0.548431       -14.9236
 183   2.0000      -0.543239       -14.7823
 184   2.0000      -0.542448       -14.7608
 185   2.0000      -0.540637       -14.7115
 186   2.0000      -0.538125       -14.6431
 187   2.0000      -0.533607       -14.5202
 188   2.0000      -0.530198       -14.4274
 189   2.0000      -0.524412       -14.2700
 190   2.0000      -0.517490       -14.0816
 191   2.0000      -0.513907       -13.9841
 192   2.0000      -0.511758       -13.9257
 193   2.0000      -0.510825       -13.9002
 194   2.0000      -0.508481       -13.8365
 195   2.0000      -0.500703       -13.6248
 196   2.0000      -0.499852       -13.6017
 197   2.0000      -0.498228       -13.5575
 198   2.0000      -0.496751       -13.5173
 199   2.0000      -0.494364       -13.4523
 200   2.0000      -0.488884       -13.3032
 201   2.0000      -0.485618       -13.2143
 202   2.0000      -0.480466       -13.0741
 203   2.0000      -0.476948       -12.9784
 204   2.0000      -0.474771       -12.9192
 205   2.0000      -0.472871       -12.8675
 206   2.0000      -0.471057       -12.8181
 207   2.0000      -0.470527       -12.8037
 208   2.0000      -0.468723       -12.7546
 209   2.0000      -0.468248       -12.7417
 210   2.0000      -0.465103       -12.6561
 211   2.0000      -0.462627       -12.5887
 212   2.0000      -0.462206       -12.5773
 213   2.0000      -0.460739       -12.5373
 214   2.0000      -0.460232       -12.5236
 215   2.0000      -0.458718       -12.4824
 216   2.0000      -0.458336       -12.4720
 217   2.0000      -0.457082       -12.4378
 218   2.0000      -0.454894       -12.3783
 219   2.0000      -0.454058       -12.3555
 220   2.0000      -0.450434       -12.2569
 221   2.0000      -0.449277       -12.2254
 222   2.0000      -0.445274       -12.1165
 223   2.0000      -0.442491       -12.0408
 224   2.0000      -0.441487       -12.0135
 225   2.0000      -0.438744       -11.9388
 226   2.0000      -0.433494       -11.7960
 227   2.0000      -0.431156       -11.7324
 228   2.0000      -0.427894       -11.6436
 229   2.0000      -0.424496       -11.5511
 230   2.0000      -0.423667       -11.5286
 231   2.0000      -0.422511       -11.4971
 232   2.0000      -0.416681       -11.3385
 233   2.0000      -0.414645       -11.2831
 234   2.0000      -0.395884       -10.7725
 235   2.0000      -0.394021       -10.7219
 236   2.0000      -0.390194       -10.6177
 237   2.0000      -0.378486       -10.2991
 238   2.0000      -0.373958       -10.1759
 239   2.0000      -0.366700        -9.9784
 240   2.0000      -0.360816        -9.8183
 241   2.0000      -0.359500        -9.7825
 242   2.0000      -0.354930        -9.6581
 243   2.0000      -0.351598        -9.5675
 244   2.0000      -0.346939        -9.4407
 245   2.0000      -0.337188        -9.1753
 246   2.0000      -0.329519        -8.9667
 247   2.0000      -0.321851        -8.7580
 248   2.0000      -0.319267        -8.6877
 249   2.0000      -0.311315        -8.4713
 250   2.0000      -0.303939        -8.2706
 251   2.0000      -0.271542        -7.3890
 252   0.0000      -0.129601        -3.5266
 253   0.0000      -0.101336        -2.7575
 254   0.0000      -0.095172        -2.5898
 255   0.0000      -0.077698        -2.1143
 256   0.0000      -0.067220        -1.8291

MULLIKEN ATOMIC CHARGES
-----------------------
   0 C :   -0.058377
   1 C :    0.237968
   2 F :   -0.159229
   3 C :    0.240544
   4 F :   -0.163156
   5 C :   -0.100616
   6 C :   -0.006320
   7 C :    0.045318
   8 C :    0.315633
   9 C :   -0.365688
  10 C :   -0.223644
  11 N :    0.188862
  12 C :   -0.184724
  13 N :    0.148777
  14 C :   -0.036351
  15 C :    0.136902
  16 O :   -0.125492
  17 C :   -0.108757
  18 C :    0.048923
  19 C :    0.105031
  20 F :   -0.141026
  21 S :    0.121737
  22 C :    0.064084
  23 F :   -0.149833
  24 C :    0.075541
  25 C :    0.042398
  26 C :   -0.127600
  27 C :    0.145214
  28 C :   -0.041446
  29 C :   -0.079365
  30 N :    0.072578
  31 C :   -0.109157
  32 C :   -0.152225
  33 N :    0.030619
  34 C :   -0.203740
  35 N :    0.240297
  36 C :   -0.227291
  37 N :    0.255385
  38 C :    0.135382
  39 C :   -0.036661
  40 C :    0.023469
  41 N :   -0.279776
  42 S :    0.553561
  43 N :   -0.269875
  44 C :   -0.011818
  45 C :    0.057201
  46 F :   -0.134579
  47 S :    0.146710
  48 C :    0.060340
  49 F :   -0.135636
  50 C :    0.042927
  51 C :    0.057271
  52 C :   -0.011525
  53 C :    0.030837
  54 C :   -0.137261
  55 C :    0.143109
  56 O :   -0.133756
  57 C :   -0.036547
  58 C :    0.083876
  59 C :   -0.087086
  60 C :    0.236264
  61 C :    0.210629
  62 C :   -0.111896
  63 F :   -0.166339
  64 F :   -0.159737
  65 C :    0.299140
  66 C :   -0.317245
  67 C :   -0.221992
  68 N :    0.193939
  69 C :   -0.201796
  70 N :    0.170097
  71 H :    0.017354
  72 H :    0.011301
  73 H :    0.059140
  74 H :    0.018960
  75 H :    0.033150
  76 H :    0.034521
  77 H :    0.020599
  78 H :    0.030960
  79 H :    0.015727
  80 H :    0.015290
Sum of atomic charges:   -0.0000000

LOEWDIN ATOMIC CHARGES
----------------------
   0 C :   -0.003846
   1 C :    0.079428
   2 F :   -0.037459
   3 C :    0.076874
   4 F :   -0.040243
   5 C :   -0.004371
   6 C :   -0.042287
   7 C :   -0.014132
   8 C :    0.083097
   9 C :   -0.138201
  10 C :   -0.027818
  11 N :   -0.037239
  12 C :   -0.019059
  13 N :   -0.058070
  14 C :   -0.079747
  15 C :    0.082080
  16 O :   -0.123722
  17 C :    0.072092
  18 C :   -0.096944
  19 C :   -0.057972
  20 F :   -0.031044
  21 S :    0.443929
  22 C :   -0.076101
  23 F :   -0.042223
  24 C :   -0.087010
  25 C :    0.023763
  26 C :   -0.019902
  27 C :    0.007102
  28 C :   -0.001816
  29 C :   -0.000125
  30 N :    0.018072
  31 C :   -0.027498
  32 C :   -0.035174
  33 N :    0.006620
  34 C :   -0.028483
  35 N :   -0.014134
  36 C :   -0.038761
  37 N :    0.001252
  38 C :   -0.021779
  39 C :   -0.046080
  40 C :   -0.033866
  41 N :   -0.280557
  42 S :    0.715579
  43 N :   -0.277739
  44 C :   -0.086945
  45 C :   -0.061397
  46 F :   -0.028609
  47 S :    0.456518
  48 C :   -0.064588
  49 F :   -0.027607
  50 C :   -0.097632
  51 C :    0.053289
  52 C :   -0.052594
  53 C :    0.059112
  54 C :   -0.089717
  55 C :    0.081216
  56 O :   -0.135376
  57 C :   -0.061623
  58 C :   -0.000354
  59 C :   -0.015628
  60 C :    0.068949
  61 C :    0.052645
  62 C :   -0.017622
  63 F :   -0.044119
  64 F :   -0.038944
  65 C :    0.058102
  66 C :   -0.124128
  67 C :   -0.020227
  68 N :   -0.032676
  69 C :   -0.024685
  70 N :   -0.043693
  71 H :    0.051837
  72 H :    0.052289
  73 H :    0.049967
  74 H :    0.035291
  75 H :    0.035538
  76 H :    0.050610
  77 H :    0.044595
  78 H :    0.047292
  79 H :    0.051756
  80 H :    0.052673

  Mayer bond orders larger than 0.100000
B(  0-C ,  1-C ) :   1.3502 B(  0-C ,  5-C ) :   0.1037 B(  0-C ,  7-C ) :   1.2988
B(  0-C , 71-H ) :   0.9901 B(  1-C ,  2-F ) :   1.1511 B(  1-C ,  3-C ) :   1.2809
B(  3-C ,  4-F ) :   1.1374 B(  3-C ,  5-C ) :   1.3238 B(  5-C ,  6-C ) :   1.3164
B(  5-C , 72-H ) :   1.0175 B(  6-C ,  7-C ) :   1.3318 B(  6-C , 15-C ) :   0.9536
B(  7-C ,  8-C ) :   1.0286 B(  8-C ,  9-C ) :   1.6544 B(  8-C , 14-C ) :   1.0399
B(  9-C , 10-C ) :   1.1323 B(  9-C , 12-C ) :   1.1560 B( 10-C , 11-N ) :   2.9939
B( 12-C , 13-N ) :   2.9257 B( 14-C , 15-C ) :   0.9187 B( 14-C , 17-C ) :   1.7364
B( 15-C , 16-O ) :   2.2553 B( 17-C , 18-C ) :   1.0163 B( 17-C , 73-H ) :   0.9225
B( 18-C , 19-C ) :   1.4890 B( 18-C , 24-C ) :   1.1672 B( 19-C , 20-F ) :   1.1510
B( 19-C , 21-S ) :   1.1215 B( 21-S , 22-C ) :   1.1227 B( 22-C , 23-F ) :   1.1495
B( 22-C , 24-C ) :   1.4383 B( 24-C , 25-C ) :   1.0690 B( 25-C , 26-C ) :   1.6277
B( 25-C , 74-H ) :   0.9624 B( 26-C , 27-C ) :   1.2024 B( 26-C , 75-H ) :   0.9308
B( 27-C , 28-C ) :   1.2433 B( 27-C , 38-C ) :   0.1461 B( 27-C , 40-C ) :   1.1846
B( 28-C , 29-C ) :   1.1095 B( 28-C , 33-N ) :   1.4126 B( 29-C , 30-N ) :   1.4406
B( 29-C , 38-C ) :   1.3380 B( 30-N , 31-C ) :   1.7184 B( 31-C , 32-C ) :   1.1866
B( 31-C , 36-C ) :   1.1672 B( 32-C , 33-N ) :   1.7307 B( 32-C , 34-C ) :   1.1626
B( 34-C , 35-N ) :   3.0112 B( 36-C , 37-N ) :   3.0458 B( 38-C , 39-C ) :   1.2748
B( 38-C , 44-C ) :   0.9747 B( 39-C , 40-C ) :   1.1038 B( 39-C , 43-N ) :   1.4566
B( 40-C , 41-N ) :   1.4901 B( 41-N , 42-S ) :   1.2979 B( 41-N , 43-N ) :   0.1525
B( 42-S , 43-N ) :   1.3141 B( 44-C , 45-C ) :   1.4731 B( 44-C , 50-C ) :   1.1807
B( 45-C , 46-F ) :   1.1598 B( 45-C , 47-S ) :   1.1211 B( 47-S , 48-C ) :   1.1346
B( 48-C , 49-F ) :   1.1568 B( 48-C , 50-C ) :   1.4195 B( 50-C , 51-C ) :   1.0637
B( 51-C , 52-C ) :   1.7129 B( 51-C , 76-H ) :   0.9568 B( 52-C , 53-C ) :   1.1392
B( 52-C , 77-H ) :   0.9426 B( 53-C , 54-C ) :   1.6894 B( 53-C , 78-H ) :   0.9123
B( 54-C , 55-C ) :   0.9452 B( 54-C , 65-C ) :   1.0565 B( 55-C , 56-O ) :   2.2582
B( 55-C , 57-C ) :   0.9304 B( 57-C , 58-C ) :   1.3308 B( 57-C , 62-C ) :   1.3163
B( 58-C , 59-C ) :   1.3119 B( 58-C , 65-C ) :   1.0241 B( 59-C , 60-C ) :   1.3343
B( 59-C , 62-C ) :   0.1068 B( 59-C , 79-H ) :   0.9923 B( 60-C , 61-C ) :   1.2836
B( 60-C , 64-F ) :   1.1503 B( 61-C , 62-C ) :   1.2904 B( 61-C , 63-F ) :   1.1354
B( 62-C , 80-H ) :   1.0305 B( 65-C , 66-C ) :   1.6457 B( 66-C , 67-C ) :   1.1716
B( 66-C , 69-C ) :   1.1308 B( 67-C , 68-N ) :   2.9741 B( 69-C , 70-N ) :   2.9845

-----------------------------------------------------------------------------
         ABSORPTION SPECTRUM VIA TRANSITION ELECTRIC DIPOLE MOMENTS
-----------------------------------------------------------------------------
State   Energy  Wavelength   fosc         T2         TX        TY        TZ
        (cm-1)    (nm)                  (au**2)     (au)      (au)      (au)
-----------------------------------------------------------------------------
   0   13629.3    733.7   0.254411142   6.14522   2.07601   0.18241   1.34244
   1   19279.6    518.7   0.029892464   0.51043  -0.62618   0.34281  -0.02860
   2   19830.3    504.3   0.022148047   0.36769   0.43803  -0.38704  -0.16130
   3   21453.9    466.1   0.026313372   0.40378  -0.20101  -0.56977  -0.19682
   4   22756.7    439.4   0.007836944   0.11337   0.03752  -0.28016   0.18296
   5   23347.2    428.3   0.008109807   0.11435  -0.32915   0.06744   0.03831
   6   23604.6    423.6   0.027232753   0.37981  -0.13630  -0.54666  -0.24980
   7   23965.6    417.3   0.033780443   0.46404   0.21869   0.22389   0.60505
   8   24807.6    403.1   0.130038348   1.72569  -0.46809   1.06484   0.61049
   9   25911.9    385.9   0.031247623   0.39700  -0.01714  -0.60316  -0.18139
  10   26685.2    374.7   0.009190596   0.11338  -0.23943   0.19032  -0.14083
  11   27148.5    368.3   0.101575753   1.23174   0.45826  -1.00346   0.12171
  12   27820.2    359.5   0.014873545   0.17601  -0.10527  -0.40551   0.02206
  13   27967.9    357.6   0.016385032   0.19287   0.00153  -0.43706   0.04298
  14   28646.9    349.1   0.074532291   0.85653   0.52356   0.48759   0.58708
  15   28834.7    346.8   0.062285433   0.71113   0.39458  -0.74515  -0.01331
  16   29140.3    343.2   0.003217520   0.03635  -0.01719  -0.16917  -0.08623
  17   29235.1    342.1   0.061627346   0.69398   0.03570  -0.69152   0.46314
  18   29970.3    333.7   0.054204690   0.59542   0.73465   0.19829   0.12800
  19   30305.0    330.0   0.030429462   0.33056  -0.29902  -0.42635  -0.24367
  20   30333.7    329.7   0.004180853   0.04537   0.11942  -0.15277  -0.08818
  21   30759.3    325.1   0.004258427   0.04558   0.01952   0.20850  -0.04154
  22   31324.1    319.2   0.082394305   0.86595   0.83922   0.34272   0.21026
  23   31507.4    317.4   0.268833661   2.80897  -1.35216  -0.89910   0.41505
  24   32068.7    311.8   0.071641703   0.73546   0.39343  -0.76193  -0.01198
  25   32232.0    310.3   0.037778127   0.38586  -0.11833   0.60007  -0.10850
  26   32336.5    309.2   0.004436882   0.04517   0.19825   0.01477   0.07517
  27   32707.0    305.7   0.189419624   1.90660  -0.44817  -1.30392   0.07448
  28   32813.0    304.8   0.124788975   1.25200   0.01468   1.11545   0.08697
  29   32986.5    303.2   0.138440363   1.38166  -0.05662  -1.17287  -0.05321
  30   33654.9    297.1   0.079137928   0.77413  -0.42103   0.65515  -0.40944
  31   34099.2    293.3   0.025858436   0.24965   0.28024  -0.35457   0.21307
  32   34424.8    290.5   0.500818959   4.78945  -1.99458  -0.02714  -0.90021
  33   34474.8    290.1   0.223699586   2.13618  -0.59752   0.88369  -0.99912
  34   34672.2    288.4   0.004374342   0.04153   0.12896   0.12123   0.10102
  35   34842.5    287.0   0.112396744   1.06199  -0.52623  -0.86039   0.21166
  36   34991.7    285.8   0.097956216   0.92160   0.81963  -0.26593   0.42319
  37   35147.8    284.5   0.052382743   0.49064   0.69265   0.07669   0.07068
  38   35476.3    281.9   0.135436089   1.25682  -0.38831  -0.99213   0.34887
  39   35715.1    280.0   0.314454181   2.89855  -1.14321   1.17155  -0.46810
  40   35976.8    278.0   0.382986948   3.50459   0.83785   1.59238  -0.51665
  41   36248.9    275.9   0.072755495   0.66076  -0.10453   0.76768   0.24599
  42   36642.4    272.9   0.164489840   1.47785  -1.11111   0.06811  -0.48852
  43   36873.3    271.2   0.057591455   0.51419  -0.44008  -0.45886   0.33161
  44   36981.2    270.4   0.009546082   0.08498  -0.05355   0.23811   0.15943
  45   37273.3    268.3   0.121841537   1.07615  -0.85574   0.58004   0.08613
  46   37475.8    266.8   0.092719318   0.81451   0.39082  -0.63996   0.50222
  47   37559.5    266.2   0.218269829   1.91315  -1.20466   0.41105  -0.54128
  48   37674.2    265.4   0.054917070   0.47989  -0.49524   0.37616  -0.30518
  49   37721.0    265.1   0.022038062   0.19234   0.43666  -0.03437  -0.02201
  50   37894.9    263.9   0.050599876   0.43959  -0.50046   0.33946  -0.27184
  51   38208.6    261.7   0.163893778   1.41214   1.04541   0.38780  -0.41094
  52   38527.5    259.6   0.030731940   0.26260   0.18709  -0.00247   0.47707
  53   38968.4    256.6   0.002137178   0.01806   0.09840  -0.01450  -0.09035
  54   39305.4    254.4   0.069720400   0.58396   0.26767  -0.69435   0.17377
  55   39597.6    252.5   0.127365448   1.05891   0.19754  -0.97944   0.24614
  56   39715.9    251.8   0.044357785   0.36769   0.30860  -0.48144   0.20167
  57   39981.2    250.1   0.012282375   0.10114  -0.03287  -0.19589   0.24836
  58   40073.9    249.5   0.031209594   0.25639  -0.07517  -0.47518   0.15794
  59   40315.6    248.0   0.024350320   0.19884  -0.25973  -0.36188  -0.02061

FINAL SINGLE POINT ENERGY     -4521.762376467394

DIPOLE MOMENT
-------------
                                X             Y             Z
Electronic contribution:      0.28507      -7.65033      10.03584
Nuclear contribution   :      1.14318       5.53900      -8.31909
                        -----------------------------------------
Total Dipole Moment    :      1.42825      -2.11132       1.71675
                        -----------------------------------------
Magnitude (a.u.)       :      3.07324
Magnitude (Debye)      :      7.81156

Rotational constants in cm-1:     0.001621     0.000740     0.000573
Rotational constants in MHz :    48.584669    22.175213    17.166238

                             ****ORCA TERMINATED NORMALLY****
TOTAL RUN TIME: 0 days 0 hours 11 minutes 27 seconds 870 msec
