                         Program Version 4.2.0 -  RELEASE  -
|  1> # ORCA input file
|  2> # SCF done       -186.350523326950          0.000740751497
|  3> ! CAM-B3LYP def2-SVP def2/J RIJCOSX Grid4 TightSCF
|  4> %maxcore 5000
|  5> %tddft
|  6>     Mode sTDDFT
|  7>     Ethresh 5.0
|  8>     maxcore 5000
|  9> end
| 10>
| 11> %pal
| 12>   nprocs 6
| 13>   end
| 14> * xyz 0 1
| 15>    C        4.66574         0.30915        -1.75407
| 16>    C        5.17041         0.84986        -0.58136
| 17>    F        6.19263         1.70477        -0.64754
| 18>    C        4.63521         0.51946         0.66711
| 19>    F        5.14894         1.07112         1.76953
| 20>    C        3.58101        -0.37327         0.77493
| 21>    C        3.08253        -0.92195        -0.39140
| 22>    C        3.61243        -0.58547        -1.65209
| 23>    C        2.85480        -1.28737        -2.67970
| 24>    C        2.73127        -0.93451        -3.99366
| 25>    C        3.49170         0.07869        -4.61542
| 26>    N        4.10166         0.88841        -5.15043
| 27>    C        1.72368        -1.49723        -4.80262
| 28>    N        0.85126        -1.90526        -5.42656
| 29>    C        2.02222        -2.26705        -2.00236
| 30>    C        1.99049        -1.90869        -0.55229
| 31>    O        1.26552        -2.36748         0.29325
| 32>    C        1.45597        -3.40863        -2.44863
| 33>    C        1.76514        -4.13154        -3.65564
| 34>    C        3.01866        -4.23685        -4.19663
| 35>    F        4.11220        -3.61606        -3.75472
| 36>    S        3.16297        -5.37261        -5.48484
| 37>    C        1.47107        -5.69932        -5.32784
| 38>    F        0.91893        -6.57391        -6.15634
| 39>    C        0.83291        -4.98625        -4.34895
| 40>    C       -0.58442        -4.93407        -4.11594
| 41>    C       -1.49128        -5.79745        -4.61310
| 42>    C       -2.89641        -5.61088        -4.50781
| 43>    S       -3.60428        -4.15044        -3.89337
| 44>    C       -5.21723        -4.68742        -4.27555
| 45>    C       -5.18580        -5.94935        -4.85087
| 46>    C       -3.88272        -6.47462        -4.95657
| 47>    S       -3.45801        -8.10235        -5.46258
| 48>    C       -4.77459        -8.68114        -6.47960
| 49>    O       -4.73352        -9.80782        -6.88486
| 50>    C       -5.96819        -7.81239        -6.81116
| 51>    O       -6.61591        -7.97818        -7.79618
| 52>    S       -6.61335        -6.70015        -5.55290
| 53>    C       -6.27777        -3.76119        -4.05215
| 54>    C       -7.59578        -3.97494        -4.21828
| 55>    C       -8.59796        -2.93345        -4.10748
| 56>    C       -9.80957        -3.19218        -3.53343
| 57>    F      -10.19318        -4.36351        -3.03857
| 58>    S      -10.87711        -1.83530        -3.39257
| 59>    C       -9.66603        -0.88122        -4.16000
| 60>    F       -9.91327         0.40068        -4.40611
| 61>    C       -8.51870        -1.54807        -4.52021
| 62>    C       -7.51497        -0.87459        -5.29845
| 63>    C       -6.52981        -1.47402        -6.00386
| 64>    C       -5.54514        -0.76402        -6.73140
| 65>    C       -4.44360        -1.29839        -7.32810
| 66>    C       -3.32011        -0.40252        -7.72373
| 67>    O       -3.36560         0.79493        -7.86380
| 68>    C       -2.14203        -1.29097        -7.83861
| 69>    C       -2.53822        -2.62421        -7.62775
| 70>    C       -1.58911        -3.63481        -7.61117
| 71>    C       -0.26741        -3.28402        -7.83271
| 72>    C        0.11357        -1.96429        -8.08108
| 73>    C       -0.82615        -0.94695        -8.07900
| 74>    F        1.39742        -1.68518        -8.32153
| 75>    F        0.67206        -4.23543        -7.80075
| 76>    C       -3.99424        -2.66790        -7.48694
| 77>    C       -4.76205        -3.78501        -7.67944
| 78>    C       -6.16759        -3.80092        -7.83115
| 79>    N       -7.29808        -3.89199        -8.00244
| 80>    C       -4.24098        -5.08369        -7.83529
| 81>    N       -3.90485        -6.17945        -7.91029
| 82>    H        5.10924         0.58481        -2.69740
| 83>    H        3.16954        -0.62720         1.73890
| 84>    H        0.77237        -3.90597        -1.76859
| 85>    H       -0.92551        -4.08810        -3.53360
| 86>    H       -1.18734        -6.68039        -5.15664
| 87>    H       -5.94250        -2.77849        -3.74392
| 88>    H       -7.97971        -4.96776        -4.39741
| 89>    H       -7.62128         0.20243        -5.34681
| 90>    H       -6.46107        -2.54632        -5.98740
| 91>    H       -5.60017         0.31916        -6.73488
| 92>    H       -1.83069        -4.66874        -7.42528
| 93>    H       -0.53391         0.07586        -8.25522
| 94> *
| 95>
| 96>                          ****END OF INPUT****

CARTESIAN COORDINATES (ANGSTROEM)
---------------------------------
  C      4.665740    0.309150   -1.754070
  C      5.170410    0.849860   -0.581360
  F      6.192630    1.704770   -0.647540
  C      4.635210    0.519460    0.667110
  F      5.148940    1.071120    1.769530
  C      3.581010   -0.373270    0.774930
  C      3.082530   -0.921950   -0.391400
  C      3.612430   -0.585470   -1.652090
  C      2.854800   -1.287370   -2.679700
  C      2.731270   -0.934510   -3.993660
  C      3.491700    0.078690   -4.615420
  N      4.101660    0.888410   -5.150430
  C      1.723680   -1.497230   -4.802620
  N      0.851260   -1.905260   -5.426560
  C      2.022220   -2.267050   -2.002360
  C      1.990490   -1.908690   -0.552290
  O      1.265520   -2.367480    0.293250
  C      1.455970   -3.408630   -2.448630
  C      1.765140   -4.131540   -3.655640
  C      3.018660   -4.236850   -4.196630
  F      4.112200   -3.616060   -3.754720
  S      3.162970   -5.372610   -5.484840
  C      1.471070   -5.699320   -5.327840
  F      0.918930   -6.573910   -6.156340
  C      0.832910   -4.986250   -4.348950
  C     -0.584420   -4.934070   -4.115940
  C     -1.491280   -5.797450   -4.613100
  C     -2.896410   -5.610880   -4.507810
  S     -3.604280   -4.150440   -3.893370
  C     -5.217230   -4.687420   -4.275550
  C     -5.185800   -5.949350   -4.850870
  C     -3.882720   -6.474620   -4.956570
  S     -3.458010   -8.102350   -5.462580
  C     -4.774590   -8.681140   -6.479600
  O     -4.733520   -9.807820   -6.884860
  C     -5.968190   -7.812390   -6.811160
  O     -6.615910   -7.978180   -7.796180
  S     -6.613350   -6.700150   -5.552900
  C     -6.277770   -3.761190   -4.052150
  C     -7.595780   -3.974940   -4.218280
  C     -8.597960   -2.933450   -4.107480
  C     -9.809570   -3.192180   -3.533430
  F    -10.193180   -4.363510   -3.038570
  S    -10.877110   -1.835300   -3.392570
  C     -9.666030   -0.881220   -4.160000
  F     -9.913270    0.400680   -4.406110
  C     -8.518700   -1.548070   -4.520210
  C     -7.514970   -0.874590   -5.298450
  C     -6.529810   -1.474020   -6.003860
  C     -5.545140   -0.764020   -6.731400
  C     -4.443600   -1.298390   -7.328100
  C     -3.320110   -0.402520   -7.723730
  O     -3.365600    0.794930   -7.863800
  C     -2.142030   -1.290970   -7.838610
  C     -2.538220   -2.624210   -7.627750
  C     -1.589110   -3.634810   -7.611170
  C     -0.267410   -3.284020   -7.832710
  C      0.113570   -1.964290   -8.081080
  C     -0.826150   -0.946950   -8.079000
  F      1.397420   -1.685180   -8.321530
  F      0.672060   -4.235430   -7.800750
  C     -3.994240   -2.667900   -7.486940
  C     -4.762050   -3.785010   -7.679440
  C     -6.167590   -3.800920   -7.831150
  N     -7.298080   -3.891990   -8.002440
  C     -4.240980   -5.083690   -7.835290
  N     -3.904850   -6.179450   -7.910290
  H      5.109240    0.584810   -2.697400
  H      3.169540   -0.627200    1.738900
  H      0.772370   -3.905970   -1.768590
  H     -0.925510   -4.088100   -3.533600
  H     -1.187340   -6.680390   -5.156640
  H     -5.942500   -2.778490   -3.743920
  H     -7.979710   -4.967760   -4.397410
  H     -7.621280    0.202430   -5.346810
  H     -6.461070   -2.546320   -5.987400
  H     -5.600170    0.319160   -6.734880
  H     -1.830690   -4.668740   -7.425280
  H     -0.533910    0.075860   -8.255220

 Total Charge           Charge          ....    0
 Multiplicity           Mult            ....    1
 Number of Electrons    NEL             ....  500
 Basis Dimension        Dim             .... 1018

ORBITAL ENERGIES
----------------

  NO   OCC          E(Eh)            E(eV)
   0   2.0000     -89.001639     -2421.8577
   1   2.0000     -88.996221     -2421.7103
   2   2.0000     -88.978298     -2421.2226
   3   2.0000     -88.961626     -2420.7689
   4   2.0000     -88.961576     -2420.7675
   5   2.0000     -24.836910      -675.8467
   6   2.0000     -24.826470      -675.5626
   7   2.0000     -24.826354      -675.5594
   8   2.0000     -24.819353      -675.3689
   9   2.0000     -24.815440      -675.2624
  10   2.0000     -24.815187      -675.2556
  11   2.0000     -24.804973      -674.9776
  12   2.0000     -24.800457      -674.8548
  13   2.0000     -19.241440      -523.5862
  14   2.0000     -19.238508      -523.5064
  15   2.0000     -19.233496      -523.3700
  16   2.0000     -19.220810      -523.0248
  17   2.0000     -14.438272      -392.8854
  18   2.0000     -14.434462      -392.7817
  19   2.0000     -14.428490      -392.6192
  20   2.0000     -14.418326      -392.3426
  21   2.0000     -10.413350      -283.3617
  22   2.0000     -10.405890      -283.1587
  23   2.0000     -10.403523      -283.0943
  24   2.0000     -10.402784      -283.0741
  25   2.0000     -10.401960      -283.0517
  26   2.0000     -10.400747      -283.0187
  27   2.0000     -10.398191      -282.9492
  28   2.0000     -10.397480      -282.9298
  29   2.0000     -10.390333      -282.7353
  30   2.0000     -10.384095      -282.5656
  31   2.0000     -10.383638      -282.5531
  32   2.0000     -10.371856      -282.2325
  33   2.0000     -10.365708      -282.0652
  34   2.0000     -10.363191      -281.9968
  35   2.0000     -10.351760      -281.6857
  36   2.0000     -10.350684      -281.6564
  37   2.0000     -10.342015      -281.4205
  38   2.0000     -10.339394      -281.3492
  39   2.0000     -10.335948      -281.2554
  40   2.0000     -10.334686      -281.2211
  41   2.0000     -10.333499      -281.1888
  42   2.0000     -10.330982      -281.1203
  43   2.0000     -10.329564      -281.0817
  44   2.0000     -10.329351      -281.0759
  45   2.0000     -10.326252      -280.9916
  46   2.0000     -10.325126      -280.9610
  47   2.0000     -10.324908      -280.9550
  48   2.0000     -10.321769      -280.8696
  49   2.0000     -10.320702      -280.8406
  50   2.0000     -10.320210      -280.8272
  51   2.0000     -10.319997      -280.8214
  52   2.0000     -10.319179      -280.7991
  53   2.0000     -10.317238      -280.7463
  54   2.0000     -10.316896      -280.7370
  55   2.0000     -10.314016      -280.6587
  56   2.0000     -10.313885      -280.6551
  57   2.0000     -10.310370      -280.5594
  58   2.0000     -10.308126      -280.4984
  59   2.0000     -10.305249      -280.4201
  60   2.0000     -10.304451      -280.3984
  61   2.0000     -10.302827      -280.3542
  62   2.0000     -10.302797      -280.3534
  63   2.0000     -10.302331      -280.3407
  64   2.0000     -10.301899      -280.3289
  65   2.0000     -10.300735      -280.2972
  66   2.0000     -10.291739      -280.0524
  67   2.0000      -8.098678      -220.3762
  68   2.0000      -8.093529      -220.2361
  69   2.0000      -8.073605      -219.6940
  70   2.0000      -8.058275      -219.2768
  71   2.0000      -8.057646      -219.2597
  72   2.0000      -6.067867      -165.1151
  73   2.0000      -6.064112      -165.0129
  74   2.0000      -6.062654      -164.9732
  75   2.0000      -6.060154      -164.9052
  76   2.0000      -6.059080      -164.8760
  77   2.0000      -6.054918      -164.7627
  78   2.0000      -6.042826      -164.4337
  79   2.0000      -6.039027      -164.3303
  80   2.0000      -6.035531      -164.2352
  81   2.0000      -6.028201      -164.0357
  82   2.0000      -6.027561      -164.0183
  83   2.0000      -6.023740      -163.9143
  84   2.0000      -6.023267      -163.9014
  85   2.0000      -6.018874      -163.7819
  86   2.0000      -6.018195      -163.7634
  87   2.0000      -1.351536       -36.7772
  88   2.0000      -1.343498       -36.5584
  89   2.0000      -1.343326       -36.5538
  90   2.0000      -1.340234       -36.4696
  91   2.0000      -1.336198       -36.3598
  92   2.0000      -1.326224       -36.0884
  93   2.0000      -1.324849       -36.0510
  94   2.0000      -1.310448       -35.6591
  95   2.0000      -1.174811       -31.9682
  96   2.0000      -1.155081       -31.4314
  97   2.0000      -1.144503       -31.1435
  98   2.0000      -1.137089       -30.9418
  99   2.0000      -1.042450       -28.3665
 100   2.0000      -1.029509       -28.0144
 101   2.0000      -1.024190       -27.8696
 102   2.0000      -1.021824       -27.8053
 103   2.0000      -1.020400       -27.7665
 104   2.0000      -1.016487       -27.6600
 105   2.0000      -1.014392       -27.6030
 106   2.0000      -1.007869       -27.4255
 107   2.0000      -1.000623       -27.2283
 108   2.0000      -0.976446       -26.5704
 109   2.0000      -0.960363       -26.1328
 110   2.0000      -0.940806       -25.6006
 111   2.0000      -0.935984       -25.4694
 112   2.0000      -0.931196       -25.3391
 113   2.0000      -0.928333       -25.2612
 114   2.0000      -0.917076       -24.9549
 115   2.0000      -0.909575       -24.7508
 116   2.0000      -0.905163       -24.6307
 117   2.0000      -0.896090       -24.3838
 118   2.0000      -0.891660       -24.2633
 119   2.0000      -0.880790       -23.9675
 120   2.0000      -0.874099       -23.7854
 121   2.0000      -0.864069       -23.5125
 122   2.0000      -0.852640       -23.2015
 123   2.0000      -0.840439       -22.8695
 124   2.0000      -0.833311       -22.6756
 125   2.0000      -0.827692       -22.5227
 126   2.0000      -0.803809       -21.8728
 127   2.0000      -0.794037       -21.6068
 128   2.0000      -0.789647       -21.4874
 129   2.0000      -0.789000       -21.4698
 130   2.0000      -0.774807       -21.0836
 131   2.0000      -0.751484       -20.4489
 132   2.0000      -0.748196       -20.3595
 133   2.0000      -0.743241       -20.2246
 134   2.0000      -0.734937       -19.9986
 135   2.0000      -0.727231       -19.7890
 136   2.0000      -0.722479       -19.6596
 137   2.0000      -0.718607       -19.5543
 138   2.0000      -0.712042       -19.3756
 139   2.0000      -0.709764       -19.3137
 140   2.0000      -0.705061       -19.1857
 141   2.0000      -0.694877       -18.9086
 142   2.0000      -0.690772       -18.7969
 143   2.0000      -0.689077       -18.7507
 144   2.0000      -0.674296       -18.3485
 145   2.0000      -0.668634       -18.1945
 146   2.0000      -0.662980       -18.0406
 147   2.0000      -0.659323       -17.9411
 148   2.0000      -0.654362       -17.8061
 149   2.0000      -0.646891       -17.6028
 150   2.0000      -0.645633       -17.5686
 151   2.0000      -0.638289       -17.3687
 152   2.0000      -0.637313       -17.3422
 153   2.0000      -0.627836       -17.0843
 154   2.0000      -0.624819       -17.0022
 155   2.0000      -0.622458       -16.9380
 156   2.0000      -0.618361       -16.8265
 157   2.0000      -0.617335       -16.7985
 158   2.0000      -0.616131       -16.7658
 159   2.0000      -0.610038       -16.6000
 160   2.0000      -0.607774       -16.5384
 161   2.0000      -0.604534       -16.4502
 162   2.0000      -0.600898       -16.3513
 163   2.0000      -0.598802       -16.2942
 164   2.0000      -0.596423       -16.2295
 165   2.0000      -0.595215       -16.1966
 166   2.0000      -0.593326       -16.1452
 167   2.0000      -0.586405       -15.9569
 168   2.0000      -0.584459       -15.9039
 169   2.0000      -0.582703       -15.8561
 170   2.0000      -0.576688       -15.6925
 171   2.0000      -0.569766       -15.5041
 172   2.0000      -0.567995       -15.4559
 173   2.0000      -0.565739       -15.3945
 174   2.0000      -0.564108       -15.3502
 175   2.0000      -0.561228       -15.2718
 176   2.0000      -0.557362       -15.1666
 177   2.0000      -0.557003       -15.1568
 178   2.0000      -0.553094       -15.0505
 179   2.0000      -0.552403       -15.0317
 180   2.0000      -0.550695       -14.9852
 181   2.0000      -0.547439       -14.8966
 182   2.0000      -0.544430       -14.8147
 183   2.0000      -0.543253       -14.7827
 184   2.0000      -0.541285       -14.7291
 185   2.0000      -0.534657       -14.5487
 186   2.0000      -0.531626       -14.4663
 187   2.0000      -0.530273       -14.4295
 188   2.0000      -0.525919       -14.3110
 189   2.0000      -0.523533       -14.2461
 190   2.0000      -0.516240       -14.0476
 191   2.0000      -0.515620       -14.0307
 192   2.0000      -0.512828       -13.9548
 193   2.0000      -0.512100       -13.9350
 194   2.0000      -0.508231       -13.8297
 195   2.0000      -0.505470       -13.7545
 196   2.0000      -0.503931       -13.7127
 197   2.0000      -0.497736       -13.5441
 198   2.0000      -0.497287       -13.5319
 199   2.0000      -0.493408       -13.4263
 200   2.0000      -0.488093       -13.2817
 201   2.0000      -0.487280       -13.2596
 202   2.0000      -0.483744       -13.1633
 203   2.0000      -0.480221       -13.0675
 204   2.0000      -0.477892       -13.0041
 205   2.0000      -0.476860       -12.9760
 206   2.0000      -0.474804       -12.9201
 207   2.0000      -0.471244       -12.8232
 208   2.0000      -0.470307       -12.7977
 209   2.0000      -0.468633       -12.7522
 210   2.0000      -0.465627       -12.6704
 211   2.0000      -0.462134       -12.5753
 212   2.0000      -0.461604       -12.5609
 213   2.0000      -0.460074       -12.5193
 214   2.0000      -0.458949       -12.4886
 215   2.0000      -0.456952       -12.4343
 216   2.0000      -0.452566       -12.3149
 217   2.0000      -0.451738       -12.2924
 218   2.0000      -0.448853       -12.2139
 219   2.0000      -0.448343       -12.2000
 220   2.0000      -0.446043       -12.1375
 221   2.0000      -0.442853       -12.0506
 222   2.0000      -0.437299       -11.8995
 223   2.0000      -0.436587       -11.8801
 224   2.0000      -0.433421       -11.7940
 225   2.0000      -0.431116       -11.7313
 226   2.0000      -0.428734       -11.6665
 227   2.0000      -0.424126       -11.5411
 228   2.0000      -0.422308       -11.4916
 229   2.0000      -0.414769       -11.2864
 230   2.0000      -0.404128       -10.9969
 231   2.0000      -0.396996       -10.8028
 232   2.0000      -0.392011       -10.6672
 233   2.0000      -0.385903       -10.5010
 234   2.0000      -0.382512       -10.4087
 235   2.0000      -0.373486       -10.1631
 236   2.0000      -0.366123        -9.9627
 237   2.0000      -0.357413        -9.7257
 238   2.0000      -0.355420        -9.6715
 239   2.0000      -0.348185        -9.4746
 240   2.0000      -0.342646        -9.3239
 241   2.0000      -0.338116        -9.2006
 242   2.0000      -0.331726        -9.0267
 243   2.0000      -0.329948        -8.9783
 244   2.0000      -0.319013        -8.6808
 245   2.0000      -0.314196        -8.5497
 246   2.0000      -0.309554        -8.4234
 247   2.0000      -0.299287        -8.1440
 248   2.0000      -0.288284        -7.8446
 249   2.0000      -0.261825        -7.1246
 250   0.0000      -0.102402        -2.7865
 251   0.0000      -0.095073        -2.5871
 252   0.0000      -0.075880        -2.0648
 253   0.0000      -0.066903        -1.8205
 254   0.0000      -0.063540        -1.7290

MULLIKEN ATOMIC CHARGES
-----------------------
   0 C :   -0.080784
   1 C :    0.237846
   2 F :   -0.159599
   3 C :    0.234805
   4 F :   -0.162817
   5 C :   -0.094256
   6 C :    0.002552
   7 C :    0.034102
   8 C :    0.242976
   9 C :   -0.308674
  10 C :   -0.182332
  11 N :    0.174077
  12 C :   -0.165490
  13 N :    0.144580
  14 C :   -0.113017
  15 C :    0.142518
  16 O :   -0.123950
  17 C :    0.018770
  18 C :    0.000863
  19 C :    0.091709
  20 F :   -0.151370
  21 S :    0.141689
  22 C :    0.052945
  23 F :   -0.143771
  24 C :    0.121372
  25 C :   -0.037596
  26 C :    0.007827
  27 C :   -0.113974
  28 S :    0.133166
  29 C :   -0.140850
  30 C :   -0.017937
  31 C :   -0.054805
  32 S :    0.105000
  33 C :    0.111328
  34 O :   -0.141512
  35 C :    0.066407
  36 O :   -0.101761
  37 S :    0.061684
  38 C :    0.029672
  39 C :   -0.017103
  40 C :    0.053509
  41 C :    0.071453
  42 F :   -0.148898
  43 S :    0.127929
  44 C :    0.077131
  45 F :   -0.149403
  46 C :    0.057106
  47 C :    0.010741
  48 C :   -0.014013
  49 C :    0.034300
  50 C :   -0.113081
  51 C :    0.137780
  52 O :   -0.134165
  53 C :    0.008048
  54 C :    0.030798
  55 C :   -0.090508
  56 C :    0.248840
  57 C :    0.272348
  58 C :   -0.107148
  59 F :   -0.170487
  60 F :   -0.172416
  61 C :    0.275888
  62 C :   -0.333774
  63 C :   -0.219002
  64 N :    0.190495
  65 C :   -0.120703
  66 N :    0.103101
  67 H :    0.021451
  68 H :    0.017882
  69 H :    0.038383
  70 H :    0.001937
  71 H :    0.018881
  72 H :    0.007213
  73 H :    0.032217
  74 H :    0.007351
  75 H :    0.049563
  76 H :    0.014112
  77 H :    0.010735
  78 H :    0.010112
Sum of atomic charges:   -0.0000000

LOEWDIN ATOMIC CHARGES
----------------------
   0 C :   -0.016350
   1 C :    0.077409
   2 F :   -0.037135
   3 C :    0.072879
   4 F :   -0.039742
   5 C :   -0.001773
   6 C :   -0.046729
   7 C :   -0.011450
   8 C :    0.072001
   9 C :   -0.130018
  10 C :   -0.023464
  11 N :   -0.034582
  12 C :    0.000406
  13 N :   -0.047128
  14 C :   -0.080160
  15 C :    0.086271
  16 O :   -0.125013
  17 C :    0.068965
  18 C :   -0.099843
  19 C :   -0.067842
  20 F :   -0.039340
  21 S :    0.457530
  22 C :   -0.073688
  23 F :   -0.029931
  24 C :   -0.083531
  25 C :   -0.027177
  26 C :   -0.035246
  27 C :   -0.191207
  28 S :    0.450247
  29 C :   -0.184939
  30 C :   -0.212310
  31 C :   -0.208706
  32 S :    0.391797
  33 C :   -0.103842
  34 O :   -0.105335
  35 C :   -0.094079
  36 O :   -0.072961
  37 S :    0.366146
  38 C :   -0.047125
  39 C :   -0.015951
  40 C :   -0.083682
  41 C :   -0.072975
  42 F :   -0.041520
  43 S :    0.440408
  44 C :   -0.066241
  45 F :   -0.040464
  46 C :   -0.094855
  47 C :    0.033826
  48 C :   -0.036208
  49 C :    0.070250
  50 C :   -0.090827
  51 C :    0.083410
  52 O :   -0.135117
  53 C :   -0.044357
  54 C :   -0.014351
  55 C :   -0.021544
  56 C :    0.079096
  57 C :    0.076275
  58 C :   -0.003484
  59 F :   -0.041791
  60 F :   -0.043104
  61 C :    0.074618
  62 C :   -0.139491
  63 C :   -0.030482
  64 N :   -0.036241
  65 C :    0.003191
  66 N :   -0.066642
  67 H :    0.053169
  68 H :    0.054383
  69 H :    0.051446
  70 H :    0.025595
  71 H :    0.029829
  72 H :    0.031542
  73 H :    0.024538
  74 H :    0.038572
  75 H :    0.033502
  76 H :    0.044438
  77 H :    0.046809
  78 H :    0.051427

  Mayer bond orders larger than 0.100000
B(  0-C ,  1-C ) :   1.3387 B(  0-C ,  5-C ) :   0.1024 B(  0-C ,  7-C ) :   1.3179
B(  0-C , 67-H ) :   0.9970 B(  1-C ,  2-F ) :   1.1452 B(  1-C ,  3-C ) :   1.2811
B(  3-C ,  4-F ) :   1.1374 B(  3-C ,  5-C ) :   1.3284 B(  5-C ,  6-C ) :   1.3189
B(  5-C , 68-H ) :   1.0192 B(  6-C ,  7-C ) :   1.3363 B(  6-C , 15-C ) :   0.9270
B(  7-C ,  8-C ) :   1.0289 B(  8-C ,  9-C ) :   1.6805 B(  8-C , 14-C ) :   1.0197
B(  9-C , 10-C ) :   1.1182 B(  9-C , 12-C ) :   1.1614 B( 10-C , 11-N ) :   3.0082
B( 12-C , 13-N ) :   2.9675 B( 14-C , 15-C ) :   0.9255 B( 14-C , 17-C ) :   1.7428
B( 15-C , 16-O ) :   2.2938 B( 17-C , 18-C ) :   1.0352 B( 17-C , 69-H ) :   0.9428
B( 18-C , 19-C ) :   1.4559 B( 18-C , 24-C ) :   1.1521 B( 19-C , 20-F ) :   1.1160
B( 19-C , 21-S ) :   1.1474 B( 21-S , 22-C ) :   1.1132 B( 22-C , 23-F ) :   1.1182
B( 22-C , 24-C ) :   1.4580 B( 24-C , 25-C ) :   1.1036 B( 25-C , 26-C ) :   1.6957
B( 25-C , 70-H ) :   0.9640 B( 26-C , 27-C ) :   1.1432 B( 26-C , 71-H ) :   0.9645
B( 27-C , 28-S ) :   1.1105 B( 27-C , 29-C ) :   0.1016 B( 27-C , 31-C ) :   1.5539
B( 28-S , 29-C ) :   1.1225 B( 29-C , 30-C ) :   1.5463 B( 29-C , 38-C ) :   1.1439
B( 30-C , 31-C ) :   1.2557 B( 30-C , 37-S ) :   1.0030 B( 31-C , 32-S ) :   0.9980
B( 32-S , 33-C ) :   1.0355 B( 32-S , 34-O ) :   0.1270 B( 33-C , 34-O ) :   2.1531
B( 33-C , 35-C ) :   0.7681 B( 35-C , 36-O ) :   2.2118 B( 35-C , 37-S ) :   0.9864
B( 36-O , 37-S ) :   0.1108 B( 38-C , 39-C ) :   1.7278 B( 38-C , 72-H ) :   0.9490
B( 39-C , 40-C ) :   1.0648 B( 39-C , 73-H ) :   0.9550 B( 40-C , 41-C ) :   1.5077
B( 40-C , 46-C ) :   1.1331 B( 41-C , 42-F ) :   1.1452 B( 41-C , 43-S ) :   1.1020
B( 43-S , 44-C ) :   1.1357 B( 44-C , 45-F ) :   1.1378 B( 44-C , 46-C ) :   1.4407
B( 46-C , 47-C ) :   1.0932 B( 47-C , 48-C ) :   1.6709 B( 47-C , 74-H ) :   0.9789
B( 48-C , 49-C ) :   1.1355 B( 48-C , 75-H ) :   0.9446 B( 49-C , 50-C ) :   1.6271
B( 49-C , 76-H ) :   0.9612 B( 50-C , 51-C ) :   0.9373 B( 50-C , 61-C ) :   1.0295
B( 51-C , 52-O ) :   2.2743 B( 51-C , 53-C ) :   0.9322 B( 53-C , 54-C ) :   1.3419
B( 53-C , 58-C ) :   1.3227 B( 54-C , 55-C ) :   1.3084 B( 54-C , 61-C ) :   1.0251
B( 55-C , 56-C ) :   1.3552 B( 55-C , 58-C ) :   0.1006 B( 55-C , 77-H ) :   0.9883
B( 56-C , 57-C ) :   1.2904 B( 56-C , 60-F ) :   1.1122 B( 57-C , 58-C ) :   1.3290
B( 57-C , 59-F ) :   1.1224 B( 58-C , 78-H ) :   1.0201 B( 61-C , 62-C ) :   1.6365
B( 62-C , 63-C ) :   1.1620 B( 62-C , 65-C ) :   1.1429 B( 63-C , 64-N ) :   2.9890
B( 65-C , 66-N ) :   2.8765

-----------------------------------------------------------------------------
         ABSORPTION SPECTRUM VIA TRANSITION ELECTRIC DIPOLE MOMENTS
-----------------------------------------------------------------------------
State   Energy  Wavelength   fosc         T2         TX        TY        TZ
        (cm-1)    (nm)                  (au**2)     (au)      (au)      (au)
-----------------------------------------------------------------------------
   0   18753.0    533.2   0.026258425   0.46097   0.36761  -0.42625   0.37966
   1   19929.6    501.8   0.044856949   0.74098   0.81065   0.23072   0.17493
   2   23991.9    416.8   0.213269683   2.92644   0.91448  -0.74444  -1.23934
   3   25620.1    390.3   0.558866871   7.18131  -2.63793  -0.46649   0.07091
   4   26345.9    379.6   0.145886004   1.82295  -0.65645   1.09461   0.44030
   5   27123.3    368.7   0.054027204   0.65576   0.73241  -0.28915  -0.18901
   6   27139.8    368.5   0.376239096   4.56387  -1.98923   0.68654   0.36811
   7   27273.9    366.7   0.126623836   1.52843   0.93248  -0.80568  -0.09889
   8   29032.8    344.4   0.025565790   0.28990  -0.37105  -0.19845  -0.33592
   9   29429.3    339.8   0.016447491   0.18399   0.20396   0.24133   0.29009
  10   29458.8    339.5   0.087210398   0.97461  -0.88519  -0.27225  -0.34193
  11   30019.5    333.1   0.010207468   0.11194  -0.30612  -0.09114   0.09964
  12   30190.6    331.2   0.071234131   0.77677   0.42617  -0.70365  -0.31625
  13   30501.3    327.9   0.083558891   0.90188   0.68605  -0.15719   0.63758
  14   30674.5    326.0   0.012230141   0.13126  -0.11283  -0.21961  -0.26514
  15   30950.0    323.1   0.005066800   0.05390   0.14010  -0.16801   0.07771
  16   31157.7    320.9   0.142824856   1.50908   1.07429   0.58038   0.13472
  17   31604.1    316.4   0.022948592   0.23905   0.22564  -0.09725  -0.42270
  18   31811.1    314.4   0.205343057   2.12509  -1.44509   0.01962  -0.19082
  19   31907.3    313.4   0.699603603   7.21834   2.58346   0.35645  -0.64578
  20   32194.2    310.6   0.051530048   0.52694  -0.24658   0.54562  -0.41041
  21   32427.7    308.4   0.035557632   0.36099  -0.22248   0.25149   0.49824
  22   32472.0    308.0   0.049616720   0.50303   0.20293   0.60741   0.30481
  23   32836.8    304.5   0.020781723   0.20835   0.20172   0.33737   0.23204
  24   33621.3    297.4   0.460436074   4.50848  -0.12358   1.26256   1.70269
  25   34135.2    293.0   0.016605606   0.16015   0.01092  -0.22794  -0.32875
  26   34930.0    286.3   0.085860502   0.80923  -0.07897   0.70545   0.55257
  27   35308.7    283.2   0.111502101   1.03962   0.62819   0.72198   0.35178
  28   35363.8    282.8   0.241184410   2.24525  -1.42990  -0.42622   0.13772
  29   35787.6    279.4   0.006392891   0.05881  -0.16500   0.05055   0.17038
  30   35948.1    278.2   0.115542132   1.05813  -0.54442  -0.68135  -0.54544
  31   36220.5    276.1   0.020962992   0.19054   0.32567   0.15735   0.24436
  32   36344.3    275.1   0.362389384   3.28258   0.23793   0.60168   1.69232
  33   36508.1    273.9   0.080762889   0.72828   0.50632   0.65527   0.20626
  34   36648.9    272.9   0.326734549   2.93501  -0.70139  -1.08574   1.12439
  35   36753.3    272.1   0.051314916   0.45964  -0.59018   0.32634   0.06950
  36   37406.5    267.3   0.024901962   0.21916  -0.17380   0.32925   0.28381
  37   37555.2    266.3   0.051091599   0.44787   0.04242   0.47459   0.46994
  38   37713.4    265.2   0.119081452   1.03950   0.16605   0.21802  -0.98203
  39   37737.4    265.0   0.001917867   0.01673   0.02856   0.07744   0.09959
  40   37775.5    264.7   0.038519647   0.33570   0.29717   0.18349  -0.46230
  41   38046.2    262.8   0.002782930   0.02408   0.14593  -0.02090   0.04846
  42   38579.6    259.2   0.026186076   0.22345   0.07310   0.46700   0.00459
  43   38838.0    257.5   0.055582394   0.47115  -0.41408  -0.25352  -0.48519
  44   39070.2    255.9   0.011491159   0.09683   0.17351   0.14910   0.21092
  45   39227.7    254.9   0.010878223   0.09129   0.26287   0.11409  -0.09580
  46   39304.5    254.4   0.010959859   0.09180  -0.12639  -0.17013   0.21652
  47   39509.1    253.1   0.012984576   0.10819   0.21301  -0.25062  -0.00304
  48   39729.6    251.7   0.038025524   0.31509  -0.23855   0.45120   0.23368
  49   39807.9    251.2   0.117357655   0.97055   0.55139  -0.80987  -0.10311

FINAL SINGLE POINT ENERGY     -5065.216150016745

DIPOLE MOMENT
-------------
                                X             Y             Z
Electronic contribution:     18.36522      -0.01911       4.50009
Nuclear contribution   :    -17.40217       1.41044      -1.70933
                        -----------------------------------------
Total Dipole Moment    :      0.96305       1.39133       2.79075
                        -----------------------------------------
Magnitude (a.u.)       :      3.26367
Magnitude (Debye)      :      8.29560

Rotational constants in cm-1:     0.001471     0.000592     0.000529
Rotational constants in MHz :    44.090763    17.741696    15.872832

                             ****ORCA TERMINATED NORMALLY****
TOTAL RUN TIME: 0 days 0 hours 8 minutes 44 seconds 933 msec
