                         Program Version 4.2.0 -  RELEASE  -
|  1> # ORCA input file
|  2> # SCF done       -183.779876115948          0.000543213850
|  3> ! CAM-B3LYP def2-SVP def2/J RIJCOSX Grid4 TightSCF
|  4> %maxcore 5000
|  5> %tddft
|  6>     Mode sTDDFT
|  7>     Ethresh 5.0
|  8>     maxcore 5000
|  9> end
| 10>
| 11> %pal
| 12>   nprocs 6
| 13>   end
| 14> * xyz 0 1
| 15>    C       -8.55543         1.44070         0.66584
| 16>    S       -8.76936        -0.24993         0.59596
| 17>    C       -7.07232        -0.53486         0.33039
| 18>    C       -6.37904         0.68501         0.30112
| 19>    C       -7.23761         1.81421         0.49374
| 20>    C       -6.71272         3.12759         0.49172
| 21>    C       -5.36829         3.30245         0.30097
| 22>    O       -4.72496         4.50025         0.27275
| 23>    C       -5.48410         5.67063         0.45114
| 24>    C       -4.51659         2.17905         0.10948
| 25>    C       -5.00084         0.90686         0.10876
| 26>    C       -6.54760        -1.83173         0.17537
| 27>    C       -7.29068        -2.97513         0.19319
| 28>    C       -6.78693        -4.28154         0.03884
| 29>    C       -7.54665        -5.43905         0.03274
| 30>    C       -6.69834        -6.55825        -0.14516
| 31>    C       -5.34881        -5.99934        -0.24585
| 32>    C       -5.38480        -4.66176        -0.14272
| 33>    F       -4.24695        -6.74512        -0.42203
| 34>    C       -7.04104        -7.89635        -0.21855
| 35>    C       -6.19696        -9.02028        -0.38667
| 36>    C       -6.96626       -10.17213        -0.42108
| 37>    C       -8.36947        -9.78238        -0.26705
| 38>    C       -8.39642        -8.44681        -0.14401
| 39>    F       -9.49658        -7.69515         0.02114
| 40>    C       -6.48570       -11.48747        -0.56639
| 41>    C       -7.28021       -12.59386        -0.64983
| 42>    C       -6.80599       -13.91275        -0.77203
| 43>    S       -5.10941       -14.29241        -0.73736
| 44>    C       -5.41675       -16.00123        -0.92846
| 45>    C       -6.78926       -16.23549        -1.07793
| 46>    C       -7.56086       -15.07691        -0.94505
| 47>    C       -9.06841       -15.07092        -0.97979
| 48>    N       -9.60355       -14.19119         0.05262
| 49>    C       -9.59571       -16.50899        -0.87072
| 50>    C       -8.85756       -17.40637        -1.84836
| 51>    C       -7.38831       -17.57403        -1.42636
| 52>    N       -6.58495       -18.22050        -2.45395
| 53>    C       -4.28716       -16.84070        -0.82310
| 54>    C       -4.26326       -18.19774        -0.68479
| 55>    C       -3.09655       -18.96404        -0.49691
| 56>    C       -3.07760       -20.33467        -0.28708
| 57>    C       -1.74366       -20.76662        -0.10595
| 58>    C       -0.93290       -19.55473        -0.23278
| 59>    C       -1.71381       -18.48656        -0.46072
| 60>    F        0.40577       -19.54452        -0.13034
| 61>    C       -1.28128       -22.04551         0.15753
| 62>    C        0.04498       -22.48293         0.36996
| 63>    C        0.04746       -23.84715         0.62522
| 64>    C       -1.33854       -24.31567         0.56873
| 65>    C       -2.10453       -23.24927         0.29361
| 66>    F       -3.44025       -23.25828         0.15762
| 67>    C        1.18869       -24.62523         0.89391
| 68>    C        1.15420       -25.96289         1.17851
| 69>    C        2.21669       -26.83545         1.46760
| 70>    S        1.76630       -28.43998         1.98036
| 71>    C        3.39616       -28.94902         2.21058
| 72>    C        4.28006       -27.91162         1.88233
| 73>    C        3.62463       -26.71339         1.45141
| 74>    C        4.40472       -25.62084         1.05573
| 75>    C        5.78305       -25.68747         1.10752
| 76>    O        6.44224       -24.57066         0.70067
| 77>    C        7.84909       -24.55725         0.71991
| 78>    C        6.42225       -26.86309         1.55748
| 79>    C        5.68598       -27.95125         1.93047
| 80>    C        3.72071       -30.26038         2.67276
| 81>    C        2.82879       -31.20968         2.96732
| 82>    H       -9.40284         2.07647         0.82866
| 83>    H       -7.39138         3.95186         0.64035
| 84>    H       -4.77575         6.49532         0.39121
| 85>    H       -5.97533         5.68414         1.42966
| 86>    H       -6.23844         5.78233        -0.33487
| 87>    H       -3.46715         2.37960        -0.03617
| 88>    H       -4.33437         0.07155        -0.03916
| 89>    H       -5.47887        -1.89450         0.02990
| 90>    H       -8.36210        -2.89050         0.33294
| 91>    H       -8.61218        -5.48264         0.14499
| 92>    H       -4.54899        -3.99139        -0.18141
| 93>    H       -5.12906        -8.98242        -0.47663
| 94>    H       -9.20735       -10.45026        -0.24536
| 95>    H       -5.41002       -11.61002        -0.61825
| 96>    H       -8.35427       -12.49599        -0.61329
| 97>    H       -9.39163       -14.64857        -1.94355
| 98>    H       -9.28951       -14.49512         0.96866
| 99>    H      -10.61730       -14.22639         0.04296
|100>    H      -10.66924       -16.51876        -1.07493
|101>    H       -9.44024       -16.87374         0.14913
|102>    H       -8.89483       -16.96043        -2.84711
|103>    H       -9.32985       -18.39030        -1.90002
|104>    H       -7.35485       -18.21981        -0.53600
|105>    H       -6.53378       -17.63693        -3.28136
|106>    H       -6.99838       -19.10754        -2.71790
|107>    H       -3.34645       -16.30678        -0.77922
|108>    H       -5.18612       -18.75203        -0.70756
|109>    H       -3.94227       -20.96791        -0.25744
|110>    H       -1.39210       -17.47311        -0.59681
|111>    H        0.91338       -21.85423         0.34382
|112>    H       -1.67342       -25.32301         0.71783
|113>    H        2.12627       -24.09197         0.88746
|114>    H        0.18006       -26.43377         1.22081
|115>    H        3.96311       -24.71182         0.68902
|116>    H        8.13606       -23.57217         0.35551
|117>    H        8.26942       -25.32184         0.05863
|118>    H        8.24072       -24.69375         1.73305
|119>    H        7.49841       -26.91447         1.60171
|120>    H        6.18616       -28.84851         2.26053
|121>    H        4.77693       -30.46646         2.78198
|122>    H        1.77007       -31.03546         2.87065
|123>    H        3.13323       -32.18114         3.31269
|124> *
|125>
|126>                          ****END OF INPUT****

CARTESIAN COORDINATES (ANGSTROEM)
---------------------------------
  C     -8.555430    1.440700    0.665840
  S     -8.769360   -0.249930    0.595960
  C     -7.072320   -0.534860    0.330390
  C     -6.379040    0.685010    0.301120
  C     -7.237610    1.814210    0.493740
  C     -6.712720    3.127590    0.491720
  C     -5.368290    3.302450    0.300970
  O     -4.724960    4.500250    0.272750
  C     -5.484100    5.670630    0.451140
  C     -4.516590    2.179050    0.109480
  C     -5.000840    0.906860    0.108760
  C     -6.547600   -1.831730    0.175370
  C     -7.290680   -2.975130    0.193190
  C     -6.786930   -4.281540    0.038840
  C     -7.546650   -5.439050    0.032740
  C     -6.698340   -6.558250   -0.145160
  C     -5.348810   -5.999340   -0.245850
  C     -5.384800   -4.661760   -0.142720
  F     -4.246950   -6.745120   -0.422030
  C     -7.041040   -7.896350   -0.218550
  C     -6.196960   -9.020280   -0.386670
  C     -6.966260  -10.172130   -0.421080
  C     -8.369470   -9.782380   -0.267050
  C     -8.396420   -8.446810   -0.144010
  F     -9.496580   -7.695150    0.021140
  C     -6.485700  -11.487470   -0.566390
  C     -7.280210  -12.593860   -0.649830
  C     -6.805990  -13.912750   -0.772030
  S     -5.109410  -14.292410   -0.737360
  C     -5.416750  -16.001230   -0.928460
  C     -6.789260  -16.235490   -1.077930
  C     -7.560860  -15.076910   -0.945050
  C     -9.068410  -15.070920   -0.979790
  N     -9.603550  -14.191190    0.052620
  C     -9.595710  -16.508990   -0.870720
  C     -8.857560  -17.406370   -1.848360
  C     -7.388310  -17.574030   -1.426360
  N     -6.584950  -18.220500   -2.453950
  C     -4.287160  -16.840700   -0.823100
  C     -4.263260  -18.197740   -0.684790
  C     -3.096550  -18.964040   -0.496910
  C     -3.077600  -20.334670   -0.287080
  C     -1.743660  -20.766620   -0.105950
  C     -0.932900  -19.554730   -0.232780
  C     -1.713810  -18.486560   -0.460720
  F      0.405770  -19.544520   -0.130340
  C     -1.281280  -22.045510    0.157530
  C      0.044980  -22.482930    0.369960
  C      0.047460  -23.847150    0.625220
  C     -1.338540  -24.315670    0.568730
  C     -2.104530  -23.249270    0.293610
  F     -3.440250  -23.258280    0.157620
  C      1.188690  -24.625230    0.893910
  C      1.154200  -25.962890    1.178510
  C      2.216690  -26.835450    1.467600
  S      1.766300  -28.439980    1.980360
  C      3.396160  -28.949020    2.210580
  C      4.280060  -27.911620    1.882330
  C      3.624630  -26.713390    1.451410
  C      4.404720  -25.620840    1.055730
  C      5.783050  -25.687470    1.107520
  O      6.442240  -24.570660    0.700670
  C      7.849090  -24.557250    0.719910
  C      6.422250  -26.863090    1.557480
  C      5.685980  -27.951250    1.930470
  C      3.720710  -30.260380    2.672760
  C      2.828790  -31.209680    2.967320
  H     -9.402840    2.076470    0.828660
  H     -7.391380    3.951860    0.640350
  H     -4.775750    6.495320    0.391210
  H     -5.975330    5.684140    1.429660
  H     -6.238440    5.782330   -0.334870
  H     -3.467150    2.379600   -0.036170
  H     -4.334370    0.071550   -0.039160
  H     -5.478870   -1.894500    0.029900
  H     -8.362100   -2.890500    0.332940
  H     -8.612180   -5.482640    0.144990
  H     -4.548990   -3.991390   -0.181410
  H     -5.129060   -8.982420   -0.476630
  H     -9.207350  -10.450260   -0.245360
  H     -5.410020  -11.610020   -0.618250
  H     -8.354270  -12.495990   -0.613290
  H     -9.391630  -14.648570   -1.943550
  H     -9.289510  -14.495120    0.968660
  H    -10.617300  -14.226390    0.042960
  H    -10.669240  -16.518760   -1.074930
  H     -9.440240  -16.873740    0.149130
  H     -8.894830  -16.960430   -2.847110
  H     -9.329850  -18.390300   -1.900020
  H     -7.354850  -18.219810   -0.536000
  H     -6.533780  -17.636930   -3.281360
  H     -6.998380  -19.107540   -2.717900
  H     -3.346450  -16.306780   -0.779220
  H     -5.186120  -18.752030   -0.707560
  H     -3.942270  -20.967910   -0.257440
  H     -1.392100  -17.473110   -0.596810
  H      0.913380  -21.854230    0.343820
  H     -1.673420  -25.323010    0.717830
  H      2.126270  -24.091970    0.887460
  H      0.180060  -26.433770    1.220810
  H      3.963110  -24.711820    0.689020
  H      8.136060  -23.572170    0.355510
  H      8.269420  -25.321840    0.058630
  H      8.240720  -24.693750    1.733050
  H      7.498410  -26.914470    1.601710
  H      6.186160  -28.848510    2.260530
  H      4.776930  -30.466460    2.781980
  H      1.770070  -31.035460    2.870650
  H      3.133230  -32.181140    3.312690

 Total Charge           Charge          ....    0
 Multiplicity           Mult            ....    1
 Number of Electrons    NEL             ....  492
 Basis Dimension        Dim             .... 1160

ORBITAL ENERGIES
----------------

  NO   OCC          E(Eh)            E(eV)
   0   2.0000     -88.959586     -2420.7134
   1   2.0000     -88.954147     -2420.5654
   2   2.0000     -88.942146     -2420.2388
   3   2.0000     -24.774383      -674.1452
   4   2.0000     -24.771278      -674.0608
   5   2.0000     -24.771257      -674.0602
   6   2.0000     -24.770549      -674.0409
   7   2.0000     -19.243395      -523.6394
   8   2.0000     -19.238703      -523.5117
   9   2.0000     -14.389456      -391.5570
  10   2.0000     -14.382073      -391.3561
  11   2.0000     -10.339285      -281.3463
  12   2.0000     -10.336588      -281.2729
  13   2.0000     -10.336058      -281.2584
  14   2.0000     -10.335441      -281.2417
  15   2.0000     -10.332875      -281.1718
  16   2.0000     -10.325003      -280.9576
  17   2.0000     -10.323161      -280.9075
  18   2.0000     -10.317673      -280.7582
  19   2.0000     -10.303379      -280.3692
  20   2.0000     -10.301178      -280.3093
  21   2.0000     -10.299636      -280.2674
  22   2.0000     -10.297384      -280.2061
  23   2.0000     -10.294647      -280.1316
  24   2.0000     -10.292425      -280.0711
  25   2.0000     -10.289576      -279.9936
  26   2.0000     -10.284095      -279.8445
  27   2.0000     -10.283658      -279.8326
  28   2.0000     -10.283597      -279.8309
  29   2.0000     -10.282457      -279.7999
  30   2.0000     -10.282259      -279.7945
  31   2.0000     -10.281617      -279.7770
  32   2.0000     -10.281134      -279.7639
  33   2.0000     -10.281111      -279.7632
  34   2.0000     -10.280970      -279.7594
  35   2.0000     -10.278887      -279.7027
  36   2.0000     -10.277256      -279.6583
  37   2.0000     -10.276686      -279.6428
  38   2.0000     -10.272538      -279.5300
  39   2.0000     -10.272204      -279.5209
  40   2.0000     -10.272112      -279.5184
  41   2.0000     -10.271942      -279.5138
  42   2.0000     -10.271252      -279.4950
  43   2.0000     -10.270510      -279.4748
  44   2.0000     -10.270178      -279.4658
  45   2.0000     -10.269375      -279.4439
  46   2.0000     -10.269228      -279.4399
  47   2.0000     -10.269050      -279.4350
  48   2.0000     -10.266914      -279.3769
  49   2.0000     -10.266851      -279.3752
  50   2.0000     -10.266538      -279.3667
  51   2.0000     -10.265106      -279.3277
  52   2.0000     -10.265070      -279.3268
  53   2.0000     -10.264206      -279.3032
  54   2.0000     -10.263745      -279.2907
  55   2.0000     -10.262522      -279.2574
  56   2.0000     -10.261652      -279.2337
  57   2.0000     -10.261014      -279.2164
  58   2.0000     -10.259508      -279.1754
  59   2.0000     -10.256792      -279.1015
  60   2.0000     -10.254743      -279.0457
  61   2.0000     -10.253375      -279.0085
  62   2.0000     -10.253367      -279.0083
  63   2.0000     -10.242579      -278.7148
  64   2.0000     -10.242034      -278.6999
  65   2.0000     -10.241920      -278.6968
  66   2.0000     -10.240875      -278.6684
  67   2.0000      -8.054912      -219.1853
  68   2.0000      -8.049377      -219.0347
  69   2.0000      -8.037914      -218.7227
  70   2.0000      -6.023758      -163.9148
  71   2.0000      -6.019824      -163.8077
  72   2.0000      -6.018321      -163.7668
  73   2.0000      -6.017818      -163.7531
  74   2.0000      -6.014139      -163.6530
  75   2.0000      -6.012374      -163.6050
  76   2.0000      -6.006935      -163.4570
  77   2.0000      -6.003156      -163.3542
  78   2.0000      -6.000154      -163.2725
  79   2.0000      -1.285349       -34.9761
  80   2.0000      -1.282500       -34.8986
  81   2.0000      -1.282303       -34.8932
  82   2.0000      -1.281487       -34.8710
  83   2.0000      -1.148245       -31.2453
  84   2.0000      -1.142965       -31.1017
  85   2.0000      -0.998228       -27.1632
  86   2.0000      -0.991853       -26.9897
  87   2.0000      -0.983216       -26.7547
  88   2.0000      -0.973497       -26.4902
  89   2.0000      -0.968581       -26.3564
  90   2.0000      -0.967741       -26.3336
  91   2.0000      -0.958721       -26.0881
  92   2.0000      -0.950475       -25.8637
  93   2.0000      -0.949412       -25.8348
  94   2.0000      -0.928116       -25.2553
  95   2.0000      -0.918845       -25.0031
  96   2.0000      -0.901763       -24.5382
  97   2.0000      -0.891201       -24.2508
  98   2.0000      -0.885480       -24.0951
  99   2.0000      -0.883263       -24.0348
 100   2.0000      -0.869007       -23.6469
 101   2.0000      -0.861963       -23.4552
 102   2.0000      -0.850038       -23.1307
 103   2.0000      -0.847082       -23.0503
 104   2.0000      -0.834566       -22.7097
 105   2.0000      -0.830221       -22.5915
 106   2.0000      -0.828574       -22.5466
 107   2.0000      -0.824315       -22.4308
 108   2.0000      -0.818700       -22.2780
 109   2.0000      -0.809911       -22.0388
 110   2.0000      -0.804218       -21.8839
 111   2.0000      -0.797815       -21.7097
 112   2.0000      -0.784813       -21.3559
 113   2.0000      -0.782356       -21.2890
 114   2.0000      -0.780660       -21.2428
 115   2.0000      -0.777512       -21.1572
 116   2.0000      -0.768597       -20.9146
 117   2.0000      -0.762773       -20.7561
 118   2.0000      -0.749268       -20.3886
 119   2.0000      -0.740298       -20.1445
 120   2.0000      -0.726248       -19.7622
 121   2.0000      -0.710548       -19.3350
 122   2.0000      -0.707509       -19.2523
 123   2.0000      -0.699636       -19.0381
 124   2.0000      -0.697983       -18.9931
 125   2.0000      -0.696046       -18.9404
 126   2.0000      -0.690290       -18.7837
 127   2.0000      -0.688353       -18.7310
 128   2.0000      -0.680536       -18.5183
 129   2.0000      -0.657943       -17.9035
 130   2.0000      -0.654957       -17.8223
 131   2.0000      -0.653152       -17.7732
 132   2.0000      -0.651272       -17.7220
 133   2.0000      -0.642830       -17.4923
 134   2.0000      -0.642423       -17.4812
 135   2.0000      -0.641020       -17.4430
 136   2.0000      -0.635140       -17.2830
 137   2.0000      -0.633749       -17.2452
 138   2.0000      -0.627283       -17.0692
 139   2.0000      -0.620548       -16.8860
 140   2.0000      -0.610089       -16.6014
 141   2.0000      -0.606965       -16.5163
 142   2.0000      -0.604876       -16.4595
 143   2.0000      -0.602133       -16.3849
 144   2.0000      -0.599347       -16.3091
 145   2.0000      -0.594840       -16.1864
 146   2.0000      -0.592178       -16.1140
 147   2.0000      -0.590204       -16.0603
 148   2.0000      -0.588512       -16.0142
 149   2.0000      -0.583828       -15.8868
 150   2.0000      -0.580530       -15.7970
 151   2.0000      -0.576675       -15.6921
 152   2.0000      -0.562331       -15.3018
 153   2.0000      -0.560482       -15.2515
 154   2.0000      -0.553274       -15.0553
 155   2.0000      -0.553218       -15.0538
 156   2.0000      -0.548203       -14.9173
 157   2.0000      -0.547894       -14.9090
 158   2.0000      -0.542853       -14.7718
 159   2.0000      -0.542222       -14.7546
 160   2.0000      -0.541392       -14.7320
 161   2.0000      -0.536312       -14.5938
 162   2.0000      -0.535196       -14.5634
 163   2.0000      -0.534648       -14.5485
 164   2.0000      -0.534121       -14.5342
 165   2.0000      -0.532408       -14.4875
 166   2.0000      -0.531401       -14.4602
 167   2.0000      -0.529434       -14.4066
 168   2.0000      -0.524324       -14.2676
 169   2.0000      -0.522771       -14.2253
 170   2.0000      -0.518932       -14.1208
 171   2.0000      -0.517111       -14.0713
 172   2.0000      -0.515491       -14.0272
 173   2.0000      -0.513364       -13.9693
 174   2.0000      -0.509543       -13.8654
 175   2.0000      -0.503297       -13.6954
 176   2.0000      -0.502338       -13.6693
 177   2.0000      -0.501223       -13.6390
 178   2.0000      -0.500614       -13.6224
 179   2.0000      -0.497117       -13.5273
 180   2.0000      -0.495359       -13.4794
 181   2.0000      -0.493229       -13.4214
 182   2.0000      -0.489045       -13.3076
 183   2.0000      -0.487756       -13.2725
 184   2.0000      -0.486378       -13.2350
 185   2.0000      -0.484038       -13.1713
 186   2.0000      -0.478162       -13.0115
 187   2.0000      -0.475835       -12.9481
 188   2.0000      -0.475442       -12.9374
 189   2.0000      -0.470940       -12.8149
 190   2.0000      -0.465440       -12.6653
 191   2.0000      -0.464654       -12.6439
 192   2.0000      -0.456967       -12.4347
 193   2.0000      -0.455802       -12.4030
 194   2.0000      -0.455027       -12.3819
 195   2.0000      -0.453740       -12.3469
 196   2.0000      -0.452229       -12.3058
 197   2.0000      -0.452056       -12.3011
 198   2.0000      -0.448181       -12.1956
 199   2.0000      -0.447062       -12.1652
 200   2.0000      -0.446697       -12.1552
 201   2.0000      -0.444535       -12.0964
 202   2.0000      -0.441276       -12.0077
 203   2.0000      -0.439273       -11.9532
 204   2.0000      -0.438398       -11.9294
 205   2.0000      -0.435009       -11.8372
 206   2.0000      -0.433697       -11.8015
 207   2.0000      -0.432398       -11.7662
 208   2.0000      -0.431523       -11.7423
 209   2.0000      -0.428157       -11.6507
 210   2.0000      -0.423642       -11.5279
 211   2.0000      -0.421730       -11.4758
 212   2.0000      -0.421135       -11.4597
 213   2.0000      -0.417720       -11.3668
 214   2.0000      -0.411338       -11.1931
 215   2.0000      -0.409049       -11.1308
 216   2.0000      -0.406597       -11.0641
 217   2.0000      -0.401645       -10.9293
 218   2.0000      -0.399422       -10.8688
 219   2.0000      -0.398394       -10.8408
 220   2.0000      -0.397976       -10.8295
 221   2.0000      -0.396374       -10.7859
 222   2.0000      -0.395790       -10.7700
 223   2.0000      -0.392416       -10.6782
 224   2.0000      -0.390325       -10.6213
 225   2.0000      -0.386685       -10.5222
 226   2.0000      -0.379963       -10.3393
 227   2.0000      -0.373802       -10.1717
 228   2.0000      -0.358292        -9.7496
 229   2.0000      -0.343443        -9.3456
 230   2.0000      -0.330477        -8.9927
 231   2.0000      -0.327833        -8.9208
 232   2.0000      -0.317772        -8.6470
 233   2.0000      -0.307458        -8.3664
 234   2.0000      -0.303111        -8.2481
 235   2.0000      -0.299805        -8.1581
 236   2.0000      -0.296113        -8.0576
 237   2.0000      -0.292367        -7.9557
 238   2.0000      -0.287914        -7.8345
 239   2.0000      -0.282438        -7.6855
 240   2.0000      -0.272677        -7.4199
 241   2.0000      -0.270556        -7.3622
 242   2.0000      -0.256689        -6.9849
 243   2.0000      -0.234111        -6.3705
 244   2.0000      -0.216333        -5.8867
 245   2.0000      -0.199994        -5.4421
 246   0.0000      -0.096903        -2.6369
 247   0.0000      -0.081167        -2.2087
 248   0.0000      -0.043507        -1.1839
 249   0.0000      -0.027059        -0.7363
 250   0.0000      -0.011037        -0.3003

MULLIKEN ATOMIC CHARGES
-----------------------
   0 C :   -0.130925
   1 S :    0.141216
   2 C :   -0.114208
   3 C :    0.128519
   4 C :    0.101115
   5 C :   -0.135122
   6 C :    0.228156
   7 O :   -0.312565
   8 C :    0.178788
   9 C :    0.000627
  10 C :   -0.021255
  11 C :    0.000865
  12 C :   -0.015917
  13 C :    0.116725
  14 C :   -0.099841
  15 C :    0.014597
  16 C :    0.249959
  17 C :   -0.087846
  18 F :   -0.182611
  19 C :    0.018156
  20 C :   -0.099193
  21 C :    0.118371
  22 C :   -0.088255
  23 C :    0.250570
  24 F :   -0.183760
  25 C :   -0.013356
  26 C :   -0.001511
  27 C :   -0.100749
  28 S :    0.112249
  29 C :   -0.101526
  30 C :   -0.048721
  31 C :   -0.035476
  32 C :    0.067921
  33 N :   -0.181293
  34 C :    0.066053
  35 C :    0.068369
  36 C :    0.055867
  37 N :   -0.174936
  38 C :    0.032065
  39 C :    0.045781
  40 C :    0.101975
  41 C :   -0.099201
  42 C :    0.018970
  43 C :    0.248117
  44 C :   -0.084428
  45 F :   -0.184040
  46 C :    0.022362
  47 C :   -0.102930
  48 C :    0.112159
  49 C :   -0.087494
  50 C :    0.249626
  51 F :   -0.183549
  52 C :   -0.022075
  53 C :    0.057567
  54 C :   -0.130560
  55 S :    0.143596
  56 C :   -0.110319
  57 C :    0.111399
  58 C :    0.150876
  59 C :   -0.101418
  60 C :    0.233325
  61 O :   -0.303021
  62 C :    0.174716
  63 C :   -0.074863
  64 C :   -0.033386
  65 C :   -0.000124
  66 C :   -0.023618
  67 H :    0.011989
  68 H :   -0.045025
  69 H :    0.036171
  70 H :    0.020354
  71 H :    0.021348
  72 H :   -0.014996
  73 H :   -0.025533
  74 H :   -0.016449
  75 H :   -0.016783
  76 H :   -0.023464
  77 H :   -0.025876
  78 H :   -0.023563
  79 H :   -0.020460
  80 H :   -0.019036
  81 H :    0.006972
  82 H :    0.004483
  83 H :    0.097001
  84 H :    0.093505
  85 H :   -0.007196
  86 H :   -0.010919
  87 H :   -0.012169
  88 H :   -0.007699
  89 H :    0.008172
  90 H :    0.093576
  91 H :    0.092796
  92 H :   -0.025958
  93 H :   -0.034224
  94 H :   -0.026322
  95 H :   -0.023401
  96 H :   -0.023007
  97 H :   -0.024534
  98 H :   -0.029166
  99 H :   -0.023224
 100 H :   -0.033095
 101 H :    0.039505
 102 H :    0.023648
 103 H :    0.023074
 104 H :   -0.025994
 105 H :   -0.026576
 106 H :   -0.008303
 107 H :    0.024617
 108 H :    0.025195
Sum of atomic charges:   -0.0000000

LOEWDIN ATOMIC CHARGES
----------------------
   0 C :   -0.202951
   1 S :    0.474691
   2 C :   -0.179627
   3 C :   -0.051165
   4 C :   -0.043254
   5 C :   -0.087369
   6 C :    0.052218
   7 O :   -0.103168
   8 C :    0.075913
   9 C :   -0.032058
  10 C :   -0.007813
  11 C :   -0.028392
  12 C :   -0.028974
  13 C :   -0.004967
  14 C :   -0.066550
  15 C :   -0.010734
  16 C :    0.082924
  17 C :   -0.066698
  18 F :   -0.058462
  19 C :   -0.004436
  20 C :   -0.070274
  21 C :    0.001913
  22 C :   -0.061792
  23 C :    0.081476
  24 F :   -0.059399
  25 C :   -0.031153
  26 C :   -0.025460
  27 C :   -0.169027
  28 S :    0.438854
  29 C :   -0.151179
  30 C :   -0.065200
  31 C :   -0.056645
  32 C :    0.018694
  33 N :   -0.084760
  34 C :   -0.042111
  35 C :   -0.040461
  36 C :    0.015718
  37 N :   -0.083977
  38 C :   -0.046287
  39 C :    0.002409
  40 C :   -0.005358
  41 C :   -0.062602
  42 C :   -0.011804
  43 C :    0.080957
  44 C :   -0.064849
  45 F :   -0.059869
  46 C :   -0.005142
  47 C :   -0.072232
  48 C :    0.002153
  49 C :   -0.066765
  50 C :    0.084737
  51 F :   -0.059002
  52 C :   -0.030859
  53 C :   -0.033203
  54 C :   -0.181664
  55 S :    0.481276
  56 C :   -0.172340
  57 C :   -0.054066
  58 C :   -0.030315
  59 C :   -0.052241
  60 C :    0.059520
  61 O :   -0.100907
  62 C :    0.075639
  63 C :   -0.062829
  64 C :   -0.000394
  65 C :   -0.041215
  66 C :   -0.044099
  67 H :    0.021010
  68 H :    0.025803
  69 H :    0.028110
  70 H :    0.014523
  71 H :    0.014675
  72 H :    0.033645
  73 H :    0.028911
  74 H :    0.031325
  75 H :    0.024140
  76 H :    0.020371
  77 H :    0.025161
  78 H :    0.020623
  79 H :    0.028504
  80 H :    0.022196
  81 H :    0.030097
  82 H :    0.027733
  83 H :    0.056577
  84 H :    0.054818
  85 H :    0.020337
  86 H :    0.018679
  87 H :    0.018444
  88 H :    0.020957
  89 H :    0.024196
  90 H :    0.055140
  91 H :    0.053257
  92 H :    0.023558
  93 H :    0.028935
  94 H :    0.019152
  95 H :    0.026114
  96 H :    0.020585
  97 H :    0.025336
  98 H :    0.029804
  99 H :    0.025840
 100 H :    0.031188
 101 H :    0.030433
 102 H :    0.014805
 103 H :    0.014671
 104 H :    0.029768
 105 H :    0.029003
 106 H :    0.033203
 107 H :    0.018254
 108 H :    0.027122

  Mayer bond orders larger than 0.100000
B(  0-C ,  1-S ) :   1.1825 B(  0-C ,  2-C ) :   0.1026 B(  0-C ,  4-C ) :   1.4277
B(  0-C , 67-H ) :   0.9682 B(  1-S ,  2-C ) :   1.1521 B(  2-C ,  3-C ) :   1.3219
B(  2-C , 11-C ) :   1.1962 B(  3-C ,  4-C ) :   1.2100 B(  3-C , 10-C ) :   1.1883
B(  4-C ,  5-C ) :   1.1347 B(  5-C ,  6-C ) :   1.4685 B(  5-C , 68-H ) :   1.0050
B(  6-C ,  7-O ) :   1.1358 B(  6-C ,  9-C ) :   1.1965 B(  7-O ,  8-C ) :   0.9721
B(  8-C , 69-H ) :   0.9793 B(  8-C , 70-H ) :   0.9683 B(  8-C , 71-H ) :   0.9681
B(  9-C , 10-C ) :   1.5681 B(  9-C , 72-H ) :   0.9881 B( 10-C , 73-H ) :   0.9924
B( 11-C , 12-C ) :   1.5833 B( 11-C , 74-H ) :   0.9695 B( 12-C , 13-C ) :   1.1701
B( 12-C , 75-H ) :   0.9768 B( 13-C , 14-C ) :   1.4760 B( 13-C , 17-C ) :   1.0228
B( 14-C , 15-C ) :   1.1462 B( 14-C , 76-H ) :   1.0233 B( 15-C , 16-C ) :   1.0269
B( 15-C , 19-C ) :   1.4182 B( 16-C , 17-C ) :   1.6618 B( 16-C , 18-F ) :   1.1206
B( 17-C , 77-H ) :   1.0125 B( 19-C , 20-C ) :   1.1502 B( 19-C , 23-C ) :   1.0214
B( 20-C , 21-C ) :   1.4707 B( 20-C , 78-H ) :   1.0239 B( 21-C , 22-C ) :   1.0221
B( 21-C , 25-C ) :   1.1719 B( 22-C , 23-C ) :   1.6605 B( 22-C , 79-H ) :   1.0158
B( 23-C , 24-F ) :   1.1180 B( 25-C , 26-C ) :   1.5506 B( 25-C , 80-H ) :   0.9799
B( 26-C , 27-C ) :   1.1946 B( 26-C , 81-H ) :   0.9501 B( 27-C , 28-S ) :   1.1045
B( 27-C , 31-C ) :   1.4353 B( 28-S , 29-C ) :   1.1284 B( 29-C , 30-C ) :   1.4381
B( 29-C , 38-C ) :   1.1626 B( 30-C , 31-C ) :   1.3676 B( 30-C , 36-C ) :   0.9990
B( 31-C , 32-C ) :   0.9904 B( 32-C , 33-N ) :   1.0767 B( 32-C , 34-C ) :   1.0695
B( 32-C , 82-H ) :   0.8789 B( 33-N , 83-H ) :   0.9650 B( 33-N , 84-H ) :   0.9692
B( 34-C , 35-C ) :   1.0552 B( 34-C , 85-H ) :   0.9252 B( 34-C , 86-H ) :   0.9263
B( 35-C , 36-C ) :   1.0702 B( 35-C , 87-H ) :   0.9251 B( 35-C , 88-H ) :   0.9242
B( 36-C , 37-N ) :   1.0966 B( 36-C , 89-H ) :   0.8688 B( 37-N , 90-H ) :   0.9632
B( 37-N , 91-H ) :   0.9694 B( 38-C , 39-C ) :   1.5929 B( 38-C , 92-H ) :   0.9464
B( 39-C , 40-C ) :   1.1811 B( 39-C , 93-H ) :   0.9627 B( 40-C , 41-C ) :   1.4679
B( 40-C , 44-C ) :   1.0187 B( 41-C , 42-C ) :   1.1496 B( 41-C , 94-H ) :   1.0235
B( 42-C , 43-C ) :   1.0295 B( 42-C , 46-C ) :   1.4053 B( 43-C , 44-C ) :   1.6597
B( 43-C , 45-F ) :   1.1185 B( 44-C , 95-H ) :   1.0127 B( 46-C , 47-C ) :   1.1633
B( 46-C , 50-C ) :   1.0227 B( 47-C , 48-C ) :   1.4560 B( 47-C , 96-H ) :   1.0237
B( 48-C , 49-C ) :   1.0150 B( 48-C , 52-C ) :   1.1920 B( 49-C , 50-C ) :   1.6690
B( 49-C , 97-H ) :   1.0108 B( 50-C , 51-F ) :   1.1178 B( 52-C , 53-C ) :   1.5516
B( 52-C , 98-H ) :   0.9819 B( 53-C , 54-C ) :   1.2033 B( 53-C , 99-H ) :   0.9451
B( 54-C , 55-S ) :   1.1397 B( 54-C , 56-C ) :   0.1039 B( 54-C , 58-C ) :   1.2937
B( 55-S , 56-C ) :   1.1654 B( 56-C , 57-C ) :   1.3205 B( 56-C , 65-C ) :   1.1463
B( 57-C , 58-C ) :   1.2096 B( 57-C , 64-C ) :   1.2102 B( 58-C , 59-C ) :   1.2128
B( 59-C , 60-C ) :   1.4737 B( 59-C ,100-H ) :   1.0032 B( 60-C , 61-O ) :   1.1617
B( 60-C , 63-C ) :   1.1702 B( 61-O , 62-C ) :   0.9673 B( 62-C ,101-H ) :   0.9795
B( 62-C ,102-H ) :   0.9695 B( 62-C ,103-H ) :   0.9697 B( 63-C , 64-C ) :   1.5213
B( 63-C ,104-H ) :   0.9901 B( 64-C ,105-H ) :   0.9900 B( 65-C , 66-C ) :   1.8997
B( 65-C ,106-H ) :   0.9589 B( 66-C ,107-H ) :   0.9578 B( 66-C ,108-H ) :   0.9485

-----------------------------------------------------------------------------
         ABSORPTION SPECTRUM VIA TRANSITION ELECTRIC DIPOLE MOMENTS
-----------------------------------------------------------------------------
State   Energy  Wavelength   fosc         T2         TX        TY        TZ
        (cm-1)    (nm)                  (au**2)     (au)      (au)      (au)
-----------------------------------------------------------------------------
   0    9947.5   1005.3   2.548069922  84.32822   3.08091  -8.62761   0.63287
   1   13156.8    760.1   0.297937823   7.45504  -1.85257  -1.77661  -0.93096
   2   15139.7    660.5   0.003447448   0.07496   0.13684   0.23701   0.00806
   3   16051.5    623.0   0.011931788   0.24472  -0.02467   0.48830  -0.07531
   4   19208.0    520.6   0.001727975   0.02962   0.15439  -0.01764   0.07395
   5   20442.2    489.2   0.222168025   3.57791  -1.00815   1.60037   0.01873
   6   21358.8    468.2   0.341737724   5.26733   1.41156  -1.70368   0.61016
   7   21943.4    455.7   0.024735849   0.37111   0.33614   0.50804   0.00304
   8   22669.3    441.1   0.356143190   5.17204  -0.10404   2.26276   0.20286
   9   23707.9    421.8   0.190497810   2.64529   0.32060  -1.59417  -0.03367
  10   24699.9    404.9   0.004319780   0.05758   0.22256   0.05123   0.07361
  11   25528.4    391.7   0.037780385   0.48721  -0.13009  -0.65987  -0.18670
  12   27116.0    368.8   0.289377218   3.51329  -0.33405   1.84176   0.09804
  13   27852.3    359.0   0.171616853   2.02850  -0.72954   1.18753  -0.29334
  14   28393.3    352.2   0.091230088   1.05779   0.66052   0.78748   0.03718
  15   28659.4    348.9   0.066965265   0.76923   0.07840   0.87354  -0.00442
  16   29344.4    340.8   0.063063117   0.70750  -0.72617   0.30973  -0.29025
  17   30214.4    331.0   0.153976931   1.67771   0.70902   1.02804  -0.34369
  18   30836.3    324.3   0.026872636   0.28690   0.33614   0.39329  -0.13865
  19   31038.0    322.2   0.037725781   0.40015  -0.50167  -0.38343  -0.03808
  20   31601.4    316.4   0.002234010   0.02327  -0.12732  -0.00224   0.08401
  21   32577.3    307.0   0.003812697   0.03853   0.17129  -0.07878  -0.05460
  22   32965.4    303.3   0.002674438   0.02671  -0.00728  -0.13994   0.08409
  23   33041.4    302.7   0.000349652   0.00348  -0.02873   0.04636  -0.02257
  24   33276.0    300.5   0.033716641   0.33357  -0.45520  -0.35226  -0.04768
  25   33318.8    300.1   0.006211746   0.06138  -0.18026  -0.14346  -0.09110
  26   33653.1    297.1   0.016640921   0.16279   0.06554   0.39788   0.01376
  27   33851.9    295.4   0.180872072   1.75899   0.46115  -1.23264   0.16412
  28   33968.7    294.4   0.031891880   0.30908  -0.53619   0.01562  -0.14610
  29   34372.8    290.9   0.002593133   0.02484   0.11402  -0.10780  -0.01466
  30   34794.4    287.4   0.000842319   0.00797   0.02920   0.01725  -0.08258
  31   35364.9    282.8   0.039076876   0.36377   0.59044  -0.05139   0.11184
  32   35931.9    278.3   0.004553764   0.04172  -0.17021  -0.09155   0.06610
  33   36058.1    277.3   0.001334320   0.01218   0.10441   0.01333   0.03321
  34   36340.8    275.2   0.103838553   0.94067  -0.37057  -0.88767   0.12410
  35   36616.0    273.1   0.001167364   0.01050   0.08282  -0.05468  -0.02543
  36   36659.4    272.8   0.006714431   0.06030   0.07313  -0.23441   0.00120
  37   37212.6    268.7   0.050972792   0.45094  -0.32100  -0.58533  -0.07272
  38   37572.0    266.2   0.003037441   0.02661  -0.13615  -0.06736  -0.05951
  39   37887.1    263.9   0.165425593   1.43743  -0.93990  -0.72833  -0.15349
  40   38268.3    261.3   0.024407670   0.20997  -0.14440   0.43283  -0.04214
  41   38280.3    261.2   0.010589014   0.09107   0.10887   0.28093  -0.01704
  42   38498.8    259.7   0.049049865   0.41944   0.08766   0.64165   0.00603
  43   39215.0    255.0   0.113806104   0.95541  -0.97504  -0.05251  -0.04422
  44   39388.7    253.9   0.056270059   0.47031   0.40904   0.54857  -0.04543
  45   40163.5    249.0   0.155202828   1.27216   0.43889   1.01225  -0.23429

FINAL SINGLE POINT ENERGY     -4009.041079550092

DIPOLE MOMENT
-------------
                                X             Y             Z
Electronic contribution:     -2.56937      11.28395       2.23361
Nuclear contribution   :      2.70893     -12.63437      -2.11141
                        -----------------------------------------
Total Dipole Moment    :      0.13956      -1.35041       0.12221
                        -----------------------------------------
Magnitude (a.u.)       :      1.36309
Magnitude (Debye)      :      3.46471

Rotational constants in cm-1:     0.001739     0.000146     0.000136
Rotational constants in MHz :    52.129802     4.373989     4.067328

                             ****ORCA TERMINATED NORMALLY****
TOTAL RUN TIME: 0 days 0 hours 10 minutes 39 seconds 133 msec
