                         Program Version 4.2.0 -  RELEASE  -
|  1> # ORCA input file
|  2> # SCF done       -209.521985664938          0.000741647909
|  3> ! CAM-B3LYP def2-SVP def2/J RIJCOSX Grid4 TightSCF
|  4> %maxcore 5000
|  5> %tddft
|  6>     Mode sTDDFT
|  7>     Ethresh 5.0
|  8>     maxcore 5000
|  9> end
| 10>
| 11> %pal
| 12>   nprocs 6
| 13>   end
| 14> * xyz 0 1
| 15>    C       -2.46965         2.55650        -0.24587
| 16>    C       -2.13020         2.65731         1.09508
| 17>    C       -1.60870         1.57274         1.78594
| 18>    C       -1.40247         0.35652         1.15239
| 19>    C       -1.73471         0.24500        -0.18745
| 20>    C       -2.27669         1.34461        -0.89040
| 21>    C       -2.55598         0.93519        -2.26085
| 22>    C       -2.96128         1.75981        -3.27672
| 23>    C       -3.16934         3.14817        -3.13143
| 24>    N       -3.35769         4.27947        -3.08429
| 25>    C       -3.18544         1.37039        -4.61432
| 26>    N       -3.37988         1.13757        -5.72195
| 27>    C       -2.32428        -0.50342        -2.32585
| 28>    C       -1.61181        -0.87480        -1.10846
| 29>    C       -0.76482        -1.93765        -0.95012
| 30>    C       -0.45398        -2.87532        -1.95778
| 31>    N       -0.10881        -3.64444        -2.73654
| 32>    C       -0.01607        -2.17685         0.22157
| 33>    N        0.61341        -2.42713         1.14800
| 34>    C       -2.80298        -1.31737        -3.31724
| 35>    C       -3.00351        -2.71485        -3.28488
| 36>    C       -3.16440        -3.55009        -2.19501
| 37>    C       -3.42201        -4.87007        -2.65707
| 38>    C       -3.41783        -4.77608        -4.11566
| 39>    C       -3.19370        -3.50930        -4.49885
| 40>    F       -3.62404        -5.82624        -4.91807
| 41>    C       -3.60861        -6.00857        -1.90115
| 42>    C       -3.84567        -7.33162        -2.34262
| 43>    C       -3.97679        -8.16667        -1.24482
| 44>    C       -3.80921        -7.35201        -0.03294
| 45>    C       -3.59296        -6.09214        -0.43247
| 46>    F       -3.39080        -5.03396         0.36110
| 47>    C       -4.23121        -9.54862        -1.31360
| 48>    C       -4.41990       -10.35037        -0.22352
| 49>    C       -4.64559       -11.74190        -0.18590
| 50>    S       -4.94662       -12.40608         1.39560
| 51>    C       -5.02896       -14.03263         0.78662
| 52>    C       -4.75573       -14.04577        -0.58922
| 53>    C       -4.60694       -12.76972        -1.14214
| 54>    C       -4.44273       -12.53354        -2.62245
| 55>    N       -5.43934       -11.57094        -3.07954
| 56>    C       -4.51871       -13.85371        -3.40599
| 57>    C       -3.77191       -14.95752        -2.68092
| 58>    C       -4.50324       -15.30701        -1.37583
| 59>    N       -3.77086       -16.25910        -0.55451
| 60>    C       -5.41044       -15.02646         1.71152
| 61>    C       -5.82659       -16.29908         1.44369
| 62>    C       -6.24196       -17.22038         2.42309
| 63>    C       -6.70784       -18.49883         2.16176
| 64>    C       -7.03761       -19.13817         3.38066
| 65>    C       -6.73389       -18.14900         4.42489
| 66>    C       -6.26670       -17.01862         3.87723
| 67>    F       -6.90926       -18.38215         5.72939
| 68>    C       -7.53901       -20.40943         3.57584
| 69>    C       -7.87982       -21.04816         4.79801
| 70>    C       -8.34428       -22.32569         4.53045
| 71>    C       -8.30612       -22.52730         3.07992
| 72>    C       -7.83488       -21.39529         2.53507
| 73>    F       -7.64150       -21.16691         1.22992
| 74>    C       -8.77840       -23.25345         5.49493
| 75>    C       -9.23111       -24.51500         5.21932
| 76>    C       -9.62923       -25.40592         6.22866
| 77>    C      -10.17645       -26.65247         6.04080
| 78>    C      -10.18388       -27.71610         7.03465
| 79>    C      -10.03008       -27.58647         8.38979
| 80>    C       -9.88479       -26.36444         9.07965
| 81>    N       -9.76991       -25.40966         9.70718
| 82>    C      -10.04172       -28.66950         9.29397
| 83>    N      -10.03929       -29.50311        10.08304
| 84>    C      -10.39042       -28.96506         6.31135
| 85>    C      -10.65497       -28.66827         4.95501
| 86>    C      -10.86605       -29.68406         4.03814
| 87>    C      -10.81173       -30.99746         4.48107
| 88>    C      -10.56059       -31.29087         5.81346
| 89>    C      -10.34919       -30.28159         6.74144
| 90>    C      -10.67597       -27.22083         4.79899
| 91>    C      -11.27269       -26.53764         3.77131
| 92>    C      -11.77010       -27.15397         2.60415
| 93>    N      -12.16633       -27.59619         1.62177
| 94>    C      -11.57649       -25.15896         3.79874
| 95>    N      -11.90186       -24.05836         3.78892
| 96>    H       -2.88049         3.40771        -0.76308
| 97>    H       -2.28024         3.59507         1.60782
| 98>    H       -1.36112         1.67358         2.83153
| 99>    H       -1.00586        -0.48228         1.70096
|100>    H       -3.14438        -0.83932        -4.22666
|101>    H       -3.15645        -3.25858        -1.16284
|102>    H       -3.12495        -3.12508        -5.49752
|103>    H       -3.91881        -7.63581        -3.36797
|104>    H       -3.84759        -7.70729         0.97748
|105>    H       -4.32809        -9.96927        -2.30157
|106>    H       -4.39460        -9.89029         0.75658
|107>    H       -3.45671       -12.07518        -2.78933
|108>    H       -6.37460       -11.90661        -2.87634
|109>    H       -5.36440       -11.44595        -4.08329
|110>    H       -4.10649       -13.70030        -4.40537
|111>    H       -5.56818       -14.14423        -3.51569
|112>    H       -2.75602       -14.62515        -2.44878
|113>    H       -3.70359       -15.85009        -3.30648
|114>    H       -5.46671       -15.77256        -1.63086
|115>    H       -2.87602       -15.87164        -0.27651
|116>    H       -3.59493       -17.10983        -1.07657
|117>    H       -5.43308       -14.68751         2.73917
|118>    H       -5.85649       -16.64947         0.42590
|119>    H       -6.80706       -18.93708         1.18844
|120>    H       -5.96282       -16.13195         4.39676
|121>    H       -7.79096       -20.60750         5.77178
|122>    H       -8.61441       -23.41025         2.55704
|123>    H       -8.76892       -22.92038         6.52544
|124>    H       -9.24134       -24.85203         4.19380
|125>    H       -9.39877       -25.10681         7.24224
|126>    H      -11.05623       -29.46903         2.99913
|127>    H      -10.96603       -31.80012         3.77631
|128>    H      -10.52448       -32.32012         6.13615
|129>    H      -10.15109       -30.52890         7.77131
|130> *
|131>
|132>                          ****END OF INPUT****

CARTESIAN COORDINATES (ANGSTROEM)
---------------------------------
  C     -2.469650    2.556500   -0.245870
  C     -2.130200    2.657310    1.095080
  C     -1.608700    1.572740    1.785940
  C     -1.402470    0.356520    1.152390
  C     -1.734710    0.245000   -0.187450
  C     -2.276690    1.344610   -0.890400
  C     -2.555980    0.935190   -2.260850
  C     -2.961280    1.759810   -3.276720
  C     -3.169340    3.148170   -3.131430
  N     -3.357690    4.279470   -3.084290
  C     -3.185440    1.370390   -4.614320
  N     -3.379880    1.137570   -5.721950
  C     -2.324280   -0.503420   -2.325850
  C     -1.611810   -0.874800   -1.108460
  C     -0.764820   -1.937650   -0.950120
  C     -0.453980   -2.875320   -1.957780
  N     -0.108810   -3.644440   -2.736540
  C     -0.016070   -2.176850    0.221570
  N      0.613410   -2.427130    1.148000
  C     -2.802980   -1.317370   -3.317240
  C     -3.003510   -2.714850   -3.284880
  C     -3.164400   -3.550090   -2.195010
  C     -3.422010   -4.870070   -2.657070
  C     -3.417830   -4.776080   -4.115660
  C     -3.193700   -3.509300   -4.498850
  F     -3.624040   -5.826240   -4.918070
  C     -3.608610   -6.008570   -1.901150
  C     -3.845670   -7.331620   -2.342620
  C     -3.976790   -8.166670   -1.244820
  C     -3.809210   -7.352010   -0.032940
  C     -3.592960   -6.092140   -0.432470
  F     -3.390800   -5.033960    0.361100
  C     -4.231210   -9.548620   -1.313600
  C     -4.419900  -10.350370   -0.223520
  C     -4.645590  -11.741900   -0.185900
  S     -4.946620  -12.406080    1.395600
  C     -5.028960  -14.032630    0.786620
  C     -4.755730  -14.045770   -0.589220
  C     -4.606940  -12.769720   -1.142140
  C     -4.442730  -12.533540   -2.622450
  N     -5.439340  -11.570940   -3.079540
  C     -4.518710  -13.853710   -3.405990
  C     -3.771910  -14.957520   -2.680920
  C     -4.503240  -15.307010   -1.375830
  N     -3.770860  -16.259100   -0.554510
  C     -5.410440  -15.026460    1.711520
  C     -5.826590  -16.299080    1.443690
  C     -6.241960  -17.220380    2.423090
  C     -6.707840  -18.498830    2.161760
  C     -7.037610  -19.138170    3.380660
  C     -6.733890  -18.149000    4.424890
  C     -6.266700  -17.018620    3.877230
  F     -6.909260  -18.382150    5.729390
  C     -7.539010  -20.409430    3.575840
  C     -7.879820  -21.048160    4.798010
  C     -8.344280  -22.325690    4.530450
  C     -8.306120  -22.527300    3.079920
  C     -7.834880  -21.395290    2.535070
  F     -7.641500  -21.166910    1.229920
  C     -8.778400  -23.253450    5.494930
  C     -9.231110  -24.515000    5.219320
  C     -9.629230  -25.405920    6.228660
  C    -10.176450  -26.652470    6.040800
  C    -10.183880  -27.716100    7.034650
  C    -10.030080  -27.586470    8.389790
  C     -9.884790  -26.364440    9.079650
  N     -9.769910  -25.409660    9.707180
  C    -10.041720  -28.669500    9.293970
  N    -10.039290  -29.503110   10.083040
  C    -10.390420  -28.965060    6.311350
  C    -10.654970  -28.668270    4.955010
  C    -10.866050  -29.684060    4.038140
  C    -10.811730  -30.997460    4.481070
  C    -10.560590  -31.290870    5.813460
  C    -10.349190  -30.281590    6.741440
  C    -10.675970  -27.220830    4.798990
  C    -11.272690  -26.537640    3.771310
  C    -11.770100  -27.153970    2.604150
  N    -12.166330  -27.596190    1.621770
  C    -11.576490  -25.158960    3.798740
  N    -11.901860  -24.058360    3.788920
  H     -2.880490    3.407710   -0.763080
  H     -2.280240    3.595070    1.607820
  H     -1.361120    1.673580    2.831530
  H     -1.005860   -0.482280    1.700960
  H     -3.144380   -0.839320   -4.226660
  H     -3.156450   -3.258580   -1.162840
  H     -3.124950   -3.125080   -5.497520
  H     -3.918810   -7.635810   -3.367970
  H     -3.847590   -7.707290    0.977480
  H     -4.328090   -9.969270   -2.301570
  H     -4.394600   -9.890290    0.756580
  H     -3.456710  -12.075180   -2.789330
  H     -6.374600  -11.906610   -2.876340
  H     -5.364400  -11.445950   -4.083290
  H     -4.106490  -13.700300   -4.405370
  H     -5.568180  -14.144230   -3.515690
  H     -2.756020  -14.625150   -2.448780
  H     -3.703590  -15.850090   -3.306480
  H     -5.466710  -15.772560   -1.630860
  H     -2.876020  -15.871640   -0.276510
  H     -3.594930  -17.109830   -1.076570
  H     -5.433080  -14.687510    2.739170
  H     -5.856490  -16.649470    0.425900
  H     -6.807060  -18.937080    1.188440
  H     -5.962820  -16.131950    4.396760
  H     -7.790960  -20.607500    5.771780
  H     -8.614410  -23.410250    2.557040
  H     -8.768920  -22.920380    6.525440
  H     -9.241340  -24.852030    4.193800
  H     -9.398770  -25.106810    7.242240
  H    -11.056230  -29.469030    2.999130
  H    -10.966030  -31.800120    3.776310
  H    -10.524480  -32.320120    6.136150
  H    -10.151090  -30.528900    7.771310

 Total Charge           Charge          ....    0
 Multiplicity           Mult            ....    1
 Number of Electrons    NEL             ....  552
 Basis Dimension        Dim             .... 1308

ORBITAL ENERGIES
----------------

  NO   OCC          E(Eh)            E(eV)
   0   2.0000     -88.973074     -2421.0804
   1   2.0000     -24.803025      -674.9246
   2   2.0000     -24.801779      -674.8907
   3   2.0000     -24.794492      -674.6924
   4   2.0000     -24.791028      -674.5982
   5   2.0000     -14.421142      -392.4192
   6   2.0000     -14.421109      -392.4183
   7   2.0000     -14.421080      -392.4175
   8   2.0000     -14.419877      -392.3848
   9   2.0000     -14.418386      -392.3442
  10   2.0000     -14.418382      -392.3441
  11   2.0000     -14.418340      -392.3430
  12   2.0000     -14.417902      -392.3311
  13   2.0000     -14.408504      -392.0753
  14   2.0000     -14.404289      -391.9606
  15   2.0000     -10.370018      -282.1825
  16   2.0000     -10.369328      -282.1638
  17   2.0000     -10.360366      -281.9199
  18   2.0000     -10.356544      -281.8159
  19   2.0000     -10.351453      -281.6774
  20   2.0000     -10.349770      -281.6316
  21   2.0000     -10.348843      -281.6063
  22   2.0000     -10.348568      -281.5988
  23   2.0000     -10.347058      -281.5578
  24   2.0000     -10.346543      -281.5437
  25   2.0000     -10.346026      -281.5297
  26   2.0000     -10.345475      -281.5147
  27   2.0000     -10.324070      -280.9322
  28   2.0000     -10.323695      -280.9220
  29   2.0000     -10.323653      -280.9209
  30   2.0000     -10.323398      -280.9139
  31   2.0000     -10.323374      -280.9133
  32   2.0000     -10.323335      -280.9122
  33   2.0000     -10.323244      -280.9098
  34   2.0000     -10.322138      -280.8797
  35   2.0000     -10.321681      -280.8672
  36   2.0000     -10.321510      -280.8626
  37   2.0000     -10.321124      -280.8521
  38   2.0000     -10.321053      -280.8501
  39   2.0000     -10.320871      -280.8452
  40   2.0000     -10.320402      -280.8324
  41   2.0000     -10.319648      -280.8119
  42   2.0000     -10.319254      -280.8012
  43   2.0000     -10.317398      -280.7507
  44   2.0000     -10.314831      -280.6808
  45   2.0000     -10.312023      -280.6044
  46   2.0000     -10.311783      -280.5979
  47   2.0000     -10.311699      -280.5956
  48   2.0000     -10.311478      -280.5896
  49   2.0000     -10.310903      -280.5739
  50   2.0000     -10.310744      -280.5696
  51   2.0000     -10.308649      -280.5126
  52   2.0000     -10.306572      -280.4561
  53   2.0000     -10.304771      -280.4071
  54   2.0000     -10.304616      -280.4029
  55   2.0000     -10.304111      -280.3891
  56   2.0000     -10.303180      -280.3638
  57   2.0000     -10.302036      -280.3326
  58   2.0000     -10.300206      -280.2828
  59   2.0000     -10.300142      -280.2811
  60   2.0000     -10.299968      -280.2764
  61   2.0000     -10.299909      -280.2748
  62   2.0000     -10.299308      -280.2584
  63   2.0000     -10.299077      -280.2521
  64   2.0000     -10.298417      -280.2342
  65   2.0000     -10.298191      -280.2280
  66   2.0000     -10.297461      -280.2082
  67   2.0000     -10.297063      -280.1973
  68   2.0000     -10.297027      -280.1963
  69   2.0000     -10.292157      -280.0638
  70   2.0000     -10.287754      -279.9440
  71   2.0000     -10.286455      -279.9087
  72   2.0000     -10.286145      -279.9002
  73   2.0000     -10.285722      -279.8887
  74   2.0000     -10.285566      -279.8845
  75   2.0000     -10.284308      -279.8503
  76   2.0000     -10.283853      -279.8379
  77   2.0000     -10.279133      -279.7094
  78   2.0000     -10.275816      -279.6192
  79   2.0000     -10.272438      -279.5273
  80   2.0000     -10.271264      -279.4953
  81   2.0000      -8.069169      -219.5732
  82   2.0000      -6.038152      -164.3065
  83   2.0000      -6.034318      -164.2021
  84   2.0000      -6.031479      -164.1249
  85   2.0000      -1.315487       -35.7962
  86   2.0000      -1.314777       -35.7769
  87   2.0000      -1.306834       -35.5607
  88   2.0000      -1.303685       -35.4751
  89   2.0000      -1.034907       -28.1613
  90   2.0000      -1.034762       -28.1573
  91   2.0000      -1.024225       -27.8706
  92   2.0000      -1.017063       -27.6757
  93   2.0000      -1.016758       -27.6674
  94   2.0000      -1.006518       -27.3887
  95   2.0000      -1.006170       -27.3793
  96   2.0000      -1.000332       -27.2204
  97   2.0000      -0.999536       -27.1988
  98   2.0000      -0.998151       -27.1611
  99   2.0000      -0.997843       -27.1527
 100   2.0000      -0.997819       -27.1520
 101   2.0000      -0.996028       -27.1033
 102   2.0000      -0.995261       -27.0824
 103   2.0000      -0.985923       -26.8283
 104   2.0000      -0.980797       -26.6888
 105   2.0000      -0.979613       -26.6566
 106   2.0000      -0.959495       -26.1092
 107   2.0000      -0.956769       -26.0350
 108   2.0000      -0.939014       -25.5519
 109   2.0000      -0.938793       -25.5459
 110   2.0000      -0.926176       -25.2025
 111   2.0000      -0.920421       -25.0459
 112   2.0000      -0.909003       -24.7352
 113   2.0000      -0.899347       -24.4725
 114   2.0000      -0.894055       -24.3285
 115   2.0000      -0.892964       -24.2988
 116   2.0000      -0.889011       -24.1912
 117   2.0000      -0.875428       -23.8216
 118   2.0000      -0.865423       -23.5493
 119   2.0000      -0.865418       -23.5492
 120   2.0000      -0.861328       -23.4379
 121   2.0000      -0.852112       -23.1871
 122   2.0000      -0.847200       -23.0535
 123   2.0000      -0.839327       -22.8392
 124   2.0000      -0.818519       -22.2730
 125   2.0000      -0.817262       -22.2388
 126   2.0000      -0.814244       -22.1567
 127   2.0000      -0.809368       -22.0240
 128   2.0000      -0.798720       -21.7343
 129   2.0000      -0.793660       -21.5966
 130   2.0000      -0.790440       -21.5090
 131   2.0000      -0.790253       -21.5039
 132   2.0000      -0.775371       -21.0989
 133   2.0000      -0.762358       -20.7448
 134   2.0000      -0.750146       -20.4125
 135   2.0000      -0.727316       -19.7913
 136   2.0000      -0.724864       -19.7246
 137   2.0000      -0.722612       -19.6633
 138   2.0000      -0.720440       -19.6042
 139   2.0000      -0.716309       -19.4918
 140   2.0000      -0.715846       -19.4792
 141   2.0000      -0.712861       -19.3979
 142   2.0000      -0.708619       -19.2825
 143   2.0000      -0.705796       -19.2057
 144   2.0000      -0.685119       -18.6430
 145   2.0000      -0.681521       -18.5451
 146   2.0000      -0.679706       -18.4957
 147   2.0000      -0.675349       -18.3772
 148   2.0000      -0.671117       -18.2620
 149   2.0000      -0.669533       -18.2189
 150   2.0000      -0.666466       -18.1355
 151   2.0000      -0.665791       -18.1171
 152   2.0000      -0.663998       -18.0683
 153   2.0000      -0.661191       -17.9919
 154   2.0000      -0.656823       -17.8731
 155   2.0000      -0.651989       -17.7415
 156   2.0000      -0.647668       -17.6239
 157   2.0000      -0.642716       -17.4892
 158   2.0000      -0.638573       -17.3765
 159   2.0000      -0.633490       -17.2381
 160   2.0000      -0.632877       -17.2215
 161   2.0000      -0.624986       -17.0067
 162   2.0000      -0.622693       -16.9443
 163   2.0000      -0.617193       -16.7947
 164   2.0000      -0.608848       -16.5676
 165   2.0000      -0.592812       -16.1312
 166   2.0000      -0.591238       -16.0884
 167   2.0000      -0.585314       -15.9272
 168   2.0000      -0.585195       -15.9240
 169   2.0000      -0.583372       -15.8743
 170   2.0000      -0.582518       -15.8511
 171   2.0000      -0.577908       -15.7257
 172   2.0000      -0.571001       -15.5377
 173   2.0000      -0.570683       -15.5291
 174   2.0000      -0.563813       -15.3421
 175   2.0000      -0.562846       -15.3158
 176   2.0000      -0.561188       -15.2707
 177   2.0000      -0.560680       -15.2569
 178   2.0000      -0.559992       -15.2381
 179   2.0000      -0.558018       -15.1844
 180   2.0000      -0.556660       -15.1475
 181   2.0000      -0.554365       -15.0850
 182   2.0000      -0.550168       -14.9708
 183   2.0000      -0.548124       -14.9152
 184   2.0000      -0.546968       -14.8837
 185   2.0000      -0.544073       -14.8050
 186   2.0000      -0.543075       -14.7778
 187   2.0000      -0.542273       -14.7560
 188   2.0000      -0.539944       -14.6926
 189   2.0000      -0.536791       -14.6068
 190   2.0000      -0.536741       -14.6055
 191   2.0000      -0.535123       -14.5614
 192   2.0000      -0.530537       -14.4367
 193   2.0000      -0.528015       -14.3680
 194   2.0000      -0.522866       -14.2279
 195   2.0000      -0.519003       -14.1228
 196   2.0000      -0.515192       -14.0191
 197   2.0000      -0.512203       -13.9377
 198   2.0000      -0.508397       -13.8342
 199   2.0000      -0.508006       -13.8236
 200   2.0000      -0.505832       -13.7644
 201   2.0000      -0.504038       -13.7156
 202   2.0000      -0.500889       -13.6299
 203   2.0000      -0.499853       -13.6017
 204   2.0000      -0.494723       -13.4621
 205   2.0000      -0.492160       -13.3923
 206   2.0000      -0.490526       -13.3479
 207   2.0000      -0.488902       -13.3037
 208   2.0000      -0.488032       -13.2800
 209   2.0000      -0.485295       -13.2056
 210   2.0000      -0.481927       -13.1139
 211   2.0000      -0.480904       -13.0861
 212   2.0000      -0.478367       -13.0170
 213   2.0000      -0.477700       -12.9989
 214   2.0000      -0.476137       -12.9563
 215   2.0000      -0.473137       -12.8747
 216   2.0000      -0.470853       -12.8126
 217   2.0000      -0.468360       -12.7447
 218   2.0000      -0.467489       -12.7210
 219   2.0000      -0.465579       -12.6690
 220   2.0000      -0.464212       -12.6318
 221   2.0000      -0.461813       -12.5666
 222   2.0000      -0.458326       -12.4717
 223   2.0000      -0.457666       -12.4537
 224   2.0000      -0.456575       -12.4240
 225   2.0000      -0.454074       -12.3560
 226   2.0000      -0.452892       -12.3238
 227   2.0000      -0.452184       -12.3045
 228   2.0000      -0.451230       -12.2786
 229   2.0000      -0.450803       -12.2670
 230   2.0000      -0.449402       -12.2288
 231   2.0000      -0.447880       -12.1874
 232   2.0000      -0.447103       -12.1663
 233   2.0000      -0.446573       -12.1519
 234   2.0000      -0.446189       -12.1414
 235   2.0000      -0.445163       -12.1135
 236   2.0000      -0.444924       -12.1070
 237   2.0000      -0.436761       -11.8849
 238   2.0000      -0.431900       -11.7526
 239   2.0000      -0.431015       -11.7285
 240   2.0000      -0.430806       -11.7228
 241   2.0000      -0.429975       -11.7002
 242   2.0000      -0.428966       -11.6728
 243   2.0000      -0.428711       -11.6658
 244   2.0000      -0.427028       -11.6200
 245   2.0000      -0.425718       -11.5844
 246   2.0000      -0.425134       -11.5685
 247   2.0000      -0.424841       -11.5605
 248   2.0000      -0.423675       -11.5288
 249   2.0000      -0.420182       -11.4337
 250   2.0000      -0.419964       -11.4278
 251   2.0000      -0.414655       -11.2833
 252   2.0000      -0.413775       -11.2594
 253   2.0000      -0.411466       -11.1966
 254   2.0000      -0.410829       -11.1792
 255   2.0000      -0.409562       -11.1447
 256   2.0000      -0.396549       -10.7906
 257   2.0000      -0.384543       -10.4640
 258   2.0000      -0.384170       -10.4538
 259   2.0000      -0.380354       -10.3500
 260   2.0000      -0.362551        -9.8655
 261   2.0000      -0.347596        -9.4586
 262   2.0000      -0.341979        -9.3057
 263   2.0000      -0.333641        -9.0788
 264   2.0000      -0.333454        -9.0737
 265   2.0000      -0.329418        -8.9639
 266   2.0000      -0.326241        -8.8775
 267   2.0000      -0.323269        -8.7966
 268   2.0000      -0.319270        -8.6878
 269   2.0000      -0.314246        -8.5511
 270   2.0000      -0.309021        -8.4089
 271   2.0000      -0.306828        -8.3492
 272   2.0000      -0.289937        -7.8896
 273   2.0000      -0.279672        -7.6103
 274   2.0000      -0.268262        -7.2998
 275   2.0000      -0.240703        -6.5499
 276   0.0000      -0.134658        -3.6642
 277   0.0000      -0.118855        -3.2342
 278   0.0000      -0.086699        -2.3592
 279   0.0000      -0.085849        -2.3361
 280   0.0000      -0.080082        -2.1791

MULLIKEN ATOMIC CHARGES
-----------------------
   0 C :   -0.034936
   1 C :    0.047044
   2 C :    0.047100
   3 C :   -0.031897
   4 C :    0.001550
   5 C :    0.015187
   6 C :    0.296249
   7 C :   -0.348492
   8 C :   -0.188469
   9 N :    0.158377
  10 C :   -0.177210
  11 N :    0.157039
  12 C :   -0.055158
  13 C :    0.229877
  14 C :   -0.327767
  15 C :   -0.199963
  16 N :    0.190077
  17 C :   -0.184759
  18 N :    0.162774
  19 C :    0.038869
  20 C :    0.035220
  21 C :   -0.045749
  22 C :   -0.012690
  23 C :    0.266279
  24 C :   -0.064407
  25 F :   -0.176949
  26 C :    0.041895
  27 C :   -0.096362
  28 C :    0.126299
  29 C :   -0.075293
  30 C :    0.260085
  31 F :   -0.171850
  32 C :    0.009752
  33 C :    0.045203
  34 C :   -0.100531
  35 S :    0.135657
  36 C :   -0.113752
  37 C :   -0.044572
  38 C :   -0.041513
  39 C :    0.054579
  40 N :   -0.174268
  41 C :    0.074207
  42 C :    0.067207
  43 C :    0.043151
  44 N :   -0.174796
  45 C :    0.047857
  46 C :    0.056857
  47 C :    0.107307
  48 C :   -0.098545
  49 C :    0.033375
  50 C :    0.257104
  51 C :   -0.073515
  52 F :   -0.171509
  53 C :    0.000311
  54 C :   -0.061422
  55 C :    0.103368
  56 C :   -0.062650
  57 C :    0.251368
  58 F :   -0.177894
  59 C :    0.021584
  60 C :   -0.008784
  61 C :    0.036348
  62 C :   -0.060933
  63 C :    0.300039
  64 C :   -0.339097
  65 C :   -0.187527
  66 N :    0.152817
  67 C :   -0.190659
  68 N :    0.160939
  69 C :    0.010391
  70 C :    0.008414
  71 C :   -0.033580
  72 C :    0.046283
  73 C :    0.045414
  74 C :   -0.030869
  75 C :    0.241093
  76 C :   -0.331477
  77 C :   -0.182080
  78 N :    0.158966
  79 C :   -0.221467
  80 N :    0.184127
  81 H :    0.006045
  82 H :    0.003627
  83 H :    0.004517
  84 H :    0.006576
  85 H :    0.013710
  86 H :    0.007249
  87 H :   -0.005783
  88 H :   -0.012051
  89 H :   -0.011506
  90 H :   -0.021560
  91 H :   -0.017614
  92 H :    0.010623
  93 H :    0.098104
  94 H :    0.102955
  95 H :    0.002631
  96 H :   -0.011612
  97 H :   -0.003589
  98 H :   -0.000439
  99 H :    0.011824
 100 H :    0.096574
 101 H :    0.097667
 102 H :   -0.018776
 103 H :   -0.028436
 104 H :   -0.014527
 105 H :   -0.012670
 106 H :   -0.004118
 107 H :   -0.013829
 108 H :    0.008703
 109 H :    0.019302
 110 H :    0.013273
 111 H :    0.005645
 112 H :    0.004709
 113 H :    0.003655
 114 H :    0.004874
Sum of atomic charges:   -0.0000000

LOEWDIN ATOMIC CHARGES
----------------------
   0 C :    0.004777
   1 C :    0.001251
   2 C :    0.004134
   3 C :    0.001341
   4 C :   -0.009998
   5 C :   -0.013251
   6 C :    0.078105
   7 C :   -0.133504
   8 C :   -0.018659
   9 N :   -0.047875
  10 C :   -0.021875
  11 N :   -0.044942
  12 C :   -0.050537
  13 C :    0.065807
  14 C :   -0.125648
  15 C :   -0.018566
  16 N :   -0.034085
  17 C :   -0.019423
  18 N :   -0.046321
  19 C :    0.063969
  20 C :   -0.032563
  21 C :    0.000248
  22 C :   -0.017034
  23 C :    0.078438
  24 C :   -0.047499
  25 F :   -0.052480
  26 C :    0.028518
  27 C :   -0.063840
  28 C :    0.022557
  29 C :   -0.054260
  30 C :    0.087850
  31 F :   -0.048392
  32 C :   -0.011497
  33 C :   -0.022516
  34 C :   -0.158296
  35 S :    0.456916
  36 C :   -0.159555
  37 C :   -0.052727
  38 C :   -0.049220
  39 C :    0.017867
  40 N :   -0.078923
  41 C :   -0.039938
  42 C :   -0.039191
  43 C :    0.014665
  44 N :   -0.082838
  45 C :   -0.026034
  46 C :    0.003467
  47 C :    0.016955
  48 C :   -0.064632
  49 C :    0.019250
  50 C :    0.086016
  51 C :   -0.055995
  52 F :   -0.047574
  53 C :   -0.018578
  54 C :   -0.011322
  55 C :   -0.019916
  56 C :   -0.053141
  57 C :    0.079459
  58 F :   -0.053443
  59 C :    0.050740
  60 C :   -0.031971
  61 C :    0.061173
  62 C :   -0.062083
  63 C :    0.077980
  64 C :   -0.134412
  65 C :   -0.021345
  66 N :   -0.047266
  67 C :   -0.019386
  68 N :   -0.048020
  69 C :   -0.013204
  70 C :   -0.010525
  71 C :    0.000690
  72 C :    0.003263
  73 C :    0.000865
  74 C :    0.004779
  75 C :    0.070196
  76 C :   -0.133987
  77 C :   -0.020001
  78 N :   -0.046652
  79 C :   -0.028196
  80 N :   -0.040198
  81 H :    0.041494
  82 H :    0.037460
  83 H :    0.037551
  84 H :    0.040973
  85 H :    0.048804
  86 H :    0.024348
  87 H :    0.035474
  88 H :    0.025542
  89 H :    0.030882
  90 H :    0.029774
  91 H :    0.026831
  92 H :    0.028879
  93 H :    0.057544
  94 H :    0.057700
  95 H :    0.025522
  96 H :    0.019221
  97 H :    0.021224
  98 H :    0.023622
  99 H :    0.026151
 100 H :    0.056743
 101 H :    0.056354
 102 H :    0.026880
 103 H :    0.031920
 104 H :    0.024053
 105 H :    0.030341
 106 H :    0.028034
 107 H :    0.031258
 108 H :    0.042789
 109 H :    0.031683
 110 H :    0.046089
 111 H :    0.040737
 112 H :    0.037516
 113 H :    0.037382
 114 H :    0.041285

  Mayer bond orders larger than 0.100000
B(  0-C ,  1-C ) :   1.3722 B(  0-C ,  5-C ) :   1.3814 B(  0-C , 81-H ) :   0.9831
B(  1-C ,  2-C ) :   1.3778 B(  1-C , 82-H ) :   0.9856 B(  2-C ,  3-C ) :   1.3652
B(  2-C , 83-H ) :   0.9863 B(  3-C ,  4-C ) :   1.3844 B(  3-C , 84-H ) :   0.9864
B(  4-C ,  5-C ) :   1.3138 B(  4-C , 13-C ) :   1.0031 B(  5-C ,  6-C ) :   0.9967
B(  6-C ,  7-C ) :   1.6353 B(  6-C , 12-C ) :   1.0579 B(  7-C ,  8-C ) :   1.1482
B(  7-C , 10-C ) :   1.1358 B(  8-C ,  9-N ) :   2.9765 B( 10-C , 11-N ) :   2.9712
B( 12-C , 13-C ) :   1.0213 B( 12-C , 19-C ) :   1.5862 B( 13-C , 14-C ) :   1.6625
B( 14-C , 15-C ) :   1.1553 B( 14-C , 17-C ) :   1.1402 B( 15-C , 16-N ) :   3.0097
B( 17-C , 18-N ) :   2.9939 B( 19-C , 20-C ) :   1.1524 B( 19-C , 85-H ) :   0.9283
B( 20-C , 21-C ) :   1.4762 B( 20-C , 24-C ) :   1.0323 B( 21-C , 22-C ) :   1.1547
B( 21-C , 86-H ) :   1.0044 B( 22-C , 23-C ) :   1.0415 B( 22-C , 26-C ) :   1.4206
B( 23-C , 24-C ) :   1.6384 B( 23-C , 25-F ) :   1.1251 B( 24-C , 87-H ) :   1.0211
B( 26-C , 27-C ) :   1.1601 B( 26-C , 30-C ) :   1.0012 B( 27-C , 28-C ) :   1.4595
B( 27-C , 88-H ) :   1.0255 B( 28-C , 29-C ) :   0.9922 B( 28-C , 32-C ) :   1.1797
B( 29-C , 30-C ) :   1.6895 B( 29-C , 89-H ) :   1.0131 B( 30-C , 31-F ) :   1.1246
B( 32-C , 33-C ) :   1.5749 B( 32-C , 90-H ) :   0.9495 B( 33-C , 34-C ) :   1.1740
B( 33-C , 91-H ) :   0.9461 B( 34-C , 35-S ) :   1.1363 B( 34-C , 38-C ) :   1.4067
B( 35-S , 36-C ) :   1.1352 B( 36-C , 37-C ) :   1.4141 B( 36-C , 45-C ) :   1.1656
B( 37-C , 38-C ) :   1.3937 B( 37-C , 43-C ) :   0.9908 B( 38-C , 39-C ) :   1.0067
B( 39-C , 40-N ) :   1.0713 B( 39-C , 41-C ) :   1.0646 B( 39-C , 92-H ) :   0.8748
B( 40-N , 90-H ) :   0.1119 B( 40-N , 93-H ) :   0.9603 B( 40-N , 94-H ) :   0.9654
B( 41-C , 42-C ) :   1.0610 B( 41-C , 95-H ) :   0.9239 B( 41-C , 96-H ) :   0.9216
B( 42-C , 43-C ) :   1.0716 B( 42-C , 97-H ) :   0.9268 B( 42-C , 98-H ) :   0.9262
B( 43-C , 44-N ) :   1.1057 B( 43-C , 99-H ) :   0.8687 B( 44-N ,100-H ) :   0.9641
B( 44-N ,101-H ) :   0.9682 B( 45-C , 46-C ) :   1.5813 B( 45-C ,102-H ) :   0.9455
B( 46-C , 47-C ) :   1.2005 B( 46-C ,103-H ) :   0.9640 B( 47-C , 48-C ) :   1.4594
B( 47-C , 51-C ) :   0.9996 B( 48-C , 49-C ) :   1.1554 B( 48-C ,104-H ) :   1.0250
B( 49-C , 50-C ) :   1.0072 B( 49-C , 53-C ) :   1.4248 B( 50-C , 51-C ) :   1.6835
B( 50-C , 52-F ) :   1.1302 B( 51-C ,105-H ) :   1.0116 B( 53-C , 54-C ) :   1.1307
B( 53-C , 57-C ) :   1.0389 B( 54-C , 55-C ) :   1.4650 B( 54-C ,106-H ) :   1.0228
B( 55-C , 56-C ) :   1.0295 B( 55-C , 59-C ) :   1.1502 B( 56-C , 57-C ) :   1.6610
B( 56-C ,107-H ) :   1.0099 B( 57-C , 58-F ) :   1.1237 B( 59-C , 60-C ) :   1.5448
B( 59-C ,108-H ) :   0.9916 B( 60-C , 61-C ) :   1.1955 B( 60-C ,109-H ) :   0.9681
B( 61-C , 62-C ) :   1.5172 B( 61-C ,110-H ) :   0.9515 B( 62-C , 63-C ) :   1.0596
B( 62-C , 75-C ) :   1.0379 B( 63-C , 64-C ) :   1.6315 B( 63-C , 69-C ) :   0.9977
B( 64-C , 65-C ) :   1.1392 B( 64-C , 67-C ) :   1.1457 B( 65-C , 66-N ) :   2.9753
B( 67-C , 68-N ) :   2.9790 B( 69-C , 70-C ) :   1.3120 B( 69-C , 74-C ) :   1.3868
B( 70-C , 71-C ) :   1.3845 B( 70-C , 75-C ) :   1.0091 B( 71-C , 72-C ) :   1.3638
B( 71-C ,111-H ) :   0.9861 B( 72-C , 73-C ) :   1.3794 B( 72-C ,112-H ) :   0.9864
B( 73-C , 74-C ) :   1.3670 B( 73-C ,113-H ) :   0.9868 B( 74-C ,114-H ) :   0.9842
B( 75-C , 76-C ) :   1.6332 B( 76-C , 77-C ) :   1.1395 B( 76-C , 79-C ) :   1.1502
B( 77-C , 78-N ) :   2.9900 B( 79-C , 80-N ) :   3.0217

-----------------------------------------------------------------------------
         ABSORPTION SPECTRUM VIA TRANSITION ELECTRIC DIPOLE MOMENTS
-----------------------------------------------------------------------------
State   Energy  Wavelength   fosc         T2         TX        TY        TZ
        (cm-1)    (nm)                  (au**2)     (au)      (au)      (au)
-----------------------------------------------------------------------------
   0    9825.8   1017.7   2.375923494  79.60525  -2.43381  -8.19019   2.56955
   1   13250.8    754.7   0.060436801   1.50153  -0.70481  -0.74260   0.67329
   2   15684.7    637.6   0.002051428   0.04306   0.18936  -0.02345   0.08155
   3   16331.9    612.3   0.075707837   1.52609  -0.56565  -1.09814   0.01488
   4   18620.9    537.0   0.006759836   0.11951   0.07258  -0.17920  -0.28659
   5   20101.9    497.5   0.796929624  13.05143  -0.90794  -3.29055   1.18293
   6   21227.1    471.1   0.091015266   1.41156   0.74806  -0.45059   0.80556
   7   21709.2    460.6   0.093495344   1.41782  -0.67410  -0.35404  -0.91546
   8   22143.2    451.6   0.075048912   1.11578  -0.36624  -0.58286   0.80120
   9   22692.8    440.7   0.173099527   2.51121  -0.60561  -1.41811   0.36526
  10   23527.7    425.0   0.016275209   0.22773   0.27769  -0.33267  -0.19987
  11   24096.7    415.0   0.076779270   1.04897  -0.16754  -0.94122  -0.36742
  12   24965.2    400.6   0.066267062   0.87385   0.18090   0.85539  -0.33083
  13   25298.9    395.3   0.026881584   0.34981  -0.13302   0.54838  -0.17717
  14   25521.1    391.8   0.022452799   0.28963   0.15529   0.42397  -0.29286
  15   26319.1    380.0   0.035244483   0.44086  -0.14665  -0.50229   0.40873
  16   26683.3    374.8   0.019217794   0.23710  -0.03466  -0.20388   0.44083
  17   27068.4    369.4   0.002855136   0.03472   0.02629  -0.09644  -0.15727
  18   27363.4    365.5   0.176669536   2.12553  -0.58074  -1.33726   0.00149
  19   27583.3    362.5   0.352187523   4.20343  -0.50786  -1.98127   0.14163
  20   27840.8    359.2   0.165615899   1.95838   0.12656   1.33772  -0.39098
  21   28222.3    354.3   0.053544587   0.62460  -0.07054   0.35116  -0.70449
  22   28587.9    349.8   0.031081945   0.35793   0.21647   0.51396   0.21660
  23   29063.6    344.1   0.042016024   0.47593   0.06465   0.68677   0.00977
  24   30259.5    330.5   0.096019373   1.04465   0.00572   0.65419  -0.78528
  25   30571.2    327.1   0.008863895   0.09545  -0.12115  -0.07022   0.27540
  26   30748.5    325.2   0.008643599   0.09254  -0.00348  -0.18954  -0.23792
  27   31187.2    320.6   0.036662135   0.38701   0.26930  -0.22239   0.51481
  28   31503.5    317.4   0.036378307   0.38015   0.15293  -0.55175   0.22877
  29   31870.4    313.8   0.519797887   5.36937   1.05925  -1.75788   1.07573
  30   32163.0    310.9   0.035253185   0.36084  -0.06060  -0.18171   0.56934
  31   32349.1    309.1   0.568475967   5.78529   0.74041  -0.55208   2.22087
  32   32393.6    308.7   0.075321548   0.76548  -0.34103  -0.01609  -0.80556
  33   32454.1    308.1   0.019976191   0.20264   0.30742  -0.32230  -0.06520
  34   32586.9    306.9   0.021851400   0.22076  -0.21311   0.41485  -0.05693
  35   32933.0    303.6   0.029509474   0.29499   0.20882  -0.47907   0.14789
  36   33475.6    298.7   0.034871133   0.34294   0.22409   0.17055   0.51345
  37   33749.9    296.3   0.045344292   0.44231  -0.21873   0.57563   0.25124
  38   34626.4    288.8   0.036328368   0.34539   0.00622  -0.58354  -0.06958
  39   34715.1    288.1   0.045983520   0.43607  -0.27188   0.10995  -0.59166
  40   34877.7    286.7   0.092300230   0.87122   0.10861  -0.59761   0.70872
  41   34996.7    285.7   0.008978457   0.08446   0.16076   0.19701   0.14072
  42   35270.4    283.5   0.012419260   0.11592   0.00814   0.34022   0.01033
  43   35287.6    283.4   0.023162959   0.21610   0.05520   0.31506   0.33732
  44   35512.3    281.6   0.216148807   2.00378   0.10826   1.38060   0.29325
  45   35739.0    279.8   0.101408342   0.93413   0.08792  -0.88310   0.38280
  46   35979.5    277.9   0.404818212   3.70408  -0.10518   1.55917   1.12339
  47   36636.0    273.0   0.039152007   0.35182   0.07651   0.04202  -0.58669
  48   37089.1    269.6   0.000475531   0.00422  -0.01688  -0.06245   0.00602
  49   37243.3    268.5   0.019242285   0.17009  -0.03947   0.22842  -0.34111
  50   37481.1    266.8   0.035461456   0.31147  -0.14976   0.53552   0.04753
  51   37980.9    263.3   0.051509009   0.44647  -0.05196   0.16614   0.64511
  52   38320.8    261.0   0.020063974   0.17237   0.14871  -0.29783  -0.24809
  53   38631.4    258.9   0.000864794   0.00737   0.00079   0.08522  -0.01035
  54   38713.2    258.3   0.072231372   0.61425   0.03914  -0.73541  -0.26812
  55   39074.3    255.9   0.040657374   0.34255   0.00506  -0.40698  -0.42058
  56   39098.7    255.8   0.020360314   0.17143   0.04260  -0.15651  -0.38095
  57   39567.8    252.7   0.019883671   0.16544  -0.18339   0.01364  -0.36279
  58   39694.6    251.9   0.201459398   1.67083   0.21851  -0.35739   1.22285
  59   40107.0    249.3   0.143826065   1.18057  -0.59710   0.89613   0.14490

FINAL SINGLE POINT ENERGY     -3875.692313759635

DIPOLE MOMENT
-------------
                                X             Y             Z
Electronic contribution:     -5.33887      23.63452      17.01549
Nuclear contribution   :      6.33549     -25.38119     -17.85923
                        -----------------------------------------
Total Dipole Moment    :      0.99662      -1.74668      -0.84374
                        -----------------------------------------
Magnitude (a.u.)       :      2.18083
Magnitude (Debye)      :      5.54323

Rotational constants in cm-1:     0.002541     0.000115     0.000113
Rotational constants in MHz :    76.190058     3.462530     3.375782

                             ****ORCA TERMINATED NORMALLY****
TOTAL RUN TIME: 0 days 0 hours 13 minutes 53 seconds 335 msec
