                         Program Version 4.2.0 -  RELEASE  -
|  1> # ORCA input file
|  2> # SCF done       -209.672795144954          0.000388962999
|  3> ! CAM-B3LYP def2-SVP def2/J RIJCOSX Grid4 TightSCF
|  4> %maxcore 5000
|  5> %tddft
|  6>     Mode sTDDFT
|  7>     Ethresh 5.0
|  8>     maxcore 5000
|  9> end
| 10>
| 11> %pal
| 12>   nprocs 6
| 13>   end
| 14> * xyz 0 1
| 15>    C       -4.08740        -0.38417        10.78230
| 16>    C       -2.81053         0.13271        10.94514
| 17>    C       -1.75455        -0.30391        10.15798
| 18>    C       -1.94636        -1.26674         9.17827
| 19>    C       -3.21677        -1.79069         9.00725
| 20>    C       -4.29312        -1.35357         9.81327
| 21>    C       -5.49715        -2.08106         9.43041
| 22>    C       -6.76109        -1.85346         9.90454
| 23>    C       -7.08343        -0.85598        10.84986
| 24>    N       -7.41488        -0.06553        11.61304
| 25>    C       -7.92394        -2.54102         9.49590
| 26>    N       -8.91340        -3.04914         9.21175
| 27>    C       -5.08572        -3.09139         8.46355
| 28>    C       -3.72519        -2.76883         8.05893
| 29>    C       -3.14252        -3.11734         6.86861
| 30>    C       -3.81660        -3.78678         5.82392
| 31>    N       -4.33905        -4.23624         4.90592
| 32>    C       -1.83545        -2.73937         6.49771
| 33>    N       -0.77094        -2.47329         6.16143
| 34>    C       -5.81942        -4.18628         8.09040
| 35>    C       -5.32486        -5.37611         7.51172
| 36>    C       -6.07406        -6.27017         6.77186
| 37>    C       -5.23070        -7.32754         6.32960
| 38>    C       -3.92618        -7.05559         6.93128
| 39>    C       -3.96031        -5.90351         7.62090
| 40>    F       -2.87209        -7.86451         6.80359
| 41>    C       -5.53776        -8.35722         5.46550
| 42>    C       -4.67927        -9.35808         4.94795
| 43>    C       -5.37907       -10.12767         4.03124
| 44>    C       -6.75706        -9.62585         3.97060
| 45>    C       -6.83887        -8.59476         4.82273
| 46>    F       -7.92670        -7.86542         5.07647
| 47>    C       -4.83592       -11.18292         3.28132
| 48>    C       -5.47825       -11.80074         2.24098
| 49>    C       -4.94450       -12.80867         1.41771
| 50>    S       -5.56599       -12.92954        -0.19642
| 51>    C       -4.32003       -14.02022        -0.71750
| 52>    C       -3.43293       -14.28916         0.35617
| 53>    C       -3.84325       -13.68431         1.58632
| 54>    C       -3.16346       -13.99463         2.78854
| 55>    C       -3.67857       -13.73494         4.16523
| 56>    O       -2.96525       -13.47445         5.09254
| 57>    O       -5.00227       -13.91318         4.34095
| 58>    C       -1.97713       -14.69748         2.71156
| 59>    C       -1.47905       -15.14267         1.49336
| 60>    C       -2.19324       -14.97836         0.32040
| 61>    O       -1.71816       -15.43299        -0.84940
| 62>    C       -4.39753       -14.47402        -2.04748
| 63>    C       -3.80249       -15.55536        -2.67686
| 64>    C       -4.21446       -15.59116        -4.03117
| 65>    C       -5.13021       -14.45884        -4.19255
| 66>    C       -5.26176       -13.80486        -3.03033
| 67>    F       -5.73461       -14.15424        -5.34422
| 68>    C       -3.82771       -16.48070        -5.01435
| 69>    C       -4.18736       -16.48020        -6.38721
| 70>    C       -3.53132       -17.51671        -7.02892
| 71>    C       -2.73039       -18.23483        -6.03541
| 72>    C       -2.91063       -17.61227        -4.86040
| 73>    F       -2.35175       -17.95111        -3.69153
| 74>    C       -3.58074       -17.76949        -8.41312
| 75>    C       -2.96080       -18.80601        -9.04970
| 76>    C       -3.00148       -19.04192       -10.44295
| 77>    C       -3.16550       -18.12542       -11.44835
| 78>    C       -3.62562       -18.44711       -12.79491
| 79>    C       -3.66576       -19.68029       -13.38899
| 80>    C       -3.21745       -20.88795       -12.81292
| 81>    N       -2.87191       -21.90952       -12.41842
| 82>    C       -4.12905       -19.90953       -14.70261
| 83>    N       -4.48978       -20.16957       -15.76064
| 84>    C       -4.05021       -17.19339       -13.40501
| 85>    C       -3.71101       -16.12740       -12.54140
| 86>    C       -4.02815       -14.82044       -12.87263
| 87>    C       -4.68039       -14.58197       -14.07294
| 88>    C       -5.00435       -15.62578       -14.92803
| 89>    C       -4.69501       -16.93873       -14.60531
| 90>    C       -3.01713       -16.67514       -11.38571
| 91>    C       -2.16715       -15.97533       -10.57141
| 92>    C       -1.99176       -14.57730       -10.63645
| 93>    N       -1.81982       -13.44258       -10.63230
| 94>    C       -1.29934       -16.56090        -9.62601
| 95>    N       -0.53214       -16.97188        -8.87799
| 96>    H       -4.89376        -0.03497        11.40583
| 97>    H       -2.63856         0.88481        11.69977
| 98>    H       -0.76887         0.10898        10.30842
| 99>    H       -1.11795        -1.60294         8.57590
|100>    H       -6.88105        -4.18405         8.29942
|101>    H       -7.10534        -6.14567         6.50541
|102>    H       -3.16652        -5.47973         8.20492
|103>    H       -3.64736        -9.48742         5.20918
|104>    H       -7.54860       -10.02674         3.36938
|105>    H       -3.81705       -11.45637         3.51846
|106>    H       -6.43526       -11.40847         1.92336
|107>    H       -5.46233       -14.14481         3.52365
|108>    H       -1.44205       -14.90450         3.62511
|109>    H       -0.52895       -15.65693         1.46201
|110>    H       -0.85351       -15.84935        -0.73062
|111>    H       -3.14776       -16.27072        -2.22838
|112>    H       -5.85538       -12.93183        -2.83963
|113>    H       -4.84586       -15.77313        -6.85300
|114>    H       -2.10383       -19.08217        -6.22777
|115>    H       -4.18007       -17.07846        -8.99487
|116>    H       -2.48167       -19.56963        -8.45379
|117>    H       -2.94538       -20.08355       -10.73174
|118>    H       -3.78892       -14.00274       -12.21231
|119>    H       -4.93976       -13.56964       -14.34223
|120>    H       -5.50947       -15.41657       -15.85849
|121>    H       -4.96107       -17.73612       -15.27921
|122> *
|123>
|124>                          ****END OF INPUT****

CARTESIAN COORDINATES (ANGSTROEM)
---------------------------------
  C     -4.087400   -0.384170   10.782300
  C     -2.810530    0.132710   10.945140
  C     -1.754550   -0.303910   10.157980
  C     -1.946360   -1.266740    9.178270
  C     -3.216770   -1.790690    9.007250
  C     -4.293120   -1.353570    9.813270
  C     -5.497150   -2.081060    9.430410
  C     -6.761090   -1.853460    9.904540
  C     -7.083430   -0.855980   10.849860
  N     -7.414880   -0.065530   11.613040
  C     -7.923940   -2.541020    9.495900
  N     -8.913400   -3.049140    9.211750
  C     -5.085720   -3.091390    8.463550
  C     -3.725190   -2.768830    8.058930
  C     -3.142520   -3.117340    6.868610
  C     -3.816600   -3.786780    5.823920
  N     -4.339050   -4.236240    4.905920
  C     -1.835450   -2.739370    6.497710
  N     -0.770940   -2.473290    6.161430
  C     -5.819420   -4.186280    8.090400
  C     -5.324860   -5.376110    7.511720
  C     -6.074060   -6.270170    6.771860
  C     -5.230700   -7.327540    6.329600
  C     -3.926180   -7.055590    6.931280
  C     -3.960310   -5.903510    7.620900
  F     -2.872090   -7.864510    6.803590
  C     -5.537760   -8.357220    5.465500
  C     -4.679270   -9.358080    4.947950
  C     -5.379070  -10.127670    4.031240
  C     -6.757060   -9.625850    3.970600
  C     -6.838870   -8.594760    4.822730
  F     -7.926700   -7.865420    5.076470
  C     -4.835920  -11.182920    3.281320
  C     -5.478250  -11.800740    2.240980
  C     -4.944500  -12.808670    1.417710
  S     -5.565990  -12.929540   -0.196420
  C     -4.320030  -14.020220   -0.717500
  C     -3.432930  -14.289160    0.356170
  C     -3.843250  -13.684310    1.586320
  C     -3.163460  -13.994630    2.788540
  C     -3.678570  -13.734940    4.165230
  O     -2.965250  -13.474450    5.092540
  O     -5.002270  -13.913180    4.340950
  C     -1.977130  -14.697480    2.711560
  C     -1.479050  -15.142670    1.493360
  C     -2.193240  -14.978360    0.320400
  O     -1.718160  -15.432990   -0.849400
  C     -4.397530  -14.474020   -2.047480
  C     -3.802490  -15.555360   -2.676860
  C     -4.214460  -15.591160   -4.031170
  C     -5.130210  -14.458840   -4.192550
  C     -5.261760  -13.804860   -3.030330
  F     -5.734610  -14.154240   -5.344220
  C     -3.827710  -16.480700   -5.014350
  C     -4.187360  -16.480200   -6.387210
  C     -3.531320  -17.516710   -7.028920
  C     -2.730390  -18.234830   -6.035410
  C     -2.910630  -17.612270   -4.860400
  F     -2.351750  -17.951110   -3.691530
  C     -3.580740  -17.769490   -8.413120
  C     -2.960800  -18.806010   -9.049700
  C     -3.001480  -19.041920  -10.442950
  C     -3.165500  -18.125420  -11.448350
  C     -3.625620  -18.447110  -12.794910
  C     -3.665760  -19.680290  -13.388990
  C     -3.217450  -20.887950  -12.812920
  N     -2.871910  -21.909520  -12.418420
  C     -4.129050  -19.909530  -14.702610
  N     -4.489780  -20.169570  -15.760640
  C     -4.050210  -17.193390  -13.405010
  C     -3.711010  -16.127400  -12.541400
  C     -4.028150  -14.820440  -12.872630
  C     -4.680390  -14.581970  -14.072940
  C     -5.004350  -15.625780  -14.928030
  C     -4.695010  -16.938730  -14.605310
  C     -3.017130  -16.675140  -11.385710
  C     -2.167150  -15.975330  -10.571410
  C     -1.991760  -14.577300  -10.636450
  N     -1.819820  -13.442580  -10.632300
  C     -1.299340  -16.560900   -9.626010
  N     -0.532140  -16.971880   -8.877990
  H     -4.893760   -0.034970   11.405830
  H     -2.638560    0.884810   11.699770
  H     -0.768870    0.108980   10.308420
  H     -1.117950   -1.602940    8.575900
  H     -6.881050   -4.184050    8.299420
  H     -7.105340   -6.145670    6.505410
  H     -3.166520   -5.479730    8.204920
  H     -3.647360   -9.487420    5.209180
  H     -7.548600  -10.026740    3.369380
  H     -3.817050  -11.456370    3.518460
  H     -6.435260  -11.408470    1.923360
  H     -5.462330  -14.144810    3.523650
  H     -1.442050  -14.904500    3.625110
  H     -0.528950  -15.656930    1.462010
  H     -0.853510  -15.849350   -0.730620
  H     -3.147760  -16.270720   -2.228380
  H     -5.855380  -12.931830   -2.839630
  H     -4.845860  -15.773130   -6.853000
  H     -2.103830  -19.082170   -6.227770
  H     -4.180070  -17.078460   -8.994870
  H     -2.481670  -19.569630   -8.453790
  H     -2.945380  -20.083550  -10.731740
  H     -3.788920  -14.002740  -12.212310
  H     -4.939760  -13.569640  -14.342230
  H     -5.509470  -15.416570  -15.858490
  H     -4.961070  -17.736120  -15.279210

 Total Charge           Charge          ....    0
 Multiplicity           Mult            ....    1
 Number of Electrons    NEL             ....  548
 Basis Dimension        Dim             .... 1268

ORBITAL ENERGIES
----------------

  NO   OCC          E(Eh)            E(eV)
   0   2.0000     -88.997567     -2421.7469
   1   2.0000     -24.808014      -675.0604
   2   2.0000     -24.802599      -674.9130
   3   2.0000     -24.802399      -674.9076
   4   2.0000     -24.796158      -674.7378
   5   2.0000     -19.285748      -524.7919
   6   2.0000     -19.264695      -524.2190
   7   2.0000     -19.204482      -522.5805
   8   2.0000     -14.426581      -392.5672
   9   2.0000     -14.425086      -392.5265
  10   2.0000     -14.424720      -392.5166
  11   2.0000     -14.423650      -392.4875
  12   2.0000     -14.423575      -392.4854
  13   2.0000     -14.422475      -392.4555
  14   2.0000     -14.421225      -392.4215
  15   2.0000     -14.416657      -392.2972
  16   2.0000     -10.410057      -283.2721
  17   2.0000     -10.378538      -282.4144
  18   2.0000     -10.374856      -282.3142
  19   2.0000     -10.370460      -282.1946
  20   2.0000     -10.368694      -282.1465
  21   2.0000     -10.363525      -282.0059
  22   2.0000     -10.355437      -281.7858
  23   2.0000     -10.355112      -281.7769
  24   2.0000     -10.353160      -281.7238
  25   2.0000     -10.353003      -281.7195
  26   2.0000     -10.352466      -281.7049
  27   2.0000     -10.352405      -281.7033
  28   2.0000     -10.349266      -281.6179
  29   2.0000     -10.346248      -281.5357
  30   2.0000     -10.346055      -281.5305
  31   2.0000     -10.339748      -281.3588
  32   2.0000     -10.328514      -281.0531
  33   2.0000     -10.328313      -281.0477
  34   2.0000     -10.327449      -281.0242
  35   2.0000     -10.326173      -280.9895
  36   2.0000     -10.326162      -280.9892
  37   2.0000     -10.325438      -280.9694
  38   2.0000     -10.324847      -280.9534
  39   2.0000     -10.324382      -280.9407
  40   2.0000     -10.324382      -280.9407
  41   2.0000     -10.324218      -280.9362
  42   2.0000     -10.324179      -280.9352
  43   2.0000     -10.323578      -280.9188
  44   2.0000     -10.321915      -280.8736
  45   2.0000     -10.321795      -280.8703
  46   2.0000     -10.320293      -280.8294
  47   2.0000     -10.319584      -280.8102
  48   2.0000     -10.319422      -280.8058
  49   2.0000     -10.318521      -280.7812
  50   2.0000     -10.317829      -280.7624
  51   2.0000     -10.317513      -280.7538
  52   2.0000     -10.315536      -280.7000
  53   2.0000     -10.315476      -280.6984
  54   2.0000     -10.313936      -280.6565
  55   2.0000     -10.313664      -280.6491
  56   2.0000     -10.313350      -280.6405
  57   2.0000     -10.307852      -280.4909
  58   2.0000     -10.306814      -280.4627
  59   2.0000     -10.305828      -280.4358
  60   2.0000     -10.305694      -280.4322
  61   2.0000     -10.305338      -280.4225
  62   2.0000     -10.305169      -280.4179
  63   2.0000     -10.304624      -280.4031
  64   2.0000     -10.303820      -280.3812
  65   2.0000     -10.303595      -280.3751
  66   2.0000     -10.303484      -280.3721
  67   2.0000     -10.303422      -280.3704
  68   2.0000     -10.301581      -280.3203
  69   2.0000     -10.301481      -280.3176
  70   2.0000     -10.300591      -280.2933
  71   2.0000     -10.299593      -280.2662
  72   2.0000     -10.298511      -280.2367
  73   2.0000     -10.293717      -280.1063
  74   2.0000     -10.292441      -280.0716
  75   2.0000     -10.291046      -280.0336
  76   2.0000     -10.287217      -279.9294
  77   2.0000     -10.286945      -279.9220
  78   2.0000     -10.282496      -279.8009
  79   2.0000     -10.280881      -279.7570
  80   2.0000     -10.276344      -279.6335
  81   2.0000      -8.092814      -220.2167
  82   2.0000      -6.061695      -164.9471
  83   2.0000      -6.057598      -164.8356
  84   2.0000      -6.055703      -164.7841
  85   2.0000      -1.321199       -35.9516
  86   2.0000      -1.316233       -35.8165
  87   2.0000      -1.314767       -35.7766
  88   2.0000      -1.309713       -35.6391
  89   2.0000      -1.188100       -32.3298
  90   2.0000      -1.186407       -32.2838
  91   2.0000      -1.103427       -30.0258
  92   2.0000      -1.040892       -28.3241
  93   2.0000      -1.037236       -28.2246
  94   2.0000      -1.030467       -28.0404
  95   2.0000      -1.022434       -27.8218
  96   2.0000      -1.018848       -27.7243
  97   2.0000      -1.011960       -27.5368
  98   2.0000      -1.007837       -27.4246
  99   2.0000      -1.006193       -27.3799
 100   2.0000      -1.003493       -27.3064
 101   2.0000      -1.003258       -27.3000
 102   2.0000      -1.003004       -27.2931
 103   2.0000      -1.000406       -27.2224
 104   2.0000      -0.996881       -27.1265
 105   2.0000      -0.988410       -26.8960
 106   2.0000      -0.983266       -26.7560
 107   2.0000      -0.965567       -26.2744
 108   2.0000      -0.960834       -26.1456
 109   2.0000      -0.958763       -26.0893
 110   2.0000      -0.944982       -25.7143
 111   2.0000      -0.940971       -25.6051
 112   2.0000      -0.932195       -25.3663
 113   2.0000      -0.927839       -25.2478
 114   2.0000      -0.902178       -24.5495
 115   2.0000      -0.899393       -24.4737
 116   2.0000      -0.894259       -24.3340
 117   2.0000      -0.887707       -24.1557
 118   2.0000      -0.881196       -23.9786
 119   2.0000      -0.871001       -23.7011
 120   2.0000      -0.868749       -23.6399
 121   2.0000      -0.867024       -23.5929
 122   2.0000      -0.862012       -23.4565
 123   2.0000      -0.855741       -23.2859
 124   2.0000      -0.843817       -22.9614
 125   2.0000      -0.826111       -22.4796
 126   2.0000      -0.825232       -22.4557
 127   2.0000      -0.822165       -22.3723
 128   2.0000      -0.809139       -22.0178
 129   2.0000      -0.799636       -21.7592
 130   2.0000      -0.796376       -21.6705
 131   2.0000      -0.792015       -21.5518
 132   2.0000      -0.784268       -21.3410
 133   2.0000      -0.768816       -20.9205
 134   2.0000      -0.765147       -20.8207
 135   2.0000      -0.754855       -20.5407
 136   2.0000      -0.736861       -20.0510
 137   2.0000      -0.731525       -19.9058
 138   2.0000      -0.723513       -19.6878
 139   2.0000      -0.719717       -19.5845
 140   2.0000      -0.718322       -19.5465
 141   2.0000      -0.718065       -19.5395
 142   2.0000      -0.715546       -19.4710
 143   2.0000      -0.709662       -19.3109
 144   2.0000      -0.705801       -19.2058
 145   2.0000      -0.698229       -18.9998
 146   2.0000      -0.686596       -18.6832
 147   2.0000      -0.684168       -18.6172
 148   2.0000      -0.682911       -18.5830
 149   2.0000      -0.677025       -18.4228
 150   2.0000      -0.673989       -18.3402
 151   2.0000      -0.672637       -18.3034
 152   2.0000      -0.671023       -18.2595
 153   2.0000      -0.669240       -18.2109
 154   2.0000      -0.667731       -18.1699
 155   2.0000      -0.666688       -18.1415
 156   2.0000      -0.658323       -17.9139
 157   2.0000      -0.651887       -17.7388
 158   2.0000      -0.648591       -17.6491
 159   2.0000      -0.641691       -17.4613
 160   2.0000      -0.635937       -17.3047
 161   2.0000      -0.633181       -17.2297
 162   2.0000      -0.626698       -17.0533
 163   2.0000      -0.620320       -16.8798
 164   2.0000      -0.613631       -16.6977
 165   2.0000      -0.603563       -16.4238
 166   2.0000      -0.599519       -16.3137
 167   2.0000      -0.591905       -16.1066
 168   2.0000      -0.591216       -16.0878
 169   2.0000      -0.589398       -16.0383
 170   2.0000      -0.587155       -15.9773
 171   2.0000      -0.579791       -15.7769
 172   2.0000      -0.577763       -15.7217
 173   2.0000      -0.576987       -15.7006
 174   2.0000      -0.572166       -15.5694
 175   2.0000      -0.568772       -15.4771
 176   2.0000      -0.568253       -15.4629
 177   2.0000      -0.565649       -15.3921
 178   2.0000      -0.563180       -15.3249
 179   2.0000      -0.562549       -15.3077
 180   2.0000      -0.560898       -15.2628
 181   2.0000      -0.556138       -15.1333
 182   2.0000      -0.554661       -15.0931
 183   2.0000      -0.552264       -15.0279
 184   2.0000      -0.549450       -14.9513
 185   2.0000      -0.547696       -14.9036
 186   2.0000      -0.547213       -14.8904
 187   2.0000      -0.543583       -14.7916
 188   2.0000      -0.542991       -14.7755
 189   2.0000      -0.541553       -14.7364
 190   2.0000      -0.539718       -14.6865
 191   2.0000      -0.537849       -14.6356
 192   2.0000      -0.536982       -14.6120
 193   2.0000      -0.536731       -14.6052
 194   2.0000      -0.532367       -14.4864
 195   2.0000      -0.525517       -14.3000
 196   2.0000      -0.522261       -14.2115
 197   2.0000      -0.520757       -14.1705
 198   2.0000      -0.515378       -14.0241
 199   2.0000      -0.513518       -13.9735
 200   2.0000      -0.511059       -13.9066
 201   2.0000      -0.510718       -13.8973
 202   2.0000      -0.508435       -13.8352
 203   2.0000      -0.506576       -13.7846
 204   2.0000      -0.501064       -13.6346
 205   2.0000      -0.498884       -13.5753
 206   2.0000      -0.496988       -13.5237
 207   2.0000      -0.493601       -13.4316
 208   2.0000      -0.491511       -13.3747
 209   2.0000      -0.488147       -13.2831
 210   2.0000      -0.487090       -13.2544
 211   2.0000      -0.483114       -13.1462
 212   2.0000      -0.482222       -13.1219
 213   2.0000      -0.479841       -13.0571
 214   2.0000      -0.478863       -13.0305
 215   2.0000      -0.476077       -12.9547
 216   2.0000      -0.472791       -12.8653
 217   2.0000      -0.470510       -12.8032
 218   2.0000      -0.468621       -12.7518
 219   2.0000      -0.467406       -12.7188
 220   2.0000      -0.463488       -12.6122
 221   2.0000      -0.462690       -12.5904
 222   2.0000      -0.460445       -12.5294
 223   2.0000      -0.459313       -12.4986
 224   2.0000      -0.458374       -12.4730
 225   2.0000      -0.458239       -12.4693
 226   2.0000      -0.456975       -12.4349
 227   2.0000      -0.454795       -12.3756
 228   2.0000      -0.454351       -12.3635
 229   2.0000      -0.452769       -12.3205
 230   2.0000      -0.452048       -12.3008
 231   2.0000      -0.450835       -12.2678
 232   2.0000      -0.450513       -12.2591
 233   2.0000      -0.449764       -12.2387
 234   2.0000      -0.448785       -12.2121
 235   2.0000      -0.446503       -12.1500
 236   2.0000      -0.446052       -12.1377
 237   2.0000      -0.439836       -11.9686
 238   2.0000      -0.438541       -11.9333
 239   2.0000      -0.436322       -11.8729
 240   2.0000      -0.434566       -11.8251
 241   2.0000      -0.433090       -11.7850
 242   2.0000      -0.431483       -11.7412
 243   2.0000      -0.431205       -11.7337
 244   2.0000      -0.430117       -11.7041
 245   2.0000      -0.429952       -11.6996
 246   2.0000      -0.429064       -11.6754
 247   2.0000      -0.426721       -11.6117
 248   2.0000      -0.421504       -11.4697
 249   2.0000      -0.419007       -11.4018
 250   2.0000      -0.415951       -11.3186
 251   2.0000      -0.415138       -11.2965
 252   2.0000      -0.413137       -11.2420
 253   2.0000      -0.407365       -11.0850
 254   2.0000      -0.396807       -10.7977
 255   2.0000      -0.390461       -10.6250
 256   2.0000      -0.388781       -10.5793
 257   2.0000      -0.385864       -10.4999
 258   2.0000      -0.372020       -10.1232
 259   2.0000      -0.360473        -9.8090
 260   2.0000      -0.356208        -9.6929
 261   2.0000      -0.351090        -9.5536
 262   2.0000      -0.347431        -9.4541
 263   2.0000      -0.338958        -9.2235
 264   2.0000      -0.334901        -9.1131
 265   2.0000      -0.328256        -8.9323
 266   2.0000      -0.324752        -8.8370
 267   2.0000      -0.312777        -8.5111
 268   2.0000      -0.311623        -8.4797
 269   2.0000      -0.309440        -8.4203
 270   2.0000      -0.299333        -8.1453
 271   2.0000      -0.286563        -7.7978
 272   2.0000      -0.277927        -7.5628
 273   2.0000      -0.242603        -6.6016
 274   0.0000      -0.141894        -3.8611
 275   0.0000      -0.120515        -3.2794
 276   0.0000      -0.092457        -2.5159
 277   0.0000      -0.089980        -2.4485
 278   0.0000      -0.088266        -2.4019

MULLIKEN ATOMIC CHARGES
-----------------------
   0 C :   -0.032606
   1 C :    0.045192
   2 C :    0.049287
   3 C :   -0.033896
   4 C :    0.009217
   5 C :    0.011250
   6 C :    0.302631
   7 C :   -0.338738
   8 C :   -0.189979
   9 N :    0.159039
  10 C :   -0.180364
  11 N :    0.159883
  12 C :   -0.061968
  13 C :    0.223883
  14 C :   -0.352798
  15 C :   -0.176691
  16 N :    0.183641
  17 C :   -0.187370
  18 N :    0.168858
  19 C :    0.037687
  20 C :    0.017950
  21 C :   -0.015054
  22 C :    0.012620
  23 C :    0.264619
  24 C :   -0.071531
  25 F :   -0.168425
  26 C :    0.020096
  27 C :   -0.072390
  28 C :    0.094501
  29 C :   -0.073644
  30 C :    0.263891
  31 F :   -0.166614
  32 C :    0.041986
  33 C :   -0.003590
  34 C :   -0.183033
  35 S :    0.177536
  36 C :   -0.127756
  37 C :    0.114045
  38 C :    0.104013
  39 C :   -0.081354
  40 C :    0.110847
  41 O :   -0.176465
  42 O :   -0.153794
  43 C :    0.017859
  44 C :   -0.049776
  45 C :    0.101300
  46 O :   -0.149612
  47 C :    0.089177
  48 C :   -0.069560
  49 C :    0.016366
  50 C :    0.259908
  51 C :   -0.096207
  52 F :   -0.169951
  53 C :    0.000798
  54 C :   -0.064699
  55 C :    0.084859
  56 C :   -0.055723
  57 C :    0.255070
  58 F :   -0.176504
  59 C :    0.033382
  60 C :   -0.013503
  61 C :    0.049387
  62 C :   -0.062052
  63 C :    0.294445
  64 C :   -0.346621
  65 C :   -0.181118
  66 N :    0.161429
  67 C :   -0.190530
  68 N :    0.164094
  69 C :    0.018974
  70 C :    0.001022
  71 C :   -0.031888
  72 C :    0.047189
  73 C :    0.048478
  74 C :   -0.036097
  75 C :    0.219669
  76 C :   -0.334011
  77 C :   -0.185244
  78 N :    0.166779
  79 C :   -0.187069
  80 N :    0.177880
  81 H :    0.006225
  82 H :    0.005191
  83 H :    0.004410
  84 H :    0.005665
  85 H :    0.022055
  86 H :    0.007262
  87 H :   -0.000229
  88 H :    0.000301
  89 H :   -0.012556
  90 H :    0.014273
  91 H :   -0.007402
  92 H :    0.187620
  93 H :    0.013907
  94 H :   -0.026105
  95 H :    0.197471
  96 H :   -0.015655
  97 H :    0.002310
  98 H :   -0.005504
  99 H :   -0.007626
 100 H :    0.010685
 101 H :    0.012993
 102 H :    0.026629
 103 H :    0.006870
 104 H :    0.005731
 105 H :    0.005282
 106 H :    0.007685
Sum of atomic charges:   -0.0000000

LOEWDIN ATOMIC CHARGES
----------------------
   0 C :    0.005482
   1 C :    0.001073
   2 C :    0.005049
   3 C :    0.000669
   4 C :   -0.010305
   5 C :   -0.014296
   6 C :    0.077440
   7 C :   -0.128536
   8 C :   -0.018632
   9 N :   -0.044631
  10 C :   -0.021266
  11 N :   -0.041476
  12 C :   -0.052322
  13 C :    0.063344
  14 C :   -0.121412
  15 C :   -0.019684
  16 N :   -0.041327
  17 C :   -0.019080
  18 N :   -0.042605
  19 C :    0.065821
  20 C :   -0.030224
  21 C :    0.017621
  22 C :   -0.010392
  23 C :    0.086358
  24 C :   -0.060213
  25 F :   -0.044548
  26 C :    0.023973
  27 C :   -0.045348
  28 C :    0.016078
  29 C :   -0.055928
  30 C :    0.088908
  31 F :   -0.042718
  32 C :    0.001011
  33 C :   -0.045443
  34 C :   -0.191451
  35 S :    0.510047
  36 C :   -0.142852
  37 C :   -0.056621
  38 C :   -0.034234
  39 C :   -0.105001
  40 C :    0.073387
  41 O :   -0.155888
  42 O :   -0.025986
  43 C :    0.036193
  44 C :   -0.085087
  45 C :    0.078576
  46 O :   -0.009780
  47 C :   -0.021317
  48 C :   -0.042063
  49 C :    0.010751
  50 C :    0.084038
  51 C :   -0.067820
  52 F :   -0.046051
  53 C :   -0.007467
  54 C :   -0.020900
  55 C :   -0.011566
  56 C :   -0.047304
  57 C :    0.080511
  58 F :   -0.053045
  59 C :    0.037241
  60 C :   -0.028663
  61 C :    0.057859
  62 C :   -0.053022
  63 C :    0.076978
  64 C :   -0.130877
  65 C :   -0.022154
  66 N :   -0.041979
  67 C :   -0.019066
  68 N :   -0.044516
  69 C :   -0.013038
  70 C :   -0.011414
  71 C :    0.001352
  72 C :    0.005296
  73 C :    0.002928
  74 C :    0.005333
  75 C :    0.063835
  76 C :   -0.130241
  77 C :   -0.021113
  78 N :   -0.044989
  79 C :   -0.017083
  80 N :   -0.038818
  81 H :    0.041663
  82 H :    0.037865
  83 H :    0.037749
  84 H :    0.040963
  85 H :    0.051300
  86 H :    0.033153
  87 H :    0.031644
  88 H :    0.030625
  89 H :    0.030279
  90 H :    0.042233
  91 H :    0.030685
  92 H :    0.090925
  93 H :    0.044985
  94 H :    0.031732
  95 H :    0.107430
  96 H :    0.018032
  97 H :    0.026123
  98 H :    0.027246
  99 H :    0.033816
 100 H :    0.037197
 101 H :    0.039894
 102 H :    0.049530
 103 H :    0.041141
 104 H :    0.038147
 105 H :    0.038259
 106 H :    0.042027

  Mayer bond orders larger than 0.100000
B(  0-C ,  1-C ) :   1.3705 B(  0-C ,  5-C ) :   1.3813 B(  0-C , 81-H ) :   0.9835
B(  1-C ,  2-C ) :   1.3771 B(  1-C , 82-H ) :   0.9868 B(  2-C ,  3-C ) :   1.3632
B(  2-C , 83-H ) :   0.9867 B(  3-C ,  4-C ) :   1.3842 B(  3-C , 84-H ) :   0.9873
B(  4-C ,  5-C ) :   1.3111 B(  4-C , 13-C ) :   1.0110 B(  5-C ,  6-C ) :   0.9982
B(  6-C ,  7-C ) :   1.6408 B(  6-C , 12-C ) :   1.0512 B(  7-C ,  8-C ) :   1.1460
B(  7-C , 10-C ) :   1.1365 B(  8-C ,  9-N ) :   2.9758 B( 10-C , 11-N ) :   2.9695
B( 12-C , 13-C ) :   1.0323 B( 12-C , 19-C ) :   1.5668 B( 13-C , 14-C ) :   1.6423
B( 14-C , 15-C ) :   1.1485 B( 14-C , 17-C ) :   1.1528 B( 15-C , 16-N ) :   3.0013
B( 17-C , 18-N ) :   2.9928 B( 19-C , 20-C ) :   1.1462 B( 19-C , 85-H ) :   0.9415
B( 20-C , 21-C ) :   1.4834 B( 20-C , 24-C ) :   1.0265 B( 21-C , 22-C ) :   1.1242
B( 21-C , 86-H ) :   1.0173 B( 22-C , 23-C ) :   1.0415 B( 22-C , 26-C ) :   1.4281
B( 23-C , 24-C ) :   1.6371 B( 23-C , 25-F ) :   1.1394 B( 24-C , 87-H ) :   1.0131
B( 26-C , 27-C ) :   1.1544 B( 26-C , 30-C ) :   1.0067 B( 27-C , 28-C ) :   1.4688
B( 27-C , 88-H ) :   1.0224 B( 28-C , 29-C ) :   1.0052 B( 28-C , 32-C ) :   1.2202
B( 29-C , 30-C ) :   1.6825 B( 29-C , 89-H ) :   1.0102 B( 30-C , 31-F ) :   1.1343
B( 32-C , 33-C ) :   1.5617 B( 32-C , 90-H ) :   0.9481 B( 33-C , 34-C ) :   1.1776
B( 33-C , 91-H ) :   0.9495 B( 34-C , 35-S ) :   1.1460 B( 34-C , 36-C ) :   0.1028
B( 34-C , 38-C ) :   1.2813 B( 35-S , 36-C ) :   1.1775 B( 36-C , 37-C ) :   1.2761
B( 36-C , 47-C ) :   1.1806 B( 37-C , 38-C ) :   1.2498 B( 37-C , 45-C ) :   1.1984
B( 38-C , 39-C ) :   1.2011 B( 39-C , 40-C ) :   0.9035 B( 39-C , 43-C ) :   1.5214
B( 40-C , 41-O ) :   2.1738 B( 40-C , 42-O ) :   1.2136 B( 42-O , 92-H ) :   0.9470
B( 43-C , 44-C ) :   1.2372 B( 43-C , 93-H ) :   0.9873 B( 44-C , 45-C ) :   1.4131
B( 44-C , 94-H ) :   0.9845 B( 45-C , 46-O ) :   1.2689 B( 46-O , 95-H ) :   0.9422
B( 47-C , 48-C ) :   1.5218 B( 47-C , 51-C ) :   0.9930 B( 48-C , 49-C ) :   1.1542
B( 48-C , 96-H ) :   1.0009 B( 49-C , 50-C ) :   1.0107 B( 49-C , 53-C ) :   1.4213
B( 50-C , 51-C ) :   1.6895 B( 50-C , 52-F ) :   1.1341 B( 51-C , 97-H ) :   0.9998
B( 53-C , 54-C ) :   1.1302 B( 53-C , 57-C ) :   1.0329 B( 54-C , 55-C ) :   1.4726
B( 54-C , 98-H ) :   1.0212 B( 55-C , 56-C ) :   1.0321 B( 55-C , 59-C ) :   1.1869
B( 56-C , 57-C ) :   1.6616 B( 56-C , 99-H ) :   1.0116 B( 57-C , 58-F ) :   1.1204
B( 59-C , 60-C ) :   1.5822 B( 59-C ,100-H ) :   0.9693 B( 60-C , 61-C ) :   1.1873
B( 60-C ,101-H ) :   0.9544 B( 61-C , 62-C ) :   1.5994 B( 61-C ,102-H ) :   0.9227
B( 62-C , 63-C ) :   1.0569 B( 62-C , 75-C ) :   1.0195 B( 63-C , 64-C ) :   1.6390
B( 63-C , 69-C ) :   0.9970 B( 64-C , 65-C ) :   1.1367 B( 64-C , 67-C ) :   1.1496
B( 65-C , 66-N ) :   2.9722 B( 67-C , 68-N ) :   2.9777 B( 69-C , 70-C ) :   1.3130
B( 69-C , 74-C ) :   1.3793 B( 70-C , 71-C ) :   1.3801 B( 70-C , 75-C ) :   1.0061
B( 71-C , 72-C ) :   1.3674 B( 71-C ,103-H ) :   0.9873 B( 72-C , 73-C ) :   1.3770
B( 72-C ,104-H ) :   0.9866 B( 73-C , 74-C ) :   1.3705 B( 73-C ,105-H ) :   0.9858
B( 74-C ,106-H ) :   0.9841 B( 75-C , 76-C ) :   1.6562 B( 76-C , 77-C ) :   1.1411
B( 76-C , 79-C ) :   1.1527 B( 77-C , 78-N ) :   2.9938 B( 79-C , 80-N ) :   3.0014

-----------------------------------------------------------------------------
         ABSORPTION SPECTRUM VIA TRANSITION ELECTRIC DIPOLE MOMENTS
-----------------------------------------------------------------------------
State   Energy  Wavelength   fosc         T2         TX        TY        TZ
        (cm-1)    (nm)                  (au**2)     (au)      (au)      (au)
-----------------------------------------------------------------------------
   0    8875.7   1126.7   1.712582567  63.52224   0.55812  -4.76021  -6.36798
   1   13052.7    766.1   0.132881083   3.35150  -0.07525  -1.73996   0.56426
   2   15465.7    646.6   0.074563911   1.58722  -0.51087   0.02537   1.15134
   3   16678.5    599.6   0.063958506   1.26246   0.23842   0.92946   0.58457
   4   18222.2    548.8   0.016272998   0.29400  -0.14781   0.46839  -0.22970
   5   19413.0    515.1   0.335907218   5.69643   0.37155  -1.31072  -1.95969
   6   20196.1    495.1   0.079733256   1.29971  -0.30931  -0.99196   0.46909
   7   21627.3    462.4   0.042631579   0.64894  -0.42030  -0.04946  -0.68545
   8   21645.6    462.0   0.140597358   2.13837   0.84927   0.17291  -1.17780
   9   21973.3    455.1   0.245165607   3.67315  -0.16933   1.45354   1.23762
  10   22181.8    450.8   0.111446210   1.65403  -0.09254  -1.11024  -0.64252
  11   23380.6    427.7   0.045197446   0.63640   0.00152   0.06689  -0.79494
  12   23742.9    421.2   0.022241841   0.30840  -0.07873   0.49693   0.23508
  13   24404.7    409.8   0.171436011   2.31262  -0.15798   0.91220   1.20647
  14   25228.2    396.4   0.046053995   0.60098   0.27736   0.28507   0.66542
  15   25669.4    389.6   0.073792469   0.94639  -0.38705  -0.86435  -0.22245
  16   25844.8    386.9   0.120108594   1.52995   0.03242   0.37193  -1.17922
  17   26455.0    378.0   0.268320867   3.33905  -0.31359  -1.20906  -1.33375
  18   26495.8    377.4   0.026309606   0.32690   0.04128  -0.52172  -0.23022
  19   27241.6    367.1   0.014118246   0.17062   0.24179   0.22358  -0.24933
  20   27565.7    362.8   0.066334856   0.79222  -0.47651  -0.65879  -0.36216
  21   28408.5    352.0   0.030799221   0.35692  -0.16969   0.47806   0.31556
  22   28586.2    349.8   0.022596399   0.26023   0.35935  -0.03085   0.36076
  23   29055.5    344.2   0.018980024   0.21505   0.32025  -0.24237  -0.23183
  24   29193.9    342.5   0.001740455   0.01963  -0.02317   0.07108  -0.11848
  25   29818.8    335.4   0.151449494   1.67207   0.38866   0.81619   0.92458
  26   30327.5    329.7   0.007516063   0.08159   0.00932  -0.00311   0.28547
  27   30795.6    324.7   0.038366412   0.41015   0.56204  -0.27850   0.12920
  28   30856.8    324.1   0.046641594   0.49762   0.42836   0.07069   0.55599
  29   31404.8    318.4   0.560787739   5.87865  -1.44613   1.13456   1.58118
  30   31716.2    315.3   0.246814326   2.56191   0.97627   1.26837  -0.00659
  31   31873.1    313.7   0.462667246   4.77881  -0.52058  -1.57997  -1.41827
  32   32245.4    310.1   0.080004599   0.81681  -0.76673   0.42682   0.21625
  33   32574.3    307.0   0.012761681   0.12898   0.33741  -0.06893   0.10189
  34   32744.5    305.4   0.018744052   0.18845   0.36399   0.23578   0.01918
  35   33239.0    300.9   0.038948786   0.38576  -0.42543   0.43276  -0.13226
  36   33575.9    297.8   0.050729315   0.49740   0.58306   0.08756  -0.38701
  37   33809.4    295.8   0.048541694   0.47266  -0.59485   0.00614   0.34464
  38   33887.1    295.1   0.049472535   0.48062  -0.00928  -0.56444  -0.40243
  39   34229.2    292.1   0.005098305   0.04903  -0.19186   0.10101  -0.04497
  40   34324.0    291.3   0.052316920   0.50179   0.61922   0.34336  -0.02120
  41   34596.2    289.0   0.045877496   0.43656  -0.36634  -0.48969  -0.25012
  42   34960.5    286.0   0.311337135   2.93176  -0.82652   0.59109  -1.37813
  43   35204.2    284.1   0.116924881   1.09342  -0.44270  -0.63530  -0.70273
  44   35319.3    283.1   0.020591850   0.19194   0.37471   0.13454   0.18283
  45   35457.4    282.0   0.364840525   3.38744  -0.57390  -1.25059  -1.22234
  46   35601.3    280.9   0.032607876   0.30153   0.28606   0.20112   0.42338
  47   35858.6    278.9   0.011990561   0.11008   0.03117  -0.26720  -0.19421
  48   36287.5    275.6   0.042410147   0.38476  -0.58337   0.14557  -0.15246
  49   36372.9    274.9   0.013387643   0.12117  -0.09516  -0.07457  -0.32643
  50   36649.5    272.9   0.026225916   0.23558  -0.18062  -0.40240  -0.20255
  51   36865.6    271.3   0.033657666   0.30057   0.20488  -0.48815   0.14246
  52   37224.6    268.6   0.033004905   0.29189  -0.13200   0.51596  -0.09086
  53   37503.3    266.6   0.009867349   0.08662   0.11817  -0.06124  -0.26249
  54   37602.7    265.9   0.004411091   0.03862  -0.08414   0.10098   0.14609
  55   37629.8    265.7   0.000578044   0.00506  -0.03661  -0.06071  -0.00560
  56   37802.5    264.5   0.000536464   0.00467   0.04001  -0.03163   0.04550
  57   37877.9    264.0   0.142209560   1.23600   0.60051   0.87306   0.33638
  58   38133.5    262.2   0.054175045   0.46770   0.14666  -0.50551   0.43663
  59   38627.5    258.9   0.101258064   0.86300   0.69916  -0.60347   0.10001
  60   38894.5    257.1   0.082989917   0.70245   0.60140  -0.35094   0.46648
  61   39036.5    256.2   0.044599483   0.37613  -0.20524  -0.30727   0.48948
  62   39392.1    253.9   0.007260332   0.06068   0.11789  -0.21251   0.04020
  63   39500.3    253.2   0.016451295   0.13711  -0.00113   0.36696   0.04948
  64   40082.8    249.5   0.012913091   0.10606   0.03224   0.25182  -0.20398
  65   40233.3    248.6   0.065960959   0.53973   0.45557  -0.42575  -0.38849

FINAL SINGLE POINT ENERGY     -3948.900194206940

DIPOLE MOMENT
-------------
                                X             Y             Z
Electronic contribution:     -7.38178       1.07628       7.87922
Nuclear contribution   :      7.42522      -2.09666      -7.98133
                        -----------------------------------------
Total Dipole Moment    :      0.04343      -1.02038      -0.10211
                        -----------------------------------------
Magnitude (a.u.)       :      1.02639
Magnitude (Debye)      :      2.60888

Rotational constants in cm-1:     0.001786     0.000152     0.000147
Rotational constants in MHz :    53.543203     4.542056     4.393853

                             ****ORCA TERMINATED NORMALLY****
TOTAL RUN TIME: 0 days 0 hours 13 minutes 17 seconds 402 msec
