                         Program Version 4.2.0 -  RELEASE  -
|  1> # ORCA input file
|  2> # SCF done       -192.754431028201          0.000939069311
|  3> ! CAM-B3LYP def2-SVP def2/J RIJCOSX Grid4 TightSCF
|  4> %maxcore 5000
|  5> %tddft
|  6>     Mode sTDDFT
|  7>     Ethresh 5.0
|  8>     maxcore 5000
|  9> end
| 10>
| 11> %pal
| 12>   nprocs 6
| 13>   end
| 14> * xyz 0 1
| 15>    C       -2.93882         4.10255         0.71358
| 16>    C       -3.27095         5.19183         1.50504
| 17>    C       -4.46048         5.22338         2.21896
| 18>    C       -5.34894         4.15983         2.16992
| 19>    C       -5.02741         3.06679         1.38330
| 20>    C       -3.82220         3.03647         0.64537
| 21>    C       -3.75909         1.78952        -0.10702
| 22>    C       -2.70103         1.36265        -0.86743
| 23>    C       -1.49299         2.07529        -1.01564
| 24>    N       -0.48456         2.59873        -1.18124
| 25>    C       -2.64672         0.14787        -1.58047
| 26>    N       -2.53479        -0.82300        -2.18486
| 27>    C       -5.03645         1.11825         0.08770
| 28>    C       -5.72568         1.80993         1.16869
| 29>    C       -6.64454         1.25302         2.01734
| 30>    C       -7.03498        -0.10162         1.95629
| 31>    N       -7.32376        -1.21225         1.97395
| 32>    C       -7.22119         1.93380         3.10774
| 33>    N       -7.72866         2.44525         4.00107
| 34>    C       -5.50471         0.09538        -0.69003
| 35>    C       -6.83769        -0.31663        -0.89475
| 36>    S       -8.21321         0.74902        -0.67243
| 37>    C       -9.27560        -0.45781        -1.25743
| 38>    C       -8.64379        -1.62033        -1.59464
| 39>    C       -7.24489        -1.53817        -1.41515
| 40>    C       -6.34348        -2.68603        -1.70129
| 41>    C       -7.00556        -3.65232        -2.68312
| 42>    C       -8.38340        -4.03520        -2.12392
| 43>    C       -9.32724        -2.83607        -2.12814
| 44>    C       -7.11014        -3.12600        -4.09836
| 45>    C       -6.63777        -1.95067        -4.50789
| 46>    C       -7.73497        -4.05689        -5.03322
| 47>    S       -7.27225        -5.72529        -4.92849
| 48>    C       -8.38015        -6.18530        -6.19008
| 49>    C       -9.03315        -5.07617        -6.68414
| 50>    C       -8.67603        -3.87150        -6.01777
| 51>    C       -9.31634        -2.54612        -6.36654
| 52>    N       -9.64707        -1.77436        -5.17293
| 53>    C      -10.60123        -2.78457        -7.15928
| 54>    C      -10.32395        -3.70733        -8.33246
| 55>    C      -10.00314        -5.12467        -7.83552
| 56>    N       -9.48093        -5.98554        -8.88831
| 57>    C       -8.46984        -7.59857        -6.40072
| 58>    C       -9.45600        -8.28458        -7.01008
| 59>    C       -9.59905        -9.70780        -7.03504
| 60>    S      -10.77849       -10.37805        -8.13575
| 61>    C      -10.47242       -11.96868        -7.57014
| 62>    C       -9.53128       -11.99689        -6.58623
| 63>    C       -9.02466       -10.71091        -6.28023
| 64>    C       -7.99183       -10.49511        -5.22032
| 65>    C       -7.77650       -11.73465        -4.33497
| 66>    C       -7.72304       -12.99071        -5.20180
| 67>    C       -9.08260       -13.22310        -5.85561
| 68>    C       -6.53283       -11.52627        -3.49647
| 69>    C       -5.39427       -12.20064        -3.66027
| 70>    C       -6.58896       -10.39768        -2.58271
| 71>    C       -6.06511       -10.27882        -1.34387
| 72>    C       -5.84633        -8.98854        -0.68120
| 73>    C       -6.49279        -7.81521        -0.94859
| 74>    C       -7.58520        -7.68237        -1.83425
| 75>    N       -8.49700        -7.51048        -2.51048
| 76>    C       -6.18434        -6.57890        -0.34341
| 77>    N       -5.97710        -5.53456         0.08504
| 78>    C       -4.81200        -9.20667         0.31499
| 79>    C       -4.54879       -10.59417         0.40900
| 80>    C       -3.59442       -11.07048         1.29431
| 81>    C       -2.90877       -10.15902         2.08217
| 82>    C       -3.17186        -8.79797         1.99628
| 83>    C       -4.12336        -8.30773         1.11593
| 84>    C       -5.42840       -11.29904        -0.50797
| 85>    C       -5.76096       -12.62173        -0.46074
| 86>    C       -5.15558       -13.55373         0.40913
| 87>    N       -4.68544       -14.35124         1.08653
| 88>    C       -6.80831       -13.19574        -1.21412
| 89>    N       -7.68594       -13.70865        -1.74568
| 90>    H       -2.01200         4.09854         0.16391
| 91>    H       -2.59201         6.02900         1.56167
| 92>    H       -4.69973         6.08648         2.82124
| 93>    H       -6.27330         4.19478         2.72361
| 94>    H       -4.78132        -0.43062        -1.30020
| 95>    H      -10.32411        -0.24115        -1.32080
| 96>    H       -6.15879        -3.22469        -0.76590
| 97>    H       -5.37142        -2.35319        -2.07114
| 98>    H       -6.39303        -4.56202        -2.73090
| 99>    H       -8.24579        -4.39399        -1.10189
|100>    H       -8.82359        -4.84525        -2.70538
|101>    H      -10.21285        -3.05319        -1.52775
|102>    H       -9.66398        -2.63476        -3.15083
|103>    H       -6.17608        -1.24064        -3.84612
|104>    H       -6.66936        -1.67002        -5.54769
|105>    H       -8.60984        -2.00011        -7.02592
|106>    H       -8.80582        -1.37813        -4.76553
|107>    H      -10.25880        -1.00635        -5.42961
|108>    H      -10.98941        -1.82584        -7.51228
|109>    H      -11.34472        -3.23127        -6.49652
|110>    H       -9.47171        -3.32385        -8.90304
|111>    H      -11.18644        -3.74692        -9.00208
|112>    H      -10.93794        -5.58441        -7.48119
|113>    H       -8.58293        -5.64152        -9.21027
|114>    H      -10.11607        -5.99626        -9.67877
|115>    H       -7.65942        -8.13406        -5.93172
|116>    H      -10.22747        -7.74455        -7.53363
|117>    H      -11.00872       -12.79463        -7.99356
|118>    H       -8.30902        -9.64599        -4.61039
|119>    H       -7.03750       -10.24088        -5.69631
|120>    H       -8.62641       -11.83143        -3.64951
|121>    H       -7.46693       -13.85320        -4.58537
|122>    H       -6.96532       -12.86981        -5.97901
|123>    H       -9.81751       -13.46790        -5.08234
|124>    H       -9.03490       -14.07168        -6.54109
|125>    H       -5.28686       -12.98590        -4.38461
|126>    H       -4.51361       -11.96466        -3.08448
|127>    H       -7.04516        -9.51062        -2.99982
|128>    H       -3.37760       -12.12401         1.36645
|129>    H       -2.15894       -10.51492         2.77187
|130>    H       -2.62628        -8.10873         2.62227
|131>    H       -4.31343        -7.24841         1.05709
|132> *
|133>
|134>                          ****END OF INPUT****

CARTESIAN COORDINATES (ANGSTROEM)
---------------------------------
  C     -2.938820    4.102550    0.713580
  C     -3.270950    5.191830    1.505040
  C     -4.460480    5.223380    2.218960
  C     -5.348940    4.159830    2.169920
  C     -5.027410    3.066790    1.383300
  C     -3.822200    3.036470    0.645370
  C     -3.759090    1.789520   -0.107020
  C     -2.701030    1.362650   -0.867430
  C     -1.492990    2.075290   -1.015640
  N     -0.484560    2.598730   -1.181240
  C     -2.646720    0.147870   -1.580470
  N     -2.534790   -0.823000   -2.184860
  C     -5.036450    1.118250    0.087700
  C     -5.725680    1.809930    1.168690
  C     -6.644540    1.253020    2.017340
  C     -7.034980   -0.101620    1.956290
  N     -7.323760   -1.212250    1.973950
  C     -7.221190    1.933800    3.107740
  N     -7.728660    2.445250    4.001070
  C     -5.504710    0.095380   -0.690030
  C     -6.837690   -0.316630   -0.894750
  S     -8.213210    0.749020   -0.672430
  C     -9.275600   -0.457810   -1.257430
  C     -8.643790   -1.620330   -1.594640
  C     -7.244890   -1.538170   -1.415150
  C     -6.343480   -2.686030   -1.701290
  C     -7.005560   -3.652320   -2.683120
  C     -8.383400   -4.035200   -2.123920
  C     -9.327240   -2.836070   -2.128140
  C     -7.110140   -3.126000   -4.098360
  C     -6.637770   -1.950670   -4.507890
  C     -7.734970   -4.056890   -5.033220
  S     -7.272250   -5.725290   -4.928490
  C     -8.380150   -6.185300   -6.190080
  C     -9.033150   -5.076170   -6.684140
  C     -8.676030   -3.871500   -6.017770
  C     -9.316340   -2.546120   -6.366540
  N     -9.647070   -1.774360   -5.172930
  C    -10.601230   -2.784570   -7.159280
  C    -10.323950   -3.707330   -8.332460
  C    -10.003140   -5.124670   -7.835520
  N     -9.480930   -5.985540   -8.888310
  C     -8.469840   -7.598570   -6.400720
  C     -9.456000   -8.284580   -7.010080
  C     -9.599050   -9.707800   -7.035040
  S    -10.778490  -10.378050   -8.135750
  C    -10.472420  -11.968680   -7.570140
  C     -9.531280  -11.996890   -6.586230
  C     -9.024660  -10.710910   -6.280230
  C     -7.991830  -10.495110   -5.220320
  C     -7.776500  -11.734650   -4.334970
  C     -7.723040  -12.990710   -5.201800
  C     -9.082600  -13.223100   -5.855610
  C     -6.532830  -11.526270   -3.496470
  C     -5.394270  -12.200640   -3.660270
  C     -6.588960  -10.397680   -2.582710
  C     -6.065110  -10.278820   -1.343870
  C     -5.846330   -8.988540   -0.681200
  C     -6.492790   -7.815210   -0.948590
  C     -7.585200   -7.682370   -1.834250
  N     -8.497000   -7.510480   -2.510480
  C     -6.184340   -6.578900   -0.343410
  N     -5.977100   -5.534560    0.085040
  C     -4.812000   -9.206670    0.314990
  C     -4.548790  -10.594170    0.409000
  C     -3.594420  -11.070480    1.294310
  C     -2.908770  -10.159020    2.082170
  C     -3.171860   -8.797970    1.996280
  C     -4.123360   -8.307730    1.115930
  C     -5.428400  -11.299040   -0.507970
  C     -5.760960  -12.621730   -0.460740
  C     -5.155580  -13.553730    0.409130
  N     -4.685440  -14.351240    1.086530
  C     -6.808310  -13.195740   -1.214120
  N     -7.685940  -13.708650   -1.745680
  H     -2.012000    4.098540    0.163910
  H     -2.592010    6.029000    1.561670
  H     -4.699730    6.086480    2.821240
  H     -6.273300    4.194780    2.723610
  H     -4.781320   -0.430620   -1.300200
  H    -10.324110   -0.241150   -1.320800
  H     -6.158790   -3.224690   -0.765900
  H     -5.371420   -2.353190   -2.071140
  H     -6.393030   -4.562020   -2.730900
  H     -8.245790   -4.393990   -1.101890
  H     -8.823590   -4.845250   -2.705380
  H    -10.212850   -3.053190   -1.527750
  H     -9.663980   -2.634760   -3.150830
  H     -6.176080   -1.240640   -3.846120
  H     -6.669360   -1.670020   -5.547690
  H     -8.609840   -2.000110   -7.025920
  H     -8.805820   -1.378130   -4.765530
  H    -10.258800   -1.006350   -5.429610
  H    -10.989410   -1.825840   -7.512280
  H    -11.344720   -3.231270   -6.496520
  H     -9.471710   -3.323850   -8.903040
  H    -11.186440   -3.746920   -9.002080
  H    -10.937940   -5.584410   -7.481190
  H     -8.582930   -5.641520   -9.210270
  H    -10.116070   -5.996260   -9.678770
  H     -7.659420   -8.134060   -5.931720
  H    -10.227470   -7.744550   -7.533630
  H    -11.008720  -12.794630   -7.993560
  H     -8.309020   -9.645990   -4.610390
  H     -7.037500  -10.240880   -5.696310
  H     -8.626410  -11.831430   -3.649510
  H     -7.466930  -13.853200   -4.585370
  H     -6.965320  -12.869810   -5.979010
  H     -9.817510  -13.467900   -5.082340
  H     -9.034900  -14.071680   -6.541090
  H     -5.286860  -12.985900   -4.384610
  H     -4.513610  -11.964660   -3.084480
  H     -7.045160   -9.510620   -2.999820
  H     -3.377600  -12.124010    1.366450
  H     -2.158940  -10.514920    2.771870
  H     -2.626280   -8.108730    2.622270
  H     -4.313430   -7.248410    1.057090

 Total Charge           Charge          ....    0
 Multiplicity           Mult            ....    1
 Number of Electrons    NEL             ....  532
 Basis Dimension        Dim             .... 1272

ORBITAL ENERGIES
----------------

  NO   OCC          E(Eh)            E(eV)
   0   2.0000     -88.958391     -2420.6809
   1   2.0000     -88.937260     -2420.1059
   2   2.0000     -88.936574     -2420.0872
   3   2.0000     -14.434348      -392.7786
   4   2.0000     -14.432477      -392.7277
   5   2.0000     -14.429837      -392.6558
   6   2.0000     -14.428160      -392.6102
   7   2.0000     -14.418223      -392.3398
   8   2.0000     -14.414239      -392.2314
   9   2.0000     -14.413322      -392.2064
  10   2.0000     -14.409866      -392.1124
  11   2.0000     -14.382129      -391.3576
  12   2.0000     -14.379364      -391.2824
  13   2.0000     -10.361478      -281.9502
  14   2.0000     -10.361082      -281.9394
  15   2.0000     -10.359231      -281.8890
  16   2.0000     -10.356684      -281.8197
  17   2.0000     -10.342658      -281.4380
  18   2.0000     -10.342259      -281.4272
  19   2.0000     -10.341546      -281.4078
  20   2.0000     -10.338189      -281.3164
  21   2.0000     -10.336851      -281.2800
  22   2.0000     -10.333361      -281.1850
  23   2.0000     -10.331367      -281.1308
  24   2.0000     -10.330318      -281.1022
  25   2.0000     -10.329547      -281.0813
  26   2.0000     -10.328313      -281.0477
  27   2.0000     -10.323768      -280.9240
  28   2.0000     -10.323307      -280.9115
  29   2.0000     -10.321347      -280.8581
  30   2.0000     -10.321054      -280.8502
  31   2.0000     -10.316675      -280.7310
  32   2.0000     -10.316541      -280.7274
  33   2.0000     -10.311744      -280.5968
  34   2.0000     -10.310990      -280.5763
  35   2.0000     -10.310655      -280.5672
  36   2.0000     -10.309459      -280.5346
  37   2.0000     -10.308695      -280.5139
  38   2.0000     -10.306583      -280.4564
  39   2.0000     -10.306546      -280.4554
  40   2.0000     -10.306202      -280.4460
  41   2.0000     -10.303697      -280.3779
  42   2.0000     -10.302410      -280.3428
  43   2.0000     -10.300424      -280.2888
  44   2.0000     -10.296435      -280.1802
  45   2.0000     -10.295328      -280.1501
  46   2.0000     -10.295097      -280.1438
  47   2.0000     -10.294633      -280.1312
  48   2.0000     -10.294213      -280.1198
  49   2.0000     -10.293627      -280.1038
  50   2.0000     -10.291457      -280.0448
  51   2.0000     -10.286732      -279.9162
  52   2.0000     -10.284877      -279.8657
  53   2.0000     -10.282520      -279.8016
  54   2.0000     -10.281662      -279.7782
  55   2.0000     -10.281439      -279.7722
  56   2.0000     -10.281014      -279.7606
  57   2.0000     -10.274047      -279.5710
  58   2.0000     -10.273743      -279.5627
  59   2.0000     -10.272266      -279.5226
  60   2.0000     -10.271058      -279.4897
  61   2.0000     -10.265144      -279.3288
  62   2.0000     -10.264875      -279.3215
  63   2.0000     -10.263595      -279.2866
  64   2.0000     -10.263307      -279.2788
  65   2.0000     -10.262699      -279.2622
  66   2.0000     -10.262638      -279.2606
  67   2.0000     -10.262542      -279.2580
  68   2.0000     -10.261771      -279.2370
  69   2.0000     -10.261226      -279.2221
  70   2.0000     -10.260799      -279.2105
  71   2.0000     -10.260230      -279.1950
  72   2.0000     -10.257635      -279.1244
  73   2.0000     -10.248028      -278.8630
  74   2.0000     -10.247468      -278.8478
  75   2.0000      -8.053781      -219.1545
  76   2.0000      -8.032806      -218.5838
  77   2.0000      -8.032500      -218.5754
  78   2.0000      -6.023111      -163.8972
  79   2.0000      -6.018891      -163.7824
  80   2.0000      -6.015881      -163.7004
  81   2.0000      -6.001912      -163.3203
  82   2.0000      -6.001685      -163.3142
  83   2.0000      -5.997985      -163.2135
  84   2.0000      -5.997586      -163.2026
  85   2.0000      -5.995079      -163.1344
  86   2.0000      -5.994831      -163.1277
  87   2.0000      -1.046329       -28.4721
  88   2.0000      -1.029623       -28.0175
  89   2.0000      -1.028486       -27.9865
  90   2.0000      -1.017222       -27.6800
  91   2.0000      -1.011836       -27.5334
  92   2.0000      -1.011503       -27.5244
  93   2.0000      -1.007291       -27.4098
  94   2.0000      -1.000586       -27.2273
  95   2.0000      -0.995566       -27.0907
  96   2.0000      -0.993690       -27.0397
  97   2.0000      -0.992411       -27.0049
  98   2.0000      -0.987089       -26.8601
  99   2.0000      -0.974721       -26.5235
 100   2.0000      -0.969855       -26.3911
 101   2.0000      -0.968140       -26.3444
 102   2.0000      -0.956736       -26.0341
 103   2.0000      -0.952284       -25.9130
 104   2.0000      -0.951080       -25.8802
 105   2.0000      -0.943423       -25.6718
 106   2.0000      -0.933118       -25.3914
 107   2.0000      -0.925701       -25.1896
 108   2.0000      -0.905859       -24.6497
 109   2.0000      -0.899527       -24.4774
 110   2.0000      -0.896056       -24.3829
 111   2.0000      -0.886252       -24.1161
 112   2.0000      -0.883348       -24.0371
 113   2.0000      -0.877189       -23.8695
 114   2.0000      -0.876303       -23.8454
 115   2.0000      -0.864151       -23.5147
 116   2.0000      -0.860423       -23.4133
 117   2.0000      -0.857279       -23.3278
 118   2.0000      -0.846397       -23.0316
 119   2.0000      -0.838046       -22.8044
 120   2.0000      -0.820070       -22.3152
 121   2.0000      -0.812095       -22.0982
 122   2.0000      -0.810647       -22.0588
 123   2.0000      -0.806308       -21.9408
 124   2.0000      -0.801852       -21.8195
 125   2.0000      -0.799577       -21.7576
 126   2.0000      -0.794795       -21.6275
 127   2.0000      -0.784364       -21.3436
 128   2.0000      -0.776811       -21.1381
 129   2.0000      -0.761572       -20.7234
 130   2.0000      -0.750404       -20.4195
 131   2.0000      -0.729722       -19.8567
 132   2.0000      -0.724561       -19.7163
 133   2.0000      -0.724006       -19.7012
 134   2.0000      -0.721168       -19.6240
 135   2.0000      -0.713094       -19.4043
 136   2.0000      -0.711592       -19.3634
 137   2.0000      -0.708631       -19.2828
 138   2.0000      -0.700219       -19.0539
 139   2.0000      -0.698385       -19.0040
 140   2.0000      -0.691702       -18.8222
 141   2.0000      -0.685139       -18.6436
 142   2.0000      -0.681299       -18.5391
 143   2.0000      -0.676731       -18.4148
 144   2.0000      -0.670386       -18.2421
 145   2.0000      -0.666141       -18.1266
 146   2.0000      -0.662479       -18.0270
 147   2.0000      -0.659542       -17.9471
 148   2.0000      -0.649244       -17.6668
 149   2.0000      -0.648009       -17.6332
 150   2.0000      -0.632375       -17.2078
 151   2.0000      -0.630214       -17.1490
 152   2.0000      -0.618122       -16.8199
 153   2.0000      -0.617262       -16.7965
 154   2.0000      -0.612471       -16.6662
 155   2.0000      -0.606777       -16.5112
 156   2.0000      -0.602229       -16.3875
 157   2.0000      -0.597639       -16.2626
 158   2.0000      -0.591466       -16.0946
 159   2.0000      -0.588115       -16.0034
 160   2.0000      -0.582562       -15.8523
 161   2.0000      -0.579612       -15.7720
 162   2.0000      -0.574246       -15.6260
 163   2.0000      -0.571493       -15.5511
 164   2.0000      -0.568785       -15.4774
 165   2.0000      -0.563706       -15.3392
 166   2.0000      -0.555650       -15.1200
 167   2.0000      -0.555152       -15.1065
 168   2.0000      -0.551146       -14.9974
 169   2.0000      -0.550571       -14.9818
 170   2.0000      -0.548788       -14.9333
 171   2.0000      -0.546602       -14.8738
 172   2.0000      -0.542367       -14.7586
 173   2.0000      -0.539411       -14.6781
 174   2.0000      -0.538441       -14.6517
 175   2.0000      -0.533980       -14.5303
 176   2.0000      -0.532966       -14.5028
 177   2.0000      -0.532266       -14.4837
 178   2.0000      -0.523613       -14.2482
 179   2.0000      -0.523283       -14.2392
 180   2.0000      -0.519212       -14.1285
 181   2.0000      -0.516918       -14.0661
 182   2.0000      -0.513926       -13.9846
 183   2.0000      -0.510634       -13.8950
 184   2.0000      -0.505060       -13.7434
 185   2.0000      -0.504988       -13.7414
 186   2.0000      -0.503812       -13.7094
 187   2.0000      -0.499029       -13.5793
 188   2.0000      -0.495370       -13.4797
 189   2.0000      -0.495152       -13.4738
 190   2.0000      -0.492404       -13.3990
 191   2.0000      -0.489376       -13.3166
 192   2.0000      -0.487157       -13.2562
 193   2.0000      -0.486404       -13.2357
 194   2.0000      -0.483284       -13.1508
 195   2.0000      -0.479721       -13.0539
 196   2.0000      -0.479420       -13.0457
 197   2.0000      -0.477442       -12.9918
 198   2.0000      -0.475018       -12.9259
 199   2.0000      -0.472802       -12.8656
 200   2.0000      -0.468580       -12.7507
 201   2.0000      -0.467612       -12.7244
 202   2.0000      -0.467172       -12.7124
 203   2.0000      -0.464323       -12.6349
 204   2.0000      -0.462868       -12.5953
 205   2.0000      -0.462131       -12.5752
 206   2.0000      -0.459240       -12.4965
 207   2.0000      -0.458690       -12.4816
 208   2.0000      -0.457020       -12.4362
 209   2.0000      -0.455833       -12.4038
 210   2.0000      -0.454504       -12.3677
 211   2.0000      -0.452544       -12.3143
 212   2.0000      -0.451522       -12.2866
 213   2.0000      -0.449203       -12.2234
 214   2.0000      -0.447988       -12.1904
 215   2.0000      -0.446386       -12.1468
 216   2.0000      -0.445197       -12.1144
 217   2.0000      -0.443077       -12.0568
 218   2.0000      -0.442551       -12.0424
 219   2.0000      -0.441728       -12.0200
 220   2.0000      -0.439663       -11.9638
 221   2.0000      -0.438587       -11.9346
 222   2.0000      -0.437590       -11.9074
 223   2.0000      -0.433881       -11.8065
 224   2.0000      -0.431801       -11.7499
 225   2.0000      -0.430161       -11.7053
 226   2.0000      -0.427118       -11.6225
 227   2.0000      -0.425465       -11.5775
 228   2.0000      -0.423988       -11.5373
 229   2.0000      -0.423223       -11.5165
 230   2.0000      -0.422782       -11.5045
 231   2.0000      -0.422540       -11.4979
 232   2.0000      -0.421173       -11.4607
 233   2.0000      -0.413456       -11.2507
 234   2.0000      -0.411479       -11.1969
 235   2.0000      -0.409802       -11.1513
 236   2.0000      -0.407225       -11.0812
 237   2.0000      -0.406263       -11.0550
 238   2.0000      -0.405837       -11.0434
 239   2.0000      -0.403533       -10.9807
 240   2.0000      -0.401200       -10.9172
 241   2.0000      -0.398253       -10.8370
 242   2.0000      -0.396094       -10.7783
 243   2.0000      -0.394148       -10.7253
 244   2.0000      -0.393198       -10.6995
 245   2.0000      -0.385278       -10.4839
 246   2.0000      -0.383600       -10.4383
 247   2.0000      -0.381100       -10.3702
 248   2.0000      -0.378048       -10.2872
 249   2.0000      -0.371643       -10.1129
 250   2.0000      -0.366815        -9.9816
 251   2.0000      -0.360585        -9.8120
 252   2.0000      -0.344212        -9.3665
 253   2.0000      -0.337130        -9.1738
 254   2.0000      -0.333563        -9.0767
 255   2.0000      -0.328441        -8.9373
 256   2.0000      -0.316976        -8.6254
 257   2.0000      -0.310709        -8.4548
 258   2.0000      -0.310203        -8.4411
 259   2.0000      -0.304683        -8.2908
 260   2.0000      -0.301817        -8.2128
 261   2.0000      -0.294694        -8.0190
 262   2.0000      -0.292401        -7.9566
 263   2.0000      -0.288434        -7.8487
 264   2.0000      -0.271988        -7.4012
 265   2.0000      -0.233916        -6.3652
 266   0.0000      -0.097362        -2.6494
 267   0.0000      -0.095314        -2.5936
 268   0.0000      -0.086952        -2.3661
 269   0.0000      -0.081056        -2.2056
 270   0.0000      -0.020755        -0.5648

MULLIKEN ATOMIC CHARGES
-----------------------
   0 C :   -0.032797
   1 C :    0.044513
   2 C :    0.047275
   3 C :   -0.032447
   4 C :    0.006570
   5 C :    0.007806
   6 C :    0.304217
   7 C :   -0.353189
   8 C :   -0.186936
   9 N :    0.150235
  10 C :   -0.184946
  11 N :    0.148967
  12 C :   -0.075738
  13 C :    0.213622
  14 C :   -0.316800
  15 C :   -0.194679
  16 N :    0.180866
  17 C :   -0.185782
  18 N :    0.159700
  19 C :    0.028319
  20 C :   -0.199288
  21 S :    0.135373
  22 C :   -0.101811
  23 C :   -0.053610
  24 C :   -0.025114
  25 C :    0.187572
  26 C :   -0.093762
  27 C :    0.040793
  28 C :    0.158785
  29 C :   -0.068131
  30 C :   -0.015296
  31 C :   -0.166852
  32 S :    0.096779
  33 C :   -0.111084
  34 C :   -0.065934
  35 C :    0.041161
  36 C :    0.031576
  37 N :   -0.133352
  38 C :    0.035060
  39 C :    0.071858
  40 C :    0.055576
  41 N :   -0.175304
  42 C :    0.038396
  43 C :    0.086173
  44 C :   -0.160124
  45 S :    0.101894
  46 C :   -0.140177
  47 C :   -0.081278
  48 C :   -0.020743
  49 C :    0.098339
  50 C :   -0.048448
  51 C :    0.024410
  52 C :    0.186603
  53 C :   -0.096080
  54 C :    0.025503
  55 C :    0.023398
  56 C :   -0.046825
  57 C :    0.288564
  58 C :   -0.340175
  59 C :   -0.177060
  60 N :    0.169276
  61 C :   -0.162982
  62 N :    0.161779
  63 C :    0.010469
  64 C :    0.009541
  65 C :   -0.030656
  66 C :    0.049324
  67 C :    0.049565
  68 C :   -0.031597
  69 C :    0.230257
  70 C :   -0.320546
  71 C :   -0.192253
  72 N :    0.172336
  73 C :   -0.165370
  74 N :    0.172999
  75 H :    0.003603
  76 H :    0.002309
  77 H :    0.002360
  78 H :    0.005274
  79 H :    0.012995
  80 H :    0.022172
  81 H :    0.046934
  82 H :    0.021992
  83 H :    0.015260
  84 H :    0.010350
  85 H :    0.028317
  86 H :    0.000888
  87 H :    0.013724
  88 H :    0.014556
  89 H :    0.014271
  90 H :   -0.001916
  91 H :    0.090028
  92 H :    0.090478
  93 H :   -0.008678
  94 H :    0.008578
  95 H :   -0.016584
  96 H :   -0.009048
  97 H :    0.006942
  98 H :    0.090856
  99 H :    0.089388
 100 H :   -0.042847
 101 H :   -0.030088
 102 H :    0.004232
 103 H :    0.039309
 104 H :    0.027864
 105 H :    0.016458
 106 H :    0.015632
 107 H :    0.005335
 108 H :    0.019145
 109 H :    0.001056
 110 H :    0.035887
 111 H :    0.023391
 112 H :    0.030317
 113 H :    0.009320
 114 H :    0.009781
 115 H :    0.010410
 116 H :    0.011466
Sum of atomic charges:   -0.0000000

LOEWDIN ATOMIC CHARGES
----------------------
   0 C :    0.004233
   1 C :   -0.001821
   2 C :    0.002905
   3 C :    0.000058
   4 C :   -0.008451
   5 C :   -0.014610
   6 C :    0.082187
   7 C :   -0.143574
   8 C :   -0.019339
   9 N :   -0.054433
  10 C :   -0.019244
  11 N :   -0.054676
  12 C :   -0.076947
  13 C :    0.060527
  14 C :   -0.134876
  15 C :   -0.032113
  16 N :   -0.041979
  17 C :   -0.019403
  18 N :   -0.049490
  19 C :    0.056330
  20 C :   -0.200443
  21 S :    0.450268
  22 C :   -0.148168
  23 C :   -0.054400
  24 C :    0.009583
  25 C :   -0.021084
  26 C :   -0.028212
  27 C :   -0.022394
  28 C :   -0.033954
  29 C :   -0.023044
  30 C :   -0.064378
  31 C :   -0.172198
  32 S :    0.449236
  33 C :   -0.154612
  34 C :   -0.071625
  35 C :   -0.055385
  36 C :    0.021158
  37 N :   -0.087293
  38 C :   -0.030781
  39 C :   -0.040371
  40 C :    0.015794
  41 N :   -0.087366
  42 C :   -0.055332
  43 C :   -0.025183
  44 C :   -0.173232
  45 S :    0.425224
  46 C :   -0.198950
  47 C :   -0.067441
  48 C :   -0.061808
  49 C :   -0.022607
  50 C :   -0.018006
  51 C :   -0.021744
  52 C :   -0.019073
  53 C :   -0.022689
  54 C :   -0.009595
  55 C :    0.081707
  56 C :   -0.046821
  57 C :    0.083859
  58 C :   -0.130557
  59 C :   -0.022610
  60 N :   -0.035210
  61 C :   -0.007598
  62 N :   -0.037862
  63 C :   -0.014008
  64 C :   -0.009690
  65 C :    0.004439
  66 C :    0.008920
  67 C :    0.006856
  68 C :    0.007636
  69 C :    0.069929
  70 C :   -0.119969
  71 C :   -0.020083
  72 N :   -0.038193
  73 C :   -0.010759
  74 N :   -0.037282
  75 H :    0.040960
  76 H :    0.036590
  77 H :    0.036709
  78 H :    0.040606
  79 H :    0.047246
  80 H :    0.027280
  81 H :    0.050046
  82 H :    0.033634
  83 H :    0.024532
  84 H :    0.022656
  85 H :    0.024572
  86 H :    0.032554
  87 H :    0.027914
  88 H :    0.020370
  89 H :    0.023138
  90 H :    0.009351
  91 H :    0.049577
  92 H :    0.054525
  93 H :    0.019274
  94 H :    0.025492
  95 H :    0.016281
  96 H :    0.020436
  97 H :    0.023725
  98 H :    0.053805
  99 H :    0.051399
 100 H :    0.018096
 101 H :    0.024145
 102 H :    0.018341
 103 H :    0.033660
 104 H :    0.031022
 105 H :    0.034515
 106 H :    0.027140
 107 H :    0.020863
 108 H :    0.035726
 109 H :    0.031103
 110 H :    0.030122
 111 H :    0.024337
 112 H :    0.045024
 113 H :    0.042266
 114 H :    0.039857
 115 H :    0.040250
 116 H :    0.042977

  Mayer bond orders larger than 0.100000
B(  0-C ,  1-C ) :   1.3727 B(  0-C ,  5-C ) :   1.3820 B(  0-C , 75-H ) :   0.9829
B(  1-C ,  2-C ) :   1.3786 B(  1-C , 76-H ) :   0.9853 B(  2-C ,  3-C ) :   1.3638
B(  2-C , 77-H ) :   0.9862 B(  3-C ,  4-C ) :   1.3844 B(  3-C , 78-H ) :   0.9867
B(  4-C ,  5-C ) :   1.3158 B(  4-C , 13-C ) :   1.0104 B(  5-C ,  6-C ) :   0.9977
B(  6-C ,  7-C ) :   1.6229 B(  6-C , 12-C ) :   1.0726 B(  7-C ,  8-C ) :   1.1462
B(  7-C , 10-C ) :   1.1425 B(  8-C ,  9-N ) :   2.9738 B( 10-C , 11-N ) :   2.9823
B( 12-C , 13-C ) :   1.0237 B( 12-C , 19-C ) :   1.5742 B( 13-C , 14-C ) :   1.6552
B( 14-C , 15-C ) :   1.1480 B( 14-C , 17-C ) :   1.1459 B( 15-C , 16-N ) :   3.0174
B( 17-C , 18-N ) :   2.9949 B( 19-C , 20-C ) :   1.2114 B( 19-C , 79-H ) :   0.9257
B( 20-C , 21-S ) :   1.1018 B( 20-C , 24-C ) :   1.3989 B( 21-S , 22-C ) :   1.1752
B( 22-C , 23-C ) :   1.5316 B( 22-C , 80-H ) :   0.9687 B( 23-C , 24-C ) :   1.3215
B( 23-C , 28-C ) :   1.0200 B( 24-C , 25-C ) :   1.0678 B( 25-C , 26-C ) :   1.0609
B( 25-C , 81-H ) :   0.8750 B( 25-C , 82-H ) :   0.8900 B( 26-C , 27-C ) :   1.0518
B( 26-C , 29-C ) :   0.9723 B( 26-C , 83-H ) :   0.8887 B( 27-C , 28-C ) :   1.0975
B( 27-C , 84-H ) :   0.9398 B( 27-C , 85-H ) :   0.9143 B( 28-C , 86-H ) :   0.9075
B( 28-C , 87-H ) :   0.8604 B( 29-C , 30-C ) :   1.9940 B( 29-C , 31-C ) :   0.9829
B( 30-C , 88-H ) :   0.9260 B( 30-C , 89-H ) :   0.9330 B( 31-C , 32-S ) :   1.1366
B( 31-C , 33-C ) :   0.1017 B( 31-C , 35-C ) :   1.5964 B( 32-S , 33-C ) :   1.1311
B( 33-C , 34-C ) :   1.5318 B( 33-C , 42-C ) :   1.1121 B( 34-C , 35-C ) :   1.2994
B( 34-C , 40-C ) :   1.0018 B( 35-C , 36-C ) :   0.9531 B( 36-C , 37-N ) :   1.1326
B( 36-C , 38-C ) :   1.0755 B( 36-C , 90-H ) :   0.8969 B( 37-N , 87-H ) :   0.1513
B( 37-N , 91-H ) :   0.9322 B( 37-N , 92-H ) :   0.9545 B( 38-C , 39-C ) :   1.0675
B( 38-C , 93-H ) :   0.9243 B( 38-C , 94-H ) :   0.9319 B( 39-C , 40-C ) :   1.0681
B( 39-C , 95-H ) :   0.9228 B( 39-C , 96-H ) :   0.9253 B( 40-C , 41-N ) :   1.0949
B( 40-C , 97-H ) :   0.8722 B( 41-N , 98-H ) :   0.9634 B( 41-N , 99-H ) :   0.9701
B( 42-C , 43-C ) :   1.7317 B( 42-C ,100-H ) :   0.9292 B( 43-C , 44-C ) :   1.1300
B( 43-C ,101-H ) :   0.9329 B( 44-C , 45-S ) :   1.1342 B( 44-C , 48-C ) :   1.5094
B( 45-S , 46-C ) :   1.1534 B( 46-C , 47-C ) :   1.5600 B( 46-C ,102-H ) :   0.9720
B( 47-C , 48-C ) :   1.3065 B( 47-C , 52-C ) :   1.0230 B( 48-C , 49-C ) :   1.0604
B( 49-C , 50-C ) :   1.0385 B( 49-C ,103-H ) :   0.8920 B( 49-C ,104-H ) :   0.9027
B( 50-C , 51-C ) :   1.0653 B( 50-C , 53-C ) :   0.9583 B( 50-C ,105-H ) :   0.8966
B( 51-C , 52-C ) :   1.0977 B( 51-C ,106-H ) :   0.9257 B( 51-C ,107-H ) :   0.9274
B( 52-C ,108-H ) :   0.9098 B( 52-C ,109-H ) :   0.9192 B( 53-C , 54-C ) :   1.9628
B( 53-C , 55-C ) :   1.0150 B( 54-C ,110-H ) :   0.9373 B( 54-C ,111-H ) :   0.9399
B( 55-C , 56-C ) :   1.7550 B( 55-C ,112-H ) :   0.9186 B( 56-C , 57-C ) :   1.0147
B( 56-C , 69-C ) :   0.9813 B( 57-C , 58-C ) :   1.6497 B( 57-C , 63-C ) :   1.0126
B( 58-C , 59-C ) :   1.1519 B( 58-C , 61-C ) :   1.1563 B( 59-C , 60-N ) :   2.9106
B( 61-C , 62-N ) :   2.9054 B( 63-C , 64-C ) :   1.3063 B( 63-C , 68-C ) :   1.3733
B( 64-C , 65-C ) :   1.3798 B( 64-C , 69-C ) :   1.0140 B( 65-C , 66-C ) :   1.3713
B( 65-C ,113-H ) :   0.9870 B( 66-C , 67-C ) :   1.3704 B( 66-C ,114-H ) :   0.9866
B( 67-C , 68-C ) :   1.3770 B( 67-C ,115-H ) :   0.9860 B( 68-C ,116-H ) :   0.9851
B( 69-C , 70-C ) :   1.6916 B( 70-C , 71-C ) :   1.1355 B( 70-C , 73-C ) :   1.1583
B( 71-C , 72-N ) :   2.9962 B( 73-C , 74-N ) :   2.9690

-----------------------------------------------------------------------------
         ABSORPTION SPECTRUM VIA TRANSITION ELECTRIC DIPOLE MOMENTS
-----------------------------------------------------------------------------
State   Energy  Wavelength   fosc         T2         TX        TY        TZ
        (cm-1)    (nm)                  (au**2)     (au)      (au)      (au)
-----------------------------------------------------------------------------
   0   15370.7    650.6   0.000310184   0.00664  -0.02047  -0.07393  -0.02754
   1   17328.7    577.1   0.000151110   0.00287   0.01823  -0.03464   0.03659
   2   20859.2    479.4   0.004801081   0.07577  -0.03310   0.23540   0.13880
   3   21572.7    463.5   0.294303308   4.49124  -1.28097  -1.06450  -1.31042
   4   23427.3    426.9   0.305389086   4.29148  -1.93542  -0.49385   0.54931
   5   24188.2    413.4   0.002334699   0.03178  -0.03622  -0.11862  -0.12803
   6   26771.1    373.5   0.009008319   0.11078   0.20198  -0.24370   0.10290
   7   27066.5    369.5   0.019254850   0.23420  -0.37839   0.29076  -0.08048
   8   27363.8    365.4   0.131618262   1.58349  -0.00310  -0.99725   0.76745
   9   28021.6    356.9   0.182447860   2.14349  -0.43499   1.38963   0.15232
  10   28245.2    354.0   0.144200839   1.68074  -0.53288  -0.99092  -0.64409
  11   28900.4    346.0   0.000711276   0.00810   0.02547   0.08632   0.00117
  12   28908.6    345.9   0.005299382   0.06035   0.00501   0.07164   0.23493
  13   29115.6    343.5   0.327528324   3.70338  -0.81701  -1.58815  -0.71671
  14   29360.5    340.6   0.000115109   0.00129  -0.02352  -0.01135   0.02467
  15   29793.0    335.6   0.016920501   0.18697  -0.18487  -0.38862   0.04202
  16   30158.1    331.6   0.740128980   8.07941   0.76963   2.67265   0.58654
  17   30390.5    329.1   0.026205415   0.28388   0.05234   0.52914   0.03387
  18   30738.8    325.3   0.120425178   1.28975  -1.05432  -0.33837   0.25235
  19   31136.2    321.2   0.110901924   1.17260   0.00881   0.97467   0.47174
  20   31396.9    318.5   0.020186208   0.21166   0.39615   0.23335  -0.01653
  21   31760.0    314.9   0.245332625   2.54302  -0.16605  -1.29010  -0.92254
  22   32002.1    312.5   0.259084920   2.66526  -1.22955  -0.04807   1.07292
  23   32166.4    310.9   0.044192856   0.45230   0.15925  -0.44468   0.47874
  24   32569.7    307.0   0.363358281   3.67280  -0.05258   1.91538  -0.03693
  25   33018.4    302.9   0.002924927   0.02916   0.08805  -0.02963   0.14329
  26   33182.6    301.4   0.008642603   0.08575  -0.13689  -0.11210   0.23332
  27   34050.4    293.7   0.015393078   0.14883  -0.23983  -0.21001   0.21726
  28   34281.7    291.7   0.330874383   3.17743  -1.38104  -0.30154   1.08593
  29   34703.0    288.2   0.003196006   0.03032  -0.03517  -0.15413  -0.07299
  30   34913.6    286.4   0.310896250   2.93154   0.09793  -1.70660  -0.09735
  31   35179.9    284.3   0.361192343   3.38002   0.02677   1.79155   0.41190
  32   35229.2    283.9   0.001636677   0.01529   0.07508  -0.09645   0.01885
  33   35267.6    283.5   0.069464825   0.64843  -0.31771  -0.42007  -0.60913
  34   35288.0    283.4   0.007922758   0.07391   0.09369  -0.25348  -0.02974
  35   35613.8    280.8   0.588198341   5.43727   1.66801   0.68861   1.47676
  36   36856.8    271.3   0.001166655   0.01042   0.00149   0.10200   0.00381
  37   36919.4    270.9   0.000859826   0.00767  -0.04127  -0.04901   0.05969
  38   36993.9    270.3   0.000399221   0.00355  -0.01483  -0.05515   0.01706
  39   37486.0    266.8   0.000961478   0.00844   0.01586  -0.07423  -0.05180
  40   37547.9    266.3   0.000072016   0.00063  -0.00995  -0.01301   0.01906
  41   37731.8    265.0   0.003148591   0.02747   0.10194   0.06658   0.11246
  42   37804.1    264.5   0.000002046   0.00002   0.00322  -0.00006   0.00272
  43   38302.3    261.1   0.000228001   0.00196  -0.03089  -0.02927  -0.01220
  44   38414.3    260.3   0.000141383   0.00121  -0.00300  -0.03468   0.00011
  45   39089.5    255.8   0.000135561   0.00114  -0.00632  -0.03305   0.00311
  46   39291.8    254.5   0.001645572   0.01379   0.06858   0.09530   0.00164
  47   39345.5    254.2   0.002756997   0.02307   0.01659  -0.05390   0.14103
  48   39748.7    251.6   0.000001824   0.00002   0.00227   0.00315  -0.00021
  49   40073.5    249.5   0.015213514   0.12498  -0.09928   0.23645  -0.24335
  50   40175.6    248.9   0.000125745   0.00103  -0.01521  -0.00733  -0.02730

FINAL SINGLE POINT ENERGY     -4125.592791081134

DIPOLE MOMENT
-------------
                                X             Y             Z
Electronic contribution:     25.87114      18.18017      50.28221
Nuclear contribution   :    -25.93273     -17.87016     -51.86523
                        -----------------------------------------
Total Dipole Moment    :     -0.06159       0.31001      -1.58303
                        -----------------------------------------
Magnitude (a.u.)       :      1.61427
Magnitude (Debye)      :      4.10315

Rotational constants in cm-1:     0.001219     0.000460     0.000368
Rotational constants in MHz :    36.537755    13.784974    11.019634

                             ****ORCA TERMINATED NORMALLY****
TOTAL RUN TIME: 0 days 0 hours 13 minutes 10 seconds 702 msec
