                         Program Version 4.2.0 -  RELEASE  -
|  1> # ORCA input file
|  2> # SCF done       -175.851214693657          0.000450714201
|  3> ! CAM-B3LYP def2-SVP def2/J RIJCOSX Grid4 TightSCF
|  4> %maxcore 5000
|  5> %tddft
|  6>     Mode sTDDFT
|  7>     Ethresh 5.0
|  8>     maxcore 5000
|  9> end
| 10>
| 11> %pal
| 12>   nprocs 6
| 13>   end
| 14> * xyz 0 1
| 15>    C       -6.23337         2.48375         2.55089
| 16>    C       -6.72180         2.61926         1.25984
| 17>    C       -7.25852         1.53538         0.57968
| 18>    C       -7.33236         0.28496         1.17548
| 19>    C       -6.84932         0.13739         2.46463
| 20>    C       -6.29028         1.23761         3.15518
| 21>    C       -5.84256         0.79333         4.46899
| 22>    C       -5.33716         1.59359         5.46277
| 23>    C       -5.17780         2.99031         5.35489
| 24>    N       -5.02188         4.12783         5.33982
| 25>    C       -4.94252         1.14410         6.73809
| 26>    N       -4.60712         0.83729         7.79380
| 27>    C       -6.02516        -0.64823         4.50665
| 28>    C       -6.83449        -1.01548         3.35123
| 29>    C       -7.65546        -2.10485         3.26036
| 30>    C       -7.87488        -3.00769         4.32243
| 31>    N       -8.17038        -3.69855         5.19071
| 32>    C       -8.48725        -2.37136         2.15423
| 33>    N       -9.18249        -2.63235         1.27894
| 34>    C       -5.43350        -1.49394         5.40479
| 35>    C       -5.24642        -2.88016         5.24838
| 36>    N       -4.87355        -3.67371         6.34865
| 37>    C       -4.75597        -4.91243         5.86170
| 38>    N       -4.50359        -6.19868         6.14510
| 39>    C       -4.60120        -6.87161         4.90820
| 40>    N       -4.88836        -6.06343         3.90982
| 41>    C       -5.00663        -4.83828         4.46158
| 42>    N       -5.31230        -3.58072         4.12272
| 43>    C       -4.42981        -8.27658         4.83251
| 44>    C       -4.43196        -8.95107         3.65460
| 45>    C       -4.33209       -10.35457         3.50187
| 46>    N       -4.37062       -11.24177         4.56177
| 47>    C       -4.28594       -12.50421         4.07124
| 48>    C       -4.28216       -13.84696         4.42937
| 49>    C       -4.14210       -14.56666         3.23518
| 50>    N       -4.06150       -13.68239         2.17834
| 51>    C       -4.15877       -12.41627         2.65991
| 52>    C       -4.19714       -11.07125         2.30561
| 53>    C       -4.07692       -15.96701         3.02622
| 54>    C       -4.27069       -16.90383         3.98602
| 55>    C       -4.17300       -18.29570         3.73487
| 56>    N       -4.46416       -19.22872         4.75185
| 57>    C       -4.26066       -20.42978         4.18973
| 58>    N       -4.28585       -21.75587         4.36994
| 59>    C       -3.85611       -22.29990         3.14386
| 60>    N       -3.60019       -21.36612         2.23931
| 61>    C       -3.84434       -20.19742         2.84901
| 62>    N       -3.81150       -18.86922         2.60645
| 63>    C       -3.71371       -23.69029         2.97499
| 64>    C       -3.10442       -24.24336         1.88848
| 65>    C       -2.96702       -25.63224         1.72261
| 66>    C       -2.16794       -26.25234         0.79339
| 67>    C       -2.31549       -27.62045         0.32688
| 68>    C       -3.03106       -28.62849         0.92090
| 69>    C       -3.72704       -28.52076         2.14201
| 70>    N       -4.30917       -28.50954         3.13252
| 71>    C       -3.13516       -29.93722         0.40637
| 72>    N       -3.26392       -31.02017         0.04698
| 73>    C       -1.55644       -27.72512        -0.91399
| 74>    C       -0.86571       -26.51096        -1.13197
| 75>    C       -0.07980       -26.33827        -2.25842
| 76>    C        0.01476       -27.38280        -3.16651
| 77>    C       -0.65419       -28.57848        -2.95002
| 78>    C       -1.44407       -28.76337        -1.82461
| 79>    C       -1.12039       -25.63236         0.00031
| 80>    C       -0.34385       -24.56902         0.38393
| 81>    C        0.68873       -24.02776        -0.40862
| 82>    N        1.52823       -23.54088        -1.02199
| 83>    C       -0.37609       -23.99682         1.67396
| 84>    N       -0.29391       -23.56159         2.73311
| 85>    H       -5.81651         3.33594         3.06219
| 86>    H       -6.67887         3.58431         0.77826
| 87>    H       -7.62451         1.66485        -0.42745
| 88>    H       -7.74589        -0.55264         0.63763
| 89>    H       -4.98862        -1.07224         6.29525
| 90>    H       -4.82002        -3.35099         7.30139
| 91>    H       -4.29918        -6.62323         7.03433
| 92>    H       -4.29803        -8.78728         5.77734
| 93>    H       -4.52258        -8.36856         2.75020
| 94>    H       -4.51163       -10.98252         5.52146
| 95>    H       -4.35635       -14.26695         5.41157
| 96>    H       -3.96284       -13.95778         1.21620
| 97>    H       -4.13211       -10.63522         1.32948
| 98>    H       -3.86270       -16.31737         2.02632
| 99>    H       -4.51491       -16.61259         4.99737
|100>    H       -4.75871       -19.00498         5.68773
|101>    H       -4.49803       -22.28455         5.20000
|102>    H       -4.05149       -24.32494         3.78387
|103>    H       -2.73692       -23.56587         1.13158
|104>    H       -3.60065       -26.25366         2.34076
|105>    H        0.44116       -25.41187        -2.43851
|106>    H        0.61827       -27.26051        -4.05296
|107>    H       -0.56322       -29.37936        -3.66790
|108>    H       -1.95816       -29.69846        -1.67443
|109> *
|110>
|111>                          ****END OF INPUT****

CARTESIAN COORDINATES (ANGSTROEM)
---------------------------------
  C     -6.233370    2.483750    2.550890
  C     -6.721800    2.619260    1.259840
  C     -7.258520    1.535380    0.579680
  C     -7.332360    0.284960    1.175480
  C     -6.849320    0.137390    2.464630
  C     -6.290280    1.237610    3.155180
  C     -5.842560    0.793330    4.468990
  C     -5.337160    1.593590    5.462770
  C     -5.177800    2.990310    5.354890
  N     -5.021880    4.127830    5.339820
  C     -4.942520    1.144100    6.738090
  N     -4.607120    0.837290    7.793800
  C     -6.025160   -0.648230    4.506650
  C     -6.834490   -1.015480    3.351230
  C     -7.655460   -2.104850    3.260360
  C     -7.874880   -3.007690    4.322430
  N     -8.170380   -3.698550    5.190710
  C     -8.487250   -2.371360    2.154230
  N     -9.182490   -2.632350    1.278940
  C     -5.433500   -1.493940    5.404790
  C     -5.246420   -2.880160    5.248380
  N     -4.873550   -3.673710    6.348650
  C     -4.755970   -4.912430    5.861700
  N     -4.503590   -6.198680    6.145100
  C     -4.601200   -6.871610    4.908200
  N     -4.888360   -6.063430    3.909820
  C     -5.006630   -4.838280    4.461580
  N     -5.312300   -3.580720    4.122720
  C     -4.429810   -8.276580    4.832510
  C     -4.431960   -8.951070    3.654600
  C     -4.332090  -10.354570    3.501870
  N     -4.370620  -11.241770    4.561770
  C     -4.285940  -12.504210    4.071240
  C     -4.282160  -13.846960    4.429370
  C     -4.142100  -14.566660    3.235180
  N     -4.061500  -13.682390    2.178340
  C     -4.158770  -12.416270    2.659910
  C     -4.197140  -11.071250    2.305610
  C     -4.076920  -15.967010    3.026220
  C     -4.270690  -16.903830    3.986020
  C     -4.173000  -18.295700    3.734870
  N     -4.464160  -19.228720    4.751850
  C     -4.260660  -20.429780    4.189730
  N     -4.285850  -21.755870    4.369940
  C     -3.856110  -22.299900    3.143860
  N     -3.600190  -21.366120    2.239310
  C     -3.844340  -20.197420    2.849010
  N     -3.811500  -18.869220    2.606450
  C     -3.713710  -23.690290    2.974990
  C     -3.104420  -24.243360    1.888480
  C     -2.967020  -25.632240    1.722610
  C     -2.167940  -26.252340    0.793390
  C     -2.315490  -27.620450    0.326880
  C     -3.031060  -28.628490    0.920900
  C     -3.727040  -28.520760    2.142010
  N     -4.309170  -28.509540    3.132520
  C     -3.135160  -29.937220    0.406370
  N     -3.263920  -31.020170    0.046980
  C     -1.556440  -27.725120   -0.913990
  C     -0.865710  -26.510960   -1.131970
  C     -0.079800  -26.338270   -2.258420
  C      0.014760  -27.382800   -3.166510
  C     -0.654190  -28.578480   -2.950020
  C     -1.444070  -28.763370   -1.824610
  C     -1.120390  -25.632360    0.000310
  C     -0.343850  -24.569020    0.383930
  C      0.688730  -24.027760   -0.408620
  N      1.528230  -23.540880   -1.021990
  C     -0.376090  -23.996820    1.673960
  N     -0.293910  -23.561590    2.733110
  H     -5.816510    3.335940    3.062190
  H     -6.678870    3.584310    0.778260
  H     -7.624510    1.664850   -0.427450
  H     -7.745890   -0.552640    0.637630
  H     -4.988620   -1.072240    6.295250
  H     -4.820020   -3.350990    7.301390
  H     -4.299180   -6.623230    7.034330
  H     -4.298030   -8.787280    5.777340
  H     -4.522580   -8.368560    2.750200
  H     -4.511630  -10.982520    5.521460
  H     -4.356350  -14.266950    5.411570
  H     -3.962840  -13.957780    1.216200
  H     -4.132110  -10.635220    1.329480
  H     -3.862700  -16.317370    2.026320
  H     -4.514910  -16.612590    4.997370
  H     -4.758710  -19.004980    5.687730
  H     -4.498030  -22.284550    5.200000
  H     -4.051490  -24.324940    3.783870
  H     -2.736920  -23.565870    1.131580
  H     -3.600650  -26.253660    2.340760
  H      0.441160  -25.411870   -2.438510
  H      0.618270  -27.260510   -4.052960
  H     -0.563220  -29.379360   -3.667900
  H     -1.958160  -29.698460   -1.674430

 Total Charge           Charge          ....    0
 Multiplicity           Mult            ....    1
 Number of Electrons    NEL             ....  462
 Basis Dimension        Dim             .... 1100

ORBITAL ENERGIES
----------------

  NO   OCC          E(Eh)            E(eV)
   0   2.0000     -14.504122      -394.6772
   1   2.0000     -14.501023      -394.5929
   2   2.0000     -14.498259      -394.5177
   3   2.0000     -14.496433      -394.4680
   4   2.0000     -14.467763      -393.6878
   5   2.0000     -14.466071      -393.6418
   6   2.0000     -14.419181      -392.3659
   7   2.0000     -14.417806      -392.3285
   8   2.0000     -14.413957      -392.2237
   9   2.0000     -14.413866      -392.2212
  10   2.0000     -14.413311      -392.2061
  11   2.0000     -14.412489      -392.1838
  12   2.0000     -14.410790      -392.1375
  13   2.0000     -14.409654      -392.1066
  14   2.0000     -14.409046      -392.0901
  15   2.0000     -14.407750      -392.0548
  16   2.0000     -14.401170      -391.8758
  17   2.0000     -14.400646      -391.8615
  18   2.0000     -10.363267      -281.9988
  19   2.0000     -10.358742      -281.8757
  20   2.0000     -10.355021      -281.7745
  21   2.0000     -10.350888      -281.6620
  22   2.0000     -10.349721      -281.6302
  23   2.0000     -10.345973      -281.5282
  24   2.0000     -10.343742      -281.4675
  25   2.0000     -10.342791      -281.4417
  26   2.0000     -10.341373      -281.4031
  27   2.0000     -10.341267      -281.4002
  28   2.0000     -10.340739      -281.3858
  29   2.0000     -10.338047      -281.3126
  30   2.0000     -10.337797      -281.3058
  31   2.0000     -10.332515      -281.1620
  32   2.0000     -10.322516      -280.8899
  33   2.0000     -10.321024      -280.8493
  34   2.0000     -10.320726      -280.8412
  35   2.0000     -10.320658      -280.8394
  36   2.0000     -10.317259      -280.7469
  37   2.0000     -10.316957      -280.7387
  38   2.0000     -10.316320      -280.7213
  39   2.0000     -10.316285      -280.7204
  40   2.0000     -10.315873      -280.7092
  41   2.0000     -10.315173      -280.6901
  42   2.0000     -10.313609      -280.6476
  43   2.0000     -10.313412      -280.6422
  44   2.0000     -10.311985      -280.6034
  45   2.0000     -10.311854      -280.5998
  46   2.0000     -10.310656      -280.5672
  47   2.0000     -10.309100      -280.5249
  48   2.0000     -10.306595      -280.4567
  49   2.0000     -10.305941      -280.4389
  50   2.0000     -10.305596      -280.4295
  51   2.0000     -10.304837      -280.4089
  52   2.0000     -10.304000      -280.3861
  53   2.0000     -10.303435      -280.3707
  54   2.0000     -10.302138      -280.3354
  55   2.0000     -10.295530      -280.1556
  56   2.0000     -10.294640      -280.1314
  57   2.0000     -10.294439      -280.1259
  58   2.0000     -10.294270      -280.1213
  59   2.0000     -10.293758      -280.1074
  60   2.0000     -10.292991      -280.0865
  61   2.0000     -10.292915      -280.0845
  62   2.0000     -10.292159      -280.0639
  63   2.0000     -10.291473      -280.0452
  64   2.0000     -10.290759      -280.0258
  65   2.0000     -10.289404      -279.9889
  66   2.0000     -10.288975      -279.9772
  67   2.0000     -10.288604      -279.9671
  68   2.0000     -10.276806      -279.6461
  69   2.0000     -10.274419      -279.5812
  70   2.0000      -1.157720       -31.5032
  71   2.0000      -1.154135       -31.4056
  72   2.0000      -1.104868       -30.0650
  73   2.0000      -1.101500       -29.9734
  74   2.0000      -1.099021       -29.9059
  75   2.0000      -1.062560       -28.9137
  76   2.0000      -1.028703       -27.9924
  77   2.0000      -1.027195       -27.9514
  78   2.0000      -1.014173       -27.5970
  79   2.0000      -1.011603       -27.5271
  80   2.0000      -1.009500       -27.4699
  81   2.0000      -1.009295       -27.4643
  82   2.0000      -1.000482       -27.2245
  83   2.0000      -0.998400       -27.1678
  84   2.0000      -0.993935       -27.0463
  85   2.0000      -0.993600       -27.0372
  86   2.0000      -0.990588       -26.9553
  87   2.0000      -0.987303       -26.8659
  88   2.0000      -0.967429       -26.3251
  89   2.0000      -0.964795       -26.2534
  90   2.0000      -0.953957       -25.9585
  91   2.0000      -0.950898       -25.8753
  92   2.0000      -0.932933       -25.3864
  93   2.0000      -0.930233       -25.3129
  94   2.0000      -0.925601       -25.1869
  95   2.0000      -0.915613       -24.9151
  96   2.0000      -0.912073       -24.8188
  97   2.0000      -0.897559       -24.4238
  98   2.0000      -0.887808       -24.1585
  99   2.0000      -0.884170       -24.0595
 100   2.0000      -0.880244       -23.9527
 101   2.0000      -0.872026       -23.7290
 102   2.0000      -0.869472       -23.6595
 103   2.0000      -0.859814       -23.3967
 104   2.0000      -0.857487       -23.3334
 105   2.0000      -0.843113       -22.9423
 106   2.0000      -0.829145       -22.5622
 107   2.0000      -0.811828       -22.0910
 108   2.0000      -0.797882       -21.7115
 109   2.0000      -0.784231       -21.3400
 110   2.0000      -0.781770       -21.2731
 111   2.0000      -0.776183       -21.1210
 112   2.0000      -0.762318       -20.7437
 113   2.0000      -0.744929       -20.2705
 114   2.0000      -0.743473       -20.2309
 115   2.0000      -0.731854       -19.9148
 116   2.0000      -0.713689       -19.4205
 117   2.0000      -0.711323       -19.3561
 118   2.0000      -0.709817       -19.3151
 119   2.0000      -0.706816       -19.2334
 120   2.0000      -0.705001       -19.1841
 121   2.0000      -0.702064       -19.1041
 122   2.0000      -0.701786       -19.0966
 123   2.0000      -0.700650       -19.0657
 124   2.0000      -0.699105       -19.0236
 125   2.0000      -0.698241       -19.0001
 126   2.0000      -0.692236       -18.8367
 127   2.0000      -0.685606       -18.6563
 128   2.0000      -0.673780       -18.3345
 129   2.0000      -0.663685       -18.0598
 130   2.0000      -0.661337       -17.9959
 131   2.0000      -0.659175       -17.9371
 132   2.0000      -0.657900       -17.9024
 133   2.0000      -0.652595       -17.7580
 134   2.0000      -0.650433       -17.6992
 135   2.0000      -0.639092       -17.3906
 136   2.0000      -0.628546       -17.1036
 137   2.0000      -0.625235       -17.0135
 138   2.0000      -0.620404       -16.8820
 139   2.0000      -0.612562       -16.6687
 140   2.0000      -0.597356       -16.2549
 141   2.0000      -0.587426       -15.9847
 142   2.0000      -0.586764       -15.9666
 143   2.0000      -0.582071       -15.8389
 144   2.0000      -0.581597       -15.8261
 145   2.0000      -0.579117       -15.7586
 146   2.0000      -0.576923       -15.6989
 147   2.0000      -0.569673       -15.5016
 148   2.0000      -0.568201       -15.4615
 149   2.0000      -0.559820       -15.2335
 150   2.0000      -0.555142       -15.1062
 151   2.0000      -0.548080       -14.9140
 152   2.0000      -0.544388       -14.8135
 153   2.0000      -0.544120       -14.8063
 154   2.0000      -0.541807       -14.7433
 155   2.0000      -0.540116       -14.6973
 156   2.0000      -0.535841       -14.5810
 157   2.0000      -0.535794       -14.5797
 158   2.0000      -0.534644       -14.5484
 159   2.0000      -0.531585       -14.4652
 160   2.0000      -0.530660       -14.4400
 161   2.0000      -0.528355       -14.3773
 162   2.0000      -0.526614       -14.3299
 163   2.0000      -0.516350       -14.0506
 164   2.0000      -0.513890       -13.9837
 165   2.0000      -0.511036       -13.9060
 166   2.0000      -0.508725       -13.8431
 167   2.0000      -0.505456       -13.7542
 168   2.0000      -0.502733       -13.6801
 169   2.0000      -0.501016       -13.6333
 170   2.0000      -0.498107       -13.5542
 171   2.0000      -0.495333       -13.4787
 172   2.0000      -0.489732       -13.3263
 173   2.0000      -0.485287       -13.2053
 174   2.0000      -0.482049       -13.1172
 175   2.0000      -0.480395       -13.0722
 176   2.0000      -0.474692       -12.9170
 177   2.0000      -0.471275       -12.8240
 178   2.0000      -0.468273       -12.7424
 179   2.0000      -0.461548       -12.5594
 180   2.0000      -0.458256       -12.4698
 181   2.0000      -0.456704       -12.4275
 182   2.0000      -0.452273       -12.3070
 183   2.0000      -0.451781       -12.2936
 184   2.0000      -0.450733       -12.2651
 185   2.0000      -0.450484       -12.2583
 186   2.0000      -0.450358       -12.2549
 187   2.0000      -0.447410       -12.1746
 188   2.0000      -0.445513       -12.1230
 189   2.0000      -0.445172       -12.1138
 190   2.0000      -0.442917       -12.0524
 191   2.0000      -0.442695       -12.0464
 192   2.0000      -0.439857       -11.9691
 193   2.0000      -0.439551       -11.9608
 194   2.0000      -0.437649       -11.9090
 195   2.0000      -0.431282       -11.7358
 196   2.0000      -0.431178       -11.7330
 197   2.0000      -0.427482       -11.6324
 198   2.0000      -0.427288       -11.6271
 199   2.0000      -0.424022       -11.5382
 200   2.0000      -0.422415       -11.4945
 201   2.0000      -0.421245       -11.4627
 202   2.0000      -0.420442       -11.4408
 203   2.0000      -0.419994       -11.4286
 204   2.0000      -0.411766       -11.2047
 205   2.0000      -0.408756       -11.1228
 206   2.0000      -0.407746       -11.0953
 207   2.0000      -0.406375       -11.0580
 208   2.0000      -0.403869       -10.9898
 209   2.0000      -0.400094       -10.8871
 210   2.0000      -0.396724       -10.7954
 211   2.0000      -0.387351       -10.5404
 212   2.0000      -0.387116       -10.5340
 213   2.0000      -0.383564       -10.4373
 214   2.0000      -0.378254       -10.2928
 215   2.0000      -0.375136       -10.2080
 216   2.0000      -0.363195        -9.8830
 217   2.0000      -0.356040        -9.6884
 218   2.0000      -0.348630        -9.4867
 219   2.0000      -0.346569        -9.4306
 220   2.0000      -0.345414        -9.3992
 221   2.0000      -0.333747        -9.0817
 222   2.0000      -0.327721        -8.9177
 223   2.0000      -0.324586        -8.8324
 224   2.0000      -0.319674        -8.6988
 225   2.0000      -0.306100        -8.3294
 226   2.0000      -0.299140        -8.1400
 227   2.0000      -0.298611        -8.1256
 228   2.0000      -0.274871        -7.4796
 229   2.0000      -0.253015        -6.8849
 230   2.0000      -0.222151        -6.0450
 231   0.0000      -0.099397        -2.7047
 232   0.0000      -0.092727        -2.5232
 233   0.0000      -0.080954        -2.2029
 234   0.0000      -0.077217        -2.1012
 235   0.0000      -0.048877        -1.3300

MULLIKEN ATOMIC CHARGES
-----------------------
   0 C :   -0.034255
   1 C :    0.043673
   2 C :    0.050162
   3 C :   -0.032662
   4 C :    0.007351
   5 C :    0.006379
   6 C :    0.302756
   7 C :   -0.359238
   8 C :   -0.187285
   9 N :    0.151985
  10 C :   -0.173221
  11 N :    0.136867
  12 C :   -0.070366
  13 C :    0.251472
  14 C :   -0.283283
  15 C :   -0.173517
  16 N :    0.141277
  17 C :   -0.190924
  18 N :    0.151538
  19 C :    0.041693
  20 C :   -0.010343
  21 N :   -0.016962
  22 C :    0.031876
  23 N :   -0.050248
  24 C :    0.039909
  25 N :   -0.052907
  26 C :   -0.061615
  27 N :   -0.047218
  28 C :   -0.027737
  29 C :    0.043328
  30 C :    0.085688
  31 N :   -0.037938
  32 C :    0.116887
  33 C :   -0.165486
  34 C :    0.105918
  35 N :   -0.028449
  36 C :    0.113704
  37 C :   -0.147743
  38 C :    0.015395
  39 C :   -0.013859
  40 C :    0.043349
  41 N :   -0.055189
  42 C :    0.019543
  43 N :   -0.032301
  44 C :    0.038434
  45 N :   -0.036212
  46 C :   -0.079830
  47 N :   -0.054070
  48 C :    0.027391
  49 C :   -0.014511
  50 C :    0.032630
  51 C :   -0.063236
  52 C :    0.311379
  53 C :   -0.349757
  54 C :   -0.182403
  55 N :    0.143433
  56 C :   -0.187888
  57 N :    0.152236
  58 C :    0.007231
  59 C :    0.010264
  60 C :   -0.034333
  61 C :    0.048180
  62 C :    0.044424
  63 C :   -0.032925
  64 C :    0.235336
  65 C :   -0.320572
  66 C :   -0.184114
  67 N :    0.153490
  68 C :   -0.197781
  69 N :    0.163519
  70 H :    0.003121
  71 H :    0.000468
  72 H :    0.001733
  73 H :    0.006784
  74 H :   -0.009892
  75 H :    0.145143
  76 H :    0.134635
  77 H :   -0.058099
  78 H :    0.018398
  79 H :    0.121000
  80 H :   -0.040661
  81 H :    0.126793
  82 H :   -0.025940
  83 H :    0.001628
  84 H :   -0.036519
  85 H :    0.132910
  86 H :    0.136399
  87 H :   -0.006651
  88 H :    0.044847
  89 H :    0.012347
  90 H :    0.005038
  91 H :    0.002565
  92 H :    0.002529
  93 H :    0.003104
Sum of atomic charges:   -0.0000000

LOEWDIN ATOMIC CHARGES
----------------------
   0 C :    0.003563
   1 C :   -0.003005
   2 C :    0.003971
   3 C :    0.000793
   4 C :   -0.004740
   5 C :   -0.015759
   6 C :    0.081120
   7 C :   -0.145932
   8 C :   -0.019945
   9 N :   -0.054125
  10 C :   -0.015992
  11 N :   -0.064583
  12 C :   -0.052389
  13 C :    0.073599
  14 C :   -0.112397
  15 C :   -0.008591
  16 N :   -0.065971
  17 C :   -0.016372
  18 N :   -0.050734
  19 C :    0.027725
  20 C :   -0.004835
  21 N :    0.084663
  22 C :    0.015548
  23 N :    0.052969
  24 C :    0.044132
  25 N :   -0.116897
  26 C :   -0.043513
  27 N :   -0.080520
  28 C :   -0.093945
  29 C :    0.023737
  30 C :   -0.008766
  31 N :    0.066095
  32 C :   -0.011131
  33 C :   -0.093703
  34 C :   -0.001381
  35 N :    0.076625
  36 C :   -0.023637
  37 C :   -0.071885
  38 C :    0.006302
  39 C :   -0.065780
  40 C :    0.032873
  41 N :    0.052933
  42 C :    0.003081
  43 N :    0.069949
  44 C :    0.003378
  45 N :   -0.086903
  46 C :   -0.051259
  47 N :   -0.116729
  48 C :    0.014998
  49 C :   -0.021221
  50 C :    0.056466
  51 C :   -0.066559
  52 C :    0.079261
  53 C :   -0.139679
  54 C :   -0.018587
  55 N :   -0.056364
  56 C :   -0.019244
  57 N :   -0.052448
  58 C :   -0.014245
  59 C :   -0.009143
  60 C :    0.000343
  61 C :    0.002676
  62 C :   -0.001504
  63 C :    0.003900
  64 C :    0.069759
  65 C :   -0.130427
  66 C :   -0.018576
  67 N :   -0.048916
  68 C :   -0.019597
  69 N :   -0.048573
  70 H :    0.040558
  71 H :    0.036086
  72 H :    0.036530
  73 H :    0.041190
  74 H :    0.042638
  75 H :    0.102588
  76 H :    0.094428
  77 H :    0.013867
  78 H :    0.048953
  79 H :    0.085209
  80 H :    0.020993
  81 H :    0.093067
  82 H :    0.029423
  83 H :    0.039937
  84 H :    0.023268
  85 H :    0.093684
  86 H :    0.097189
  87 H :    0.035915
  88 H :    0.041958
  89 H :    0.043587
  90 H :    0.040725
  91 H :    0.036775
  92 H :    0.036655
  93 H :    0.040823

  Mayer bond orders larger than 0.100000
B(  0-C ,  1-C ) :   1.3718 B(  0-C ,  5-C ) :   1.3832 B(  0-C , 70-H ) :   0.9833
B(  1-C ,  2-C ) :   1.3782 B(  1-C , 71-H ) :   0.9856 B(  2-C ,  3-C ) :   1.3623
B(  2-C , 72-H ) :   0.9859 B(  3-C ,  4-C ) :   1.3878 B(  3-C , 73-H ) :   0.9862
B(  4-C ,  5-C ) :   1.3102 B(  4-C , 13-C ) :   1.0049 B(  5-C ,  6-C ) :   0.9998
B(  6-C ,  7-C ) :   1.6129 B(  6-C , 12-C ) :   1.0778 B(  7-C ,  8-C ) :   1.1487
B(  7-C , 10-C ) :   1.1453 B(  8-C ,  9-N ) :   2.9754 B( 10-C , 11-N ) :   2.9606
B( 12-C , 13-C ) :   1.0244 B( 12-C , 19-C ) :   1.5745 B( 13-C , 14-C ) :   1.6769
B( 14-C , 15-C ) :   1.1421 B( 14-C , 17-C ) :   1.1506 B( 15-C , 16-N ) :   2.9956
B( 17-C , 18-N ) :   2.9883 B( 19-C , 20-C ) :   1.1629 B( 19-C , 74-H ) :   0.9134
B( 20-C , 21-N ) :   1.1024 B( 20-C , 27-N ) :   1.5397 B( 21-N , 22-C ) :   1.3040
B( 21-N , 75-H ) :   0.9199 B( 22-C , 23-N ) :   1.2534 B( 22-C , 26-C ) :   1.1673
B( 23-N , 24-C ) :   1.0906 B( 23-N , 76-H ) :   0.9234 B( 24-C , 25-N ) :   1.6806
B( 24-C , 28-C ) :   1.1344 B( 25-N , 26-C ) :   1.3846 B( 26-C , 27-N ) :   1.4544
B( 28-C , 29-C ) :   1.6240 B( 28-C , 77-H ) :   0.9377 B( 29-C , 30-C ) :   1.1386
B( 29-C , 78-H ) :   0.9728 B( 30-C , 31-N ) :   1.1846 B( 30-C , 37-C ) :   1.3558
B( 31-N , 32-C ) :   1.1699 B( 31-N , 79-H ) :   0.9333 B( 32-C , 33-C ) :   1.2734
B( 32-C , 36-C ) :   1.3038 B( 33-C , 34-C ) :   1.3860 B( 33-C , 80-H ) :   1.0299
B( 34-C , 35-N ) :   1.1845 B( 34-C , 38-C ) :   1.0910 B( 35-N , 36-C ) :   1.1659
B( 35-N , 81-H ) :   0.9359 B( 36-C , 37-C ) :   1.2508 B( 37-C , 82-H ) :   1.0436
B( 38-C , 39-C ) :   1.6820 B( 38-C , 83-H ) :   0.9785 B( 39-C , 40-C ) :   1.1081
B( 39-C , 84-H ) :   0.9474 B( 40-C , 41-N ) :   1.0956 B( 40-C , 47-N ) :   1.6787
B( 41-N , 42-C ) :   1.2474 B( 41-N , 85-H ) :   0.9248 B( 42-C , 43-N ) :   1.2811
B( 42-C , 46-C ) :   1.1900 B( 43-N , 44-C ) :   1.0951 B( 43-N , 86-H ) :   0.9236
B( 44-C , 45-N ) :   1.5980 B( 44-C , 48-C ) :   1.1446 B( 45-N , 46-C ) :   1.4586
B( 46-C , 47-N ) :   1.3866 B( 48-C , 49-C ) :   1.5950 B( 48-C , 87-H ) :   0.9579
B( 49-C , 50-C ) :   1.1792 B( 49-C , 88-H ) :   0.9695 B( 50-C , 51-C ) :   1.5095
B( 50-C , 89-H ) :   0.9478 B( 51-C , 52-C ) :   1.0668 B( 51-C , 64-C ) :   1.0459
B( 52-C , 53-C ) :   1.6183 B( 52-C , 58-C ) :   0.9957 B( 53-C , 54-C ) :   1.1438
B( 53-C , 56-C ) :   1.1482 B( 54-C , 55-N ) :   2.9654 B( 56-C , 57-N ) :   2.9734
B( 58-C , 59-C ) :   1.3138 B( 58-C , 63-C ) :   1.3865 B( 59-C , 60-C ) :   1.3883
B( 59-C , 64-C ) :   1.0079 B( 60-C , 61-C ) :   1.3609 B( 60-C , 90-H ) :   0.9856
B( 61-C , 62-C ) :   1.3818 B( 61-C , 91-H ) :   0.9859 B( 62-C , 63-C ) :   1.3681
B( 62-C , 92-H ) :   0.9852 B( 63-C , 93-H ) :   0.9832 B( 64-C , 65-C ) :   1.6283
B( 65-C , 66-C ) :   1.1452 B( 65-C , 68-C ) :   1.1485 B( 66-C , 67-N ) :   2.9871
B( 68-C , 69-N ) :   3.0107

-----------------------------------------------------------------------------
         ABSORPTION SPECTRUM VIA TRANSITION ELECTRIC DIPOLE MOMENTS
-----------------------------------------------------------------------------
State   Energy  Wavelength   fosc         T2         TX        TY        TZ
        (cm-1)    (nm)                  (au**2)     (au)      (au)      (au)
-----------------------------------------------------------------------------
   0   13853.3    721.9   2.981554161  70.85437  -1.65877   8.15128   1.28822
   1   16293.9    613.7   0.079466908   1.60560  -0.05093  -0.25007   1.24116
   2   19329.7    517.3   0.200288571   3.41119   0.87614   1.61470   0.19059
   3   19357.9    516.6   0.016886262   0.28718  -0.00715   0.31968   0.43004
   4   22039.3    453.7   0.027130851   0.40527  -0.22050   0.34265   0.48912
   5   22917.0    436.4   0.058705388   0.84333  -0.87931  -0.00394   0.26481
   6   24786.6    403.4   0.744532839   9.88877  -0.17111  -3.12656  -0.29000
   7   26391.1    378.9   0.075674195   0.94399   0.62258   0.70376  -0.24720
   8   26620.0    375.7   0.079849344   0.98750   0.62281   0.19316   0.74987
   9   27035.8    369.9   0.066124308   0.80519  -0.07695  -0.84153   0.30182
  10   27277.1    366.6   0.078892190   0.95216  -0.19223   0.87626   0.38391
  11   29440.7    339.7   0.016363895   0.18298   0.37494  -0.13999   0.15103
  12   30160.5    331.6   0.036722316   0.40084   0.20951   0.01245  -0.59732
  13   31154.1    321.0   0.307882172   3.25345  -0.90445  -1.56055   0.00946
  14   31287.3    319.6   0.055725570   0.58636   0.27830   0.68061  -0.21372
  15   31756.9    314.9   0.004428550   0.04591  -0.08043  -0.19803   0.01498
  16   31840.0    314.1   0.058353123   0.60335  -0.36028  -0.53004   0.43887
  17   31936.9    313.1   0.293690176   3.02742   0.65056   1.26489   1.00212
  18   32986.5    303.2   0.005598501   0.05587   0.00929   0.06017  -0.22840
  19   33169.5    301.5   0.102779479   1.02010  -0.54916  -0.76963   0.35523
  20   33395.8    299.4   0.259731066   2.56040   1.04456   1.06378  -0.58110
  21   33589.6    297.7   0.278540139   2.72998  -0.95366  -0.94389  -0.96414
  22   33956.2    294.5   0.109673633   1.06331  -0.37583  -0.72632  -0.62811
  23   34109.0    293.2   0.039211859   0.37846  -0.28481  -0.53625   0.09890
  24   34118.1    293.1   0.067584811   0.65214  -0.41937  -0.69011  -0.00370
  25   34465.8    290.1   0.073864334   0.70554  -0.00289   0.55296   0.63227
  26   34754.1    287.7   0.127237750   1.20527   0.03717   0.17845  -1.08261
  27   35113.5    284.8   0.145315391   1.36243   0.18223  -1.10985   0.31218
  28   35360.7    282.8   0.181658320   1.69126  -0.10455  -0.47470   1.20623
  29   36364.4    275.0   0.188343085   1.70510   0.41920  -0.76384  -0.97259
  30   37130.2    269.3   0.012460629   0.11048   0.03871   0.31649  -0.09390
  31   37875.3    264.0   0.002363198   0.02054   0.00262   0.01663  -0.14233
  32   38468.5    260.0   0.004299766   0.03680  -0.05440  -0.00486   0.18389
  33   38935.6    256.8   0.078584206   0.66445   0.17866  -0.32544  -0.72569
  34   39231.2    254.9   0.331944606   2.78554   0.59765   0.24727  -1.53858
  35   39450.7    253.5   0.033381333   0.27856  -0.37506  -0.13912   0.34429
  36   39591.0    252.6   0.026698381   0.22201  -0.33915   0.26824  -0.18717
  37   39920.3    250.5   0.027530947   0.22704   0.04923   0.11359  -0.46012
  38   40061.8    249.6   0.084797149   0.69683   0.02800   0.07968  -0.83048
  39   40303.6    248.1   0.001929541   0.01576   0.07805   0.01149  -0.09766

FINAL SINGLE POINT ENERGY     -2977.510527378319

DIPOLE MOMENT
-------------
                                X             Y             Z
Electronic contribution:     -2.17429       9.12977       8.44180
Nuclear contribution   :      2.13778      -9.59305      -6.21663
                        -----------------------------------------
Total Dipole Moment    :     -0.03651      -0.46328       2.22516
                        -----------------------------------------
Magnitude (a.u.)       :      2.27317
Magnitude (Debye)      :      5.77794

Rotational constants in cm-1:     0.003590     0.000142     0.000141
Rotational constants in MHz :   107.624412     4.270385     4.220849

                             ****ORCA TERMINATED NORMALLY****
TOTAL RUN TIME: 0 days 0 hours 11 minutes 22 seconds 614 msec
