                         Program Version 4.2.0 -  RELEASE  -
|  1> # ORCA input file
|  2> # SCF done       -209.627403192514          0.000841008377
|  3> ! CAM-B3LYP def2-SVP def2/J RIJCOSX Grid4 TightSCF
|  4> %maxcore 5000
|  5> %tddft
|  6>     Mode sTDDFT
|  7>     Ethresh 5.0
|  8>     maxcore 5000
|  9> end
| 10>
| 11> %pal
| 12>   nprocs 6
| 13>   end
| 14> * xyz 0 1
| 15>    C        1.40617        -3.08186        -2.74477
| 16>    C        1.07779        -3.30042        -1.43284
| 17>    C        2.00691        -3.24509        -0.37391
| 18>    N        2.73605        -3.23460         0.51224
| 19>    C       -0.24902        -3.49552        -0.98909
| 20>    N       -1.31173        -3.57366        -0.56386
| 21>    C        2.67805        -2.55286        -3.23252
| 22>    C        2.47902        -2.01226        -4.51690
| 23>    C        3.50346        -1.40040        -5.20995
| 24>    C        4.75735        -1.33648        -4.61405
| 25>    C        4.96501        -1.88381        -3.34241
| 26>    C        3.92808        -2.49046        -2.64133
| 27>   Cl        6.52346        -1.80972        -2.62647
| 28>   Cl        6.05684        -0.58311        -5.44537
| 29>    C        1.07530        -2.22963        -4.93492
| 30>    O        0.53455        -1.85539        -5.94800
| 31>    C        0.48234        -3.06670        -3.85712
| 32>    C       -0.69269        -3.72604        -4.06670
| 33>    C       -1.21000        -4.85079        -3.38311
| 34>    C       -2.52013        -5.27747        -3.43960
| 35>    C       -2.65989        -6.46365        -2.66021
| 36>    C       -1.31786        -6.74779        -2.15553
| 37>    C       -0.45243        -5.80888        -2.57119
| 38>    F       -1.02365        -7.81635        -1.40861
| 39>    C       -3.79643        -7.21366        -2.45182
| 40>    C       -3.93823        -8.41308        -1.70749
| 41>    C       -5.24163        -8.86468        -1.82332
| 42>    C       -5.98361        -7.91070        -2.65722
| 43>    C       -5.12859        -6.94546        -3.01700
| 44>    F       -5.40434        -5.88425        -3.77868
| 45>    C       -5.82242       -10.04563        -1.32654
| 46>    C       -5.22322       -10.91689        -0.46051
| 47>    C       -5.77272       -12.13935        -0.03096
| 48>    S       -5.33312       -12.73321         1.53757
| 49>    C       -6.47103       -14.03608         1.48315
| 50>    C       -7.18488       -14.00887         0.26568
| 51>    C       -6.73511       -12.98573        -0.62447
| 52>    C       -7.22410       -12.94613        -1.95517
| 53>    C       -6.51347       -12.21797        -3.04689
| 54>    O       -5.32015       -12.18774        -3.14913
| 55>    O       -7.30146       -11.63826        -3.97373
| 56>    C       -8.27064       -13.77954        -2.29356
| 57>    C       -8.84612       -14.64357        -1.36241
| 58>    C       -8.31417       -14.78809        -0.09793
| 59>    O       -8.85522       -15.62910         0.80177
| 60>    C       -6.51815       -14.92913         2.57789
| 61>    C       -6.17161       -14.61288         3.87881
| 62>    C       -6.33463       -15.76147         4.69652
| 63>    C       -6.73996       -16.82929         3.77631
| 64>    C       -6.86187       -16.35219         2.52912
| 65>    F       -6.93921       -18.09544         4.15596
| 66>    C       -6.20844       -15.86829         6.06514
| 67>    C       -6.44915       -17.00754         6.88210
| 68>    C       -6.26540       -16.66194         8.20872
| 69>    C       -5.87456       -15.24898         8.26280
| 70>    C       -5.84197       -14.80010         6.99875
| 71>    F       -5.53093       -13.56063         6.60247
| 72>    C       -6.45518       -17.52507         9.30639
| 73>    C       -6.35102       -17.16302        10.62048
| 74>    C       -6.59640       -18.08307        11.65704
| 75>    C       -6.56470       -17.78692        12.99548
| 76>    C       -6.82805       -18.69620        14.09281
| 77>    C       -7.11749       -20.03405        14.01182
| 78>    C       -7.36608       -20.86023        15.12894
| 79>    N       -7.57815       -21.58937        15.98948
| 80>    C       -7.20999       -20.78771        12.82254
| 81>    N       -7.30537       -21.47411        11.90683
| 82>    C       -6.72673       -17.93006        15.33407
| 83>    C       -6.39676       -16.59950        15.02391
| 84>    C       -6.27397       -16.44563        13.55834
| 85>    O       -5.99713       -15.42667        12.96312
| 86>    C       -6.23614       -15.64069        16.00306
| 87>    C       -6.41049       -16.01693        17.32898
| 88>    C       -6.74007       -17.33932        17.64803
| 89>    C       -6.89960       -18.30227        16.65743
| 90>   Cl       -6.95510       -17.79195        19.29022
| 91>   Cl       -6.22211       -14.85419        18.57783
| 92>    H        3.33269        -0.98213        -6.18930
| 93>    H        4.12073        -2.90417        -1.66461
| 94>    H       -1.26591        -3.38481        -4.92330
| 95>    H       -3.31879        -4.77439        -3.94845
| 96>    H        0.60590        -5.78936        -2.39986
| 97>    H       -3.14339        -8.89676        -1.17630
| 98>    H       -7.01993        -7.99911        -2.91865
| 99>    H       -6.83536       -10.24782        -1.64936
|100>    H       -4.29128       -10.62476         0.00367
|101>    H       -8.24352       -11.73629        -3.78009
|102>    H       -8.64737       -13.79935        -3.30678
|103>    H       -9.70082       -15.23982        -1.64988
|104>    H       -9.63337       -16.06750         0.43250
|105>    H       -5.88423       -13.64073         4.22943
|106>    H       -7.10306       -16.90606         1.64614
|107>    H       -6.74099       -17.97495         6.52273
|108>    H       -5.65526       -14.69411         9.15296
|109>    H       -6.72444       -18.54800         9.06855
|110>    H       -6.09306       -16.15092        10.89013
|111>    H       -6.83960       -19.09413        11.35600
|112>    H       -5.98262       -14.62545        15.74172
|113>    H       -7.15414       -19.30950        16.94322
|114> *
|115>
|116>                          ****END OF INPUT****

CARTESIAN COORDINATES (ANGSTROEM)
---------------------------------
  C      1.406170   -3.081860   -2.744770
  C      1.077790   -3.300420   -1.432840
  C      2.006910   -3.245090   -0.373910
  N      2.736050   -3.234600    0.512240
  C     -0.249020   -3.495520   -0.989090
  N     -1.311730   -3.573660   -0.563860
  C      2.678050   -2.552860   -3.232520
  C      2.479020   -2.012260   -4.516900
  C      3.503460   -1.400400   -5.209950
  C      4.757350   -1.336480   -4.614050
  C      4.965010   -1.883810   -3.342410
  C      3.928080   -2.490460   -2.641330
  Cl     6.523460   -1.809720   -2.626470
  Cl     6.056840   -0.583110   -5.445370
  C      1.075300   -2.229630   -4.934920
  O      0.534550   -1.855390   -5.948000
  C      0.482340   -3.066700   -3.857120
  C     -0.692690   -3.726040   -4.066700
  C     -1.210000   -4.850790   -3.383110
  C     -2.520130   -5.277470   -3.439600
  C     -2.659890   -6.463650   -2.660210
  C     -1.317860   -6.747790   -2.155530
  C     -0.452430   -5.808880   -2.571190
  F     -1.023650   -7.816350   -1.408610
  C     -3.796430   -7.213660   -2.451820
  C     -3.938230   -8.413080   -1.707490
  C     -5.241630   -8.864680   -1.823320
  C     -5.983610   -7.910700   -2.657220
  C     -5.128590   -6.945460   -3.017000
  F     -5.404340   -5.884250   -3.778680
  C     -5.822420  -10.045630   -1.326540
  C     -5.223220  -10.916890   -0.460510
  C     -5.772720  -12.139350   -0.030960
  S     -5.333120  -12.733210    1.537570
  C     -6.471030  -14.036080    1.483150
  C     -7.184880  -14.008870    0.265680
  C     -6.735110  -12.985730   -0.624470
  C     -7.224100  -12.946130   -1.955170
  C     -6.513470  -12.217970   -3.046890
  O     -5.320150  -12.187740   -3.149130
  O     -7.301460  -11.638260   -3.973730
  C     -8.270640  -13.779540   -2.293560
  C     -8.846120  -14.643570   -1.362410
  C     -8.314170  -14.788090   -0.097930
  O     -8.855220  -15.629100    0.801770
  C     -6.518150  -14.929130    2.577890
  C     -6.171610  -14.612880    3.878810
  C     -6.334630  -15.761470    4.696520
  C     -6.739960  -16.829290    3.776310
  C     -6.861870  -16.352190    2.529120
  F     -6.939210  -18.095440    4.155960
  C     -6.208440  -15.868290    6.065140
  C     -6.449150  -17.007540    6.882100
  C     -6.265400  -16.661940    8.208720
  C     -5.874560  -15.248980    8.262800
  C     -5.841970  -14.800100    6.998750
  F     -5.530930  -13.560630    6.602470
  C     -6.455180  -17.525070    9.306390
  C     -6.351020  -17.163020   10.620480
  C     -6.596400  -18.083070   11.657040
  C     -6.564700  -17.786920   12.995480
  C     -6.828050  -18.696200   14.092810
  C     -7.117490  -20.034050   14.011820
  C     -7.366080  -20.860230   15.128940
  N     -7.578150  -21.589370   15.989480
  C     -7.209990  -20.787710   12.822540
  N     -7.305370  -21.474110   11.906830
  C     -6.726730  -17.930060   15.334070
  C     -6.396760  -16.599500   15.023910
  C     -6.273970  -16.445630   13.558340
  O     -5.997130  -15.426670   12.963120
  C     -6.236140  -15.640690   16.003060
  C     -6.410490  -16.016930   17.328980
  C     -6.740070  -17.339320   17.648030
  C     -6.899600  -18.302270   16.657430
  Cl    -6.955100  -17.791950   19.290220
  Cl    -6.222110  -14.854190   18.577830
  H      3.332690   -0.982130   -6.189300
  H      4.120730   -2.904170   -1.664610
  H     -1.265910   -3.384810   -4.923300
  H     -3.318790   -4.774390   -3.948450
  H      0.605900   -5.789360   -2.399860
  H     -3.143390   -8.896760   -1.176300
  H     -7.019930   -7.999110   -2.918650
  H     -6.835360  -10.247820   -1.649360
  H     -4.291280  -10.624760    0.003670
  H     -8.243520  -11.736290   -3.780090
  H     -8.647370  -13.799350   -3.306780
  H     -9.700820  -15.239820   -1.649880
  H     -9.633370  -16.067500    0.432500
  H     -5.884230  -13.640730    4.229430
  H     -7.103060  -16.906060    1.646140
  H     -6.740990  -17.974950    6.522730
  H     -5.655260  -14.694110    9.152960
  H     -6.724440  -18.548000    9.068550
  H     -6.093060  -16.150920   10.890130
  H     -6.839600  -19.094130   11.356000
  H     -5.982620  -14.625450   15.741720
  H     -7.154140  -19.309500   16.943220

 Total Charge           Charge          ....    0
 Multiplicity           Mult            ....    1
 Number of Electrons    NEL             ....  564
 Basis Dimension        Dim             .... 1208

ORBITAL ENERGIES
----------------

  NO   OCC          E(Eh)            E(eV)
   0   2.0000    -101.601729     -2764.7236
   1   2.0000    -101.600117     -2764.6797
   2   2.0000    -101.599905     -2764.6740
   3   2.0000    -101.599255     -2764.6563
   4   2.0000     -88.991410     -2421.5794
   5   2.0000     -24.801841      -674.8924
   6   2.0000     -24.798217      -674.7938
   7   2.0000     -24.798040      -674.7890
   8   2.0000     -24.791350      -674.6069
   9   2.0000     -19.287739      -524.8460
  10   2.0000     -19.273240      -524.4515
  11   2.0000     -19.224457      -523.1241
  12   2.0000     -19.219858      -522.9989
  13   2.0000     -19.207491      -522.6624
  14   2.0000     -14.421806      -392.4373
  15   2.0000     -14.418895      -392.3581
  16   2.0000     -14.418799      -392.3555
  17   2.0000     -14.412929      -392.1957
  18   2.0000     -10.413233      -283.3585
  19   2.0000     -10.378374      -282.4099
  20   2.0000     -10.375152      -282.3222
  21   2.0000     -10.371194      -282.2145
  22   2.0000     -10.367120      -282.1037
  23   2.0000     -10.364968      -282.0451
  24   2.0000     -10.364514      -282.0328
  25   2.0000     -10.357884      -281.8523
  26   2.0000     -10.357454      -281.8406
  27   2.0000     -10.357091      -281.8308
  28   2.0000     -10.356640      -281.8185
  29   2.0000     -10.355872      -281.7976
  30   2.0000     -10.348641      -281.6008
  31   2.0000     -10.348367      -281.5934
  32   2.0000     -10.347107      -281.5591
  33   2.0000     -10.344799      -281.4963
  34   2.0000     -10.337515      -281.2981
  35   2.0000     -10.331880      -281.1448
  36   2.0000     -10.324327      -280.9392
  37   2.0000     -10.322501      -280.8895
  38   2.0000     -10.321378      -280.8590
  39   2.0000     -10.320662      -280.8395
  40   2.0000     -10.318861      -280.7905
  41   2.0000     -10.317847      -280.7629
  42   2.0000     -10.317641      -280.7573
  43   2.0000     -10.317598      -280.7561
  44   2.0000     -10.317594      -280.7560
  45   2.0000     -10.317110      -280.7428
  46   2.0000     -10.317054      -280.7413
  47   2.0000     -10.316940      -280.7382
  48   2.0000     -10.316218      -280.7186
  49   2.0000     -10.316032      -280.7135
  50   2.0000     -10.315101      -280.6882
  51   2.0000     -10.311021      -280.5772
  52   2.0000     -10.310399      -280.5602
  53   2.0000     -10.310167      -280.5539
  54   2.0000     -10.309825      -280.5446
  55   2.0000     -10.309545      -280.5370
  56   2.0000     -10.309177      -280.5270
  57   2.0000     -10.308402      -280.5059
  58   2.0000     -10.307280      -280.4753
  59   2.0000     -10.303096      -280.3615
  60   2.0000     -10.302435      -280.3435
  61   2.0000     -10.302363      -280.3416
  62   2.0000     -10.301921      -280.3295
  63   2.0000     -10.301388      -280.3150
  64   2.0000     -10.300966      -280.3035
  65   2.0000     -10.299536      -280.2646
  66   2.0000     -10.297787      -280.2170
  67   2.0000     -10.297357      -280.2053
  68   2.0000     -10.290882      -280.0291
  69   2.0000     -10.287535      -279.9381
  70   2.0000     -10.287451      -279.9358
  71   2.0000     -10.286659      -279.9142
  72   2.0000     -10.283264      -279.8218
  73   2.0000     -10.281410      -279.7714
  74   2.0000     -10.280598      -279.7493
  75   2.0000     -10.277507      -279.6652
  76   2.0000     -10.270016      -279.4614
  77   2.0000      -9.556765      -260.0528
  78   2.0000      -9.555120      -260.0080
  79   2.0000      -9.554958      -260.0036
  80   2.0000      -9.554255      -259.9845
  81   2.0000      -8.086505      -220.0450
  82   2.0000      -7.327129      -199.3813
  83   2.0000      -7.325531      -199.3378
  84   2.0000      -7.325350      -199.3329
  85   2.0000      -7.324674      -199.3145
  86   2.0000      -7.317036      -199.1067
  87   2.0000      -7.316309      -199.0869
  88   2.0000      -7.315368      -199.0613
  89   2.0000      -7.315209      -199.0570
  90   2.0000      -7.314636      -199.0414
  91   2.0000      -7.314502      -199.0377
  92   2.0000      -7.314484      -199.0372
  93   2.0000      -7.313772      -199.0179
  94   2.0000      -6.055360      -164.7747
  95   2.0000      -6.051266      -164.6633
  96   2.0000      -6.049484      -164.6148
  97   2.0000      -1.314958       -35.7818
  98   2.0000      -1.311713       -35.6935
  99   2.0000      -1.310707       -35.6661
 100   2.0000      -1.304383       -35.4941
 101   2.0000      -1.193817       -32.4854
 102   2.0000      -1.186941       -32.2983
 103   2.0000      -1.139191       -30.9990
 104   2.0000      -1.135268       -30.8922
 105   2.0000      -1.107916       -30.1479
 106   2.0000      -1.032935       -28.1076
 107   2.0000      -1.031665       -28.0730
 108   2.0000      -1.025369       -27.9017
 109   2.0000      -1.019340       -27.7377
 110   2.0000      -1.016322       -27.6555
 111   2.0000      -1.002078       -27.2679
 112   2.0000      -0.998786       -27.1783
 113   2.0000      -0.998304       -27.1652
 114   2.0000      -0.993495       -27.0344
 115   2.0000      -0.993438       -27.0328
 116   2.0000      -0.990500       -26.9529
 117   2.0000      -0.984204       -26.7815
 118   2.0000      -0.977435       -26.5973
 119   2.0000      -0.963153       -26.2087
 120   2.0000      -0.961858       -26.1735
 121   2.0000      -0.960610       -26.1395
 122   2.0000      -0.940226       -25.5848
 123   2.0000      -0.934340       -25.4247
 124   2.0000      -0.925009       -25.1708
 125   2.0000      -0.921602       -25.0781
 126   2.0000      -0.904433       -24.6109
 127   2.0000      -0.896449       -24.3936
 128   2.0000      -0.886418       -24.1207
 129   2.0000      -0.874681       -23.8013
 130   2.0000      -0.873378       -23.7658
 131   2.0000      -0.865697       -23.5568
 132   2.0000      -0.862624       -23.4732
 133   2.0000      -0.861143       -23.4329
 134   2.0000      -0.856001       -23.2930
 135   2.0000      -0.849236       -23.1089
 136   2.0000      -0.839256       -22.8373
 137   2.0000      -0.815908       -22.2020
 138   2.0000      -0.813762       -22.1436
 139   2.0000      -0.810470       -22.0540
 140   2.0000      -0.799754       -21.7624
 141   2.0000      -0.792171       -21.5561
 142   2.0000      -0.777823       -21.1657
 143   2.0000      -0.771024       -20.9806
 144   2.0000      -0.769358       -20.9353
 145   2.0000      -0.762573       -20.7507
 146   2.0000      -0.759287       -20.6613
 147   2.0000      -0.750985       -20.4353
 148   2.0000      -0.732904       -19.9433
 149   2.0000      -0.724794       -19.7226
 150   2.0000      -0.719800       -19.5868
 151   2.0000      -0.716110       -19.4863
 152   2.0000      -0.713179       -19.4066
 153   2.0000      -0.700098       -19.0506
 154   2.0000      -0.698505       -19.0073
 155   2.0000      -0.694911       -18.9095
 156   2.0000      -0.693651       -18.8752
 157   2.0000      -0.683690       -18.6041
 158   2.0000      -0.682127       -18.5616
 159   2.0000      -0.677414       -18.4334
 160   2.0000      -0.673616       -18.3300
 161   2.0000      -0.673051       -18.3147
 162   2.0000      -0.670053       -18.2331
 163   2.0000      -0.666967       -18.1491
 164   2.0000      -0.658227       -17.9113
 165   2.0000      -0.648220       -17.6390
 166   2.0000      -0.645450       -17.5636
 167   2.0000      -0.637252       -17.3405
 168   2.0000      -0.634058       -17.2536
 169   2.0000      -0.628534       -17.1033
 170   2.0000      -0.626082       -17.0365
 171   2.0000      -0.622772       -16.9465
 172   2.0000      -0.619431       -16.8556
 173   2.0000      -0.611812       -16.6483
 174   2.0000      -0.604511       -16.4496
 175   2.0000      -0.603577       -16.4242
 176   2.0000      -0.597885       -16.2693
 177   2.0000      -0.594883       -16.1876
 178   2.0000      -0.587975       -15.9996
 179   2.0000      -0.584858       -15.9148
 180   2.0000      -0.577003       -15.7010
 181   2.0000      -0.572762       -15.5857
 182   2.0000      -0.569373       -15.4934
 183   2.0000      -0.567691       -15.4477
 184   2.0000      -0.566395       -15.4124
 185   2.0000      -0.564040       -15.3483
 186   2.0000      -0.563714       -15.3394
 187   2.0000      -0.562160       -15.2971
 188   2.0000      -0.558725       -15.2037
 189   2.0000      -0.558019       -15.1845
 190   2.0000      -0.554197       -15.0805
 191   2.0000      -0.552886       -15.0448
 192   2.0000      -0.551452       -15.0058
 193   2.0000      -0.549672       -14.9573
 194   2.0000      -0.548587       -14.9278
 195   2.0000      -0.547707       -14.9039
 196   2.0000      -0.545828       -14.8527
 197   2.0000      -0.543295       -14.7838
 198   2.0000      -0.542303       -14.7568
 199   2.0000      -0.540820       -14.7165
 200   2.0000      -0.538862       -14.6632
 201   2.0000      -0.534948       -14.5567
 202   2.0000      -0.533630       -14.5208
 203   2.0000      -0.531601       -14.4656
 204   2.0000      -0.527928       -14.3656
 205   2.0000      -0.524485       -14.2720
 206   2.0000      -0.518249       -14.1023
 207   2.0000      -0.517139       -14.0721
 208   2.0000      -0.512771       -13.9532
 209   2.0000      -0.510300       -13.8860
 210   2.0000      -0.507623       -13.8131
 211   2.0000      -0.506882       -13.7930
 212   2.0000      -0.505657       -13.7596
 213   2.0000      -0.504516       -13.7286
 214   2.0000      -0.498918       -13.5762
 215   2.0000      -0.498555       -13.5664
 216   2.0000      -0.496859       -13.5202
 217   2.0000      -0.495072       -13.4716
 218   2.0000      -0.494072       -13.4444
 219   2.0000      -0.489134       -13.3100
 220   2.0000      -0.486364       -13.2346
 221   2.0000      -0.485421       -13.2090
 222   2.0000      -0.481573       -13.1043
 223   2.0000      -0.479579       -13.0500
 224   2.0000      -0.478719       -13.0266
 225   2.0000      -0.476855       -12.9759
 226   2.0000      -0.474565       -12.9136
 227   2.0000      -0.473569       -12.8865
 228   2.0000      -0.471038       -12.8176
 229   2.0000      -0.468627       -12.7520
 230   2.0000      -0.467723       -12.7274
 231   2.0000      -0.462786       -12.5930
 232   2.0000      -0.460586       -12.5332
 233   2.0000      -0.456308       -12.4168
 234   2.0000      -0.455054       -12.3826
 235   2.0000      -0.454589       -12.3700
 236   2.0000      -0.453368       -12.3368
 237   2.0000      -0.449024       -12.2186
 238   2.0000      -0.447913       -12.1883
 239   2.0000      -0.446949       -12.1621
 240   2.0000      -0.445332       -12.1181
 241   2.0000      -0.442462       -12.0400
 242   2.0000      -0.440164       -11.9775
 243   2.0000      -0.435710       -11.8563
 244   2.0000      -0.433930       -11.8078
 245   2.0000      -0.431594       -11.7443
 246   2.0000      -0.431130       -11.7316
 247   2.0000      -0.429869       -11.6973
 248   2.0000      -0.429074       -11.6757
 249   2.0000      -0.428152       -11.6506
 250   2.0000      -0.427888       -11.6434
 251   2.0000      -0.426137       -11.5958
 252   2.0000      -0.424126       -11.5410
 253   2.0000      -0.421324       -11.4648
 254   2.0000      -0.415753       -11.3132
 255   2.0000      -0.414416       -11.2768
 256   2.0000      -0.409548       -11.1444
 257   2.0000      -0.409059       -11.1311
 258   2.0000      -0.407321       -11.0838
 259   2.0000      -0.398102       -10.8329
 260   2.0000      -0.394037       -10.7223
 261   2.0000      -0.384060       -10.4508
 262   2.0000      -0.382773       -10.4158
 263   2.0000      -0.381566       -10.3829
 264   2.0000      -0.366415        -9.9707
 265   2.0000      -0.358867        -9.7653
 266   2.0000      -0.351046        -9.5525
 267   2.0000      -0.347496        -9.4559
 268   2.0000      -0.344285        -9.3685
 269   2.0000      -0.343115        -9.3366
 270   2.0000      -0.343004        -9.3336
 271   2.0000      -0.337035        -9.1712
 272   2.0000      -0.334222        -9.0946
 273   2.0000      -0.319699        -8.6995
 274   2.0000      -0.316306        -8.6071
 275   2.0000      -0.312298        -8.4981
 276   2.0000      -0.311041        -8.4638
 277   2.0000      -0.309808        -8.4303
 278   2.0000      -0.292215        -7.9516
 279   2.0000      -0.283701        -7.7199
 280   2.0000      -0.274518        -7.4700
 281   2.0000      -0.243293        -6.6203
 282   0.0000      -0.135223        -3.6796
 283   0.0000      -0.115784        -3.1507
 284   0.0000      -0.084994        -2.3128
 285   0.0000      -0.078377        -2.1327
 286   0.0000      -0.066686        -1.8146

MULLIKEN ATOMIC CHARGES
-----------------------
   0 C :    0.253306
   1 C :   -0.330581
   2 C :   -0.182191
   3 N :    0.165403
   4 C :   -0.201577
   5 N :    0.179624
   6 C :    0.020647
   7 C :   -0.001030
   8 C :   -0.028290
   9 C :    0.057237
  10 C :    0.052680
  11 C :   -0.016648
  12 Cl:   -0.036490
  13 Cl:   -0.042929
  14 C :    0.140445
  15 O :   -0.132551
  16 C :   -0.122704
  17 C :    0.038328
  18 C :    0.059013
  19 C :   -0.030470
  20 C :    0.006344
  21 C :    0.258800
  22 C :   -0.068216
  23 F :   -0.172605
  24 C :    0.015643
  25 C :   -0.075255
  26 C :    0.092776
  27 C :   -0.066054
  28 C :    0.261041
  29 F :   -0.170881
  30 C :    0.029969
  31 C :    0.065177
  32 C :   -0.137788
  33 S :    0.211012
  34 C :   -0.155866
  35 C :    0.111708
  36 C :    0.112219
  37 C :   -0.080282
  38 C :    0.127069
  39 O :   -0.158947
  40 O :   -0.158848
  41 C :   -0.016992
  42 C :   -0.068954
  43 C :    0.105384
  44 O :   -0.160471
  45 C :    0.080636
  46 C :   -0.099844
  47 C :    0.029121
  48 C :    0.236482
  49 C :   -0.028413
  50 F :   -0.174331
  51 C :    0.000684
  52 C :   -0.061852
  53 C :    0.102191
  54 C :   -0.074325
  55 C :    0.256115
  56 F :   -0.174194
  57 C :    0.029029
  58 C :   -0.006887
  59 C :   -0.028195
  60 C :   -0.073212
  61 C :    0.327907
  62 C :   -0.344091
  63 C :   -0.189075
  64 N :    0.157365
  65 C :   -0.190234
  66 N :    0.148390
  67 C :    0.029626
  68 C :   -0.016360
  69 C :    0.148202
  70 O :   -0.144914
  71 C :   -0.028401
  72 C :    0.060221
  73 C :    0.046050
  74 C :   -0.011597
  75 Cl:   -0.034426
  76 Cl:   -0.041632
  77 H :    0.000087
  78 H :    0.002088
  79 H :    0.022748
  80 H :   -0.000205
  81 H :   -0.001664
  82 H :   -0.009908
  83 H :   -0.017985
  84 H :   -0.020567
  85 H :    0.001365
  86 H :    0.179755
  87 H :   -0.008315
  88 H :   -0.030163
  89 H :    0.193700
  90 H :   -0.004865
  91 H :   -0.021651
  92 H :   -0.003531
  93 H :   -0.000571
  94 H :    0.004916
  95 H :    0.027944
  96 H :    0.010154
  97 H :   -0.000843
  98 H :    0.000269
Sum of atomic charges:   -0.0000000

LOEWDIN ATOMIC CHARGES
----------------------
   0 C :    0.063039
   1 C :   -0.128592
   2 C :   -0.021459
   3 N :   -0.043595
   4 C :   -0.020670
   5 N :   -0.038509
   6 C :   -0.010879
   7 C :   -0.045765
   8 C :    0.001831
   9 C :   -0.135677
  10 C :   -0.129663
  11 C :   -0.015231
  12 Cl:    0.162443
  13 Cl:    0.158457
  14 C :    0.083142
  15 O :   -0.134100
  16 C :   -0.091066
  17 C :    0.076638
  18 C :   -0.028302
  19 C :    0.008349
  20 C :   -0.010649
  21 C :    0.082308
  22 C :   -0.055662
  23 F :   -0.049227
  24 C :    0.025841
  25 C :   -0.056900
  26 C :    0.017184
  27 C :   -0.049731
  28 C :    0.083351
  29 F :   -0.046076
  30 C :   -0.011184
  31 C :   -0.003540
  32 C :   -0.160275
  33 S :    0.524122
  34 C :   -0.155989
  35 C :   -0.056862
  36 C :   -0.021308
  37 C :   -0.096779
  38 C :    0.074819
  39 O :   -0.141919
  40 O :   -0.032238
  41 C :   -0.005287
  42 C :   -0.093663
  43 C :    0.076540
  44 O :   -0.016139
  45 C :   -0.012458
  46 C :   -0.065513
  47 C :    0.015323
  48 C :    0.073252
  49 C :   -0.042031
  50 F :   -0.050188
  51 C :   -0.008614
  52 C :   -0.018452
  53 C :   -0.015631
  54 C :   -0.051056
  55 C :    0.078675
  56 F :   -0.050810
  57 C :    0.039924
  58 C :   -0.028340
  59 C :    0.069743
  60 C :   -0.096087
  61 C :    0.073263
  62 C :   -0.134763
  63 C :   -0.020278
  64 N :   -0.046755
  65 C :   -0.019688
  66 N :   -0.049059
  67 C :   -0.013296
  68 C :   -0.043585
  69 C :    0.084991
  70 O :   -0.140552
  71 C :    0.000848
  72 C :   -0.134130
  73 C :   -0.130497
  74 C :   -0.012534
  75 Cl:    0.162817
  76 Cl:    0.159693
  77 H :    0.046235
  78 H :    0.044240
  79 H :    0.050951
  80 H :    0.029928
  81 H :    0.030781
  82 H :    0.023650
  83 H :    0.030844
  84 H :    0.026836
  85 H :    0.036283
  86 H :    0.090597
  87 H :    0.030952
  88 H :    0.029369
  89 H :    0.105032
  90 H :    0.021341
  91 H :    0.027229
  92 H :    0.027911
  93 H :    0.036466
  94 H :    0.040113
  95 H :    0.033198
  96 H :    0.042472
  97 H :    0.045797
  98 H :    0.044438

  Mayer bond orders larger than 0.100000
B(  0-C ,  1-C ) :   1.6600 B(  0-C ,  6-C ) :   1.0032 B(  0-C , 16-C ) :   1.0459
B(  1-C ,  2-C ) :   1.1322 B(  1-C ,  4-C ) :   1.1543 B(  2-C ,  3-N ) :   2.9930
B(  4-C ,  5-N ) :   3.0147 B(  6-C ,  7-C ) :   1.3306 B(  6-C , 11-C ) :   1.3507
B(  7-C ,  8-C ) :   1.3500 B(  7-C , 14-C ) :   0.9185 B(  8-C ,  9-C ) :   1.3450
B(  8-C , 77-H ) :   1.0155 B(  9-C , 10-C ) :   1.4093 B(  9-C , 13-Cl) :   1.0479
B( 10-C , 11-C ) :   1.3548 B( 10-C , 12-Cl) :   1.0691 B( 11-C , 78-H ) :   0.9904
B( 14-C , 15-O ) :   2.2799 B( 14-C , 16-C ) :   0.9402 B( 16-C , 17-C ) :   1.6163
B( 17-C , 18-C ) :   1.1114 B( 17-C , 79-H ) :   0.9561 B( 18-C , 19-C ) :   1.4995
B( 18-C , 22-C ) :   1.0234 B( 19-C , 20-C ) :   1.1138 B( 19-C , 80-H ) :   1.0200
B( 20-C , 21-C ) :   1.0412 B( 20-C , 24-C ) :   1.4376 B( 21-C , 22-C ) :   1.6595
B( 21-C , 23-F ) :   1.1320 B( 22-C , 81-H ) :   1.0059 B( 24-C , 25-C ) :   1.1623
B( 24-C , 28-C ) :   0.9985 B( 25-C , 26-C ) :   1.5093 B( 25-C , 82-H ) :   1.0079
B( 26-C , 27-C ) :   0.9983 B( 26-C , 30-C ) :   1.1941 B( 27-C , 28-C ) :   1.6788
B( 27-C , 83-H ) :   1.0190 B( 28-C , 29-F ) :   1.1266 B( 30-C , 31-C ) :   1.6075
B( 30-C , 84-H ) :   0.9394 B( 31-C , 32-C ) :   1.1687 B( 31-C , 85-H ) :   0.9496
B( 32-C , 33-S ) :   1.1492 B( 32-C , 34-C ) :   0.1054 B( 32-C , 36-C ) :   1.3331
B( 33-S , 34-C ) :   1.1931 B( 34-C , 35-C ) :   1.3065 B( 34-C , 45-C ) :   1.1368
B( 35-C , 36-C ) :   1.2471 B( 35-C , 43-C ) :   1.1802 B( 36-C , 37-C ) :   1.2192
B( 37-C , 38-C ) :   0.9041 B( 37-C , 41-C ) :   1.4862 B( 38-C , 39-O ) :   2.1861
B( 38-C , 40-O ) :   1.2097 B( 40-O , 86-H ) :   0.9511 B( 41-C , 42-C ) :   1.2482
B( 41-C , 87-H ) :   0.9779 B( 42-C , 43-C ) :   1.4400 B( 42-C , 88-H ) :   0.9835
B( 43-C , 44-O ) :   1.2591 B( 44-O , 89-H ) :   0.9475 B( 45-C , 46-C ) :   1.5080
B( 45-C , 49-C ) :   1.0350 B( 46-C , 47-C ) :   1.1495 B( 46-C , 90-H ) :   1.0119
B( 47-C , 48-C ) :   1.0161 B( 47-C , 51-C ) :   1.4410 B( 48-C , 49-C ) :   1.6777
B( 48-C , 50-F ) :   1.1226 B( 49-C , 91-H ) :   1.0064 B( 51-C , 52-C ) :   1.1201
B( 51-C , 55-C ) :   1.0309 B( 52-C , 53-C ) :   1.4864 B( 52-C , 92-H ) :   1.0217
B( 53-C , 54-C ) :   1.0240 B( 53-C , 57-C ) :   1.1304 B( 54-C , 55-C ) :   1.6586
B( 54-C , 93-H ) :   1.0158 B( 55-C , 56-F ) :   1.1283 B( 57-C , 58-C ) :   1.5195
B( 57-C , 94-H ) :   0.9906 B( 58-C , 59-C ) :   1.1774 B( 58-C , 95-H ) :   0.9795
B( 59-C , 60-C ) :   1.5169 B( 59-C , 96-H ) :   0.9627 B( 60-C , 61-C ) :   1.0734
B( 60-C , 69-C ) :   0.9496 B( 61-C , 62-C ) :   1.6295 B( 61-C , 67-C ) :   0.9917
B( 62-C , 63-C ) :   1.1400 B( 62-C , 65-C ) :   1.1484 B( 63-C , 64-N ) :   2.9704
B( 65-C , 66-N ) :   2.9606 B( 67-C , 68-C ) :   1.3298 B( 67-C , 74-C ) :   1.3426
B( 68-C , 69-C ) :   0.9441 B( 68-C , 71-C ) :   1.3452 B( 69-C , 70-O ) :   2.2036
B( 71-C , 72-C ) :   1.3422 B( 71-C , 97-H ) :   1.0168 B( 72-C , 73-C ) :   1.4059
B( 72-C , 76-Cl) :   1.0478 B( 73-C , 74-C ) :   1.3603 B( 73-C , 75-Cl) :   1.0771
B( 74-C , 98-H ) :   0.9848

-----------------------------------------------------------------------------
         ABSORPTION SPECTRUM VIA TRANSITION ELECTRIC DIPOLE MOMENTS
-----------------------------------------------------------------------------
State   Energy  Wavelength   fosc         T2         TX        TY        TZ
        (cm-1)    (nm)                  (au**2)     (au)      (au)      (au)
-----------------------------------------------------------------------------
   0    9781.5   1022.3   1.358102894  45.70927   2.10383   4.26731  -4.80346
   1   13599.2    735.3   0.363989681   8.81150  -1.80846  -1.12221  -2.06920
   2   16012.0    624.5   0.147956063   3.04203  -0.19405   0.14798  -1.72698
   3   16583.0    603.0   0.039526012   0.78469   0.70931   0.43636  -0.30192
   4   18038.1    554.4   0.024868640   0.45388  -0.34528  -0.24518  -0.52397
   5   19736.9    506.7   0.459939226   7.67180  -0.86811  -2.06177   1.63318
   6   22477.5    444.9   0.144208187   2.11212   0.13815   0.17101  -1.43659
   7   22844.9    437.7   0.401919529   5.79197  -1.09626  -0.35345  -2.11312
   8   23723.6    421.5   0.409708253   5.68552   0.63582   1.28282  -1.90673
   9   23983.2    417.0   0.110209891   1.51283   0.77823   0.59030   0.74748
  10   24715.9    404.6   0.142210603   1.89422  -0.95965  -0.86256   0.47883
  11   24997.5    400.0   0.024919465   0.32818  -0.36019  -0.43889  -0.07629
  12   25965.5    385.1   0.041391145   0.52479   0.00461   0.03419  -0.72360
  13   26166.4    382.2   0.185701754   2.33641   1.15224   0.93476  -0.36736
  14   26597.6    376.0   0.108858826   1.34740  -0.89444  -0.51176   0.53431
  15   26879.3    372.0   0.039907781   0.48878   0.56317   0.35203   0.21840
  16   27268.9    366.7   0.003480471   0.04202  -0.07001  -0.05942  -0.18327
  17   27286.6    366.5   0.017759077   0.21426  -0.34412  -0.12971   0.28111
  18   27365.6    365.4   0.462873770   5.56843   0.64482   0.93964   2.06633
  19   28235.9    354.2   0.032269773   0.37624  -0.01451  -0.32129   0.52231
  20   28796.4    347.3   0.019694508   0.22516  -0.40740   0.03598   0.24060
  21   29038.4    344.4   0.004211500   0.04775  -0.14707   0.16044   0.01933
  22   29251.7    341.9   0.030262533   0.34059  -0.46011  -0.32930   0.14301
  23   29795.1    335.6   0.098301103   1.08615   0.92829   0.28004  -0.38211
  24   30750.5    325.2   0.054502960   0.58350  -0.56890  -0.25606  -0.44078
  25   31421.4    318.3   0.016433501   0.17218  -0.33232   0.01118  -0.24823
  26   31618.7    316.3   0.000226742   0.00236  -0.02304   0.03145   0.02900
  27   32027.7    312.2   0.014532306   0.14938   0.18808   0.08324  -0.32722
  28   32162.2    310.9   0.060659824   0.62091   0.20789   0.37968   0.65843
  29   32349.5    309.1   0.047623938   0.48466   0.43778   0.52521   0.13097
  30   32406.2    308.6   0.027107104   0.27538  -0.11789  -0.40433   0.31305
  31   32599.4    306.8   0.032503477   0.32824   0.38040   0.42242   0.07139
  32   32626.4    306.5   0.076219892   0.76909   0.33722   0.14158  -0.79707
  33   32922.5    303.7   0.010771888   0.10771   0.29511   0.02929  -0.14060
  34   33076.3    302.3   0.008370330   0.08331   0.12045   0.24277  -0.09932
  35   33461.2    298.9   0.119024661   1.17104  -0.53270  -0.36451   0.86856
  36   33548.9    298.1   0.043180886   0.42373  -0.03410  -0.62832  -0.16666
  37   34086.8    293.4   0.042844249   0.41379   0.54065   0.32022   0.13766
  38   34313.6    291.4   0.277855573   2.66581   0.42525   1.55560   0.25508
  39   34453.9    290.2   0.226145054   2.16085   0.18232  -0.35583  -1.41456
  40   34817.2    287.2   0.135583284   1.28200  -0.85713   0.09976   0.73306
  41   35347.4    282.9   0.200027836   1.86298   0.79937   1.04777  -0.35520
  42   35430.1    282.2   0.226791008   2.10731   0.63961   0.26286  -1.27637
  43   35609.7    280.8   0.191491865   1.77035  -0.40938  -1.26593   0.01299
  44   35805.3    279.3   0.012535370   0.11526  -0.00659   0.13936  -0.30950
  45   36000.9    277.8   0.160482620   1.46754   0.15025   0.96768   0.71313
  46   36250.2    275.9   0.023462529   0.21308   0.03957  -0.26564   0.37543
  47   36515.9    273.9   0.120574925   1.08705  -0.57064  -0.41012   0.77021
  48   36595.3    273.3   0.023068505   0.20752  -0.37911  -0.13211   0.21529
  49   36954.7    270.6   0.049887849   0.44443  -0.12805   0.04874  -0.65242
  50   37207.0    268.8   0.011629339   0.10290  -0.11493   0.04084   0.29668
  51   37416.1    267.3   0.018483840   0.16263  -0.17067   0.06523  -0.35951
  52   37778.2    264.7   0.006484228   0.05651  -0.06767  -0.12020  -0.19360
  53   37808.7    264.5   0.001081218   0.00941   0.02339   0.03778   0.08626
  54   38134.5    262.2   0.000937318   0.00809   0.02627  -0.04205  -0.07506
  55   38480.1    259.9   0.008381067   0.07170   0.11661   0.03620  -0.23832
  56   38704.2    258.4   0.038554453   0.32794   0.48674   0.30108  -0.01942
  57   38855.2    257.4   0.036224452   0.30692  -0.52989  -0.08955   0.13460
  58   39354.3    254.1   0.006149923   0.05145   0.04166   0.15283  -0.16234
  59   39435.9    253.6   0.043955264   0.36694  -0.07848   0.36317  -0.47842
  60   39753.7    251.5   0.066955664   0.55448  -0.09782   0.43178  -0.59873
  61   39877.4    250.8   0.006922615   0.05715   0.06875   0.21196  -0.08657
  62   40018.7    249.9   0.025532094   0.21004  -0.26109  -0.24755   0.28388
  63   40247.2    248.5   0.083409936   0.68227   0.59394  -0.10442   0.56445
  64   40271.8    248.3   0.009462504   0.07735   0.20676   0.18508   0.01871

FINAL SINGLE POINT ENERGY     -5490.091605857485

DIPOLE MOMENT
-------------
                                X             Y             Z
Electronic contribution:     40.38538      28.19112      34.26318
Nuclear contribution   :    -43.30714     -29.04624     -36.86057
                        -----------------------------------------
Total Dipole Moment    :     -2.92176      -0.85512      -2.59739
                        -----------------------------------------
Magnitude (a.u.)       :      4.00179
Magnitude (Debye)      :     10.17174

Rotational constants in cm-1:     0.000835     0.000145     0.000127
Rotational constants in MHz :    25.039982     4.359192     3.820928

                             ****ORCA TERMINATED NORMALLY****
TOTAL RUN TIME: 0 days 0 hours 12 minutes 5 seconds 338 msec
