                         Program Version 4.2.0 -  RELEASE  -
|  1> # ORCA input file
|  2> # SCF done       -209.480218182926          0.000567330734
|  3> ! CAM-B3LYP def2-SVP def2/J RIJCOSX Grid4 TightSCF
|  4> %maxcore 5000
|  5> %tddft
|  6>     Mode sTDDFT
|  7>     Ethresh 5.0
|  8>     maxcore 5000
|  9> end
| 10>
| 11> %pal
| 12>   nprocs 6
| 13>   end
| 14> * xyz 0 1
| 15>    C        2.63597        -2.42002         3.21634
| 16>    C        1.75107        -2.76133         4.20563
| 17>    C        2.10448        -2.87959         5.56493
| 18>    N        2.35347        -3.01121         6.67764
| 19>    C        0.36639        -2.93016         3.98465
| 20>    N       -0.77361        -2.99893         3.87484
| 21>    C        3.99513        -1.92308         3.42109
| 22>    C        4.40124        -1.23214         2.26422
| 23>    C        5.63388        -0.61725         2.18563
| 24>    C        6.48553        -0.70386         3.28058
| 25>    C        6.09301        -1.40123         4.42866
| 26>    C        4.84525        -2.01058         4.50973
| 27>   Cl        7.16333        -1.51322         5.76649
| 28>   Cl        8.02831         0.04794         3.21986
| 29>    C        3.33464        -1.31198         1.23910
| 30>    O        3.31441        -0.79517         0.14724
| 31>    C        2.31410        -2.22261         1.82140
| 32>    C        1.35534        -2.78105         1.02610
| 33>    C        0.59383        -3.94868         1.25442
| 34>    C       -0.54293        -4.30766         0.55703
| 35>    C       -1.00855        -5.56481         1.03815
| 36>    C       -0.04152        -5.96483         2.05620
| 37>    C        0.90971        -5.02665         2.19457
| 38>    F       -0.09896        -7.12904         2.71501
| 39>    C       -2.10708        -6.28719         0.62054
| 40>    C       -2.56574        -7.53718         1.09884
| 41>    C       -3.65898        -7.93818         0.34754
| 42>    C       -3.93100        -6.89755        -0.65250
| 43>    C       -3.02366        -5.92881        -0.47551
| 44>    F       -2.91783        -4.79946        -1.18025
| 45>    C       -4.39262        -9.13525         0.43889
| 46>    C       -4.20374       -10.07420         1.41469
| 47>    C       -4.86445       -11.31200         1.46750
| 48>    S       -5.91238       -11.85104         0.19019
| 49>    C       -6.20381       -13.37671         0.98355
| 50>    C       -5.56432       -13.41194         2.23247
| 51>    C       -4.78614       -12.27984         2.47853
| 52>    C       -3.94216       -12.09730         3.71531
| 53>    N       -2.64974       -11.51889         3.37474
| 54>    C       -3.82828       -13.43083         4.46882
| 55>    C       -5.19998       -14.06704         4.61366
| 56>    C       -5.73743       -14.51519         3.24454
| 57>    N       -7.13339       -14.92471         3.29492
| 58>    C       -6.92270       -14.32454         0.22739
| 59>    C       -7.07310       -15.65871         0.47786
| 60>    C       -7.70760       -16.56055        -0.39661
| 61>    C       -7.77842       -17.93086        -0.20561
| 62>    C       -8.43007       -18.52726        -1.31206
| 63>    C       -8.78268       -17.40711        -2.19639
| 64>    C       -8.36164       -16.24737        -1.67350
| 65>    F       -9.43012       -17.56288        -3.35572
| 66>    C       -8.65391       -19.86664        -1.55693
| 67>    C       -9.25090       -20.46788        -2.69858
| 68>    C       -9.21463       -21.84449        -2.55809
| 69>    C       -8.58838       -22.15498        -1.26974
| 70>    C       -8.26915       -20.98544        -0.69447
| 71>    F       -7.67779       -20.82338         0.49642
| 72>    C       -9.67546       -22.77602        -3.50914
| 73>    C       -9.56956       -24.13391        -3.38636
| 74>    C      -10.01897       -25.00663        -4.39324
| 75>    C       -9.90569       -26.37365        -4.35217
| 76>    C      -10.33425       -27.31174        -5.36921
| 77>    C      -10.97736       -27.02530        -6.54616
| 78>    C      -11.36521       -27.99670        -7.49353
| 79>    N      -11.70818       -28.73149        -8.30595
| 80>    C      -11.35337       -25.73949        -6.98877
| 81>    N      -11.69724       -24.73408        -7.42442
| 82>    C       -9.96570       -28.65265        -4.91626
| 83>    C       -9.35070       -28.55514        -3.65648
| 84>    C       -9.28735       -27.13681        -3.24208
| 85>    O       -8.81919       -26.71284        -2.20690
| 86>    C       -8.89742       -29.66738        -2.97763
| 87>    C       -9.05881       -30.91286        -3.57142
| 88>    C       -9.66671       -31.02021        -4.82721
| 89>    C      -10.12374       -29.89600        -5.50652
| 90>   Cl       -9.85675       -32.56493        -5.55320
| 91>   Cl       -8.50847       -32.32247        -2.76039
| 92>    H        5.92711        -0.08291         1.29586
| 93>    H        4.57335        -2.54204         5.40742
| 94>    H        1.22627        -2.30810         0.05754
| 95>    H       -1.03011        -3.71337        -0.19105
| 96>    H        1.77559        -5.07853         2.82493
| 97>    H       -2.11428        -8.08621         1.90043
| 98>    H       -4.72370        -6.93157        -1.37414
| 99>    H       -5.14415        -9.31451        -0.32125
|100>    H       -3.49025        -9.89827         2.20645
|101>    H       -4.44773       -11.36635         4.36401
|102>    H       -2.12523       -12.15009         2.77794
|103>    H       -2.10610       -11.36018         4.21548
|104>    H       -3.38248       -13.25468         5.45008
|105>    H       -3.16939       -14.10408         3.91250
|106>    H       -5.89236       -13.34138         5.05078
|107>    H       -5.15296       -14.93191         5.27894
|108>    H       -5.15609       -15.38843         2.91209
|109>    H       -7.72217       -14.14290         3.56008
|110>    H       -7.25897       -15.65798         3.98356
|111>    H       -7.32437       -13.93222        -0.69816
|112>    H       -6.67620       -16.08090         1.38534
|113>    H       -7.38478       -18.46194         0.63840
|114>    H       -8.48148       -15.27095        -2.09866
|115>    H       -9.64901       -19.93543        -3.54026
|116>    H       -8.42500       -23.13688        -0.87282
|117>    H      -10.12789       -22.36585        -4.40478
|118>    H       -9.11873       -24.56636        -2.50711
|119>    H      -10.47397       -24.54953        -5.26272
|120>    H       -8.42954       -29.56838        -2.01089
|121>    H      -10.58606       -30.02010        -6.47183
|122> *
|123>
|124>                          ****END OF INPUT****

CARTESIAN COORDINATES (ANGSTROEM)
---------------------------------
  C      2.635970   -2.420020    3.216340
  C      1.751070   -2.761330    4.205630
  C      2.104480   -2.879590    5.564930
  N      2.353470   -3.011210    6.677640
  C      0.366390   -2.930160    3.984650
  N     -0.773610   -2.998930    3.874840
  C      3.995130   -1.923080    3.421090
  C      4.401240   -1.232140    2.264220
  C      5.633880   -0.617250    2.185630
  C      6.485530   -0.703860    3.280580
  C      6.093010   -1.401230    4.428660
  C      4.845250   -2.010580    4.509730
  Cl     7.163330   -1.513220    5.766490
  Cl     8.028310    0.047940    3.219860
  C      3.334640   -1.311980    1.239100
  O      3.314410   -0.795170    0.147240
  C      2.314100   -2.222610    1.821400
  C      1.355340   -2.781050    1.026100
  C      0.593830   -3.948680    1.254420
  C     -0.542930   -4.307660    0.557030
  C     -1.008550   -5.564810    1.038150
  C     -0.041520   -5.964830    2.056200
  C      0.909710   -5.026650    2.194570
  F     -0.098960   -7.129040    2.715010
  C     -2.107080   -6.287190    0.620540
  C     -2.565740   -7.537180    1.098840
  C     -3.658980   -7.938180    0.347540
  C     -3.931000   -6.897550   -0.652500
  C     -3.023660   -5.928810   -0.475510
  F     -2.917830   -4.799460   -1.180250
  C     -4.392620   -9.135250    0.438890
  C     -4.203740  -10.074200    1.414690
  C     -4.864450  -11.312000    1.467500
  S     -5.912380  -11.851040    0.190190
  C     -6.203810  -13.376710    0.983550
  C     -5.564320  -13.411940    2.232470
  C     -4.786140  -12.279840    2.478530
  C     -3.942160  -12.097300    3.715310
  N     -2.649740  -11.518890    3.374740
  C     -3.828280  -13.430830    4.468820
  C     -5.199980  -14.067040    4.613660
  C     -5.737430  -14.515190    3.244540
  N     -7.133390  -14.924710    3.294920
  C     -6.922700  -14.324540    0.227390
  C     -7.073100  -15.658710    0.477860
  C     -7.707600  -16.560550   -0.396610
  C     -7.778420  -17.930860   -0.205610
  C     -8.430070  -18.527260   -1.312060
  C     -8.782680  -17.407110   -2.196390
  C     -8.361640  -16.247370   -1.673500
  F     -9.430120  -17.562880   -3.355720
  C     -8.653910  -19.866640   -1.556930
  C     -9.250900  -20.467880   -2.698580
  C     -9.214630  -21.844490   -2.558090
  C     -8.588380  -22.154980   -1.269740
  C     -8.269150  -20.985440   -0.694470
  F     -7.677790  -20.823380    0.496420
  C     -9.675460  -22.776020   -3.509140
  C     -9.569560  -24.133910   -3.386360
  C    -10.018970  -25.006630   -4.393240
  C     -9.905690  -26.373650   -4.352170
  C    -10.334250  -27.311740   -5.369210
  C    -10.977360  -27.025300   -6.546160
  C    -11.365210  -27.996700   -7.493530
  N    -11.708180  -28.731490   -8.305950
  C    -11.353370  -25.739490   -6.988770
  N    -11.697240  -24.734080   -7.424420
  C     -9.965700  -28.652650   -4.916260
  C     -9.350700  -28.555140   -3.656480
  C     -9.287350  -27.136810   -3.242080
  O     -8.819190  -26.712840   -2.206900
  C     -8.897420  -29.667380   -2.977630
  C     -9.058810  -30.912860   -3.571420
  C     -9.666710  -31.020210   -4.827210
  C    -10.123740  -29.896000   -5.506520
  Cl    -9.856750  -32.564930   -5.553200
  Cl    -8.508470  -32.322470   -2.760390
  H      5.927110   -0.082910    1.295860
  H      4.573350   -2.542040    5.407420
  H      1.226270   -2.308100    0.057540
  H     -1.030110   -3.713370   -0.191050
  H      1.775590   -5.078530    2.824930
  H     -2.114280   -8.086210    1.900430
  H     -4.723700   -6.931570   -1.374140
  H     -5.144150   -9.314510   -0.321250
  H     -3.490250   -9.898270    2.206450
  H     -4.447730  -11.366350    4.364010
  H     -2.125230  -12.150090    2.777940
  H     -2.106100  -11.360180    4.215480
  H     -3.382480  -13.254680    5.450080
  H     -3.169390  -14.104080    3.912500
  H     -5.892360  -13.341380    5.050780
  H     -5.152960  -14.931910    5.278940
  H     -5.156090  -15.388430    2.912090
  H     -7.722170  -14.142900    3.560080
  H     -7.258970  -15.657980    3.983560
  H     -7.324370  -13.932220   -0.698160
  H     -6.676200  -16.080900    1.385340
  H     -7.384780  -18.461940    0.638400
  H     -8.481480  -15.270950   -2.098660
  H     -9.649010  -19.935430   -3.540260
  H     -8.425000  -23.136880   -0.872820
  H    -10.127890  -22.365850   -4.404780
  H     -9.118730  -24.566360   -2.507110
  H    -10.473970  -24.549530   -5.262720
  H     -8.429540  -29.568380   -2.010890
  H    -10.586060  -30.020100   -6.471830

 Total Charge           Charge          ....    0
 Multiplicity           Mult            ....    1
 Number of Electrons    NEL             ....  568
 Basis Dimension        Dim             .... 1248

ORBITAL ENERGIES
----------------

  NO   OCC          E(Eh)            E(eV)
   0   2.0000    -101.600192     -2764.6818
   1   2.0000    -101.599231     -2764.6556
   2   2.0000    -101.598737     -2764.6422
   3   2.0000    -101.598348     -2764.6316
   4   2.0000     -88.971182     -2421.0290
   5   2.0000     -24.801239      -674.8760
   6   2.0000     -24.798294      -674.7959
   7   2.0000     -24.794347      -674.6885
   8   2.0000     -24.789770      -674.5639
   9   2.0000     -19.221537      -523.0446
  10   2.0000     -19.217653      -522.9389
  11   2.0000     -14.418827      -392.3562
  12   2.0000     -14.417683      -392.3251
  13   2.0000     -14.416151      -392.2834
  14   2.0000     -14.411108      -392.1462
  15   2.0000     -14.408984      -392.0884
  16   2.0000     -14.404640      -391.9702
  17   2.0000     -10.372277      -282.2440
  18   2.0000     -10.369229      -282.1611
  19   2.0000     -10.368471      -282.1404
  20   2.0000     -10.365193      -282.0512
  21   2.0000     -10.360022      -281.9105
  22   2.0000     -10.355914      -281.7988
  23   2.0000     -10.355803      -281.7957
  24   2.0000     -10.355416      -281.7852
  25   2.0000     -10.354720      -281.7663
  26   2.0000     -10.354047      -281.7479
  27   2.0000     -10.346152      -281.5331
  28   2.0000     -10.345346      -281.5112
  29   2.0000     -10.344129      -281.4781
  30   2.0000     -10.343069      -281.4492
  31   2.0000     -10.324517      -280.9444
  32   2.0000     -10.322781      -280.8972
  33   2.0000     -10.322732      -280.8958
  34   2.0000     -10.321357      -280.8584
  35   2.0000     -10.319719      -280.8138
  36   2.0000     -10.318843      -280.7900
  37   2.0000     -10.318619      -280.7839
  38   2.0000     -10.318360      -280.7768
  39   2.0000     -10.315701      -280.7045
  40   2.0000     -10.315582      -280.7012
  41   2.0000     -10.315470      -280.6982
  42   2.0000     -10.315205      -280.6910
  43   2.0000     -10.315024      -280.6861
  44   2.0000     -10.313416      -280.6423
  45   2.0000     -10.310606      -280.5658
  46   2.0000     -10.308897      -280.5194
  47   2.0000     -10.308675      -280.5133
  48   2.0000     -10.308515      -280.5090
  49   2.0000     -10.308187      -280.5000
  50   2.0000     -10.306971      -280.4669
  51   2.0000     -10.304377      -280.3963
  52   2.0000     -10.303924      -280.3840
  53   2.0000     -10.302966      -280.3580
  54   2.0000     -10.301534      -280.3190
  55   2.0000     -10.301141      -280.3083
  56   2.0000     -10.301005      -280.3046
  57   2.0000     -10.300730      -280.2971
  58   2.0000     -10.300181      -280.2822
  59   2.0000     -10.298596      -280.2391
  60   2.0000     -10.296512      -280.1823
  61   2.0000     -10.295910      -280.1659
  62   2.0000     -10.295596      -280.1574
  63   2.0000     -10.293732      -280.1067
  64   2.0000     -10.290751      -280.0256
  65   2.0000     -10.289461      -279.9905
  66   2.0000     -10.286123      -279.8996
  67   2.0000     -10.285299      -279.8772
  68   2.0000     -10.284666      -279.8600
  69   2.0000     -10.283864      -279.8382
  70   2.0000     -10.283668      -279.8328
  71   2.0000     -10.283304      -279.8229
  72   2.0000     -10.280671      -279.7513
  73   2.0000     -10.278173      -279.6833
  74   2.0000     -10.274345      -279.5791
  75   2.0000     -10.272441      -279.5273
  76   2.0000     -10.263743      -279.2907
  77   2.0000      -9.555245      -260.0114
  78   2.0000      -9.554247      -259.9843
  79   2.0000      -9.553750      -259.9708
  80   2.0000      -9.553363      -259.9602
  81   2.0000      -8.066951      -219.5129
  82   2.0000      -7.325619      -199.3402
  83   2.0000      -7.324647      -199.3138
  84   2.0000      -7.324129      -199.2997
  85   2.0000      -7.323777      -199.2901
  86   2.0000      -7.315516      -199.0653
  87   2.0000      -7.314776      -199.0452
  88   2.0000      -7.314497      -199.0376
  89   2.0000      -7.314019      -199.0246
  90   2.0000      -7.313783      -199.0181
  91   2.0000      -7.313599      -199.0131
  92   2.0000      -7.313288      -199.0047
  93   2.0000      -7.312893      -198.9939
  94   2.0000      -6.035960      -164.2468
  95   2.0000      -6.032128      -164.1425
  96   2.0000      -6.029253      -164.0643
  97   2.0000      -1.314091       -35.7582
  98   2.0000      -1.311584       -35.6900
  99   2.0000      -1.306467       -35.5508
 100   2.0000      -1.302025       -35.4299
 101   2.0000      -1.136076       -30.9142
 102   2.0000      -1.133077       -30.8326
 103   2.0000      -1.030782       -28.0490
 104   2.0000      -1.030550       -28.0427
 105   2.0000      -1.023150       -27.8413
 106   2.0000      -1.016665       -27.6649
 107   2.0000      -1.014909       -27.6171
 108   2.0000      -0.998651       -27.1747
 109   2.0000      -0.996377       -27.1128
 110   2.0000      -0.995980       -27.1020
 111   2.0000      -0.995093       -27.0779
 112   2.0000      -0.991793       -26.9881
 113   2.0000      -0.990880       -26.9632
 114   2.0000      -0.988913       -26.9097
 115   2.0000      -0.984614       -26.7927
 116   2.0000      -0.979625       -26.6570
 117   2.0000      -0.974811       -26.5260
 118   2.0000      -0.961380       -26.1605
 119   2.0000      -0.961101       -26.1529
 120   2.0000      -0.937433       -25.5088
 121   2.0000      -0.932812       -25.3831
 122   2.0000      -0.921834       -25.0844
 123   2.0000      -0.918605       -24.9965
 124   2.0000      -0.908621       -24.7248
 125   2.0000      -0.902278       -24.5522
 126   2.0000      -0.894502       -24.3406
 127   2.0000      -0.889816       -24.2131
 128   2.0000      -0.875713       -23.8294
 129   2.0000      -0.866795       -23.5867
 130   2.0000      -0.860384       -23.4122
 131   2.0000      -0.860025       -23.4025
 132   2.0000      -0.853821       -23.2337
 133   2.0000      -0.848429       -23.0869
 134   2.0000      -0.842045       -22.9132
 135   2.0000      -0.835394       -22.7322
 136   2.0000      -0.813677       -22.1413
 137   2.0000      -0.811155       -22.0726
 138   2.0000      -0.807997       -21.9867
 139   2.0000      -0.802480       -21.8366
 140   2.0000      -0.792419       -21.5628
 141   2.0000      -0.787424       -21.4269
 142   2.0000      -0.771134       -20.9836
 143   2.0000      -0.768518       -20.9124
 144   2.0000      -0.763748       -20.7826
 145   2.0000      -0.756807       -20.5938
 146   2.0000      -0.747138       -20.3307
 147   2.0000      -0.729262       -19.8442
 148   2.0000      -0.723560       -19.6891
 149   2.0000      -0.720022       -19.5928
 150   2.0000      -0.715984       -19.4829
 151   2.0000      -0.713168       -19.4063
 152   2.0000      -0.695923       -18.9370
 153   2.0000      -0.695211       -18.9177
 154   2.0000      -0.691294       -18.8111
 155   2.0000      -0.682590       -18.5742
 156   2.0000      -0.681855       -18.5542
 157   2.0000      -0.679518       -18.4906
 158   2.0000      -0.672634       -18.3033
 159   2.0000      -0.670255       -18.2386
 160   2.0000      -0.668060       -18.1788
 161   2.0000      -0.664591       -18.0844
 162   2.0000      -0.657822       -17.9003
 163   2.0000      -0.652370       -17.7519
 164   2.0000      -0.648033       -17.6339
 165   2.0000      -0.642139       -17.4735
 166   2.0000      -0.633096       -17.2274
 167   2.0000      -0.631153       -17.1745
 168   2.0000      -0.626832       -17.0570
 169   2.0000      -0.624010       -16.9802
 170   2.0000      -0.621250       -16.9051
 171   2.0000      -0.619828       -16.8664
 172   2.0000      -0.616152       -16.7663
 173   2.0000      -0.610581       -16.6148
 174   2.0000      -0.601797       -16.3757
 175   2.0000      -0.595648       -16.2084
 176   2.0000      -0.593843       -16.1593
 177   2.0000      -0.586452       -15.9582
 178   2.0000      -0.582740       -15.8572
 179   2.0000      -0.580579       -15.7984
 180   2.0000      -0.576273       -15.6812
 181   2.0000      -0.570248       -15.5172
 182   2.0000      -0.567091       -15.4313
 183   2.0000      -0.565534       -15.3890
 184   2.0000      -0.562696       -15.3117
 185   2.0000      -0.560989       -15.2653
 186   2.0000      -0.560405       -15.2494
 187   2.0000      -0.559244       -15.2178
 188   2.0000      -0.556900       -15.1540
 189   2.0000      -0.556257       -15.1365
 190   2.0000      -0.554538       -15.0897
 191   2.0000      -0.549768       -14.9600
 192   2.0000      -0.549320       -14.9478
 193   2.0000      -0.547839       -14.9075
 194   2.0000      -0.547611       -14.9012
 195   2.0000      -0.545092       -14.8327
 196   2.0000      -0.543586       -14.7917
 197   2.0000      -0.540712       -14.7135
 198   2.0000      -0.540162       -14.6986
 199   2.0000      -0.534629       -14.5480
 200   2.0000      -0.532323       -14.4853
 201   2.0000      -0.530877       -14.4459
 202   2.0000      -0.529635       -14.4121
 203   2.0000      -0.524472       -14.2716
 204   2.0000      -0.520518       -14.1640
 205   2.0000      -0.519388       -14.1333
 206   2.0000      -0.514960       -14.0128
 207   2.0000      -0.513458       -13.9719
 208   2.0000      -0.508006       -13.8236
 209   2.0000      -0.506095       -13.7716
 210   2.0000      -0.505450       -13.7540
 211   2.0000      -0.503042       -13.6885
 212   2.0000      -0.502391       -13.6708
 213   2.0000      -0.500001       -13.6057
 214   2.0000      -0.496880       -13.5208
 215   2.0000      -0.496164       -13.5013
 216   2.0000      -0.495361       -13.4795
 217   2.0000      -0.490891       -13.3578
 218   2.0000      -0.487928       -13.2772
 219   2.0000      -0.485536       -13.2121
 220   2.0000      -0.484662       -13.1883
 221   2.0000      -0.483856       -13.1664
 222   2.0000      -0.479830       -13.0568
 223   2.0000      -0.478539       -13.0217
 224   2.0000      -0.478247       -13.0138
 225   2.0000      -0.474385       -12.9087
 226   2.0000      -0.471592       -12.8327
 227   2.0000      -0.470652       -12.8071
 228   2.0000      -0.468213       -12.7407
 229   2.0000      -0.467095       -12.7103
 230   2.0000      -0.463448       -12.6111
 231   2.0000      -0.463013       -12.5992
 232   2.0000      -0.461562       -12.5597
 233   2.0000      -0.456906       -12.4331
 234   2.0000      -0.453106       -12.3296
 235   2.0000      -0.451245       -12.2790
 236   2.0000      -0.450353       -12.2547
 237   2.0000      -0.449146       -12.2219
 238   2.0000      -0.447868       -12.1871
 239   2.0000      -0.446991       -12.1632
 240   2.0000      -0.444207       -12.0875
 241   2.0000      -0.441054       -12.0017
 242   2.0000      -0.437908       -11.9161
 243   2.0000      -0.434688       -11.8285
 244   2.0000      -0.432802       -11.7772
 245   2.0000      -0.430562       -11.7162
 246   2.0000      -0.428361       -11.6563
 247   2.0000      -0.427950       -11.6451
 248   2.0000      -0.427820       -11.6416
 249   2.0000      -0.427114       -11.6224
 250   2.0000      -0.426645       -11.6096
 251   2.0000      -0.425184       -11.5698
 252   2.0000      -0.423764       -11.5312
 253   2.0000      -0.423076       -11.5125
 254   2.0000      -0.420725       -11.4485
 255   2.0000      -0.418498       -11.3879
 256   2.0000      -0.416131       -11.3235
 257   2.0000      -0.412069       -11.2130
 258   2.0000      -0.409064       -11.1312
 259   2.0000      -0.407265       -11.0822
 260   2.0000      -0.407053       -11.0765
 261   2.0000      -0.396185       -10.7807
 262   2.0000      -0.386828       -10.5261
 263   2.0000      -0.381231       -10.3738
 264   2.0000      -0.381033       -10.3684
 265   2.0000      -0.373161       -10.1542
 266   2.0000      -0.357424        -9.7260
 267   2.0000      -0.345827        -9.4104
 268   2.0000      -0.342261        -9.3134
 269   2.0000      -0.341739        -9.2992
 270   2.0000      -0.340079        -9.2540
 271   2.0000      -0.337778        -9.1914
 272   2.0000      -0.333964        -9.0876
 273   2.0000      -0.325704        -8.8628
 274   2.0000      -0.322197        -8.7674
 275   2.0000      -0.320374        -8.7178
 276   2.0000      -0.314690        -8.5632
 277   2.0000      -0.311016        -8.4632
 278   2.0000      -0.309270        -8.4157
 279   2.0000      -0.308648        -8.3987
 280   2.0000      -0.287655        -7.8275
 281   2.0000      -0.280989        -7.6461
 282   2.0000      -0.267317        -7.2741
 283   2.0000      -0.238495        -6.4898
 284   0.0000      -0.131726        -3.5844
 285   0.0000      -0.113675        -3.0932
 286   0.0000      -0.081582        -2.2200
 287   0.0000      -0.076502        -2.0817
 288   0.0000      -0.062566        -1.7025

MULLIKEN ATOMIC CHARGES
-----------------------
   0 C :    0.256731
   1 C :   -0.335244
   2 C :   -0.177555
   3 N :    0.157210
   4 C :   -0.200699
   5 N :    0.178540
   6 C :    0.021878
   7 C :    0.000578
   8 C :   -0.033277
   9 C :    0.061630
  10 C :    0.047984
  11 C :   -0.018989
  12 Cl:   -0.037814
  13 Cl:   -0.045176
  14 C :    0.143374
  15 O :   -0.135333
  16 C :   -0.130081
  17 C :    0.040509
  18 C :    0.059644
  19 C :   -0.036255
  20 C :    0.004160
  21 C :    0.253823
  22 C :   -0.069580
  23 F :   -0.177160
  24 C :    0.026511
  25 C :   -0.106003
  26 C :    0.123852
  27 C :   -0.079696
  28 C :    0.266585
  29 F :   -0.170222
  30 C :   -0.024936
  31 C :    0.026974
  32 C :   -0.103124
  33 S :    0.126736
  34 C :   -0.103792
  35 C :   -0.039224
  36 C :   -0.024963
  37 C :    0.065754
  38 N :   -0.181998
  39 C :    0.065563
  40 C :    0.062662
  41 C :    0.052152
  42 N :   -0.177403
  43 C :    0.042671
  44 C :    0.044939
  45 C :    0.113272
  46 C :   -0.096312
  47 C :    0.029752
  48 C :    0.257975
  49 C :   -0.079298
  50 F :   -0.171536
  51 C :   -0.000839
  52 C :   -0.060309
  53 C :    0.100468
  54 C :   -0.079858
  55 C :    0.255774
  56 F :   -0.178212
  57 C :    0.031012
  58 C :   -0.008883
  59 C :   -0.026483
  60 C :   -0.076506
  61 C :    0.329288
  62 C :   -0.348416
  63 C :   -0.189929
  64 N :    0.155013
  65 C :   -0.188501
  66 N :    0.148723
  67 C :    0.026700
  68 C :   -0.013928
  69 C :    0.147128
  70 O :   -0.148588
  71 C :   -0.027617
  72 C :    0.059912
  73 C :    0.048058
  74 C :   -0.010281
  75 Cl:   -0.036229
  76 Cl:   -0.043884
  77 H :    0.000168
  78 H :    0.002492
  79 H :    0.020357
  80 H :   -0.001457
  81 H :   -0.005288
  82 H :   -0.010215
  83 H :   -0.012697
  84 H :   -0.016933
  85 H :    0.020596
  86 H :    0.013444
  87 H :    0.098948
  88 H :    0.102894
  89 H :   -0.000222
  90 H :   -0.007361
  91 H :   -0.005800
  92 H :    0.000369
  93 H :    0.012760
  94 H :    0.096205
  95 H :    0.098096
  96 H :   -0.019129
  97 H :   -0.025265
  98 H :   -0.014576
  99 H :   -0.012486
 100 H :   -0.005033
 101 H :   -0.004211
 102 H :    0.003833
 103 H :    0.026552
 104 H :    0.009705
 105 H :   -0.003534
 106 H :   -0.001613
Sum of atomic charges:   -0.0000000

LOEWDIN ATOMIC CHARGES
----------------------
   0 C :    0.063515
   1 C :   -0.131139
   2 C :   -0.021109
   3 N :   -0.047627
   4 C :   -0.020569
   5 N :   -0.039943
   6 C :   -0.010861
   7 C :   -0.045314
   8 C :    0.001168
   9 C :   -0.135944
  10 C :   -0.130322
  11 C :   -0.016301
  12 Cl:    0.160915
  13 Cl:    0.156831
  14 C :    0.082767
  15 O :   -0.136545
  16 C :   -0.095310
  17 C :    0.078072
  18 C :   -0.033484
  19 C :    0.008724
  20 C :   -0.020608
  21 C :    0.080924
  22 C :   -0.058510
  23 F :   -0.053952
  24 C :    0.026795
  25 C :   -0.074569
  26 C :    0.022727
  27 C :   -0.055593
  28 C :    0.086339
  29 F :   -0.045889
  30 C :   -0.041707
  31 C :    0.009932
  32 C :   -0.166570
  33 S :    0.451093
  34 C :   -0.148844
  35 C :   -0.055650
  36 C :   -0.044989
  37 C :    0.018879
  38 N :   -0.079936
  39 C :   -0.040826
  40 C :   -0.039548
  41 C :    0.015143
  42 N :   -0.084072
  43 C :   -0.028237
  44 C :    0.002157
  45 C :    0.014752
  46 C :   -0.062868
  47 C :    0.016589
  48 C :    0.085390
  49 C :   -0.056461
  50 F :   -0.048113
  51 C :   -0.017022
  52 C :   -0.017127
  53 C :   -0.020617
  54 C :   -0.054107
  55 C :    0.077787
  56 F :   -0.054410
  57 C :    0.042680
  58 C :   -0.032737
  59 C :    0.070484
  60 C :   -0.099575
  61 C :    0.073364
  62 C :   -0.136610
  63 C :   -0.020155
  64 N :   -0.048697
  65 C :   -0.019875
  66 N :   -0.050097
  67 C :   -0.013177
  68 C :   -0.043183
  69 C :    0.084829
  70 O :   -0.142775
  71 C :    0.000107
  72 C :   -0.134646
  73 C :   -0.130792
  74 C :   -0.012603
  75 Cl:    0.161248
  76 Cl:    0.158014
  77 H :    0.046060
  78 H :    0.044021
  79 H :    0.050009
  80 H :    0.029426
  81 H :    0.029388
  82 H :    0.023311
  83 H :    0.031937
  84 H :    0.020735
  85 H :    0.036199
  86 H :    0.032438
  87 H :    0.057684
  88 H :    0.059899
  89 H :    0.024112
  90 H :    0.019826
  91 H :    0.020412
  92 H :    0.024259
  93 H :    0.026672
  94 H :    0.056748
  95 H :    0.056207
  96 H :    0.026502
  97 H :    0.031787
  98 H :    0.023988
  99 H :    0.030343
 100 H :    0.027469
 101 H :    0.035248
 102 H :    0.039690
 103 H :    0.032467
 104 H :    0.042327
 105 H :    0.045082
 106 H :    0.044143

  Mayer bond orders larger than 0.100000
B(  0-C ,  1-C ) :   1.6558 B(  0-C ,  6-C ) :   1.0013 B(  0-C , 16-C ) :   1.0518
B(  1-C ,  2-C ) :   1.1312 B(  1-C ,  4-C ) :   1.1546 B(  2-C ,  3-N ) :   2.9898
B(  4-C ,  5-N ) :   3.0154 B(  6-C ,  7-C ) :   1.3321 B(  6-C , 11-C ) :   1.3492
B(  7-C ,  8-C ) :   1.3504 B(  7-C , 14-C ) :   0.9156 B(  8-C ,  9-C ) :   1.3433
B(  8-C , 77-H ) :   1.0163 B(  9-C , 10-C ) :   1.4107 B(  9-C , 13-Cl) :   1.0445
B( 10-C , 11-C ) :   1.3556 B( 10-C , 12-Cl) :   1.0685 B( 11-C , 78-H ) :   0.9906
B( 14-C , 15-O ) :   2.2767 B( 14-C , 16-C ) :   0.9439 B( 16-C , 17-C ) :   1.6019
B( 17-C , 18-C ) :   1.1212 B( 17-C , 79-H ) :   0.9569 B( 18-C , 19-C ) :   1.4832
B( 18-C , 22-C ) :   1.0297 B( 19-C , 20-C ) :   1.1267 B( 19-C , 80-H ) :   1.0198
B( 20-C , 21-C ) :   1.0484 B( 20-C , 24-C ) :   1.4177 B( 21-C , 22-C ) :   1.6553
B( 21-C , 23-F ) :   1.1249 B( 22-C , 81-H ) :   1.0055 B( 24-C , 25-C ) :   1.1807
B( 24-C , 28-C ) :   0.9923 B( 25-C , 26-C ) :   1.4858 B( 25-C , 82-H ) :   1.0111
B( 26-C , 27-C ) :   0.9936 B( 26-C , 30-C ) :   1.1705 B( 27-C , 28-C ) :   1.6780
B( 27-C , 83-H ) :   1.0227 B( 28-C , 29-F ) :   1.1287 B( 30-C , 31-C ) :   1.5433
B( 30-C , 84-H ) :   0.9763 B( 31-C , 32-C ) :   1.2122 B( 31-C , 85-H ) :   0.9463
B( 32-C , 33-S ) :   1.1076 B( 32-C , 36-C ) :   1.4106 B( 33-S , 34-C ) :   1.1365
B( 34-C , 35-C ) :   1.4172 B( 34-C , 43-C ) :   1.1727 B( 35-C , 36-C ) :   1.3870
B( 35-C , 41-C ) :   0.9934 B( 36-C , 37-C ) :   0.9841 B( 37-C , 38-N ) :   1.0796
B( 37-C , 39-C ) :   1.0707 B( 37-C , 86-H ) :   0.8807 B( 38-N , 85-H ) :   0.1037
B( 38-N , 87-H ) :   0.9659 B( 38-N , 88-H ) :   0.9665 B( 39-C , 40-C ) :   1.0538
B( 39-C , 89-H ) :   0.9252 B( 39-C , 90-H ) :   0.9275 B( 40-C , 41-C ) :   1.0692
B( 40-C , 91-H ) :   0.9275 B( 40-C , 92-H ) :   0.9247 B( 41-C , 42-N ) :   1.0946
B( 41-C , 93-H ) :   0.8705 B( 42-N , 94-H ) :   0.9632 B( 42-N , 95-H ) :   0.9682
B( 43-C , 44-C ) :   1.5804 B( 43-C , 96-H ) :   0.9449 B( 44-C , 45-C ) :   1.1908
B( 44-C , 97-H ) :   0.9629 B( 45-C , 46-C ) :   1.4655 B( 45-C , 49-C ) :   0.9997
B( 46-C , 47-C ) :   1.1538 B( 46-C , 98-H ) :   1.0234 B( 47-C , 48-C ) :   1.0081
B( 47-C , 51-C ) :   1.4286 B( 48-C , 49-C ) :   1.6805 B( 48-C , 50-F ) :   1.1305
B( 49-C , 99-H ) :   1.0130 B( 51-C , 52-C ) :   1.1292 B( 51-C , 55-C ) :   1.0370
B( 52-C , 53-C ) :   1.4751 B( 52-C ,100-H ) :   1.0213 B( 53-C , 54-C ) :   1.0294
B( 53-C , 57-C ) :   1.1363 B( 54-C , 55-C ) :   1.6515 B( 54-C ,101-H ) :   1.0174
B( 55-C , 56-F ) :   1.1239 B( 57-C , 58-C ) :   1.5102 B( 57-C ,102-H ) :   0.9911
B( 58-C , 59-C ) :   1.1860 B( 58-C ,103-H ) :   0.9787 B( 59-C , 60-C ) :   1.5054
B( 59-C ,104-H ) :   0.9632 B( 60-C , 61-C ) :   1.0754 B( 60-C , 69-C ) :   0.9538
B( 61-C , 62-C ) :   1.6290 B( 61-C , 67-C ) :   0.9873 B( 62-C , 63-C ) :   1.1413
B( 62-C , 65-C ) :   1.1471 B( 63-C , 64-N ) :   2.9698 B( 65-C , 66-N ) :   2.9616
B( 67-C , 68-C ) :   1.3308 B( 67-C , 74-C ) :   1.3454 B( 68-C , 69-C ) :   0.9429
B( 68-C , 71-C ) :   1.3473 B( 69-C , 70-O ) :   2.1989 B( 71-C , 72-C ) :   1.3405
B( 71-C ,105-H ) :   1.0161 B( 72-C , 73-C ) :   1.4087 B( 72-C , 76-Cl) :   1.0463
B( 73-C , 74-C ) :   1.3590 B( 73-C , 75-Cl) :   1.0752 B( 74-C ,106-H ) :   0.9843

-----------------------------------------------------------------------------
         ABSORPTION SPECTRUM VIA TRANSITION ELECTRIC DIPOLE MOMENTS
-----------------------------------------------------------------------------
State   Energy  Wavelength   fosc         T2         TX        TY        TZ
        (cm-1)    (nm)                  (au**2)     (au)      (au)      (au)
-----------------------------------------------------------------------------
   0    9902.5   1009.8   2.139150314  71.11681  -3.82639  -7.27280  -1.89259
   1   13570.9    736.9   0.150714422   3.65612   0.65668  -1.55688  -0.89500
   2   16371.4    610.8   0.066057850   1.32836  -0.06241   1.13465   0.19240
   3   16825.1    594.3   0.054648153   1.06928  -0.53607  -0.60129  -0.64835
   4   18501.9    540.5   0.008978995   0.15977  -0.24696  -0.25289   0.18661
   5   20304.0    492.5   0.739870541  11.99638  -1.62053  -2.99202  -0.64661
   6   22266.7    449.1   0.078561003   1.16152   0.37451   0.09858   1.00576
   7   22551.9    443.4   0.332525339   4.85420  -0.00400  -1.78774  -1.28770
   8   24163.0    413.9   0.043384072   0.59109   0.53676  -0.48343  -0.26319
   9   24744.0    404.1   0.271243498   3.60882   0.92199   1.55277   0.58961
  10   25412.9    393.5   0.025596177   0.33159  -0.36078  -0.30046   0.33339
  11   26021.8    384.3   0.132199351   1.67250  -0.79076  -0.60024  -0.82881
  12   26199.5    381.7   0.011074267   0.13915   0.34074   0.11818   0.09529
  13   26423.5    378.5   0.059967135   0.74713   0.73229   0.36652  -0.27668
  14   26710.8    374.4   0.073207236   0.90228  -0.69783  -0.56872  -0.30311
  15   27031.2    369.9   0.005607776   0.06830  -0.15740  -0.20080  -0.05659
  16   27420.0    364.7   0.192873693   2.31570   0.63345  -1.38241   0.05816
  17   27492.3    363.7   0.004587279   0.05493  -0.16293   0.16028  -0.05193
  18   27701.4    361.0   0.060454623   0.71846  -0.14172  -0.83042   0.09367
  19   27964.8    357.6   0.257650354   3.03315  -0.89527  -1.47091  -0.26092
  20   28576.2    349.9   0.122919305   1.41609  -0.31217  -1.14702  -0.05468
  21   28643.9    349.1   0.033708054   0.38742   0.35253   0.22801   0.45951
  22   29184.1    342.7   0.010438947   0.11776   0.21530  -0.26220   0.05155
  23   30007.1    333.3   0.041874204   0.45941   0.38642   0.53751   0.14550
  24   30822.6    324.4   0.009922604   0.10598  -0.23225  -0.04941  -0.22271
  25   31379.6    318.7   0.101583767   1.06574   0.31265  -0.42910   0.88537
  26   31588.0    316.6   0.000295790   0.00308   0.03755  -0.03471   0.02164
  27   32039.3    312.1   0.002024252   0.02080  -0.04269   0.00808   0.13752
  28   32192.7    310.6   0.012830720   0.13121  -0.36210  -0.00960   0.00168
  29   32257.3    310.0   0.072692681   0.74189  -0.01168  -0.83752   0.20078
  30   32495.0    307.7   0.075668525   0.76661   0.65644   0.25663  -0.51946
  31   32635.9    306.4   0.002246381   0.02266   0.02942   0.07113  -0.12936
  32   32890.4    304.0   0.079686486   0.79761   0.61834   0.51675   0.38502
  33   33035.0    302.7   0.018570166   0.18506  -0.41156  -0.01972   0.12367
  34   33188.2    301.3   0.049085935   0.48691  -0.03052   0.40603  -0.56667
  35   33336.0    300.0   0.022967729   0.22682  -0.12176   0.37376  -0.26888
  36   33824.1    295.6   0.007507870   0.07307  -0.20452   0.11678  -0.13270
  37   34325.1    291.3   0.063511592   0.60914   0.72643  -0.25678   0.12449
  38   34350.1    291.1   0.224049983   2.14730   1.27278  -0.32789   0.64793
  39   34604.5    289.0   0.207111114   1.97036   0.37743   0.99148  -0.91917
  40   34920.0    286.4   0.348796588   3.28831  -0.73013  -1.28688   1.04841
  41   35419.2    282.3   0.339944791   3.15969  -1.60599   0.21181  -0.73187
  42   35596.1    280.9   0.050018593   0.46260   0.09414  -0.37670   0.55842
  43   35952.6    278.1   0.167873946   1.53719   0.91016   0.64539  -0.54061
  44   36064.3    277.3   0.000811297   0.00741  -0.01438  -0.06699   0.05207
  45   36206.4    276.2   0.164798118   1.49845   0.06945   0.19926  -1.20579
  46   36575.3    273.4   0.043567954   0.39215   0.50826   0.26931  -0.24757
  47   36799.9    271.7   0.030992204   0.27726  -0.46989  -0.22297  -0.08209
  48   37005.0    270.2   0.016213559   0.14424   0.32912  -0.16976   0.08430
  49   37616.2    265.8   0.020489024   0.17932   0.09051  -0.18153  -0.37172
  50   38048.8    262.8   0.023410734   0.20256  -0.16581   0.34931  -0.23033
  51   38136.8    262.2   0.001874817   0.01618   0.12420   0.02132  -0.01740
  52   38151.7    262.1   0.000018420   0.00016   0.00296  -0.00610   0.01063
  53   38383.6    260.5   0.005172439   0.04436   0.06203   0.18393  -0.08177
  54   38772.4    257.9   0.010351453   0.08789  -0.20648  -0.15902  -0.14133
  55   39016.1    256.3   0.011501383   0.09705  -0.24633   0.18671  -0.03886
  56   39230.2    254.9   0.033289969   0.27936   0.13190   0.26385   0.43858
  57   39778.6    251.4   0.073549193   0.60870   0.06966   0.63539   0.44736
  58   40004.4    250.0   0.004928553   0.04056   0.10243  -0.06012   0.16264
  59   40277.4    248.3   0.029532490   0.24139   0.40945   0.21835   0.16143

FINAL SINGLE POINT ENERGY     -5416.882743202012

DIPOLE MOMENT
-------------
                                X             Y             Z
Electronic contribution:     36.58957     -11.64036     -25.59741
Nuclear contribution   :    -35.99807      11.22877      27.84326
                        -----------------------------------------
Total Dipole Moment    :      0.59150      -0.41159       2.24584
                        -----------------------------------------
Magnitude (a.u.)       :      2.35862
Magnitude (Debye)      :      5.99514

Rotational constants in cm-1:     0.001756     0.000099     0.000098
Rotational constants in MHz :    52.642312     2.974059     2.942956

                             ****ORCA TERMINATED NORMALLY****
TOTAL RUN TIME: 0 days 0 hours 12 minutes 21 seconds 643 msec
