                         Program Version 4.2.0 -  RELEASE  -
|  1> # ORCA input file
|  2> # SCF done       -141.094160474096          0.000480773396
|  3> ! CAM-B3LYP def2-SVP def2/J RIJCOSX Grid4 TightSCF
|  4> %maxcore 5000
|  5> %tddft
|  6>     Mode sTDDFT
|  7>     Ethresh 5.0
|  8>     maxcore 5000
|  9> end
| 10>
| 11> %pal
| 12>   nprocs 6
| 13>   end
| 14> * xyz 0 1
| 15>    C       -1.64438         0.45894         1.88087
| 16>    C       -0.89443         1.46582         2.43005
| 17>    C        0.39750         1.28102         2.96586
| 18>    N        1.44831         1.18955         3.41835
| 19>    C       -1.27330         2.82421         2.48713
| 20>    N       -1.49828         3.94872         2.54787
| 21>    C       -1.21043        -0.92076         1.70698
| 22>    C       -2.16543        -1.59369         0.90771
| 23>    C       -2.04274        -2.91762         0.56261
| 24>    C       -0.92658        -3.61379         1.03768
| 25>    C        0.02094        -2.93411         1.84056
| 26>    C       -0.10014        -1.59306         2.18306
| 27>    S        1.31524        -3.98515         2.32902
| 28>    C        0.57679        -5.30472         1.46051
| 29>    C       -0.57905        -4.97734         0.83526
| 30>   Br        1.39932        -6.98985         1.46411
| 31>    C       -3.25734        -0.66574         0.55113
| 32>    O       -4.19317        -0.92290        -0.17579
| 33>    C       -2.96460         0.58888         1.28429
| 34>    C       -3.81488         1.62596         1.55310
| 35>    C       -5.10532         1.90522         1.05968
| 36>    C       -5.82483         1.42541        -0.02489
| 37>    C       -7.08172         1.99684        -0.15024
| 38>    C       -7.37082         2.92809         0.83572
| 39>    S       -6.03444         3.11988         1.91732
| 40>    C       -8.58659         3.63189         1.02959
| 41>    C       -8.92624         4.47075         2.07338
| 42>    C      -10.23159         4.94566         1.99679
| 43>    C      -10.91608         4.49037         0.88675
| 44>    S       -9.91293         3.45208        -0.08227
| 45>    C      -12.26306         4.74593         0.52480
| 46>    C      -12.92073         4.37265        -0.63214
| 47>    C      -14.25063         4.77430        -0.66141
| 48>    C      -14.66177         5.42041         0.49093
| 49>    S      -13.32670         5.59437         1.60140
| 50>    C      -15.95297         5.94392         0.74395
| 51>    C      -16.53594         6.24295         1.93502
| 52>    C      -16.19355         5.89235         3.29835
| 53>    C      -15.61197         4.72101         3.70734
| 54>    C      -15.39121         4.38563         5.05801
| 55>    N      -15.17672         4.07960         6.14325
| 56>    C      -15.26788         3.67867         2.82148
| 57>    N      -15.02682         2.79007         2.13603
| 58>    C      -16.86124         6.85059         4.17090
| 59>    C      -17.79073         7.59366         3.39892
| 60>    C      -17.68927         7.18350         1.98323
| 61>    O      -18.35615         7.56163         1.04858
| 62>    C      -18.61776         8.53904         3.95576
| 63>    C      -18.51224         8.77024         5.33151
| 64>    C      -17.56669         8.03626         6.08806
| 65>    C      -16.73752         7.07185         5.52865
| 66>    S      -17.59629         8.49162         7.76376
| 67>    C      -18.86557         9.64106         7.43335
| 68>    C      -19.24694         9.68508         6.13470
| 69>   Br      -19.56429        10.67437         8.83328
| 70>    H       -2.78662        -3.40192        -0.05037
| 71>    H        0.64435        -1.12124         2.80228
| 72>    H       -1.16484        -5.66801         0.25664
| 73>    H       -3.48053         2.33573         2.30180
| 74>    H       -5.43560         0.67781        -0.69001
| 75>    H       -7.78495         1.74638        -0.92488
| 76>    H       -8.24014         4.71081         2.86605
| 77>    H      -10.68088         5.60033         2.72238
| 78>    H      -12.43234         3.83054        -1.42216
| 79>    H      -14.92230         4.57152        -1.47615
| 80>    H      -16.53428         6.20255        -0.13638
| 81>    H      -19.32603         9.08264         3.35051
| 82>    H      -16.02866         6.53763         6.13968
| 83>    H      -20.01477        10.33505         5.75673
| 84> *
| 85>
| 86>                          ****END OF INPUT****

CARTESIAN COORDINATES (ANGSTROEM)
---------------------------------
  C     -1.644380    0.458940    1.880870
  C     -0.894430    1.465820    2.430050
  C      0.397500    1.281020    2.965860
  N      1.448310    1.189550    3.418350
  C     -1.273300    2.824210    2.487130
  N     -1.498280    3.948720    2.547870
  C     -1.210430   -0.920760    1.706980
  C     -2.165430   -1.593690    0.907710
  C     -2.042740   -2.917620    0.562610
  C     -0.926580   -3.613790    1.037680
  C      0.020940   -2.934110    1.840560
  C     -0.100140   -1.593060    2.183060
  S      1.315240   -3.985150    2.329020
  C      0.576790   -5.304720    1.460510
  C     -0.579050   -4.977340    0.835260
  Br     1.399320   -6.989850    1.464110
  C     -3.257340   -0.665740    0.551130
  O     -4.193170   -0.922900   -0.175790
  C     -2.964600    0.588880    1.284290
  C     -3.814880    1.625960    1.553100
  C     -5.105320    1.905220    1.059680
  C     -5.824830    1.425410   -0.024890
  C     -7.081720    1.996840   -0.150240
  C     -7.370820    2.928090    0.835720
  S     -6.034440    3.119880    1.917320
  C     -8.586590    3.631890    1.029590
  C     -8.926240    4.470750    2.073380
  C    -10.231590    4.945660    1.996790
  C    -10.916080    4.490370    0.886750
  S     -9.912930    3.452080   -0.082270
  C    -12.263060    4.745930    0.524800
  C    -12.920730    4.372650   -0.632140
  C    -14.250630    4.774300   -0.661410
  C    -14.661770    5.420410    0.490930
  S    -13.326700    5.594370    1.601400
  C    -15.952970    5.943920    0.743950
  C    -16.535940    6.242950    1.935020
  C    -16.193550    5.892350    3.298350
  C    -15.611970    4.721010    3.707340
  C    -15.391210    4.385630    5.058010
  N    -15.176720    4.079600    6.143250
  C    -15.267880    3.678670    2.821480
  N    -15.026820    2.790070    2.136030
  C    -16.861240    6.850590    4.170900
  C    -17.790730    7.593660    3.398920
  C    -17.689270    7.183500    1.983230
  O    -18.356150    7.561630    1.048580
  C    -18.617760    8.539040    3.955760
  C    -18.512240    8.770240    5.331510
  C    -17.566690    8.036260    6.088060
  C    -16.737520    7.071850    5.528650
  S    -17.596290    8.491620    7.763760
  C    -18.865570    9.641060    7.433350
  C    -19.246940    9.685080    6.134700
  Br   -19.564290   10.674370    8.833280
  H     -2.786620   -3.401920   -0.050370
  H      0.644350   -1.121240    2.802280
  H     -1.164840   -5.668010    0.256640
  H     -3.480530    2.335730    2.301800
  H     -5.435600    0.677810   -0.690010
  H     -7.784950    1.746380   -0.924880
  H     -8.240140    4.710810    2.866050
  H    -10.680880    5.600330    2.722380
  H    -12.432340    3.830540   -1.422160
  H    -14.922300    4.571520   -1.476150
  H    -16.534280    6.202550   -0.136380
  H    -19.326030    9.082640    3.350510
  H    -16.028660    6.537630    6.139680
  H    -20.014770   10.335050    5.756730

 Total Charge           Charge          ....    0
 Multiplicity           Mult            ....    1
 Number of Electrons    NEL             ....  460
 Basis Dimension        Dim             ....  896

ORBITAL ENERGIES
----------------

  NO   OCC          E(Eh)            E(eV)
   0   2.0000    -482.887232    -13140.0296
   1   2.0000    -482.885821    -13139.9912
   2   2.0000     -88.977988     -2421.2142
   3   2.0000     -88.977709     -2421.2065
   4   2.0000     -88.975963     -2421.1590
   5   2.0000     -88.975787     -2421.1542
   6   2.0000     -88.974081     -2421.1078
   7   2.0000     -62.564949     -1702.4788
   8   2.0000     -62.563551     -1702.4408
   9   2.0000     -56.398904     -1534.6922
  10   2.0000     -56.397504     -1534.6541
  11   2.0000     -56.396179     -1534.6181
  12   2.0000     -56.396150     -1534.6173
  13   2.0000     -56.394783     -1534.5801
  14   2.0000     -56.394751     -1534.5792
  15   2.0000     -19.219566      -522.9910
  16   2.0000     -19.216913      -522.9188
  17   2.0000     -14.418241      -392.3403
  18   2.0000     -14.414779      -392.2461
  19   2.0000     -14.414182      -392.2298
  20   2.0000     -14.414033      -392.2258
  21   2.0000     -10.370887      -282.2062
  22   2.0000     -10.368682      -282.1462
  23   2.0000     -10.360728      -281.9297
  24   2.0000     -10.359266      -281.8900
  25   2.0000     -10.345443      -281.5138
  26   2.0000     -10.344158      -281.4789
  27   2.0000     -10.341600      -281.4093
  28   2.0000     -10.340920      -281.3907
  29   2.0000     -10.333352      -281.1848
  30   2.0000     -10.332347      -281.1574
  31   2.0000     -10.328395      -281.0499
  32   2.0000     -10.327815      -281.0341
  33   2.0000     -10.327230      -281.0182
  34   2.0000     -10.325923      -280.9827
  35   2.0000     -10.325173      -280.9622
  36   2.0000     -10.324064      -280.9321
  37   2.0000     -10.320724      -280.8412
  38   2.0000     -10.320615      -280.8382
  39   2.0000     -10.318175      -280.7718
  40   2.0000     -10.317769      -280.7608
  41   2.0000     -10.317175      -280.7446
  42   2.0000     -10.316332      -280.7217
  43   2.0000     -10.311478      -280.5896
  44   2.0000     -10.309715      -280.5416
  45   2.0000     -10.308356      -280.5046
  46   2.0000     -10.308215      -280.5008
  47   2.0000     -10.308043      -280.4961
  48   2.0000     -10.306006      -280.4407
  49   2.0000     -10.303865      -280.3824
  50   2.0000     -10.301469      -280.3172
  51   2.0000     -10.301042      -280.3056
  52   2.0000     -10.300058      -280.2788
  53   2.0000     -10.299710      -280.2693
  54   2.0000     -10.298547      -280.2377
  55   2.0000     -10.297053      -280.1971
  56   2.0000     -10.296837      -280.1912
  57   2.0000     -10.296371      -280.1785
  58   2.0000     -10.295645      -280.1587
  59   2.0000     -10.293499      -280.1004
  60   2.0000     -10.292737      -280.0796
  61   2.0000     -10.291682      -280.0509
  62   2.0000     -10.290897      -280.0295
  63   2.0000      -8.794384      -239.3073
  64   2.0000      -8.792996      -239.2696
  65   2.0000      -8.073731      -219.6974
  66   2.0000      -8.073329      -219.6865
  67   2.0000      -8.071828      -219.6456
  68   2.0000      -8.070984      -219.6226
  69   2.0000      -8.069826      -219.5911
  70   2.0000      -6.630713      -180.4309
  71   2.0000      -6.629324      -180.3931
  72   2.0000      -6.616111      -180.0335
  73   2.0000      -6.615891      -180.0276
  74   2.0000      -6.614719      -179.9957
  75   2.0000      -6.614515      -179.9901
  76   2.0000      -6.043433      -164.4502
  77   2.0000      -6.042688      -164.4299
  78   2.0000      -6.041512      -164.3979
  79   2.0000      -6.040368      -164.3668
  80   2.0000      -6.039134      -164.3332
  81   2.0000      -6.039048      -164.3309
  82   2.0000      -6.038564      -164.3177
  83   2.0000      -6.037237      -164.2816
  84   2.0000      -6.036218      -164.2538
  85   2.0000      -6.035327      -164.2296
  86   2.0000      -6.034994      -164.2205
  87   2.0000      -6.034941      -164.2191
  88   2.0000      -6.033037      -164.1673
  89   2.0000      -6.032958      -164.1651
  90   2.0000      -6.031924      -164.1370
  91   2.0000      -2.746546       -74.7373
  92   2.0000      -2.745134       -74.6989
  93   2.0000      -2.742478       -74.6266
  94   2.0000      -2.742362       -74.6235
  95   2.0000      -2.741117       -74.5896
  96   2.0000      -2.740969       -74.5855
  97   2.0000      -2.730724       -74.3068
  98   2.0000      -2.730709       -74.3064
  99   2.0000      -2.729347       -74.2693
 100   2.0000      -2.729326       -74.2687
 101   2.0000      -1.134696       -30.8766
 102   2.0000      -1.132424       -30.8148
 103   2.0000      -1.026097       -27.9215
 104   2.0000      -1.023335       -27.8464
 105   2.0000      -1.019648       -27.7460
 106   2.0000      -1.014935       -27.6178
 107   2.0000      -1.013122       -27.5685
 108   2.0000      -1.005424       -27.3590
 109   2.0000      -0.995097       -27.0780
 110   2.0000      -0.993284       -27.0286
 111   2.0000      -0.991545       -26.9813
 112   2.0000      -0.990251       -26.9461
 113   2.0000      -0.986106       -26.8333
 114   2.0000      -0.945265       -25.7220
 115   2.0000      -0.943479       -25.6734
 116   2.0000      -0.914613       -24.8879
 117   2.0000      -0.910512       -24.7763
 118   2.0000      -0.908589       -24.7240
 119   2.0000      -0.905421       -24.6378
 120   2.0000      -0.888311       -24.1722
 121   2.0000      -0.886448       -24.1215
 122   2.0000      -0.885420       -24.0935
 123   2.0000      -0.872691       -23.7471
 124   2.0000      -0.861111       -23.4320
 125   2.0000      -0.858446       -23.3595
 126   2.0000      -0.846335       -23.0299
 127   2.0000      -0.842546       -22.9268
 128   2.0000      -0.831640       -22.6301
 129   2.0000      -0.829565       -22.5736
 130   2.0000      -0.820805       -22.3352
 131   2.0000      -0.799142       -21.7458
 132   2.0000      -0.774236       -21.0680
 133   2.0000      -0.765609       -20.8333
 134   2.0000      -0.759451       -20.6657
 135   2.0000      -0.756513       -20.5858
 136   2.0000      -0.724155       -19.7053
 137   2.0000      -0.716499       -19.4969
 138   2.0000      -0.704729       -19.1766
 139   2.0000      -0.696877       -18.9630
 140   2.0000      -0.691647       -18.8207
 141   2.0000      -0.687474       -18.7071
 142   2.0000      -0.685286       -18.6476
 143   2.0000      -0.669964       -18.2307
 144   2.0000      -0.661614       -18.0034
 145   2.0000      -0.660132       -17.9631
 146   2.0000      -0.643486       -17.5102
 147   2.0000      -0.641501       -17.4561
 148   2.0000      -0.633068       -17.2267
 149   2.0000      -0.630735       -17.1632
 150   2.0000      -0.626591       -17.0504
 151   2.0000      -0.626279       -17.0419
 152   2.0000      -0.621029       -16.8991
 153   2.0000      -0.607555       -16.5324
 154   2.0000      -0.600125       -16.3302
 155   2.0000      -0.599715       -16.3191
 156   2.0000      -0.587628       -15.9902
 157   2.0000      -0.585637       -15.9360
 158   2.0000      -0.568119       -15.4593
 159   2.0000      -0.558865       -15.2075
 160   2.0000      -0.552021       -15.0213
 161   2.0000      -0.551926       -15.0187
 162   2.0000      -0.544725       -14.8227
 163   2.0000      -0.542812       -14.7707
 164   2.0000      -0.541389       -14.7319
 165   2.0000      -0.535991       -14.5851
 166   2.0000      -0.534047       -14.5321
 167   2.0000      -0.530755       -14.4426
 168   2.0000      -0.526731       -14.3331
 169   2.0000      -0.520872       -14.1736
 170   2.0000      -0.519173       -14.1274
 171   2.0000      -0.517881       -14.0923
 172   2.0000      -0.514395       -13.9974
 173   2.0000      -0.510162       -13.8822
 174   2.0000      -0.509909       -13.8753
 175   2.0000      -0.506345       -13.7784
 176   2.0000      -0.505512       -13.7557
 177   2.0000      -0.501097       -13.6355
 178   2.0000      -0.496838       -13.5197
 179   2.0000      -0.494295       -13.4505
 180   2.0000      -0.493003       -13.4153
 181   2.0000      -0.492082       -13.3902
 182   2.0000      -0.489712       -13.3257
 183   2.0000      -0.484873       -13.1941
 184   2.0000      -0.478815       -13.0292
 185   2.0000      -0.474504       -12.9119
 186   2.0000      -0.473034       -12.8719
 187   2.0000      -0.472201       -12.8492
 188   2.0000      -0.460673       -12.5356
 189   2.0000      -0.458547       -12.4777
 190   2.0000      -0.455096       -12.3838
 191   2.0000      -0.450257       -12.2521
 192   2.0000      -0.448670       -12.2089
 193   2.0000      -0.448131       -12.1943
 194   2.0000      -0.447935       -12.1889
 195   2.0000      -0.444912       -12.1067
 196   2.0000      -0.443403       -12.0656
 197   2.0000      -0.442393       -12.0381
 198   2.0000      -0.440451       -11.9853
 199   2.0000      -0.438734       -11.9386
 200   2.0000      -0.433179       -11.7874
 201   2.0000      -0.429009       -11.6739
 202   2.0000      -0.428700       -11.6655
 203   2.0000      -0.426248       -11.5988
 204   2.0000      -0.424662       -11.5556
 205   2.0000      -0.422664       -11.5013
 206   2.0000      -0.422178       -11.4881
 207   2.0000      -0.415894       -11.3171
 208   2.0000      -0.410992       -11.1837
 209   2.0000      -0.407973       -11.1015
 210   2.0000      -0.399092       -10.8598
 211   2.0000      -0.390815       -10.6346
 212   2.0000      -0.387630       -10.5480
 213   2.0000      -0.381920       -10.3926
 214   2.0000      -0.376650       -10.2492
 215   2.0000      -0.375294       -10.2123
 216   2.0000      -0.365951        -9.9580
 217   2.0000      -0.354771        -9.6538
 218   2.0000      -0.348369        -9.4796
 219   2.0000      -0.345250        -9.3947
 220   2.0000      -0.340455        -9.2642
 221   2.0000      -0.338560        -9.2127
 222   2.0000      -0.336085        -9.1453
 223   2.0000      -0.327527        -8.9125
 224   2.0000      -0.317500        -8.6396
 225   2.0000      -0.316180        -8.6037
 226   2.0000      -0.298165        -8.1135
 227   2.0000      -0.295145        -8.0313
 228   2.0000      -0.291474        -7.9314
 229   2.0000      -0.256721        -6.9857
 230   0.0000      -0.103584        -2.8187
 231   0.0000      -0.088511        -2.4085
 232   0.0000      -0.065001        -1.7688
 233   0.0000      -0.058453        -1.5906
 234   0.0000      -0.035686        -0.9711

MULLIKEN ATOMIC CHARGES
-----------------------
   0 C :    0.292220
   1 C :   -0.346328
   2 C :   -0.183899
   3 N :    0.150355
   4 C :   -0.204782
   5 N :    0.158988
   6 C :    0.017513
   7 C :   -0.010661
   8 C :   -0.075684
   9 C :    0.119325
  10 C :   -0.089249
  11 C :   -0.021641
  12 S :    0.186771
  13 C :   -0.124254
  14 C :    0.039222
  15 Br:    0.024197
  16 C :    0.154492
  17 O :   -0.156934
  18 C :   -0.090949
  19 C :    0.045125
  20 C :   -0.111669
  21 C :    0.059343
  22 C :   -0.018806
  23 C :   -0.027887
  24 S :    0.149189
  25 C :   -0.035921
  26 C :    0.002761
  27 C :    0.001255
  28 C :   -0.034420
  29 S :    0.145055
  30 C :   -0.027238
  31 C :   -0.000909
  32 C :    0.079362
  33 C :   -0.107210
  34 S :    0.148900
  35 C :    0.062697
  36 C :   -0.136960
  37 C :    0.246357
  38 C :   -0.319417
  39 C :   -0.175343
  40 N :    0.153348
  41 C :   -0.207675
  42 N :    0.175109
  43 C :    0.003706
  44 C :    0.003211
  45 C :    0.138063
  46 O :   -0.143103
  47 C :   -0.070392
  48 C :    0.109389
  49 C :   -0.086011
  50 C :   -0.020153
  51 S :    0.185277
  52 C :   -0.126268
  53 C :    0.042748
  54 Br:    0.024739
  55 H :   -0.010417
  56 H :   -0.004484
  57 H :   -0.003049
  58 H :    0.020569
  59 H :    0.019587
  60 H :   -0.001779
  61 H :    0.001762
  62 H :   -0.000404
  63 H :   -0.002500
  64 H :   -0.000320
  65 H :    0.027824
  66 H :   -0.007247
  67 H :   -0.002399
  68 H :   -0.002102
Sum of atomic charges:   -0.0000000

LOEWDIN ATOMIC CHARGES
----------------------
   0 C :    0.076439
   1 C :   -0.143184
   2 C :   -0.018604
   3 N :   -0.053995
   4 C :   -0.026528
   5 N :   -0.051586
   6 C :   -0.021161
   7 C :   -0.049911
   8 C :    0.021385
   9 C :   -0.032508
  10 C :   -0.143913
  11 C :   -0.009602
  12 S :    0.433136
  13 C :   -0.271542
  14 C :   -0.070329
  15 Br:    0.137317
  16 C :    0.086988
  17 O :   -0.142231
  18 C :   -0.096911
  19 C :    0.047188
  20 C :   -0.181537
  21 C :    0.001806
  22 C :   -0.062940
  23 C :   -0.158759
  24 S :    0.458149
  25 C :   -0.181843
  26 C :   -0.043313
  27 C :   -0.046331
  28 C :   -0.178672
  29 S :    0.456581
  30 C :   -0.154603
  31 C :   -0.057886
  32 C :   -0.004380
  33 C :   -0.183145
  34 S :    0.470222
  35 C :    0.052850
  36 C :   -0.098416
  37 C :    0.060496
  38 C :   -0.141435
  39 C :   -0.020043
  40 N :   -0.051229
  41 C :   -0.035328
  42 N :   -0.046923
  43 C :   -0.017402
  44 C :   -0.052809
  45 C :    0.083583
  46 O :   -0.142677
  47 C :    0.023222
  48 C :   -0.033520
  49 C :   -0.142674
  50 C :   -0.012980
  51 S :    0.432599
  52 C :   -0.271785
  53 C :   -0.069806
  54 Br:    0.137904
  55 H :    0.040716
  56 H :    0.041287
  57 H :    0.038898
  58 H :    0.044250
  59 H :    0.037774
  60 H :    0.030340
  61 H :    0.032842
  62 H :    0.031960
  63 H :    0.030902
  64 H :    0.039177
  65 H :    0.052379
  66 H :    0.041911
  67 H :    0.040867
  68 H :    0.039272

  Mayer bond orders larger than 0.100000
B(  0-C ,  1-C ) :   1.6353 B(  0-C ,  6-C ) :   1.0031 B(  0-C , 18-C ) :   1.0715
B(  1-C ,  2-C ) :   1.1402 B(  1-C ,  4-C ) :   1.1382 B(  2-C ,  3-N ) :   2.9757
B(  4-C ,  5-N ) :   2.9982 B(  6-C ,  7-C ) :   1.2744 B(  6-C , 11-C ) :   1.4096
B(  7-C ,  8-C ) :   1.4212 B(  7-C , 16-C ) :   0.9495 B(  8-C ,  9-C ) :   1.2454
B(  8-C , 55-H ) :   1.0175 B(  9-C , 10-C ) :   1.3052 B(  9-C , 14-C ) :   1.1635
B( 10-C , 11-C ) :   1.3295 B( 10-C , 12-S ) :   1.0853 B( 11-C , 56-H ) :   0.9817
B( 12-S , 13-C ) :   1.0876 B( 13-C , 14-C ) :   1.6172 B( 13-C , 15-Br) :   1.0190
B( 14-C , 57-H ) :   1.0008 B( 16-C , 17-O ) :   2.1809 B( 16-C , 18-C ) :   0.9440
B( 18-C , 19-C ) :   1.5952 B( 19-C , 20-C ) :   1.2082 B( 19-C , 58-H ) :   0.9254
B( 20-C , 21-C ) :   1.4401 B( 20-C , 24-S ) :   1.0896 B( 21-C , 22-C ) :   1.3077
B( 21-C , 59-H ) :   0.9783 B( 22-C , 23-C ) :   1.4354 B( 22-C , 60-H ) :   0.9940
B( 23-C , 24-S ) :   1.1687 B( 23-C , 25-C ) :   1.1562 B( 25-C , 26-C ) :   1.4836
B( 25-C , 28-C ) :   0.1004 B( 25-C , 29-S ) :   1.1279 B( 26-C , 27-C ) :   1.2891
B( 26-C , 61-H ) :   0.9931 B( 27-C , 28-C ) :   1.4816 B( 27-C , 62-H ) :   0.9936
B( 28-C , 29-S ) :   1.1297 B( 28-C , 30-C ) :   1.1584 B( 30-C , 31-C ) :   1.4671
B( 30-C , 34-S ) :   1.1517 B( 31-C , 32-C ) :   1.2953 B( 31-C , 63-H ) :   0.9914
B( 32-C , 33-C ) :   1.4421 B( 32-C , 64-H ) :   0.9986 B( 33-C , 34-S ) :   1.1064
B( 33-C , 35-C ) :   1.1263 B( 35-C , 36-C ) :   1.6556 B( 35-C , 65-H ) :   0.9479
B( 36-C , 37-C ) :   1.0312 B( 36-C , 45-C ) :   0.9417 B( 37-C , 38-C ) :   1.6576
B( 37-C , 43-C ) :   1.0179 B( 38-C , 39-C ) :   1.1322 B( 38-C , 41-C ) :   1.1520
B( 39-C , 40-N ) :   2.9926 B( 41-C , 42-N ) :   3.0270 B( 43-C , 44-C ) :   1.2761
B( 43-C , 50-C ) :   1.4148 B( 44-C , 45-C ) :   0.9199 B( 44-C , 47-C ) :   1.4253
B( 45-C , 46-O ) :   2.2704 B( 47-C , 48-C ) :   1.2541 B( 47-C , 66-H ) :   1.0164
B( 48-C , 49-C ) :   1.3075 B( 48-C , 53-C ) :   1.1626 B( 49-C , 50-C ) :   1.3277
B( 49-C , 51-S ) :   1.0833 B( 50-C , 67-H ) :   0.9845 B( 51-S , 52-C ) :   1.0872
B( 52-C , 53-C ) :   1.6187 B( 52-C , 54-Br) :   1.0194 B( 53-C , 68-H ) :   1.0008

-----------------------------------------------------------------------------
         ABSORPTION SPECTRUM VIA TRANSITION ELECTRIC DIPOLE MOMENTS
-----------------------------------------------------------------------------
State   Energy  Wavelength   fosc         T2         TX        TY        TZ
        (cm-1)    (nm)                  (au**2)     (au)      (au)      (au)
-----------------------------------------------------------------------------
   0   17624.7    567.4   1.678440946  31.35156  -5.15431   2.01389   0.85377
   1   21942.8    455.7   0.428235773   6.42490   1.86950  -1.14580   1.27162
   2   26340.8    379.6   0.039749061   0.49679   0.01280   0.62268   0.32999
   3   26490.1    377.5   0.046953331   0.58352   0.60919  -0.46082   0.00768
   4   27615.2    362.1   0.278869745   3.32452  -0.53090   1.43791   0.98746
   5   27772.0    360.1   0.439469304   5.20951   1.26535  -1.89621   0.11300
   6   28655.1    349.0   0.073258430   0.84165  -0.40818  -0.52159   0.63481
   7   29260.6    341.8   0.020160135   0.22682  -0.11178  -0.15084  -0.43769
   8   29773.4    335.9   0.030605573   0.33841   0.23308   0.11540  -0.52036
   9   30127.6    331.9   0.005489211   0.05998   0.18616   0.06120   0.14690
  10   30207.0    331.0   0.024218033   0.26394   0.29302  -0.39308  -0.15354
  11   31562.1    316.8   0.091352750   0.95286   0.76223  -0.60390  -0.08469
  12   32856.8    304.4   0.385206109   3.85961   1.05428  -1.61054  -0.39277
  13   33150.1    301.7   0.121237074   1.20400   0.78525   0.75553  -0.12867
  14   33274.5    300.5   0.222970678   2.20603   0.30248  -1.43908  -0.20875
  15   33546.0    298.1   0.381005185   3.73909  -0.71910   1.45981   1.04448
  16   33594.4    297.7   0.138748996   1.35969  -0.08783  -1.00050  -0.59244
  17   33899.6    295.0   0.163239824   1.58529   0.13922  -1.16593  -0.45443
  18   35348.8    282.9   0.021652629   0.20166   0.02218  -0.31379  -0.32046
  19   35852.7    278.9   0.011426892   0.10493   0.18853   0.14048   0.22282
  20   36103.8    277.0   0.011952587   0.10899   0.13676  -0.04202   0.29752
  21   36570.2    273.4   0.012631041   0.11371   0.26890  -0.15632  -0.13024
  22   36999.3    270.3   0.014946497   0.13299  -0.01109   0.32722   0.16062
  23   37222.0    268.7   0.062482602   0.55263  -0.02437  -0.44130  -0.59774
  24   38078.5    262.6   0.229975828   1.98828   1.27831  -0.53925   0.25181
  25   38217.1    261.7   0.125980002   1.08523  -0.04613  -0.59675  -0.85263
  26   38716.4    258.3   0.059264220   0.50393  -0.16276  -0.64610   0.24496
  27   39435.9    253.6   0.094379392   0.78788   0.72699  -0.23016   0.45431
  28   39900.7    250.6   0.195252611   1.61099   0.60940  -0.07198   1.11105

FINAL SINGLE POINT ENERGY     -9114.043129082231

DIPOLE MOMENT
-------------
                                X             Y             Z
Electronic contribution:      9.83646     -24.35416      59.19587
Nuclear contribution   :    -11.34213      24.49241     -60.20214
                        -----------------------------------------
Total Dipole Moment    :     -1.50567       0.13825      -1.00627
                        -----------------------------------------
Magnitude (a.u.)       :      1.81624
Magnitude (Debye)      :      4.61651

Rotational constants in cm-1:     0.002454     0.000208     0.000204
Rotational constants in MHz :    73.570439     6.243371     6.107174

                             ****ORCA TERMINATED NORMALLY****
TOTAL RUN TIME: 0 days 0 hours 5 minutes 46 seconds 833 msec
