                         Program Version 4.2.0 -  RELEASE  -
|  1> # ORCA input file
|  2> # SCF done       -185.082363362676          0.000396940685
|  3> ! CAM-B3LYP def2-SVP def2/J RIJCOSX Grid4 TightSCF
|  4> %maxcore 5000
|  5> %tddft
|  6>     Mode sTDDFT
|  7>     Ethresh 5.0
|  8>     maxcore 5000
|  9> end
| 10>
| 11> %pal
| 12>   nprocs 6
| 13>   end
| 14> * xyz 0 1
| 15>    C       -2.16975         0.62961         7.03648
| 16>    C       -2.01489        -0.73152         7.08394
| 17>    C       -0.95126        -1.38202         7.74449
| 18>    N       -0.11259        -1.96864         8.26430
| 19>    C       -2.86293        -1.67623         6.46823
| 20>    N       -3.49509        -2.50537         5.98683
| 21>    C       -1.25572         1.60322         7.62631
| 22>    C       -1.69239         2.90568         7.27847
| 23>    C       -1.03963         4.04358         7.68570
| 24>    C        0.09916         3.88990         8.48314
| 25>    C        0.52743         2.58604         8.82973
| 26>    C       -0.13118         1.43547         8.41212
| 27>    S        1.94866         2.62489         9.82752
| 28>    C        1.94859         4.36757         9.76724
| 29>    C        0.93750         4.89550         9.03683
| 30>   Br        3.28058         5.32496        10.67563
| 31>    C       -2.91228         2.80107         6.46256
| 32>    O       -3.53624         3.72906         5.97523
| 33>    C       -3.22529         1.37193         6.37153
| 34>    C       -4.36920         0.84034         5.83202
| 35>    C       -5.45452         1.47199         5.20742
| 36>    C       -6.59809         0.76124         4.82048
| 37>    C       -7.55802         1.57238         4.24864
| 38>    C       -7.13818         2.92326         4.16748
| 39>    S       -5.58962         3.18928         4.82211
| 40>    C       -8.19278         3.67225         3.59443
| 41>    C       -9.27466         2.81416         3.32545
| 42>    C       -8.90583         1.46218         3.71394
| 43>    C       -9.66859         0.33752         3.60046
| 44>    C       -9.21035        -0.93035         4.01765
| 45>    N       -8.84722        -1.96340         4.35665
| 46>    C      -10.97066         0.37146         3.05823
| 47>    N      -12.02834         0.40344         2.61651
| 48>    C      -10.37741         3.47850         2.79286
| 49>    C      -10.13915         4.83359         2.64163
| 50>    S       -8.52638         5.29329         3.16400
| 51>    C      -11.04234         5.81597         2.16388
| 52>    C      -10.77567         7.13785         1.85958
| 53>    C      -11.92032         7.81998         1.44770
| 54>    C      -13.07090         7.00995         1.45435
| 55>    S      -12.73929         5.40681         1.93749
| 56>    C      -14.17885         7.79620         1.05798
| 57>    C      -13.73154         9.09930         0.78396
| 58>    C      -12.29457         9.15542         1.01478
| 59>    C      -11.47594        10.23516         0.85922
| 60>    C      -10.09128        10.16829         1.12171
| 61>    N       -8.96622        10.11381         1.33584
| 62>    C      -11.96121        11.48689         0.42567
| 63>    N      -12.35641        12.50408         0.07383
| 64>    C      -14.76015         9.95973         0.40541
| 65>    C      -15.99348         9.33091         0.40499
| 66>    S      -15.86838         7.63545         0.86353
| 67>    C      -17.26384         9.90303         0.10509
| 68>    C      -18.44614         9.23480         0.31264
| 69>    C      -19.71282         9.75597         0.05640
| 70>    C      -19.87643        11.10387        -0.49935
| 71>    C      -18.85134        11.93718        -0.78179
| 72>    S      -17.20197        11.54176        -0.53537
| 73>    C      -21.27896        11.28535        -0.62903
| 74>    C      -21.95446        10.14638        -0.17750
| 75>    C      -23.35550        10.29574        -0.29668
| 76>    C      -23.69173        11.50565        -0.81510
| 77>    S      -22.33786        12.51761        -1.18269
| 78>    C      -20.98081         9.17928         0.26229
| 79>    C      -21.19689         7.89722         0.82707
| 80>    C      -22.39379         7.33616         1.11498
| 81>    C      -22.52005         6.04908         1.71253
| 82>    N      -23.63791         5.46213         2.03575
| 83>    C      -23.28079         4.26149         2.58479
| 84>    C      -21.90772         4.17640         2.56532
| 85>    O      -21.42278         5.29473         2.01931
| 86>    C      -24.25680         3.30339         3.08243
| 87>    O      -23.98555         2.23926         3.57760
| 88>    H       -1.39776         5.02066         7.40173
| 89>    H        0.23436         0.46616         8.70660
| 90>    H        0.78689         5.95003         8.89471
| 91>    H       -4.49712        -0.23238         5.91491
| 92>    H       -6.69203        -0.29916         4.97559
| 93>    H      -11.31035         3.01743         2.52226
| 94>    H       -9.79206         7.56532         1.93714
| 95>    H      -14.63412        10.99751         0.15474
| 96>    H      -18.37038         8.23310         0.71554
| 97>    H      -19.00044        12.92735        -1.18262
| 98>    H      -24.09044         9.56132        -0.02525
| 99>    H      -24.67659        11.88178        -1.01215
|100>    H      -20.30860         7.32523         1.06257
|101>    H      -23.32939         7.83223         0.92584
|102>    H      -21.22662         3.41768         2.89191
|103>    H      -25.29795         3.65055         2.96123
|104> *
|105>
|106>                          ****END OF INPUT****

CARTESIAN COORDINATES (ANGSTROEM)
---------------------------------
  C     -2.169750    0.629610    7.036480
  C     -2.014890   -0.731520    7.083940
  C     -0.951260   -1.382020    7.744490
  N     -0.112590   -1.968640    8.264300
  C     -2.862930   -1.676230    6.468230
  N     -3.495090   -2.505370    5.986830
  C     -1.255720    1.603220    7.626310
  C     -1.692390    2.905680    7.278470
  C     -1.039630    4.043580    7.685700
  C      0.099160    3.889900    8.483140
  C      0.527430    2.586040    8.829730
  C     -0.131180    1.435470    8.412120
  S      1.948660    2.624890    9.827520
  C      1.948590    4.367570    9.767240
  C      0.937500    4.895500    9.036830
  Br     3.280580    5.324960   10.675630
  C     -2.912280    2.801070    6.462560
  O     -3.536240    3.729060    5.975230
  C     -3.225290    1.371930    6.371530
  C     -4.369200    0.840340    5.832020
  C     -5.454520    1.471990    5.207420
  C     -6.598090    0.761240    4.820480
  C     -7.558020    1.572380    4.248640
  C     -7.138180    2.923260    4.167480
  S     -5.589620    3.189280    4.822110
  C     -8.192780    3.672250    3.594430
  C     -9.274660    2.814160    3.325450
  C     -8.905830    1.462180    3.713940
  C     -9.668590    0.337520    3.600460
  C     -9.210350   -0.930350    4.017650
  N     -8.847220   -1.963400    4.356650
  C    -10.970660    0.371460    3.058230
  N    -12.028340    0.403440    2.616510
  C    -10.377410    3.478500    2.792860
  C    -10.139150    4.833590    2.641630
  S     -8.526380    5.293290    3.164000
  C    -11.042340    5.815970    2.163880
  C    -10.775670    7.137850    1.859580
  C    -11.920320    7.819980    1.447700
  C    -13.070900    7.009950    1.454350
  S    -12.739290    5.406810    1.937490
  C    -14.178850    7.796200    1.057980
  C    -13.731540    9.099300    0.783960
  C    -12.294570    9.155420    1.014780
  C    -11.475940   10.235160    0.859220
  C    -10.091280   10.168290    1.121710
  N     -8.966220   10.113810    1.335840
  C    -11.961210   11.486890    0.425670
  N    -12.356410   12.504080    0.073830
  C    -14.760150    9.959730    0.405410
  C    -15.993480    9.330910    0.404990
  S    -15.868380    7.635450    0.863530
  C    -17.263840    9.903030    0.105090
  C    -18.446140    9.234800    0.312640
  C    -19.712820    9.755970    0.056400
  C    -19.876430   11.103870   -0.499350
  C    -18.851340   11.937180   -0.781790
  S    -17.201970   11.541760   -0.535370
  C    -21.278960   11.285350   -0.629030
  C    -21.954460   10.146380   -0.177500
  C    -23.355500   10.295740   -0.296680
  C    -23.691730   11.505650   -0.815100
  S    -22.337860   12.517610   -1.182690
  C    -20.980810    9.179280    0.262290
  C    -21.196890    7.897220    0.827070
  C    -22.393790    7.336160    1.114980
  C    -22.520050    6.049080    1.712530
  N    -23.637910    5.462130    2.035750
  C    -23.280790    4.261490    2.584790
  C    -21.907720    4.176400    2.565320
  O    -21.422780    5.294730    2.019310
  C    -24.256800    3.303390    3.082430
  O    -23.985550    2.239260    3.577600
  H     -1.397760    5.020660    7.401730
  H      0.234360    0.466160    8.706600
  H      0.786890    5.950030    8.894710
  H     -4.497120   -0.232380    5.914910
  H     -6.692030   -0.299160    4.975590
  H    -11.310350    3.017430    2.522260
  H     -9.792060    7.565320    1.937140
  H    -14.634120   10.997510    0.154740
  H    -18.370380    8.233100    0.715540
  H    -19.000440   12.927350   -1.182620
  H    -24.090440    9.561320   -0.025250
  H    -24.676590   11.881780   -1.012150
  H    -20.308600    7.325230    1.062570
  H    -23.329390    7.832230    0.925840
  H    -21.226620    3.417680    2.891910
  H    -25.297950    3.650550    2.961230

 Total Charge           Charge          ....    0
 Multiplicity           Mult            ....    1
 Number of Electrons    NEL             ....  566
 Basis Dimension        Dim             .... 1148

ORBITAL ENERGIES
----------------

  NO   OCC          E(Eh)            E(eV)
   0   2.0000    -482.888853    -13140.0737
   1   2.0000     -89.002936     -2421.8930
   2   2.0000     -89.002095     -2421.8701
   3   2.0000     -89.000948     -2421.8389
   4   2.0000     -88.994827     -2421.6724
   5   2.0000     -88.986255     -2421.4391
   6   2.0000     -88.979614     -2421.2584
   7   2.0000     -88.962748     -2420.7994
   8   2.0000     -62.566579     -1702.5232
   9   2.0000     -56.400532     -1534.7365
  10   2.0000     -56.397809     -1534.6624
  11   2.0000     -56.397776     -1534.6615
  12   2.0000     -19.310428      -525.4635
  13   2.0000     -19.229690      -523.2665
  14   2.0000     -19.206522      -522.6360
  15   2.0000     -14.440563      -392.9477
  16   2.0000     -14.439907      -392.9299
  17   2.0000     -14.437922      -392.8758
  18   2.0000     -14.435380      -392.8067
  19   2.0000     -14.419845      -392.3839
  20   2.0000     -14.417652      -392.3243
  21   2.0000     -14.407705      -392.0536
  22   2.0000     -10.377264      -282.3797
  23   2.0000     -10.375557      -282.3332
  24   2.0000     -10.372368      -282.2465
  25   2.0000     -10.363897      -282.0160
  26   2.0000     -10.362797      -281.9860
  27   2.0000     -10.362332      -281.9734
  28   2.0000     -10.360232      -281.9162
  29   2.0000     -10.351363      -281.6749
  30   2.0000     -10.346336      -281.5381
  31   2.0000     -10.345697      -281.5207
  32   2.0000     -10.345046      -281.5030
  33   2.0000     -10.345012      -281.5021
  34   2.0000     -10.343549      -281.4623
  35   2.0000     -10.341790      -281.4144
  36   2.0000     -10.340817      -281.3879
  37   2.0000     -10.340759      -281.3864
  38   2.0000     -10.340617      -281.3825
  39   2.0000     -10.339931      -281.3638
  40   2.0000     -10.339895      -281.3628
  41   2.0000     -10.339853      -281.3617
  42   2.0000     -10.338969      -281.3377
  43   2.0000     -10.338195      -281.3166
  44   2.0000     -10.337414      -281.2953
  45   2.0000     -10.334934      -281.2278
  46   2.0000     -10.331551      -281.1358
  47   2.0000     -10.331058      -281.1224
  48   2.0000     -10.329956      -281.0924
  49   2.0000     -10.322263      -280.8830
  50   2.0000     -10.320610      -280.8381
  51   2.0000     -10.318625      -280.7841
  52   2.0000     -10.318035      -280.7680
  53   2.0000     -10.315279      -280.6930
  54   2.0000     -10.314636      -280.6755
  55   2.0000     -10.314155      -280.6624
  56   2.0000     -10.313409      -280.6421
  57   2.0000     -10.312899      -280.6282
  58   2.0000     -10.312012      -280.6041
  59   2.0000     -10.311244      -280.5832
  60   2.0000     -10.310506      -280.5631
  61   2.0000     -10.309945      -280.5479
  62   2.0000     -10.309513      -280.5361
  63   2.0000     -10.306780      -280.4617
  64   2.0000     -10.306560      -280.4558
  65   2.0000     -10.303630      -280.3760
  66   2.0000     -10.301904      -280.3291
  67   2.0000     -10.300657      -280.2951
  68   2.0000     -10.298876      -280.2467
  69   2.0000     -10.297897      -280.2200
  70   2.0000     -10.296592      -280.1845
  71   2.0000     -10.294301      -280.1222
  72   2.0000     -10.291443      -280.0444
  73   2.0000     -10.284674      -279.8602
  74   2.0000     -10.282760      -279.8081
  75   2.0000     -10.282284      -279.7952
  76   2.0000     -10.280645      -279.7506
  77   2.0000      -8.796024      -239.3520
  78   2.0000      -8.097334      -220.3397
  79   2.0000      -8.096459      -220.3159
  80   2.0000      -8.095154      -220.2803
  81   2.0000      -8.087108      -220.0614
  82   2.0000      -8.081479      -219.9082
  83   2.0000      -8.075598      -219.7482
  84   2.0000      -8.058364      -219.2792
  85   2.0000      -6.632345      -180.4753
  86   2.0000      -6.617746      -180.0780
  87   2.0000      -6.617547      -180.0726
  88   2.0000      -6.066648      -165.0819
  89   2.0000      -6.065759      -165.0577
  90   2.0000      -6.064485      -165.0230
  91   2.0000      -6.062434      -164.9672
  92   2.0000      -6.061555      -164.9433
  93   2.0000      -6.060324      -164.9098
  94   2.0000      -6.059620      -164.8906
  95   2.0000      -6.058770      -164.8675
  96   2.0000      -6.057402      -164.8303
  97   2.0000      -6.056513      -164.8061
  98   2.0000      -6.051781      -164.6773
  99   2.0000      -6.051141      -164.6599
 100   2.0000      -6.049675      -164.6200
 101   2.0000      -6.046513      -164.5340
 102   2.0000      -6.045283      -164.5005
 103   2.0000      -6.043247      -164.4451
 104   2.0000      -6.040995      -164.3838
 105   2.0000      -6.036844      -164.2709
 106   2.0000      -6.027779      -164.0242
 107   2.0000      -6.023525      -163.9085
 108   2.0000      -6.020390      -163.8231
 109   2.0000      -2.748233       -74.7832
 110   2.0000      -2.744123       -74.6714
 111   2.0000      -2.743942       -74.6665
 112   2.0000      -2.732364       -74.3514
 113   2.0000      -2.732347       -74.3509
 114   2.0000      -1.237317       -33.6691
 115   2.0000      -1.145127       -31.1605
 116   2.0000      -1.119769       -30.4705
 117   2.0000      -1.056951       -28.7611
 118   2.0000      -1.053071       -28.6555
 119   2.0000      -1.032312       -28.0906
 120   2.0000      -1.028953       -27.9992
 121   2.0000      -1.027557       -27.9612
 122   2.0000      -1.019621       -27.7453
 123   2.0000      -1.017427       -27.6856
 124   2.0000      -1.017197       -27.6793
 125   2.0000      -1.016902       -27.6713
 126   2.0000      -1.014245       -27.5990
 127   2.0000      -1.012093       -27.5404
 128   2.0000      -1.002652       -27.2835
 129   2.0000      -0.997575       -27.1454
 130   2.0000      -0.994626       -27.0652
 131   2.0000      -0.982328       -26.7305
 132   2.0000      -0.969353       -26.3774
 133   2.0000      -0.963544       -26.2194
 134   2.0000      -0.947380       -25.7795
 135   2.0000      -0.938711       -25.5436
 136   2.0000      -0.930394       -25.3173
 137   2.0000      -0.921571       -25.0772
 138   2.0000      -0.913025       -24.8447
 139   2.0000      -0.909993       -24.7622
 140   2.0000      -0.900861       -24.5137
 141   2.0000      -0.895006       -24.3543
 142   2.0000      -0.890389       -24.2287
 143   2.0000      -0.881493       -23.9867
 144   2.0000      -0.880762       -23.9668
 145   2.0000      -0.870366       -23.6839
 146   2.0000      -0.865924       -23.5630
 147   2.0000      -0.863268       -23.4907
 148   2.0000      -0.859188       -23.3797
 149   2.0000      -0.841382       -22.8952
 150   2.0000      -0.834951       -22.7202
 151   2.0000      -0.833332       -22.6761
 152   2.0000      -0.817895       -22.2560
 153   2.0000      -0.801546       -21.8112
 154   2.0000      -0.794829       -21.6284
 155   2.0000      -0.788498       -21.4561
 156   2.0000      -0.782247       -21.2860
 157   2.0000      -0.770662       -20.9708
 158   2.0000      -0.765705       -20.8359
 159   2.0000      -0.760988       -20.7075
 160   2.0000      -0.747205       -20.3325
 161   2.0000      -0.740972       -20.1629
 162   2.0000      -0.725026       -19.7289
 163   2.0000      -0.714650       -19.4466
 164   2.0000      -0.708179       -19.2705
 165   2.0000      -0.701850       -19.0983
 166   2.0000      -0.699819       -19.0430
 167   2.0000      -0.695609       -18.9285
 168   2.0000      -0.693953       -18.8834
 169   2.0000      -0.691537       -18.8177
 170   2.0000      -0.685235       -18.6462
 171   2.0000      -0.682703       -18.5773
 172   2.0000      -0.665012       -18.0959
 173   2.0000      -0.660622       -17.9764
 174   2.0000      -0.659226       -17.9385
 175   2.0000      -0.652771       -17.7628
 176   2.0000      -0.643279       -17.5045
 177   2.0000      -0.639886       -17.4122
 178   2.0000      -0.636425       -17.3180
 179   2.0000      -0.632304       -17.2059
 180   2.0000      -0.628638       -17.1061
 181   2.0000      -0.626006       -17.0345
 182   2.0000      -0.623201       -16.9581
 183   2.0000      -0.622888       -16.9496
 184   2.0000      -0.609131       -16.5753
 185   2.0000      -0.604224       -16.4418
 186   2.0000      -0.601010       -16.3543
 187   2.0000      -0.593899       -16.1608
 188   2.0000      -0.587095       -15.9757
 189   2.0000      -0.579659       -15.7733
 190   2.0000      -0.578655       -15.7460
 191   2.0000      -0.574434       -15.6311
 192   2.0000      -0.569701       -15.5024
 193   2.0000      -0.563457       -15.3324
 194   2.0000      -0.560934       -15.2638
 195   2.0000      -0.559338       -15.2203
 196   2.0000      -0.555827       -15.1248
 197   2.0000      -0.552569       -15.0362
 198   2.0000      -0.548683       -14.9304
 199   2.0000      -0.547827       -14.9071
 200   2.0000      -0.547646       -14.9022
 201   2.0000      -0.540713       -14.7136
 202   2.0000      -0.532809       -14.4985
 203   2.0000      -0.531858       -14.4726
 204   2.0000      -0.526899       -14.3376
 205   2.0000      -0.524338       -14.2680
 206   2.0000      -0.522801       -14.2261
 207   2.0000      -0.521589       -14.1932
 208   2.0000      -0.517990       -14.0952
 209   2.0000      -0.515842       -14.0368
 210   2.0000      -0.515032       -14.0147
 211   2.0000      -0.511011       -13.9053
 212   2.0000      -0.509709       -13.8699
 213   2.0000      -0.507760       -13.8169
 214   2.0000      -0.506124       -13.7723
 215   2.0000      -0.505684       -13.7604
 216   2.0000      -0.502015       -13.6605
 217   2.0000      -0.500114       -13.6088
 218   2.0000      -0.499782       -13.5998
 219   2.0000      -0.497807       -13.5460
 220   2.0000      -0.495311       -13.4781
 221   2.0000      -0.490423       -13.3451
 222   2.0000      -0.487548       -13.2668
 223   2.0000      -0.482109       -13.1188
 224   2.0000      -0.480860       -13.0849
 225   2.0000      -0.477767       -13.0007
 226   2.0000      -0.474909       -12.9229
 227   2.0000      -0.470975       -12.8159
 228   2.0000      -0.468677       -12.7533
 229   2.0000      -0.467776       -12.7288
 230   2.0000      -0.467576       -12.7234
 231   2.0000      -0.467094       -12.7103
 232   2.0000      -0.464044       -12.6273
 233   2.0000      -0.462349       -12.5811
 234   2.0000      -0.459047       -12.4913
 235   2.0000      -0.457051       -12.4370
 236   2.0000      -0.453763       -12.3475
 237   2.0000      -0.451892       -12.2966
 238   2.0000      -0.450974       -12.2716
 239   2.0000      -0.450163       -12.2496
 240   2.0000      -0.449461       -12.2304
 241   2.0000      -0.447076       -12.1656
 242   2.0000      -0.446671       -12.1545
 243   2.0000      -0.446541       -12.1510
 244   2.0000      -0.445025       -12.1097
 245   2.0000      -0.443689       -12.0734
 246   2.0000      -0.440663       -11.9910
 247   2.0000      -0.440053       -11.9745
 248   2.0000      -0.438870       -11.9423
 249   2.0000      -0.436888       -11.8883
 250   2.0000      -0.432543       -11.7701
 251   2.0000      -0.432284       -11.7631
 252   2.0000      -0.430263       -11.7080
 253   2.0000      -0.427367       -11.6293
 254   2.0000      -0.424960       -11.5638
 255   2.0000      -0.421251       -11.4628
 256   2.0000      -0.420722       -11.4484
 257   2.0000      -0.416563       -11.3352
 258   2.0000      -0.410821       -11.1790
 259   2.0000      -0.408784       -11.1236
 260   2.0000      -0.405679       -11.0391
 261   2.0000      -0.399841       -10.8802
 262   2.0000      -0.392194       -10.6722
 263   2.0000      -0.382233       -10.4011
 264   2.0000      -0.378823       -10.3083
 265   2.0000      -0.378167       -10.2905
 266   2.0000      -0.371788       -10.1169
 267   2.0000      -0.362937        -9.8760
 268   2.0000      -0.361585        -9.8392
 269   2.0000      -0.357403        -9.7254
 270   2.0000      -0.346091        -9.4176
 271   2.0000      -0.343656        -9.3514
 272   2.0000      -0.339340        -9.2339
 273   2.0000      -0.331660        -9.0249
 274   2.0000      -0.329607        -8.9691
 275   2.0000      -0.327834        -8.9208
 276   2.0000      -0.320374        -8.7178
 277   2.0000      -0.310426        -8.4471
 278   2.0000      -0.304481        -8.2853
 279   2.0000      -0.297382        -8.0922
 280   2.0000      -0.282660        -7.6916
 281   2.0000      -0.261087        -7.1045
 282   2.0000      -0.235426        -6.4063
 283   0.0000      -0.120463        -3.2780
 284   0.0000      -0.112814        -3.0698
 285   0.0000      -0.092127        -2.5069
 286   0.0000      -0.073374        -1.9966
 287   0.0000      -0.067453        -1.8355

MULLIKEN ATOMIC CHARGES
-----------------------
   0 C :    0.320051
   1 C :   -0.348312
   2 C :   -0.184613
   3 N :    0.151456
   4 C :   -0.197385
   5 N :    0.157575
   6 C :    0.012577
   7 C :   -0.013610
   8 C :   -0.070989
   9 C :    0.119144
  10 C :   -0.091111
  11 C :   -0.019321
  12 S :    0.190338
  13 C :   -0.124355
  14 C :    0.037840
  15 Br:    0.027139
  16 C :    0.166342
  17 O :   -0.190631
  18 C :   -0.090099
  19 C :   -0.033528
  20 C :   -0.053546
  21 C :   -0.058509
  22 C :    0.042531
  23 C :   -0.067328
  24 S :    0.246458
  25 C :   -0.107247
  26 C :    0.024908
  27 C :    0.303676
  28 C :   -0.296067
  29 C :   -0.192348
  30 N :    0.189375
  31 C :   -0.188801
  32 N :    0.173320
  33 C :   -0.067262
  34 C :   -0.044436
  35 S :    0.207679
  36 C :   -0.056938
  37 C :   -0.058534
  38 C :    0.014115
  39 C :   -0.094597
  40 S :    0.200906
  41 C :   -0.098169
  42 C :    0.018622
  43 C :    0.300381
  44 C :   -0.292495
  45 C :   -0.189664
  46 N :    0.174455
  47 C :   -0.185724
  48 N :    0.178314
  49 C :   -0.052947
  50 C :   -0.063213
  51 S :    0.178481
  52 C :   -0.023534
  53 C :   -0.086381
  54 C :    0.058546
  55 C :    0.060624
  56 C :   -0.117186
  57 S :    0.134774
  58 C :   -0.112267
  59 C :    0.054436
  60 C :   -0.005455
  61 C :   -0.065142
  62 S :    0.132770
  63 C :    0.091796
  64 C :   -0.008039
  65 C :   -0.021691
  66 C :    0.088604
  67 N :   -0.074685
  68 C :   -0.056820
  69 C :    0.130572
  70 O :   -0.185789
  71 C :    0.166641
  72 O :   -0.180600
  73 H :   -0.010342
  74 H :   -0.005752
  75 H :   -0.001925
  76 H :    0.019507
  77 H :    0.028856
  78 H :    0.012225
  79 H :    0.011866
  80 H :    0.021918
  81 H :   -0.007510
  82 H :    0.040213
  83 H :   -0.007892
  84 H :    0.028273
  85 H :   -0.019163
  86 H :   -0.013011
  87 H :    0.030691
  88 H :   -0.013028
Sum of atomic charges:   -0.0000000

LOEWDIN ATOMIC CHARGES
----------------------
   0 C :    0.076285
   1 C :   -0.140657
   2 C :   -0.018212
   3 N :   -0.051832
   4 C :   -0.024035
   5 N :   -0.046978
   6 C :   -0.019665
   7 C :   -0.051739
   8 C :    0.023009
   9 C :   -0.032832
  10 C :   -0.143391
  11 C :   -0.008285
  12 S :    0.436117
  13 C :   -0.271020
  14 C :   -0.070394
  15 Br:    0.139270
  16 C :    0.086221
  17 O :   -0.175452
  18 C :   -0.111430
  19 C :    0.055685
  20 C :   -0.184424
  21 C :    0.013060
  22 C :   -0.079634
  23 C :   -0.165986
  24 S :    0.549739
  25 C :   -0.188291
  26 C :   -0.051883
  27 C :    0.078129
  28 C :   -0.098918
  29 C :   -0.020335
  30 N :   -0.021464
  31 C :   -0.015727
  32 N :   -0.032165
  33 C :   -0.042999
  34 C :   -0.168336
  35 S :    0.490552
  36 C :   -0.183649
  37 C :   -0.031975
  38 C :   -0.069773
  39 C :   -0.174535
  40 S :    0.488304
  41 C :   -0.182470
  42 C :   -0.064999
  43 C :    0.081727
  44 C :   -0.097928
  45 C :   -0.016487
  46 N :   -0.029723
  47 C :   -0.016632
  48 N :   -0.028149
  49 C :   -0.040154
  50 C :   -0.175379
  51 S :    0.480723
  52 C :   -0.182040
  53 C :   -0.030126
  54 C :   -0.015229
  55 C :   -0.049457
  56 C :   -0.136823
  57 S :    0.463354
  58 C :   -0.200270
  59 C :   -0.035581
  60 C :   -0.064145
  61 C :   -0.162305
  62 S :    0.427323
  63 C :   -0.050911
  64 C :    0.004958
  65 C :   -0.059401
  66 C :    0.046688
  67 N :   -0.104328
  68 C :   -0.110507
  69 C :    0.068028
  70 O :    0.016414
  71 C :    0.103100
  72 O :   -0.136844
  73 H :    0.041033
  74 H :    0.041494
  75 H :    0.039215
  76 H :    0.054064
  77 H :    0.048329
  78 H :    0.036138
  79 H :    0.037149
  80 H :    0.035702
  81 H :    0.026785
  82 H :    0.038813
  83 H :    0.031420
  84 H :    0.024906
  85 H :    0.028109
  86 H :    0.039416
  87 H :    0.033621
  88 H :    0.001026

  Mayer bond orders larger than 0.100000
B(  0-C ,  1-C ) :   1.6301 B(  0-C ,  6-C ) :   0.9998 B(  0-C , 18-C ) :   1.0746
B(  1-C ,  2-C ) :   1.1436 B(  1-C ,  4-C ) :   1.1436 B(  2-C ,  3-N ) :   2.9688
B(  4-C ,  5-N ) :   2.9700 B(  6-C ,  7-C ) :   1.2742 B(  6-C , 11-C ) :   1.4154
B(  7-C ,  8-C ) :   1.4190 B(  7-C , 16-C ) :   0.9640 B(  8-C ,  9-C ) :   1.2448
B(  8-C , 73-H ) :   1.0181 B(  9-C , 10-C ) :   1.3058 B(  9-C , 14-C ) :   1.1628
B( 10-C , 11-C ) :   1.3252 B( 10-C , 12-S ) :   1.0890 B( 11-C , 74-H ) :   0.9807
B( 12-S , 13-C ) :   1.0872 B( 13-C , 14-C ) :   1.6174 B( 13-C , 15-Br) :   1.0212
B( 14-C , 75-H ) :   1.0005 B( 16-C , 17-O ) :   2.1096 B( 16-C , 18-C ) :   0.9851
B( 18-C , 19-C ) :   1.4910 B( 19-C , 20-C ) :   1.2700 B( 19-C , 76-H ) :   0.9429
B( 20-C , 21-C ) :   1.3257 B( 20-C , 24-S ) :   1.0689 B( 21-C , 22-C ) :   1.3357
B( 21-C , 77-H ) :   1.0085 B( 22-C , 23-C ) :   1.3524 B( 22-C , 27-C ) :   0.9870
B( 23-C , 24-S ) :   1.1300 B( 23-C , 25-C ) :   1.2066 B( 25-C , 26-C ) :   1.4347
B( 25-C , 35-S ) :   1.1094 B( 26-C , 27-C ) :   0.9932 B( 26-C , 33-C ) :   1.3076
B( 27-C , 28-C ) :   1.7188 B( 28-C , 29-C ) :   1.1342 B( 28-C , 31-C ) :   1.1339
B( 29-C , 30-N ) :   2.9967 B( 31-C , 32-N ) :   2.9887 B( 33-C , 34-C ) :   1.4464
B( 33-C , 78-H ) :   0.9867 B( 34-C , 35-S ) :   1.1213 B( 34-C , 36-C ) :   1.1656
B( 36-C , 37-C ) :   1.4552 B( 36-C , 40-S ) :   1.1039 B( 37-C , 38-C ) :   1.3018
B( 37-C , 79-H ) :   0.9891 B( 38-C , 39-C ) :   1.4387 B( 38-C , 43-C ) :   0.9940
B( 39-C , 40-S ) :   1.1265 B( 39-C , 41-C ) :   1.1898 B( 41-C , 42-C ) :   1.4465
B( 41-C , 51-S ) :   1.1198 B( 42-C , 43-C ) :   0.9973 B( 42-C , 49-C ) :   1.3045
B( 43-C , 44-C ) :   1.7157 B( 44-C , 45-C ) :   1.1322 B( 44-C , 47-C ) :   1.1334
B( 45-C , 46-N ) :   2.9924 B( 47-C , 48-N ) :   2.9912 B( 49-C , 50-C ) :   1.4577
B( 49-C , 80-H ) :   0.9792 B( 50-C , 51-S ) :   1.1096 B( 50-C , 52-C ) :   1.1564
B( 52-C , 53-C ) :   1.5299 B( 52-C , 57-S ) :   1.0578 B( 53-C , 54-C ) :   1.2503
B( 53-C , 81-H ) :   0.9566 B( 54-C , 55-C ) :   1.0466 B( 54-C , 63-C ) :   1.3874
B( 55-C , 56-C ) :   1.6112 B( 55-C , 58-C ) :   1.1798 B( 56-C , 57-S ) :   1.1378
B( 56-C , 82-H ) :   0.9392 B( 58-C , 59-C ) :   1.4479 B( 58-C , 62-S ) :   1.0811
B( 59-C , 60-C ) :   1.2117 B( 59-C , 63-C ) :   1.0848 B( 60-C , 61-C ) :   1.5888
B( 60-C , 83-H ) :   1.0009 B( 61-C , 62-S ) :   1.1559 B( 61-C , 84-H ) :   0.9648
B( 63-C , 64-C ) :   1.1524 B( 64-C , 65-C ) :   1.6220 B( 64-C , 85-H ) :   0.9619
B( 65-C , 66-C ) :   1.1060 B( 65-C , 86-H ) :   0.9717 B( 66-C , 67-N ) :   1.7166
B( 66-C , 70-O ) :   1.1403 B( 67-N , 68-C ) :   1.3063 B( 68-C , 69-C ) :   1.5130
B( 68-C , 71-C ) :   0.9726 B( 69-C , 70-O ) :   1.1655 B( 69-C , 87-H ) :   0.9911
B( 71-C , 72-O ) :   2.2009 B( 71-C , 88-H ) :   0.9523

-----------------------------------------------------------------------------
         ABSORPTION SPECTRUM VIA TRANSITION ELECTRIC DIPOLE MOMENTS
-----------------------------------------------------------------------------
State   Energy  Wavelength   fosc         T2         TX        TY        TZ
        (cm-1)    (nm)                  (au**2)     (au)      (au)      (au)
-----------------------------------------------------------------------------
   0   10197.6    980.6   0.300918955   9.71468  -2.79066   1.14548  -0.78408
   1   12945.8    772.5   0.300961680   7.65348   2.23574  -1.22548   1.07384
   2   16217.6    616.6   0.025438903   0.51640  -0.14333  -0.58280   0.39522
   3   18522.7    539.9   0.490476980   8.71746   2.75419  -0.79204   0.71035
   4   19849.1    503.8   1.111341419  18.43241   4.15389  -0.55605   0.93189
   5   20884.8    478.8   0.481064767   7.58314  -1.36242   1.67762  -1.70662
   6   22793.2    438.7   0.012265026   0.17715  -0.20098   0.35087  -0.11681
   7   23759.1    420.9   0.127853145   1.77156   1.31065   0.00958  -0.23165
   8   24705.9    404.8   0.021071661   0.28079   0.34152  -0.34966   0.20466
   9   25543.0    391.5   0.175830912   2.26621   1.12324  -0.76786   0.64415
  10   25721.6    388.8   0.052676304   0.67421  -0.56298  -0.59771  -0.00109
  11   26653.6    375.2   0.099364783   1.22731  -0.07864  -0.92352   0.60682
  12   26960.0    370.9   0.211024427   2.57685   1.15130   0.81418   0.76711
  13   28001.6    357.1   0.272217546   3.20043   0.32045   1.65435  -0.60072
  14   28819.6    347.0   0.032790040   0.37457  -0.53721  -0.10175  -0.27499
  15   29128.4    343.3   0.097526666   1.10226  -0.93995   0.09685  -0.45757
  16   29589.5    338.0   0.163128133   1.81496   0.11951   1.33671  -0.11785
  17   29808.4    335.5   0.205404372   2.26854   0.12869  -1.50036   0.03022
  18   30613.4    326.7   0.007246062   0.07792  -0.22571  -0.16263  -0.02306
  19   30686.7    325.9   0.159408787   1.71017   0.91166   0.91779  -0.19160
  20   30819.8    324.5   0.182684169   1.95140  -0.62033  -1.23403   0.20921
  21   31101.5    321.5   0.075976194   0.80421  -0.01689   0.89410  -0.06719
  22   31395.4    318.5   0.589807681   6.18473   1.70488   1.70509   0.60892
  23   31617.9    316.3   0.388479955   4.04494  -1.31951  -1.43369   0.49835
  24   31843.5    314.0   0.277788680   2.87190  -1.27960   0.34373  -1.05659
  25   32222.3    310.3   0.613231037   6.26531   0.84296   2.33111   0.34735
  26   32480.4    307.9   0.048658733   0.49319   0.41755  -0.47893   0.29911
  27   32854.6    304.4   0.087680388   0.87858   0.92261   0.04238   0.15991
  28   33098.4    302.1   0.014040654   0.13965  -0.26257   0.22692   0.13863
  29   33225.2    301.0   0.110833008   1.09819   0.28989  -0.98217   0.22247
  30   33243.5    300.8   0.140652777   1.39289   0.12057  -1.10435   0.39845
  31   33864.0    295.3   0.036360252   0.35348   0.44543  -0.38963   0.05706
  32   34170.4    292.7   0.111934504   1.07842  -0.47147  -0.92251   0.07148
  33   34460.1    290.2   0.482813880   4.61253  -2.07714  -0.13640  -0.52858
  34   34689.4    288.3   0.107705606   1.02216   0.63498   0.61485  -0.49083
  35   34951.3    286.1   0.218381240   2.05697   0.54745   1.32389  -0.06771
  36   35079.9    285.1   0.011184408   0.10496   0.29962  -0.05698   0.10928
  37   35371.2    282.7   0.071236863   0.66303  -0.72263  -0.26229   0.26840
  38   35524.5    281.5   0.084438001   0.78250   0.09556  -0.87746  -0.05863
  39   35672.7    280.3   0.296724365   2.73838   1.37416   0.91999  -0.06057
  40   35961.2    278.1   0.081438266   0.74554  -0.48099   0.62597  -0.34978
  41   36268.7    275.7   0.181790452   1.65012  -0.11153   1.12035  -0.61847
  42   36438.7    274.4   0.169888483   1.53489  -0.47412   1.12115  -0.23049
  43   36663.1    272.8   0.073371079   0.65883   0.71563   0.04894   0.37987
  44   36987.6    270.4   0.000006166   0.00005  -0.00288   0.00390  -0.00561
  45   37145.6    269.2   0.101925135   0.90334  -0.24559   0.86545  -0.30664
  46   37472.8    266.9   0.001352693   0.01188  -0.03790  -0.09962  -0.02285
  47   37633.7    265.7   0.031394756   0.27463   0.42734  -0.18851   0.23766
  48   38169.0    262.0   0.092774852   0.80019   0.74583  -0.19966   0.45174
  49   38670.2    258.6   0.014182335   0.12074  -0.24428  -0.11713  -0.21759
  50   38893.2    257.1   0.171972455   1.45566   0.83829  -0.75992   0.41888
  51   39097.8    255.8   0.025331654   0.21330   0.35449  -0.23355   0.18190
  52   39571.9    252.7   0.014933710   0.12424   0.34188   0.08560   0.00553
  53   39574.1    252.7   0.022830010   0.18992  -0.42282  -0.10532  -0.00738
  54   39958.5    250.3   0.084022217   0.69225   0.64500   0.49473  -0.17738

FINAL SINGLE POINT ENERGY     -8071.255733961703

DIPOLE MOMENT
-------------
                                X             Y             Z
Electronic contribution:    180.90236      -6.39705      75.86721
Nuclear contribution   :   -180.92948      10.53613     -76.40203
                        -----------------------------------------
Total Dipole Moment    :     -0.02711       4.13908      -0.53481
                        -----------------------------------------
Magnitude (a.u.)       :      4.17358
Magnitude (Debye)      :     10.60839

Rotational constants in cm-1:     0.001240     0.000166     0.000152
Rotational constants in MHz :    37.162554     4.979578     4.552910

                             ****ORCA TERMINATED NORMALLY****
TOTAL RUN TIME: 0 days 0 hours 9 minutes 24 seconds 176 msec
