                         Program Version 4.2.0 -  RELEASE  -
|  1> # ORCA input file
|  2> # SCF done       -184.532522558251          0.000817743171
|  3> ! CAM-B3LYP def2-SVP def2/J RIJCOSX Grid4 TightSCF
|  4> %maxcore 5000
|  5> %tddft
|  6>     Mode sTDDFT
|  7>     Ethresh 5.0
|  8>     maxcore 5000
|  9> end
| 10>
| 11> %pal
| 12>   nprocs 6
| 13>   end
| 14> * xyz 0 1
| 15>    C        3.20290        -9.60000        -3.98144
| 16>    C        3.76288       -10.84236        -3.86900
| 17>    C        4.43009       -11.50905        -4.92198
| 18>    N        4.97439       -12.10807        -5.73480
| 19>    C        3.79465       -11.63174        -2.70154
| 20>    N        3.90299       -12.34577        -1.80891
| 21>    C        3.24159        -8.74888        -5.16678
| 22>    C        2.66733        -7.50067        -4.86006
| 23>    C        2.58343        -6.48758        -5.79379
| 24>    C        3.07666        -6.72453        -7.07090
| 25>    C        3.64573        -7.96609        -7.38757
| 26>    C        3.73368        -8.98132        -6.44184
| 27>   Cl        4.24909        -8.24641        -8.96831
| 28>   Cl        2.98795        -5.49445        -8.26128
| 29>    C        2.21520        -7.49407        -3.45543
| 30>    O        1.75708        -6.56473        -2.83165
| 31>    C        2.49075        -8.86592        -2.94794
| 32>    C        2.14055        -9.28825        -1.70707
| 33>    C        1.35844        -8.52350        -0.79427
| 34>    C        0.14200        -7.71129        -1.10314
| 35>    N       -0.34251        -7.10000        -0.08143
| 36>    C        0.48512        -7.40059         0.97443
| 37>    C        1.52094        -8.34773         0.55016
| 38>    C        2.39434        -8.63227         1.67619
| 39>    S        3.58216        -9.88821         1.58027
| 40>    C        1.93717        -7.86858         2.72807
| 41>    C        0.72275        -7.09973         2.28037
| 42>    N        0.22617        -6.35969         3.29949
| 43>    C        0.99192        -6.58965         4.32646
| 44>    C        2.11251        -7.49416         4.08368
| 45>    C        3.07785        -7.80110         5.03222
| 46>    C        3.00507        -7.42750         6.43867
| 47>    N        4.01021        -7.81409         7.17524
| 48>    C        4.87050        -8.44573         6.34477
| 49>    C        4.32122        -8.47494         4.94495
| 50>    C        5.21484        -9.11655         4.12125
| 51>    S        5.34956        -9.18339         2.39400
| 52>    C        6.30407        -9.55306         4.98103
| 53>    C        6.09438        -9.05143         6.33550
| 54>    N        7.13444        -9.44614         7.14672
| 55>    C        7.91200       -10.16721         6.41285
| 56>    C        7.42634       -10.32777         5.02133
| 57>    C        7.89652       -11.17603         3.97350
| 58>    C        9.23215       -11.29461         3.38384
| 59>    N        9.27422       -12.03795         2.31632
| 60>    C        8.00533       -12.49504         2.12325
| 61>    C        7.12162       -12.00568         3.20447
| 62>    C        5.78375       -12.50971         3.03649
| 63>    S        4.47349       -12.28796         4.00574
| 64>    C        5.84709       -13.21882         1.78567
| 65>    C        7.21810       -13.16668         1.22785
| 66>    N        7.23305       -13.69801        -0.02718
| 67>    C        6.00041       -14.01571        -0.29602
| 68>    C        5.05878       -13.75301         0.79926
| 69>    C        3.64401       -13.92712         0.80430
| 70>    C        2.95459       -14.37623         1.88283
| 71>    C        1.51265       -14.40310         2.05013
| 72>    C        0.61999       -13.61673         1.37463
| 73>    C       -0.77626       -13.64389         1.58380
| 74>    N       -1.91757       -13.63900         1.69864
| 75>    C        0.98534       -12.63515         0.43226
| 76>    N        1.20467       -11.78537        -0.30811
| 77>    C        1.21127       -15.29567         3.16045
| 78>    C        2.41897       -15.71895         3.74488
| 79>    C        3.56736       -15.15508         3.00377
| 80>    O        4.73701       -15.37267         3.20900
| 81>    C        2.43897       -16.56363         4.83633
| 82>    C        1.22631       -16.99826         5.35697
| 83>    C        0.01894       -16.58740         4.77515
| 84>    C        0.00263       -15.73440         3.67783
| 85>   Cl       -1.46947       -17.14607         5.41905
| 86>   Cl        1.20832       -18.04564         6.71441
| 87>    H        2.14328        -5.53739        -5.53507
| 88>    H        4.17836        -9.92185        -6.72295
| 89>    H        2.45546       -10.26048        -1.34951
| 90>    H       -0.34322        -7.67369        -2.06008
| 91>    H        0.78195        -6.10655         5.26458
| 92>    H        2.19838        -6.87886         6.89259
| 93>    H        8.80832       -10.61135         6.80623
| 94>    H       10.11845       -10.81239         3.75759
| 95>    H        5.73619       -14.45758        -1.24040
| 96>    H        3.13302       -13.66057        -0.11266
| 97>    H        3.37479       -16.87482         5.27315
| 98>    H       -0.94290       -15.44250         3.25021
| 99> *
|100>
|101>                          ****END OF INPUT****

CARTESIAN COORDINATES (ANGSTROEM)
---------------------------------
  C      3.202900   -9.600000   -3.981440
  C      3.762880  -10.842360   -3.869000
  C      4.430090  -11.509050   -4.921980
  N      4.974390  -12.108070   -5.734800
  C      3.794650  -11.631740   -2.701540
  N      3.902990  -12.345770   -1.808910
  C      3.241590   -8.748880   -5.166780
  C      2.667330   -7.500670   -4.860060
  C      2.583430   -6.487580   -5.793790
  C      3.076660   -6.724530   -7.070900
  C      3.645730   -7.966090   -7.387570
  C      3.733680   -8.981320   -6.441840
  Cl     4.249090   -8.246410   -8.968310
  Cl     2.987950   -5.494450   -8.261280
  C      2.215200   -7.494070   -3.455430
  O      1.757080   -6.564730   -2.831650
  C      2.490750   -8.865920   -2.947940
  C      2.140550   -9.288250   -1.707070
  C      1.358440   -8.523500   -0.794270
  C      0.142000   -7.711290   -1.103140
  N     -0.342510   -7.100000   -0.081430
  C      0.485120   -7.400590    0.974430
  C      1.520940   -8.347730    0.550160
  C      2.394340   -8.632270    1.676190
  S      3.582160   -9.888210    1.580270
  C      1.937170   -7.868580    2.728070
  C      0.722750   -7.099730    2.280370
  N      0.226170   -6.359690    3.299490
  C      0.991920   -6.589650    4.326460
  C      2.112510   -7.494160    4.083680
  C      3.077850   -7.801100    5.032220
  C      3.005070   -7.427500    6.438670
  N      4.010210   -7.814090    7.175240
  C      4.870500   -8.445730    6.344770
  C      4.321220   -8.474940    4.944950
  C      5.214840   -9.116550    4.121250
  S      5.349560   -9.183390    2.394000
  C      6.304070   -9.553060    4.981030
  C      6.094380   -9.051430    6.335500
  N      7.134440   -9.446140    7.146720
  C      7.912000  -10.167210    6.412850
  C      7.426340  -10.327770    5.021330
  C      7.896520  -11.176030    3.973500
  C      9.232150  -11.294610    3.383840
  N      9.274220  -12.037950    2.316320
  C      8.005330  -12.495040    2.123250
  C      7.121620  -12.005680    3.204470
  C      5.783750  -12.509710    3.036490
  S      4.473490  -12.287960    4.005740
  C      5.847090  -13.218820    1.785670
  C      7.218100  -13.166680    1.227850
  N      7.233050  -13.698010   -0.027180
  C      6.000410  -14.015710   -0.296020
  C      5.058780  -13.753010    0.799260
  C      3.644010  -13.927120    0.804300
  C      2.954590  -14.376230    1.882830
  C      1.512650  -14.403100    2.050130
  C      0.619990  -13.616730    1.374630
  C     -0.776260  -13.643890    1.583800
  N     -1.917570  -13.639000    1.698640
  C      0.985340  -12.635150    0.432260
  N      1.204670  -11.785370   -0.308110
  C      1.211270  -15.295670    3.160450
  C      2.418970  -15.718950    3.744880
  C      3.567360  -15.155080    3.003770
  O      4.737010  -15.372670    3.209000
  C      2.438970  -16.563630    4.836330
  C      1.226310  -16.998260    5.356970
  C      0.018940  -16.587400    4.775150
  C      0.002630  -15.734400    3.677830
  Cl    -1.469470  -17.146070    5.419050
  Cl     1.208320  -18.045640    6.714410
  H      2.143280   -5.537390   -5.535070
  H      4.178360   -9.921850   -6.722950
  H      2.455460  -10.260480   -1.349510
  H     -0.343220   -7.673690   -2.060080
  H      0.781950   -6.106550    5.264580
  H      2.198380   -6.878860    6.892590
  H      8.808320  -10.611350    6.806230
  H     10.118450  -10.812390    3.757590
  H      5.736190  -14.457580   -1.240400
  H      3.133020  -13.660570   -0.112660
  H      3.374790  -16.874820    5.273150
  H     -0.942900  -15.442500    3.250210

 Total Charge           Charge          ....    0
 Multiplicity           Mult            ....    1
 Number of Electrons    NEL             ....  532
 Basis Dimension        Dim             .... 1096

ORBITAL ENERGIES
----------------

  NO   OCC          E(Eh)            E(eV)
   0   2.0000    -101.611801     -2764.9977
   1   2.0000    -101.610317     -2764.9573
   2   2.0000    -101.607703     -2764.8862
   3   2.0000    -101.606571     -2764.8554
   4   2.0000     -88.976870     -2421.1837
   5   2.0000     -88.973334     -2421.0875
   6   2.0000     -88.915921     -2419.5252
   7   2.0000     -19.239318      -523.5285
   8   2.0000     -19.229051      -523.2491
   9   2.0000     -14.443505      -393.0277
  10   2.0000     -14.436403      -392.8345
  11   2.0000     -14.433841      -392.7648
  12   2.0000     -14.429424      -392.6446
  13   2.0000     -14.429038      -392.6341
  14   2.0000     -14.427406      -392.5897
  15   2.0000     -14.426302      -392.5596
  16   2.0000     -14.423426      -392.4814
  17   2.0000     -14.412593      -392.1866
  18   2.0000     -14.407092      -392.0369
  19   2.0000     -10.388147      -282.6758
  20   2.0000     -10.381961      -282.5075
  21   2.0000     -10.369899      -282.1793
  22   2.0000     -10.369332      -282.1639
  23   2.0000     -10.365872      -282.0697
  24   2.0000     -10.365250      -282.0528
  25   2.0000     -10.364860      -282.0422
  26   2.0000     -10.363970      -282.0179
  27   2.0000     -10.360110      -281.9129
  28   2.0000     -10.356912      -281.8259
  29   2.0000     -10.353398      -281.7303
  30   2.0000     -10.348394      -281.5941
  31   2.0000     -10.348300      -281.5916
  32   2.0000     -10.348014      -281.5838
  33   2.0000     -10.346181      -281.5339
  34   2.0000     -10.345936      -281.5272
  35   2.0000     -10.344543      -281.4893
  36   2.0000     -10.344176      -281.4794
  37   2.0000     -10.341138      -281.3967
  38   2.0000     -10.338148      -281.3153
  39   2.0000     -10.337831      -281.3067
  40   2.0000     -10.335800      -281.2514
  41   2.0000     -10.335518      -281.2438
  42   2.0000     -10.331437      -281.1327
  43   2.0000     -10.331208      -281.1265
  44   2.0000     -10.330630      -281.1107
  45   2.0000     -10.329453      -281.0787
  46   2.0000     -10.326001      -280.9848
  47   2.0000     -10.325717      -280.9770
  48   2.0000     -10.325545      -280.9724
  49   2.0000     -10.324495      -280.9438
  50   2.0000     -10.323132      -280.9067
  51   2.0000     -10.322876      -280.8997
  52   2.0000     -10.321684      -280.8673
  53   2.0000     -10.320666      -280.8396
  54   2.0000     -10.318616      -280.7838
  55   2.0000     -10.317934      -280.7652
  56   2.0000     -10.317606      -280.7563
  57   2.0000     -10.317128      -280.7433
  58   2.0000     -10.316868      -280.7363
  59   2.0000     -10.316132      -280.7162
  60   2.0000     -10.315035      -280.6864
  61   2.0000     -10.314154      -280.6624
  62   2.0000     -10.313940      -280.6566
  63   2.0000     -10.312433      -280.6156
  64   2.0000     -10.312207      -280.6094
  65   2.0000     -10.311331      -280.5856
  66   2.0000     -10.311285      -280.5843
  67   2.0000     -10.311173      -280.5813
  68   2.0000     -10.310698      -280.5684
  69   2.0000     -10.307834      -280.4904
  70   2.0000     -10.306978      -280.4671
  71   2.0000     -10.299404      -280.2610
  72   2.0000      -9.566814      -260.3262
  73   2.0000      -9.565317      -260.2855
  74   2.0000      -9.562737      -260.2153
  75   2.0000      -9.561580      -260.1838
  76   2.0000      -8.070743      -219.6161
  77   2.0000      -8.067864      -219.5377
  78   2.0000      -8.010771      -217.9842
  79   2.0000      -7.337179      -199.6548
  80   2.0000      -7.335740      -199.6156
  81   2.0000      -7.333113      -199.5441
  82   2.0000      -7.331976      -199.5132
  83   2.0000      -7.327116      -199.3810
  84   2.0000      -7.326317      -199.3592
  85   2.0000      -7.325574      -199.3390
  86   2.0000      -7.324804      -199.3180
  87   2.0000      -7.323024      -199.2696
  88   2.0000      -7.322239      -199.2483
  89   2.0000      -7.321849      -199.2376
  90   2.0000      -7.321091      -199.2170
  91   2.0000      -6.041717      -164.4035
  92   2.0000      -6.038865      -164.3259
  93   2.0000      -6.036882      -164.2719
  94   2.0000      -6.034133      -164.1971
  95   2.0000      -6.030024      -164.0853
  96   2.0000      -6.026893      -164.0001
  97   2.0000      -5.979611      -162.7135
  98   2.0000      -5.979465      -162.7095
  99   2.0000      -5.969997      -162.4519
 100   2.0000      -1.155098       -31.4318
 101   2.0000      -1.145734       -31.1770
 102   2.0000      -1.095572       -29.8120
 103   2.0000      -1.089912       -29.6580
 104   2.0000      -1.085449       -29.5366
 105   2.0000      -1.075758       -29.2729
 106   2.0000      -1.064033       -28.9538
 107   2.0000      -1.062466       -28.9112
 108   2.0000      -1.046170       -28.4677
 109   2.0000      -1.041146       -28.3310
 110   2.0000      -1.036271       -28.1984
 111   2.0000      -1.030476       -28.0407
 112   2.0000      -1.016686       -27.6654
 113   2.0000      -1.011166       -27.5152
 114   2.0000      -1.007654       -27.4197
 115   2.0000      -1.002474       -27.2787
 116   2.0000      -0.981943       -26.7200
 117   2.0000      -0.976143       -26.5622
 118   2.0000      -0.974046       -26.5051
 119   2.0000      -0.969922       -26.3929
 120   2.0000      -0.966965       -26.3124
 121   2.0000      -0.951235       -25.8844
 122   2.0000      -0.947085       -25.7715
 123   2.0000      -0.928619       -25.2690
 124   2.0000      -0.926049       -25.1991
 125   2.0000      -0.922449       -25.1011
 126   2.0000      -0.919405       -25.0183
 127   2.0000      -0.916005       -24.9258
 128   2.0000      -0.897930       -24.4339
 129   2.0000      -0.896096       -24.3840
 130   2.0000      -0.875489       -23.8233
 131   2.0000      -0.870618       -23.6907
 132   2.0000      -0.868321       -23.6282
 133   2.0000      -0.858182       -23.3523
 134   2.0000      -0.848930       -23.1006
 135   2.0000      -0.846264       -23.0280
 136   2.0000      -0.841013       -22.8851
 137   2.0000      -0.829391       -22.5689
 138   2.0000      -0.800731       -21.7890
 139   2.0000      -0.796348       -21.6697
 140   2.0000      -0.794936       -21.6313
 141   2.0000      -0.785378       -21.3712
 142   2.0000      -0.783254       -21.3134
 143   2.0000      -0.776671       -21.1343
 144   2.0000      -0.771086       -20.9823
 145   2.0000      -0.766125       -20.8473
 146   2.0000      -0.750356       -20.4182
 147   2.0000      -0.738878       -20.1059
 148   2.0000      -0.725915       -19.7532
 149   2.0000      -0.724627       -19.7181
 150   2.0000      -0.719112       -19.5680
 151   2.0000      -0.713985       -19.4285
 152   2.0000      -0.709617       -19.3097
 153   2.0000      -0.704518       -19.1709
 154   2.0000      -0.697130       -18.9699
 155   2.0000      -0.694085       -18.8870
 156   2.0000      -0.690957       -18.8019
 157   2.0000      -0.689439       -18.7606
 158   2.0000      -0.677566       -18.4375
 159   2.0000      -0.662216       -18.0198
 160   2.0000      -0.658542       -17.9198
 161   2.0000      -0.656718       -17.8702
 162   2.0000      -0.646823       -17.6010
 163   2.0000      -0.645025       -17.5520
 164   2.0000      -0.635007       -17.2794
 165   2.0000      -0.629449       -17.1282
 166   2.0000      -0.623256       -16.9597
 167   2.0000      -0.622446       -16.9376
 168   2.0000      -0.606457       -16.5025
 169   2.0000      -0.599536       -16.3142
 170   2.0000      -0.598474       -16.2853
 171   2.0000      -0.592968       -16.1355
 172   2.0000      -0.589704       -16.0467
 173   2.0000      -0.584267       -15.8987
 174   2.0000      -0.581242       -15.8164
 175   2.0000      -0.578576       -15.7439
 176   2.0000      -0.570176       -15.5153
 177   2.0000      -0.567580       -15.4446
 178   2.0000      -0.566663       -15.4197
 179   2.0000      -0.564520       -15.3614
 180   2.0000      -0.563030       -15.3208
 181   2.0000      -0.557251       -15.1636
 182   2.0000      -0.555329       -15.1113
 183   2.0000      -0.553883       -15.0719
 184   2.0000      -0.552838       -15.0435
 185   2.0000      -0.552628       -15.0378
 186   2.0000      -0.550273       -14.9737
 187   2.0000      -0.544659       -14.8209
 188   2.0000      -0.543638       -14.7931
 189   2.0000      -0.538310       -14.6482
 190   2.0000      -0.536715       -14.6048
 191   2.0000      -0.532096       -14.4791
 192   2.0000      -0.531525       -14.4635
 193   2.0000      -0.527340       -14.3496
 194   2.0000      -0.523887       -14.2557
 195   2.0000      -0.523666       -14.2497
 196   2.0000      -0.519276       -14.1302
 197   2.0000      -0.515456       -14.0263
 198   2.0000      -0.512289       -13.9401
 199   2.0000      -0.511408       -13.9161
 200   2.0000      -0.506323       -13.7777
 201   2.0000      -0.505122       -13.7451
 202   2.0000      -0.502792       -13.6817
 203   2.0000      -0.502359       -13.6699
 204   2.0000      -0.501456       -13.6453
 205   2.0000      -0.496345       -13.5062
 206   2.0000      -0.494717       -13.4619
 207   2.0000      -0.491496       -13.3743
 208   2.0000      -0.489011       -13.3067
 209   2.0000      -0.486476       -13.2377
 210   2.0000      -0.483677       -13.1615
 211   2.0000      -0.479730       -13.0541
 212   2.0000      -0.479244       -13.0409
 213   2.0000      -0.477142       -12.9837
 214   2.0000      -0.472782       -12.8651
 215   2.0000      -0.467200       -12.7131
 216   2.0000      -0.465315       -12.6619
 217   2.0000      -0.462039       -12.5727
 218   2.0000      -0.460821       -12.5396
 219   2.0000      -0.457837       -12.4584
 220   2.0000      -0.454836       -12.3767
 221   2.0000      -0.451716       -12.2918
 222   2.0000      -0.451132       -12.2759
 223   2.0000      -0.449200       -12.2234
 224   2.0000      -0.447247       -12.1702
 225   2.0000      -0.446155       -12.1405
 226   2.0000      -0.441175       -12.0050
 227   2.0000      -0.440855       -11.9963
 228   2.0000      -0.440543       -11.9878
 229   2.0000      -0.438635       -11.9359
 230   2.0000      -0.433723       -11.8022
 231   2.0000      -0.432231       -11.7616
 232   2.0000      -0.428638       -11.6638
 233   2.0000      -0.427270       -11.6266
 234   2.0000      -0.420276       -11.4363
 235   2.0000      -0.419306       -11.4099
 236   2.0000      -0.416618       -11.3367
 237   2.0000      -0.412893       -11.2354
 238   2.0000      -0.400009       -10.8848
 239   2.0000      -0.393257       -10.7011
 240   2.0000      -0.391548       -10.6546
 241   2.0000      -0.388830       -10.5806
 242   2.0000      -0.378303       -10.2941
 243   2.0000      -0.375392       -10.2149
 244   2.0000      -0.374231       -10.1833
 245   2.0000      -0.370469       -10.0810
 246   2.0000      -0.365653        -9.9499
 247   2.0000      -0.364609        -9.9215
 248   2.0000      -0.362346        -9.8599
 249   2.0000      -0.360767        -9.8170
 250   2.0000      -0.353101        -9.6084
 251   2.0000      -0.352096        -9.5810
 252   2.0000      -0.348171        -9.4742
 253   2.0000      -0.346967        -9.4414
 254   2.0000      -0.343669        -9.3517
 255   2.0000      -0.340728        -9.2717
 256   2.0000      -0.331053        -9.0084
 257   2.0000      -0.327996        -8.9252
 258   2.0000      -0.326091        -8.8734
 259   2.0000      -0.321202        -8.7403
 260   2.0000      -0.313272        -8.5246
 261   2.0000      -0.311051        -8.4641
 262   2.0000      -0.309044        -8.4095
 263   2.0000      -0.302563        -8.2332
 264   2.0000      -0.292987        -7.9726
 265   2.0000      -0.249817        -6.7979
 266   0.0000      -0.127334        -3.4649
 267   0.0000      -0.121728        -3.3124
 268   0.0000      -0.115934        -3.1547
 269   0.0000      -0.101529        -2.7627
 270   0.0000      -0.093988        -2.5575

MULLIKEN ATOMIC CHARGES
-----------------------
   0 C :    0.322475
   1 C :   -0.345029
   2 C :   -0.200176
   3 N :    0.172150
   4 C :   -0.154801
   5 N :    0.151768
   6 C :    0.029524
   7 C :   -0.016353
   8 C :   -0.022588
   9 C :    0.059359
  10 C :    0.048836
  11 C :   -0.010591
  12 Cl:   -0.026504
  13 Cl:   -0.031344
  14 C :    0.136386
  15 O :   -0.122879
  16 C :   -0.092279
  17 C :   -0.032503
  18 C :   -0.010822
  19 C :    0.092450
  20 N :   -0.026109
  21 C :    0.018406
  22 C :   -0.002542
  23 C :   -0.087418
  24 S :    0.043744
  25 C :    0.036951
  26 C :   -0.036491
  27 N :   -0.005534
  28 C :    0.046854
  29 C :    0.013721
  30 C :    0.015247
  31 C :    0.049765
  32 N :   -0.009622
  33 C :   -0.010541
  34 C :    0.031353
  35 C :   -0.086329
  36 S :    0.027107
  37 C :   -0.004626
  38 C :   -0.000437
  39 N :   -0.025521
  40 C :    0.051472
  41 C :   -0.037623
  42 C :   -0.048908
  43 C :    0.078568
  44 N :   -0.027304
  45 C :    0.033471
  46 C :    0.005273
  47 C :   -0.004571
  48 S :   -0.106749
  49 C :    0.030340
  50 C :    0.012826
  51 N :   -0.039837
  52 C :    0.094378
  53 C :   -0.000546
  54 C :   -0.043393
  55 C :   -0.055891
  56 C :    0.287905
  57 C :   -0.324048
  58 C :   -0.193108
  59 N :    0.168351
  60 C :   -0.179906
  61 N :    0.153937
  62 C :    0.037896
  63 C :   -0.029224
  64 C :    0.165046
  65 O :   -0.126760
  66 C :   -0.019859
  67 C :    0.059909
  68 C :    0.050346
  69 C :   -0.013569
  70 Cl:   -0.029872
  71 Cl:   -0.035605
  72 H :    0.005566
  73 H :    0.004193
  74 H :    0.049556
  75 H :    0.000737
  76 H :    0.008320
  77 H :    0.011740
  78 H :   -0.003710
  79 H :    0.010272
  80 H :    0.015598
  81 H :    0.043526
  82 H :    0.002467
  83 H :    0.003730
Sum of atomic charges:   -0.0000000

LOEWDIN ATOMIC CHARGES
----------------------
   0 C :    0.080498
   1 C :   -0.129506
   2 C :   -0.021370
   3 N :   -0.037557
   4 C :    0.010560
   5 N :   -0.048498
   6 C :   -0.014788
   7 C :   -0.043391
   8 C :    0.003968
   9 C :   -0.131037
  10 C :   -0.128523
  11 C :   -0.009818
  12 Cl:    0.169595
  13 Cl:    0.168875
  14 C :    0.084925
  15 O :   -0.111947
  16 C :   -0.085088
  17 C :    0.084656
  18 C :   -0.030690
  19 C :    0.079808
  20 N :   -0.072502
  21 C :   -0.006463
  22 C :   -0.001917
  23 C :   -0.182740
  24 S :    0.228571
  25 C :   -0.023065
  26 C :    0.028735
  27 N :   -0.055693
  28 C :    0.080909
  29 C :   -0.048357
  30 C :   -0.051927
  31 C :    0.090072
  32 N :   -0.061461
  33 C :    0.046221
  34 C :   -0.027415
  35 C :   -0.175390
  36 S :    0.218480
  37 C :   -0.018052
  38 C :   -0.016404
  39 N :   -0.067060
  40 C :    0.054341
  41 C :   -0.039559
  42 C :   -0.050649
  43 C :    0.095272
  44 N :   -0.079630
  45 C :    0.043843
  46 C :   -0.013517
  47 C :   -0.143888
  48 S :    0.092448
  49 C :    0.013022
  50 C :    0.050993
  51 N :   -0.084169
  52 C :    0.112447
  53 C :   -0.045048
  54 C :    0.066360
  55 C :   -0.072313
  56 C :    0.080428
  57 C :   -0.130851
  58 C :   -0.022162
  59 N :   -0.038530
  60 C :    0.002892
  61 N :   -0.054635
  62 C :   -0.014166
  63 C :   -0.039073
  64 C :    0.080153
  65 O :   -0.124153
  66 C :    0.004234
  67 C :   -0.131704
  68 C :   -0.129535
  69 C :   -0.011159
  70 Cl:    0.167030
  71 Cl:    0.165615
  72 H :    0.048487
  73 H :    0.045533
  74 H :    0.040365
  75 H :    0.020721
  76 H :    0.025397
  77 H :    0.026716
  78 H :    0.020981
  79 H :    0.028561
  80 H :    0.029850
  81 H :    0.041261
  82 H :    0.047472
  83 H :    0.045105

  Mayer bond orders larger than 0.100000
B(  0-C ,  1-C ) :   1.6524 B(  0-C ,  6-C ) :   1.0040 B(  0-C , 16-C ) :   1.0380
B(  1-C ,  2-C ) :   1.1327 B(  1-C ,  4-C ) :   1.1552 B(  2-C ,  3-N ) :   2.9822
B(  4-C ,  5-N ) :   2.9331 B(  6-C ,  7-C ) :   1.3239 B(  6-C , 11-C ) :   1.3364
B(  7-C ,  8-C ) :   1.3471 B(  7-C , 14-C ) :   0.9370 B(  8-C ,  9-C ) :   1.3437
B(  8-C , 72-H ) :   1.0160 B(  9-C , 10-C ) :   1.3964 B(  9-C , 13-Cl) :   1.0585
B( 10-C , 11-C ) :   1.3662 B( 10-C , 12-Cl) :   1.0835 B( 11-C , 73-H ) :   0.9847
B( 14-C , 15-O ) :   2.2317 B( 14-C , 16-C ) :   0.9280 B( 16-C , 17-C ) :   1.6772
B( 17-C , 18-C ) :   1.0533 B( 17-C , 74-H ) :   0.9253 B( 18-C , 19-C ) :   0.9488
B( 18-C , 22-C ) :   1.6087 B( 19-C , 20-N ) :   1.8267 B( 19-C , 75-H ) :   0.9874
B( 20-N , 21-C ) :   1.2086 B( 21-C , 22-C ) :   1.0701 B( 21-C , 26-C ) :   1.6053
B( 22-C , 23-C ) :   1.0220 B( 22-C , 25-C ) :   0.1102 B( 23-C , 24-S ) :   1.0512
B( 23-C , 25-C ) :   1.5059 B( 24-S , 36-S ) :   1.0180 B( 25-C , 26-C ) :   1.0292
B( 25-C , 29-C ) :   1.1390 B( 26-C , 27-N ) :   1.2610 B( 27-N , 28-C ) :   1.7278
B( 28-C , 29-C ) :   1.0361 B( 28-C , 76-H ) :   0.9879 B( 29-C , 30-C ) :   1.3594
B( 30-C , 31-C ) :   1.0414 B( 30-C , 34-C ) :   1.1339 B( 31-C , 32-N ) :   1.7116
B( 31-C , 77-H ) :   0.9883 B( 32-N , 33-C ) :   1.2722 B( 33-C , 34-C ) :   1.0317
B( 33-C , 38-C ) :   1.5781 B( 34-C , 35-C ) :   1.5204 B( 34-C , 37-C ) :   0.1130
B( 35-C , 36-S ) :   1.0315 B( 35-C , 37-C ) :   1.0044 B( 37-C , 38-C ) :   1.0665
B( 37-C , 41-C ) :   1.6568 B( 38-C , 39-N ) :   1.2117 B( 39-N , 40-C ) :   1.8162
B( 40-C , 41-C ) :   0.9877 B( 40-C , 78-H ) :   0.9964 B( 41-C , 42-C ) :   0.9424
B( 42-C , 43-C ) :   1.0417 B( 42-C , 46-C ) :   1.6217 B( 43-C , 44-N ) :   1.7093
B( 43-C , 79-H ) :   0.9969 B( 44-N , 45-C ) :   1.2818 B( 45-C , 46-C ) :   1.0398
B( 45-C , 50-C ) :   1.4997 B( 46-C , 47-C ) :   1.0153 B( 47-C , 48-S ) :   1.6964
B( 47-C , 49-C ) :   1.0225 B( 49-C , 50-C ) :   1.0503 B( 49-C , 53-C ) :   1.5593
B( 50-C , 51-N ) :   1.2821 B( 51-N , 52-C ) :   1.7045 B( 52-C , 53-C ) :   1.0201
B( 52-C , 80-H ) :   0.9933 B( 53-C , 54-C ) :   1.0826 B( 54-C , 55-C ) :   1.6570
B( 54-C , 81-H ) :   0.9345 B( 55-C , 56-C ) :   1.0518 B( 55-C , 64-C ) :   0.9159
B( 56-C , 57-C ) :   1.6600 B( 56-C , 62-C ) :   1.0090 B( 57-C , 58-C ) :   1.1272
B( 57-C , 60-C ) :   1.1494 B( 58-C , 59-N ) :   2.9866 B( 60-C , 61-N ) :   2.9667
B( 62-C , 63-C ) :   1.3278 B( 62-C , 69-C ) :   1.3301 B( 63-C , 64-C ) :   0.9415
B( 63-C , 66-C ) :   1.3501 B( 64-C , 65-O ) :   2.2470 B( 66-C , 67-C ) :   1.3434
B( 66-C , 82-H ) :   1.0166 B( 67-C , 68-C ) :   1.3974 B( 67-C , 71-Cl) :   1.0540
B( 68-C , 69-C ) :   1.3651 B( 68-C , 70-Cl) :   1.0781 B( 69-C , 83-H ) :   0.9881

-----------------------------------------------------------------------------
         ABSORPTION SPECTRUM VIA TRANSITION ELECTRIC DIPOLE MOMENTS
-----------------------------------------------------------------------------
State   Energy  Wavelength   fosc         T2         TX        TY        TZ
        (cm-1)    (nm)                  (au**2)     (au)      (au)      (au)
-----------------------------------------------------------------------------
   0    8431.2   1186.1   0.007712607   0.30115   0.06472   0.13842   0.52707
   1    9710.2   1029.8   0.003208708   0.10879   0.09407  -0.18064   0.25944
   2   11722.5    853.1   0.000687243   0.01930  -0.06636  -0.01536  -0.12108
   3   14742.7    678.3   0.030455199   0.68008   0.33482  -0.46390   0.59394
   4   15069.1    663.6   0.188263890   4.11298   1.31905  -0.52596   1.44792
   5   15675.2    637.9   0.039928023   0.83857   0.61455  -0.32657   0.59519
   6   17971.9    556.4   0.098758379   1.80907   0.68577  -0.25332   1.12899
   7   18630.9    536.7   0.018824938   0.33264  -0.29299  -0.41434  -0.27408
   8   20138.3    496.6   0.003892134   0.06363  -0.03661   0.05957   0.24236
   9   20374.7    490.8   0.015704817   0.25376  -0.43778  -0.20060   0.14787
  10   20667.4    483.9   0.033695841   0.53674   0.30905   0.00198   0.66425
  11   20868.1    479.2   0.026801043   0.42281  -0.38008   0.36983  -0.37626
  12   21074.0    474.5   0.041302818   0.64522  -0.33055   0.16384  -0.71352
  13   21326.3    468.9   0.036217713   0.55909   0.01788   0.11814   0.73811
  14   22073.6    453.0   0.034072690   0.50817   0.36239   0.60285   0.11581
  15   22876.9    437.1   0.108898472   1.56711   0.94259   0.61852   0.54413
  16   23079.4    433.3   0.019711808   0.28118  -0.31439   0.13956   0.40356
  17   23254.5    430.0   0.015998329   0.22649   0.32409   0.04928  -0.34500
  18   23577.2    424.1   0.149466115   2.08702   0.13123  -0.50898  -1.34563
  19   23804.5    420.1   0.014150071   0.19569  -0.18388  -0.30543  -0.26190
  20   23891.9    418.6   0.009001006   0.12403   0.03651  -0.19736   0.28938
  21   24370.1    410.3   0.116948686   1.57984   0.50174  -0.03958   1.15175
  22   24426.6    409.4   0.056745675   0.76480   0.05319  -0.07841  -0.86938
  23   24725.0    404.4   0.073464330   0.97818   0.64218  -0.32472  -0.67848
  24   25014.8    399.8   0.014073550   0.18522  -0.27099  -0.33350   0.02362
  25   25124.2    398.0   0.002330149   0.03053   0.17392   0.01313   0.01066
  26   25404.1    393.6   0.030068329   0.38966  -0.49563  -0.34840  -0.15042
  27   25572.6    391.0   0.117559895   1.51342  -0.34498   0.41330   1.10616
  28   25921.5    385.8   0.017921766   0.22761   0.43317  -0.13932  -0.14340
  29   26239.8    381.1   0.017437724   0.21878  -0.18383  -0.07498  -0.42351
  30   26472.3    377.8   0.015220227   0.18928   0.25242  -0.29574  -0.19521
  31   26702.9    374.5   0.005770053   0.07114   0.11242   0.19393   0.14453
  32   26959.5    370.9   0.038709817   0.47270   0.12779  -0.58507  -0.33773
  33   27131.6    368.6   0.008126334   0.09860  -0.24076  -0.03516  -0.19850
  34   27397.3    365.0   0.052591313   0.63195  -0.19615   0.36095  -0.68058
  35   27458.9    364.2   0.038666380   0.46358   0.23018   0.63380   0.09430
  36   27523.9    363.3   0.032154093   0.38459  -0.23484  -0.12318   0.56060
  37   27736.3    360.5   0.063352949   0.75196  -0.45413  -0.63193  -0.38261
  38   27924.0    358.1   0.172169695   2.02981  -0.71939   0.19516   1.21416
  39   28058.7    356.4   0.079519309   0.93300  -0.50564   0.82205   0.03950
  40   28098.1    355.9   0.017619989   0.20645  -0.04134   0.38570  -0.23658
  41   28282.0    353.6   0.014900861   0.17345   0.29891   0.19106   0.21817
  42   28662.5    348.9   0.075309817   0.86499   0.51335   0.74528   0.21455
  43   28769.2    347.6   0.030625104   0.35045   0.52250  -0.23356   0.15129
  44   28809.3    347.1   0.005853511   0.06689   0.18716   0.06829   0.16492
  45   29078.9    343.9   0.004051552   0.04587  -0.21372   0.00739   0.01180
  46   29117.7    343.4   0.132647634   1.49975   0.28875  -1.18730  -0.08175
  47   29294.5    341.4   0.035774301   0.40203   0.24342  -0.36264   0.45964
  48   29802.6    335.5   0.060822731   0.67187  -0.65766  -0.47058   0.13385
  49   29988.5    333.5   0.180628369   1.98293  -0.63000   0.82379  -0.95258
  50   30133.4    331.9   0.083082193   0.90769   0.01972  -0.16684   0.93780
  51   30332.8    329.7   0.140406559   1.52388   1.10887   0.23330   0.48976
  52   30523.3    327.6   0.052309798   0.56419   0.56671   0.48926   0.06044
  53   30770.2    325.0   0.081766327   0.87482   0.07242   0.43198   0.82642
  54   30982.8    322.8   0.014306563   0.15202   0.08876  -0.01822  -0.37922
  55   31074.0    321.8   0.035454700   0.37562  -0.32278   0.30715   0.42083
  56   31332.5    319.2   0.007402263   0.07778   0.27715  -0.02819  -0.01299
  57   31447.5    318.0   0.008034332   0.08411  -0.15123   0.17094   0.17894
  58   31496.0    317.5   0.003325104   0.03476  -0.03407  -0.18202  -0.02151
  59   31613.6    316.3   0.098020014   1.02074   0.57081  -0.80363   0.22160
  60   31690.8    315.5   0.088806913   0.92255   0.84272  -0.11066   0.44736
  61   31826.0    314.2   0.051574819   0.53350   0.72426  -0.02202   0.09197
  62   32042.8    312.1   0.011748649   0.12071  -0.11306  -0.03188   0.32697
  63   32113.2    311.4   0.013342997   0.13679  -0.34346  -0.07405   0.11550
  64   32139.4    311.1   0.017764655   0.18197  -0.33589   0.15624   0.21150
  65   32547.2    307.2   0.023709582   0.23982   0.03272   0.35129   0.33963
  66   32605.5    306.7   0.090057813   0.90930   0.65362  -0.03429  -0.69347
  67   32800.9    304.9   0.079795087   0.80088  -0.09148   0.02180   0.88996
  68   32979.7    303.2   0.014595473   0.14570  -0.30262   0.23078  -0.02934
  69   33042.1    302.6   0.004796057   0.04779  -0.10325  -0.16673   0.09657
  70   33073.6    302.4   0.013912232   0.13848   0.23418   0.20876   0.20014
  71   33229.3    300.9   0.030460930   0.30178  -0.13499   0.08464  -0.52574
  72   33410.3    299.3   0.086689620   0.85420   0.43150   0.61012  -0.54385
  73   33517.8    298.3   0.128243512   1.25961   0.82720  -0.73830   0.17396
  74   33630.2    297.4   0.041740986   0.40861   0.23701   0.39543   0.44280
  75   33682.2    296.9   0.022041963   0.21544   0.28966   0.17421  -0.31810
  76   33708.0    296.7   0.040980797   0.40024  -0.20863  -0.04747   0.59537
  77   33842.8    295.5   0.031602745   0.30742  -0.06256  -0.18030  -0.52058
  78   34038.7    293.8   0.037741861   0.36503  -0.15746   0.11914  -0.57100
  79   34175.5    292.6   0.078282653   0.75410  -0.09496   0.82602  -0.25054
  80   34337.8    291.2   0.181818941   1.74318   0.27641  -0.18204   1.27814
  81   34491.7    289.9   0.238574210   2.27711  -0.88082   0.77523  -0.94883
  82   34627.8    288.8   0.329707654   3.13458  -0.31975   1.73880  -0.09438
  83   34760.1    287.7   0.149960654   1.42027   0.06155   1.17805  -0.16939
  84   34891.9    286.6   0.019402699   0.18307  -0.29832  -0.30483   0.03394
  85   34976.5    285.9   0.011606053   0.10924  -0.03376   0.04725   0.32537
  86   35080.6    285.1   0.161488989   1.51548  -1.03764   0.66044  -0.05100
  87   35237.0    283.8   0.017931521   0.16753  -0.26272  -0.13528   0.28321
  88   35286.2    283.4   0.176451110   1.64625  -0.51725   0.39188  -1.10685
  89   35333.7    283.0   0.032196829   0.29999   0.32695  -0.17081   0.40486
  90   35456.7    282.0   0.202513660   1.88032   0.04529  -0.74860   1.14798
  91   35729.7    279.9   0.089087483   0.82085   0.74923  -0.47375  -0.18724
  92   35929.5    278.3   0.003692650   0.03383   0.14677   0.09073  -0.06375
  93   36056.7    277.3   0.032906295   0.30045   0.39807  -0.31437   0.20775
  94   36262.9    275.8   0.087486266   0.79424  -0.08861   0.18612  -0.86704
  95   36418.6    274.6   0.034308919   0.31014   0.09506  -0.07255  -0.54391
  96   36471.0    274.2   0.001977745   0.01785   0.07741   0.10180  -0.03867
  97   36584.5    273.3   0.065371335   0.58826  -0.26373  -0.06810  -0.71698
  98   36627.9    273.0   0.049978131   0.44920   0.64301  -0.03691   0.18542
  99   36835.6    271.5   0.053819407   0.48100   0.27587  -0.42531   0.47329
 100   36885.1    271.1   0.002215137   0.01977  -0.10680   0.08129  -0.04193
 101   37005.0    270.2   0.012075811   0.10743   0.05072   0.08146   0.31340
 102   37032.1    270.0   0.037621874   0.33445   0.35133  -0.45060  -0.08935
 103   37304.2    268.1   0.065891248   0.58149  -0.28594  -0.59207  -0.38624
 104   37393.9    267.4   0.023820890   0.20972  -0.29454  -0.18179   0.29985
 105   37466.8    266.9   0.039771952   0.34947  -0.56095  -0.16027   0.09547
 106   37562.1    266.2   0.000204510   0.00179  -0.00745  -0.02314  -0.03466
 107   37706.5    265.2   0.011763707   0.10271  -0.02711  -0.19860   0.25006
 108   37839.9    264.3   0.094234331   0.81985  -0.88938  -0.11120   0.12842
 109   37911.6    263.8   0.018601000   0.16152   0.35570  -0.05163   0.17983
 110   38080.4    262.6   0.053815786   0.46525  -0.63645   0.22026  -0.10801
 111   38114.6    262.4   0.062923655   0.54350  -0.15831  -0.57287   0.43619
 112   38178.1    261.9   0.019235515   0.16587   0.30099   0.23865   0.13536
 113   38285.8    261.2   0.016832263   0.14474   0.10525  -0.35188   0.09919
 114   38413.9    260.3   0.071486758   0.61265  -0.64894  -0.32669   0.29121
 115   38466.9    260.0   0.004190900   0.03587  -0.18377   0.01617   0.04283
 116   38537.8    259.5   0.045756392   0.39088   0.23395  -0.39894  -0.42071
 117   38580.9    259.2   0.027349049   0.23337  -0.35421  -0.00259   0.32848
 118   38759.6    258.0   0.044044157   0.37410  -0.47185  -0.14707  -0.36031
 119   38814.0    257.6   0.004477618   0.03798   0.02187   0.08099  -0.17590
 120   39127.0    255.6   0.122881506   1.03392  -0.40697   0.19735   0.91069
 121   39291.5    254.5   0.034881438   0.29226   0.35791   0.10431   0.39151
 122   39375.8    254.0   0.061421181   0.51353   0.38015  -0.21417  -0.56846
 123   39480.2    253.3   0.071578259   0.59687  -0.60412  -0.17921  -0.44697
 124   39701.8    251.9   0.024606293   0.20404  -0.17238  -0.19481  -0.36928
 125   39899.5    250.6   0.026795703   0.22109  -0.32692   0.23266   0.24512
 126   39926.8    250.5   0.012747902   0.10511   0.06064   0.31074  -0.06984
 127   39980.5    250.1   0.013652335   0.11242  -0.31965   0.00395   0.10113
 128   40052.8    249.7   0.009177022   0.07543  -0.21016  -0.00792   0.17664
 129   40227.1    248.6   0.004579253   0.03748   0.15877  -0.00412  -0.11068
 130   40248.7    248.5   0.026214933   0.21442  -0.10191   0.01813   0.45134

FINAL SINGLE POINT ENERGY     -5755.494633731005

DIPOLE MOMENT
-------------
                                X             Y             Z
Electronic contribution:     -9.66308     -10.03999     -14.90338
Nuclear contribution   :     10.03953       9.88784      14.43259
                        -----------------------------------------
Total Dipole Moment    :      0.37644      -0.15215      -0.47079
                        -----------------------------------------
Magnitude (a.u.)       :      0.62169
Magnitude (Debye)      :      1.58021

Rotational constants in cm-1:     0.001130     0.000544     0.000503
Rotational constants in MHz :    33.890917    16.298481    15.092490

                             ****ORCA TERMINATED NORMALLY****
TOTAL RUN TIME: 0 days 0 hours 12 minutes 52 seconds 962 msec
