                         Program Version 4.2.0 -  RELEASE  -
|  1> # ORCA input file
|  2> # SCF done       -198.251717229649          0.000425267670
|  3> ! CAM-B3LYP def2-SVP def2/J RIJCOSX Grid4 TightSCF
|  4> %maxcore 5000
|  5> %tddft
|  6>     Mode sTDDFT
|  7>     Ethresh 5.0
|  8>     maxcore 5000
|  9> end
| 10>
| 11> %pal
| 12>   nprocs 6
| 13>   end
| 14> * xyz 0 1
| 15>    C        2.90830         0.76018        -6.15723
| 16>    C        3.47461         0.32518        -7.35493
| 17>    C        3.75268         1.36155        -8.38854
| 18>    O        3.84485         2.53565        -8.14798
| 19>    O        3.87333         0.85565        -9.61830
| 20>    C        3.77853        -1.03065        -7.55710
| 21>    C        4.38653        -1.51172        -8.74224
| 22>    N        4.89333        -1.98831        -9.65280
| 23>    C        3.51335        -1.96490        -6.54967
| 24>    C        2.93572        -1.52349        -5.38046
| 25>    C        2.62483        -0.16796        -5.17013
| 26>    C        2.02369        -0.02893        -3.84517
| 27>    C        1.46008         1.11317        -3.34340
| 28>    C        1.40377         2.34320        -4.03525
| 29>    N        1.29967         3.36162        -4.55266
| 30>    C        0.79916         1.20236        -2.09908
| 31>    N        0.22611         1.34020        -1.11367
| 32>    C        2.01647        -1.34012        -3.22332
| 33>    C        2.57100        -2.31356        -4.17877
| 34>    O        2.78585        -3.49804        -4.01680
| 35>    C        1.73520        -1.59523        -1.90720
| 36>    C        1.47696        -2.84499        -1.30138
| 37>    C        0.83529        -3.96248        -1.84279
| 38>    C        0.23215        -4.19836        -3.17094
| 39>    N        0.69574        -4.86382        -0.84640
| 40>    C        1.21483        -4.39890         0.33211
| 41>    C        1.23617        -5.26389         1.53923
| 42>    C        1.69227        -3.12591         0.10244
| 43>    C        2.35824        -2.24004         1.01386
| 44>    C        2.21323        -2.25799         2.35426
| 45>    C        2.91079        -1.40304         3.25719
| 46>    C        3.94851        -0.52289         3.02143
| 47>    C        4.38346         0.10635         4.19089
| 48>    C        3.66205        -0.28634         5.32782
| 49>    S        2.46034        -1.43816         4.95787
| 50>    C        4.18794         0.39918         6.45822
| 51>    C        5.25178         1.20242         6.03424
| 52>    C        5.38646         1.08116         4.59272
| 53>    C        6.23071         1.78762         3.78392
| 54>    C        7.07234         2.79256         4.29623
| 55>    N        7.72700         3.63326         4.72432
| 56>    C        6.28136         1.57463         2.39023
| 57>    N        6.32574         1.37812         1.26159
| 58>    C        5.88743         1.87110         7.08620
| 59>    C        5.29482         1.63183         8.30720
| 60>    S        3.93955         0.51276         8.14204
| 61>    C        5.64470         2.15355         9.59602
| 62>    C        5.13114         1.74170        10.81478
| 63>    C        4.09467         0.73714        11.16113
| 64>    N        5.76298         2.45235        11.79194
| 65>    C        6.68037         3.29999        11.27121
| 66>    C        7.42929         4.25322        12.12357
| 67>    C        6.64328         3.15913         9.88698
| 68>    C        7.39840         3.93183         8.95921
| 69>    C        8.65028         4.41370         9.17234
| 70>    C        9.40550         5.12290         8.20889
| 71>    C        8.99312         5.79391         7.09230
| 72>    C        9.97051         6.03916         5.99893
| 73>    O       11.17224         5.93592         6.06014
| 74>    C        9.14706         6.39763         4.81839
| 75>    C        7.80152         6.50257         5.21195
| 76>    C        6.81971         6.75367         4.26963
| 77>    C        7.18900         6.91858         2.93663
| 78>    C        8.53760         6.82620         2.55543
| 79>    C        9.52935         6.56232         3.50597
| 80>    C        8.94283         7.02432         1.21111
| 81>    N        9.37430         7.20982         0.16660
| 82>    C        6.15576         7.12660         1.86874
| 83>    O        6.29333         6.71087         0.75440
| 84>    O        5.05475         7.79843         2.23267
| 85>    C        7.71216         6.29067         6.65623
| 86>    C        6.68311         6.74570         7.44464
| 87>    C        6.71224         6.71819         8.85052
| 88>    N        6.71145         6.73588         9.99879
| 89>    C        5.53569         7.37013         6.92075
| 90>    N        4.59318         7.88192         6.50950
| 91>    H        2.71406         1.81494        -6.04030
| 92>    H        4.06794         1.55747       -10.25975
| 93>    H        3.75553        -3.00819        -6.68628
| 94>    H        1.71556        -0.75021        -1.22950
| 95>    H        0.97896        -4.61710        -3.84965
| 96>    H       -0.11039        -3.26076        -3.60453
| 97>    H       -0.60445        -4.89054        -3.09532
| 98>    H        0.26782        -5.77012        -0.95804
| 99>    H        1.21463        -6.31329         1.25006
|100>    H        0.37346        -5.07103         2.17874
|101>    H        2.13821        -5.07838         2.11808
|102>    H        3.00832        -1.50281         0.56491
|103>    H        1.50645        -2.93447         2.81094
|104>    H        4.37630        -0.36126         2.04968
|105>    H        6.77295         2.46059         6.95442
|106>    H        3.12089         1.03015        10.76771
|107>    H        4.01514         0.63998        12.24186
|108>    H        4.33964        -0.23847        10.74164
|109>    H        5.55512         2.37192        12.77524
|110>    H        8.44032         3.89820        12.32542
|111>    H        6.92034         4.38596        13.07622
|112>    H        7.49649         5.21678        11.62062
|113>    H        6.94280         4.10627         7.99481
|114>    H        9.17362         4.13476        10.07428
|115>    H       10.48488         5.05385         8.30767
|116>    H        5.77718         6.76420         4.55254
|117>    H       10.56558         6.48132         3.21487
|118>    H        5.06597         8.11240         3.14782
|119> *
|120>
|121>                          ****END OF INPUT****

CARTESIAN COORDINATES (ANGSTROEM)
---------------------------------
  C      2.908300    0.760180   -6.157230
  C      3.474610    0.325180   -7.354930
  C      3.752680    1.361550   -8.388540
  O      3.844850    2.535650   -8.147980
  O      3.873330    0.855650   -9.618300
  C      3.778530   -1.030650   -7.557100
  C      4.386530   -1.511720   -8.742240
  N      4.893330   -1.988310   -9.652800
  C      3.513350   -1.964900   -6.549670
  C      2.935720   -1.523490   -5.380460
  C      2.624830   -0.167960   -5.170130
  C      2.023690   -0.028930   -3.845170
  C      1.460080    1.113170   -3.343400
  C      1.403770    2.343200   -4.035250
  N      1.299670    3.361620   -4.552660
  C      0.799160    1.202360   -2.099080
  N      0.226110    1.340200   -1.113670
  C      2.016470   -1.340120   -3.223320
  C      2.571000   -2.313560   -4.178770
  O      2.785850   -3.498040   -4.016800
  C      1.735200   -1.595230   -1.907200
  C      1.476960   -2.844990   -1.301380
  C      0.835290   -3.962480   -1.842790
  C      0.232150   -4.198360   -3.170940
  N      0.695740   -4.863820   -0.846400
  C      1.214830   -4.398900    0.332110
  C      1.236170   -5.263890    1.539230
  C      1.692270   -3.125910    0.102440
  C      2.358240   -2.240040    1.013860
  C      2.213230   -2.257990    2.354260
  C      2.910790   -1.403040    3.257190
  C      3.948510   -0.522890    3.021430
  C      4.383460    0.106350    4.190890
  C      3.662050   -0.286340    5.327820
  S      2.460340   -1.438160    4.957870
  C      4.187940    0.399180    6.458220
  C      5.251780    1.202420    6.034240
  C      5.386460    1.081160    4.592720
  C      6.230710    1.787620    3.783920
  C      7.072340    2.792560    4.296230
  N      7.727000    3.633260    4.724320
  C      6.281360    1.574630    2.390230
  N      6.325740    1.378120    1.261590
  C      5.887430    1.871100    7.086200
  C      5.294820    1.631830    8.307200
  S      3.939550    0.512760    8.142040
  C      5.644700    2.153550    9.596020
  C      5.131140    1.741700   10.814780
  C      4.094670    0.737140   11.161130
  N      5.762980    2.452350   11.791940
  C      6.680370    3.299990   11.271210
  C      7.429290    4.253220   12.123570
  C      6.643280    3.159130    9.886980
  C      7.398400    3.931830    8.959210
  C      8.650280    4.413700    9.172340
  C      9.405500    5.122900    8.208890
  C      8.993120    5.793910    7.092300
  C      9.970510    6.039160    5.998930
  O     11.172240    5.935920    6.060140
  C      9.147060    6.397630    4.818390
  C      7.801520    6.502570    5.211950
  C      6.819710    6.753670    4.269630
  C      7.189000    6.918580    2.936630
  C      8.537600    6.826200    2.555430
  C      9.529350    6.562320    3.505970
  C      8.942830    7.024320    1.211110
  N      9.374300    7.209820    0.166600
  C      6.155760    7.126600    1.868740
  O      6.293330    6.710870    0.754400
  O      5.054750    7.798430    2.232670
  C      7.712160    6.290670    6.656230
  C      6.683110    6.745700    7.444640
  C      6.712240    6.718190    8.850520
  N      6.711450    6.735880    9.998790
  C      5.535690    7.370130    6.920750
  N      4.593180    7.881920    6.509500
  H      2.714060    1.814940   -6.040300
  H      4.067940    1.557470  -10.259750
  H      3.755530   -3.008190   -6.686280
  H      1.715560   -0.750210   -1.229500
  H      0.978960   -4.617100   -3.849650
  H     -0.110390   -3.260760   -3.604530
  H     -0.604450   -4.890540   -3.095320
  H      0.267820   -5.770120   -0.958040
  H      1.214630   -6.313290    1.250060
  H      0.373460   -5.071030    2.178740
  H      2.138210   -5.078380    2.118080
  H      3.008320   -1.502810    0.564910
  H      1.506450   -2.934470    2.810940
  H      4.376300   -0.361260    2.049680
  H      6.772950    2.460590    6.954420
  H      3.120890    1.030150   10.767710
  H      4.015140    0.639980   12.241860
  H      4.339640   -0.238470   10.741640
  H      5.555120    2.371920   12.775240
  H      8.440320    3.898200   12.325420
  H      6.920340    4.385960   13.076220
  H      7.496490    5.216780   11.620620
  H      6.942800    4.106270    7.994810
  H      9.173620    4.134760   10.074280
  H     10.484880    5.053850    8.307670
  H      5.777180    6.764200    4.552540
  H     10.565580    6.481320    3.214870
  H      5.065970    8.112400    3.147820

 Total Charge           Charge          ....    0
 Multiplicity           Mult            ....    1
 Number of Electrons    NEL             ....  526
 Basis Dimension        Dim             .... 1212

ORBITAL ENERGIES
----------------

  NO   OCC          E(Eh)            E(eV)
   0   2.0000     -88.987017     -2421.4598
   1   2.0000     -88.984963     -2421.4040
   2   2.0000     -19.270690      -524.3821
   3   2.0000     -19.261893      -524.1428
   4   2.0000     -19.221072      -523.0320
   5   2.0000     -19.217773      -522.9422
   6   2.0000     -19.212784      -522.8064
   7   2.0000     -19.201164      -522.4902
   8   2.0000     -14.483679      -394.1209
   9   2.0000     -14.482496      -394.0887
  10   2.0000     -14.438328      -392.8869
  11   2.0000     -14.427499      -392.5922
  12   2.0000     -14.424826      -392.5195
  13   2.0000     -14.422917      -392.4675
  14   2.0000     -14.416081      -392.2815
  15   2.0000     -14.412362      -392.1803
  16   2.0000     -14.407273      -392.0418
  17   2.0000     -14.397905      -391.7869
  18   2.0000     -10.415237      -283.4130
  19   2.0000     -10.406489      -283.1750
  20   2.0000     -10.371662      -282.2273
  21   2.0000     -10.368798      -282.1493
  22   2.0000     -10.363150      -281.9956
  23   2.0000     -10.351949      -281.6909
  24   2.0000     -10.348069      -281.5853
  25   2.0000     -10.347247      -281.5629
  26   2.0000     -10.345412      -281.5130
  27   2.0000     -10.341671      -281.4112
  28   2.0000     -10.341115      -281.3961
  29   2.0000     -10.338887      -281.3354
  30   2.0000     -10.333738      -281.1953
  31   2.0000     -10.332730      -281.1679
  32   2.0000     -10.327912      -281.0368
  33   2.0000     -10.327223      -281.0180
  34   2.0000     -10.326838      -281.0075
  35   2.0000     -10.326662      -281.0027
  36   2.0000     -10.325924      -280.9827
  37   2.0000     -10.325624      -280.9745
  38   2.0000     -10.323334      -280.9122
  39   2.0000     -10.322024      -280.8766
  40   2.0000     -10.320789      -280.8429
  41   2.0000     -10.320552      -280.8365
  42   2.0000     -10.319589      -280.8103
  43   2.0000     -10.318596      -280.7833
  44   2.0000     -10.318581      -280.7829
  45   2.0000     -10.318401      -280.7780
  46   2.0000     -10.318275      -280.7745
  47   2.0000     -10.317033      -280.7407
  48   2.0000     -10.316289      -280.7205
  49   2.0000     -10.314351      -280.6678
  50   2.0000     -10.313945      -280.6567
  51   2.0000     -10.313744      -280.6513
  52   2.0000     -10.311236      -280.5830
  53   2.0000     -10.309400      -280.5330
  54   2.0000     -10.308445      -280.5070
  55   2.0000     -10.308193      -280.5002
  56   2.0000     -10.305734      -280.4333
  57   2.0000     -10.302551      -280.3467
  58   2.0000     -10.298160      -280.2272
  59   2.0000     -10.298019      -280.2234
  60   2.0000     -10.297638      -280.2130
  61   2.0000     -10.296244      -280.1751
  62   2.0000     -10.295226      -280.1473
  63   2.0000     -10.294681      -280.1325
  64   2.0000     -10.293842      -280.1097
  65   2.0000     -10.293739      -280.1069
  66   2.0000     -10.293202      -280.0923
  67   2.0000     -10.290276      -280.0126
  68   2.0000     -10.288217      -279.9566
  69   2.0000     -10.287904      -279.9481
  70   2.0000     -10.286844      -279.9193
  71   2.0000     -10.283465      -279.8273
  72   2.0000     -10.281839      -279.7831
  73   2.0000     -10.281011      -279.7605
  74   2.0000     -10.280281      -279.7407
  75   2.0000     -10.277847      -279.6744
  76   2.0000      -8.081146      -219.8992
  77   2.0000      -8.079779      -219.8620
  78   2.0000      -6.050515      -164.6429
  79   2.0000      -6.048909      -164.5992
  80   2.0000      -6.046121      -164.5233
  81   2.0000      -6.044843      -164.4885
  82   2.0000      -6.043569      -164.4539
  83   2.0000      -6.042287      -164.4190
  84   2.0000      -1.200022       -32.6543
  85   2.0000      -1.185375       -32.2557
  86   2.0000      -1.135461       -30.8975
  87   2.0000      -1.133240       -30.8370
  88   2.0000      -1.104063       -30.0431
  89   2.0000      -1.102067       -29.9888
  90   2.0000      -1.101118       -29.9630
  91   2.0000      -1.100817       -29.9548
  92   2.0000      -1.041514       -28.3410
  93   2.0000      -1.026982       -27.9456
  94   2.0000      -1.024410       -27.8756
  95   2.0000      -1.021860       -27.8062
  96   2.0000      -1.009569       -27.4718
  97   2.0000      -1.007873       -27.4256
  98   2.0000      -1.006780       -27.3959
  99   2.0000      -1.002517       -27.2799
 100   2.0000      -0.993266       -27.0281
 101   2.0000      -0.992534       -27.0082
 102   2.0000      -0.990927       -26.9645
 103   2.0000      -0.984926       -26.8012
 104   2.0000      -0.962401       -26.1883
 105   2.0000      -0.960618       -26.1397
 106   2.0000      -0.958844       -26.0915
 107   2.0000      -0.934222       -25.4215
 108   2.0000      -0.930043       -25.3078
 109   2.0000      -0.918598       -24.9963
 110   2.0000      -0.910387       -24.7729
 111   2.0000      -0.908408       -24.7190
 112   2.0000      -0.907411       -24.6919
 113   2.0000      -0.896016       -24.3818
 114   2.0000      -0.893511       -24.3137
 115   2.0000      -0.883267       -24.0349
 116   2.0000      -0.882068       -24.0023
 117   2.0000      -0.876514       -23.8512
 118   2.0000      -0.866866       -23.5886
 119   2.0000      -0.856857       -23.3163
 120   2.0000      -0.850885       -23.1538
 121   2.0000      -0.848625       -23.0923
 122   2.0000      -0.833762       -22.6878
 123   2.0000      -0.833232       -22.6734
 124   2.0000      -0.816188       -22.2096
 125   2.0000      -0.809375       -22.0242
 126   2.0000      -0.796602       -21.6766
 127   2.0000      -0.793361       -21.5884
 128   2.0000      -0.787069       -21.4172
 129   2.0000      -0.777236       -21.1497
 130   2.0000      -0.761757       -20.7285
 131   2.0000      -0.751686       -20.4544
 132   2.0000      -0.747848       -20.3500
 133   2.0000      -0.740581       -20.1522
 134   2.0000      -0.736464       -20.0402
 135   2.0000      -0.732105       -19.9216
 136   2.0000      -0.724787       -19.7225
 137   2.0000      -0.711917       -19.3723
 138   2.0000      -0.706770       -19.2322
 139   2.0000      -0.698532       -19.0080
 140   2.0000      -0.695553       -18.9270
 141   2.0000      -0.694575       -18.9003
 142   2.0000      -0.689741       -18.7688
 143   2.0000      -0.686366       -18.6770
 144   2.0000      -0.679245       -18.4832
 145   2.0000      -0.669751       -18.2249
 146   2.0000      -0.664080       -18.0705
 147   2.0000      -0.655810       -17.8455
 148   2.0000      -0.655054       -17.8249
 149   2.0000      -0.653810       -17.7911
 150   2.0000      -0.640886       -17.4394
 151   2.0000      -0.636271       -17.3138
 152   2.0000      -0.631802       -17.1922
 153   2.0000      -0.629900       -17.1404
 154   2.0000      -0.622053       -16.9269
 155   2.0000      -0.612976       -16.6799
 156   2.0000      -0.609991       -16.5987
 157   2.0000      -0.601480       -16.3671
 158   2.0000      -0.597506       -16.2590
 159   2.0000      -0.590202       -16.0602
 160   2.0000      -0.586743       -15.9661
 161   2.0000      -0.583640       -15.8817
 162   2.0000      -0.579734       -15.7754
 163   2.0000      -0.579470       -15.7682
 164   2.0000      -0.570015       -15.5109
 165   2.0000      -0.563225       -15.3261
 166   2.0000      -0.561862       -15.2890
 167   2.0000      -0.558465       -15.1966
 168   2.0000      -0.557722       -15.1764
 169   2.0000      -0.553094       -15.0505
 170   2.0000      -0.551815       -15.0157
 171   2.0000      -0.550193       -14.9715
 172   2.0000      -0.547156       -14.8889
 173   2.0000      -0.543405       -14.7868
 174   2.0000      -0.543251       -14.7826
 175   2.0000      -0.543130       -14.7793
 176   2.0000      -0.536879       -14.6092
 177   2.0000      -0.536749       -14.6057
 178   2.0000      -0.535975       -14.5846
 179   2.0000      -0.533286       -14.5115
 180   2.0000      -0.526442       -14.3252
 181   2.0000      -0.526200       -14.3186
 182   2.0000      -0.525340       -14.2952
 183   2.0000      -0.522687       -14.2230
 184   2.0000      -0.520787       -14.1713
 185   2.0000      -0.519295       -14.1307
 186   2.0000      -0.513190       -13.9646
 187   2.0000      -0.510036       -13.8788
 188   2.0000      -0.508851       -13.8465
 189   2.0000      -0.508129       -13.8269
 190   2.0000      -0.506545       -13.7838
 191   2.0000      -0.504757       -13.7351
 192   2.0000      -0.503962       -13.7135
 193   2.0000      -0.500093       -13.6082
 194   2.0000      -0.497188       -13.5292
 195   2.0000      -0.495857       -13.4930
 196   2.0000      -0.492521       -13.4022
 197   2.0000      -0.489803       -13.3282
 198   2.0000      -0.488915       -13.3041
 199   2.0000      -0.487005       -13.2521
 200   2.0000      -0.485568       -13.2130
 201   2.0000      -0.484271       -13.1777
 202   2.0000      -0.482576       -13.1316
 203   2.0000      -0.479767       -13.0551
 204   2.0000      -0.477669       -12.9980
 205   2.0000      -0.474924       -12.9233
 206   2.0000      -0.473434       -12.8828
 207   2.0000      -0.472024       -12.8444
 208   2.0000      -0.468162       -12.7393
 209   2.0000      -0.466723       -12.7002
 210   2.0000      -0.463442       -12.6109
 211   2.0000      -0.461577       -12.5601
 212   2.0000      -0.458411       -12.4740
 213   2.0000      -0.457399       -12.4465
 214   2.0000      -0.455714       -12.4006
 215   2.0000      -0.455295       -12.3892
 216   2.0000      -0.450930       -12.2704
 217   2.0000      -0.447877       -12.1874
 218   2.0000      -0.446076       -12.1384
 219   2.0000      -0.445920       -12.1341
 220   2.0000      -0.445208       -12.1147
 221   2.0000      -0.442603       -12.0438
 222   2.0000      -0.441489       -12.0135
 223   2.0000      -0.439743       -11.9660
 224   2.0000      -0.438930       -11.9439
 225   2.0000      -0.438169       -11.9232
 226   2.0000      -0.436373       -11.8743
 227   2.0000      -0.435351       -11.8465
 228   2.0000      -0.432346       -11.7647
 229   2.0000      -0.428705       -11.6657
 230   2.0000      -0.428391       -11.6571
 231   2.0000      -0.426851       -11.6152
 232   2.0000      -0.425187       -11.5699
 233   2.0000      -0.424702       -11.5567
 234   2.0000      -0.424299       -11.5458
 235   2.0000      -0.423907       -11.5351
 236   2.0000      -0.414237       -11.2720
 237   2.0000      -0.411984       -11.2107
 238   2.0000      -0.411001       -11.1839
 239   2.0000      -0.409028       -11.1302
 240   2.0000      -0.405806       -11.0425
 241   2.0000      -0.398233       -10.8365
 242   2.0000      -0.396565       -10.7911
 243   2.0000      -0.391502       -10.6533
 244   2.0000      -0.386346       -10.5130
 245   2.0000      -0.379020       -10.3136
 246   2.0000      -0.369298       -10.0491
 247   2.0000      -0.366539        -9.9740
 248   2.0000      -0.358140        -9.7455
 249   2.0000      -0.353451        -9.6179
 250   2.0000      -0.349238        -9.5033
 251   2.0000      -0.347577        -9.4580
 252   2.0000      -0.345353        -9.3975
 253   2.0000      -0.344635        -9.3780
 254   2.0000      -0.338405        -9.2085
 255   2.0000      -0.329163        -8.9570
 256   2.0000      -0.321515        -8.7489
 257   2.0000      -0.320662        -8.7257
 258   2.0000      -0.316806        -8.6207
 259   2.0000      -0.289797        -7.8858
 260   2.0000      -0.280268        -7.6265
 261   2.0000      -0.272994        -7.4285
 262   2.0000      -0.242584        -6.6011
 263   0.0000      -0.102526        -2.7899
 264   0.0000      -0.094748        -2.5782
 265   0.0000      -0.089196        -2.4272
 266   0.0000      -0.072554        -1.9743
 267   0.0000      -0.070030        -1.9056

MULLIKEN ATOMIC CHARGES
-----------------------
   0 C :   -0.077484
   1 C :    0.052494
   2 C :    0.130061
   3 O :   -0.167225
   4 O :   -0.157441
   5 C :   -0.072883
   6 C :   -0.160742
   7 N :    0.136425
   8 C :   -0.047114
   9 C :   -0.000872
  10 C :    0.062089
  11 C :    0.303164
  12 C :   -0.331991
  13 C :   -0.189478
  14 N :    0.168858
  15 C :   -0.203358
  16 N :    0.165408
  17 C :   -0.111777
  18 C :    0.137186
  19 O :   -0.156589
  20 C :   -0.066493
  21 C :    0.061319
  22 C :   -0.110223
  23 C :    0.124764
  24 N :   -0.028353
  25 C :   -0.158757
  26 C :    0.110972
  27 C :    0.066969
  28 C :   -0.026830
  29 C :    0.034674
  30 C :   -0.084908
  31 C :   -0.023812
  32 C :   -0.003255
  33 C :   -0.100193
  34 S :    0.175859
  35 C :   -0.081525
  36 C :    0.005617
  37 C :    0.301306
  38 C :   -0.299069
  39 C :   -0.163827
  40 N :    0.142705
  41 C :   -0.182653
  42 N :    0.174393
  43 C :   -0.071807
  44 C :   -0.110147
  45 S :    0.124030
  46 C :    0.140379
  47 C :   -0.217261
  48 C :    0.134503
  49 N :   -0.020095
  50 C :   -0.139336
  51 C :    0.118913
  52 C :    0.009963
  53 C :   -0.005780
  54 C :   -0.016368
  55 C :    0.051580
  56 C :   -0.129028
  57 C :    0.146160
  58 O :   -0.134454
  59 C :    0.041831
  60 C :    0.047930
  61 C :   -0.093366
  62 C :    0.005872
  63 C :   -0.074593
  64 C :   -0.039982
  65 C :   -0.156667
  66 N :    0.138575
  67 C :    0.176139
  68 O :   -0.146581
  69 O :   -0.147220
  70 C :    0.257848
  71 C :   -0.326896
  72 C :   -0.170779
  73 N :    0.163923
  74 C :   -0.184910
  75 N :    0.148379
  76 H :    0.028623
  77 H :    0.202552
  78 H :    0.008728
  79 H :    0.037888
  80 H :    0.069939
  81 H :    0.030413
  82 H :    0.005284
  83 H :    0.122832
  84 H :    0.009617
  85 H :    0.044749
  86 H :    0.041855
  87 H :    0.001003
  88 H :   -0.030219
  89 H :    0.004341
  90 H :   -0.004271
  91 H :    0.045109
  92 H :    0.005657
  93 H :    0.040592
  94 H :    0.121945
  95 H :    0.036116
  96 H :    0.002477
  97 H :    0.055497
  98 H :    0.028778
  99 H :   -0.011371
 100 H :    0.027321
 101 H :    0.002436
 102 H :    0.012987
 103 H :    0.190957
Sum of atomic charges:   -0.0000000

LOEWDIN ATOMIC CHARGES
----------------------
   0 C :    0.037827
   1 C :   -0.031523
   2 C :    0.081711
   3 O :   -0.155650
   4 O :   -0.011812
   5 C :   -0.034759
   6 C :   -0.035359
   7 N :   -0.041573
   8 C :    0.039686
   9 C :   -0.029146
  10 C :   -0.002633
  11 C :    0.070084
  12 C :   -0.127355
  13 C :   -0.023791
  14 N :   -0.035224
  15 C :   -0.022910
  16 N :   -0.044703
  17 C :   -0.118913
  18 C :    0.080121
  19 O :   -0.144113
  20 C :    0.088637
  21 C :   -0.083885
  22 C :    0.051759
  23 C :   -0.057573
  24 N :    0.105525
  25 C :   -0.005500
  26 C :   -0.055285
  27 C :   -0.064685
  28 C :   -0.007211
  29 C :   -0.054385
  30 C :   -0.162124
  31 C :   -0.029572
  32 C :   -0.072497
  33 C :   -0.185218
  34 S :    0.468732
  35 C :   -0.188640
  36 C :   -0.073650
  37 C :    0.091342
  38 C :   -0.110893
  39 C :    0.004281
  40 N :   -0.054546
  41 C :   -0.018182
  42 N :   -0.028122
  43 C :   -0.053834
  44 C :   -0.142210
  45 S :    0.477217
  46 C :   -0.086153
  47 C :   -0.018408
  48 C :   -0.066558
  49 N :    0.104842
  50 C :    0.022680
  51 C :   -0.056837
  52 C :   -0.083734
  53 C :    0.055683
  54 C :   -0.060593
  55 C :    0.077498
  56 C :   -0.101656
  57 C :    0.089466
  58 O :   -0.133398
  59 C :   -0.024293
  60 C :    0.008847
  61 C :   -0.004736
  62 C :   -0.038336
  63 C :   -0.026155
  64 C :    0.049728
  65 C :   -0.033279
  66 N :   -0.029400
  67 C :    0.079306
  68 O :   -0.120199
  69 O :   -0.018497
  70 C :    0.073879
  71 C :   -0.148096
  72 C :   -0.001600
  73 N :   -0.045717
  74 C :   -0.018409
  75 N :   -0.063091
  76 H :    0.050369
  77 H :    0.110367
  78 H :    0.049189
  79 H :    0.046276
  80 H :    0.048170
  81 H :    0.044331
  82 H :    0.029811
  83 H :    0.092758
  84 H :    0.032644
  85 H :    0.039006
  86 H :    0.044868
  87 H :    0.031455
  88 H :    0.024567
  89 H :    0.038727
  90 H :    0.033432
  91 H :    0.036840
  92 H :    0.034131
  93 H :    0.035429
  94 H :    0.091520
  95 H :    0.037429
  96 H :    0.031965
  97 H :    0.046653
  98 H :    0.033159
  99 H :    0.031858
 100 H :    0.047916
 101 H :    0.034518
 102 H :    0.051792
 103 H :    0.098591

  Mayer bond orders larger than 0.100000
B(  0-C ,  1-C ) :   1.3622 B(  0-C , 10-C ) :   1.3300 B(  0-C , 76-H ) :   0.9894
B(  1-C ,  2-C ) :   0.8753 B(  1-C ,  5-C ) :   1.3624 B(  2-C ,  3-O ) :   2.1732
B(  2-C ,  4-O ) :   1.2869 B(  4-O , 77-H ) :   0.9349 B(  5-C ,  6-C ) :   1.0692
B(  5-C ,  8-C ) :   1.3539 B(  6-C ,  7-N ) :   3.0484 B(  8-C ,  9-C ) :   1.3637
B(  8-C , 78-H ) :   1.0153 B(  9-C , 10-C ) :   1.3306 B(  9-C , 18-C ) :   0.9163
B( 10-C , 11-C ) :   0.9768 B( 11-C , 12-C ) :   1.6587 B( 11-C , 17-C ) :   1.0620
B( 12-C , 13-C ) :   1.1373 B( 12-C , 15-C ) :   1.1442 B( 13-C , 14-N ) :   2.9788
B( 15-C , 16-N ) :   2.9912 B( 17-C , 18-C ) :   0.9869 B( 17-C , 20-C ) :   1.5259
B( 18-C , 19-O ) :   2.1805 B( 20-C , 21-C ) :   1.1998 B( 20-C , 79-H ) :   0.9406
B( 21-C , 22-C ) :   1.3479 B( 21-C , 27-C ) :   1.1751 B( 22-C , 23-C ) :   1.1361
B( 22-C , 24-N ) :   1.2937 B( 23-C , 80-H ) :   0.9101 B( 23-C , 81-H ) :   0.9328
B( 23-C , 82-H ) :   0.9345 B( 24-N , 25-C ) :   1.1808 B( 24-N , 83-H ) :   0.9312
B( 25-C , 26-C ) :   1.1063 B( 25-C , 27-C ) :   1.5018 B( 26-C , 84-H ) :   0.9380
B( 26-C , 85-H ) :   0.9393 B( 26-C , 86-H ) :   0.9408 B( 27-C , 28-C ) :   1.0957
B( 28-C , 29-C ) :   1.7311 B( 28-C , 87-H ) :   0.9554 B( 29-C , 30-C ) :   1.0950
B( 29-C , 88-H ) :   0.9602 B( 30-C , 31-C ) :   1.4800 B( 30-C , 34-S ) :   1.1035
B( 31-C , 32-C ) :   1.2873 B( 31-C , 89-H ) :   0.9900 B( 32-C , 33-C ) :   1.4492
B( 32-C , 37-C ) :   1.0026 B( 33-C , 34-S ) :   1.1228 B( 33-C , 35-C ) :   1.1630
B( 35-C , 36-C ) :   1.4646 B( 35-C , 45-S ) :   1.1077 B( 36-C , 37-C ) :   0.9967
B( 36-C , 43-C ) :   1.2649 B( 37-C , 38-C ) :   1.6997 B( 38-C , 39-C ) :   1.1370
B( 38-C , 41-C ) :   1.1278 B( 39-C , 40-N ) :   2.9615 B( 41-C , 42-N ) :   2.9905
B( 43-C , 44-C ) :   1.4904 B( 43-C , 90-H ) :   0.9859 B( 44-C , 45-S ) :   1.0975
B( 44-C , 46-C ) :   1.0901 B( 46-C , 47-C ) :   1.4539 B( 46-C , 52-C ) :   1.2133
B( 47-C , 48-C ) :   1.1151 B( 47-C , 49-N ) :   1.2141 B( 48-C , 91-H ) :   0.9371
B( 48-C , 92-H ) :   0.9286 B( 48-C , 93-H ) :   0.9342 B( 49-N , 50-C ) :   1.2627
B( 49-N , 94-H ) :   0.9298 B( 50-C , 51-C ) :   1.1078 B( 50-C , 52-C ) :   1.4211
B( 51-C , 95-H ) :   0.9314 B( 51-C , 96-H ) :   0.9324 B( 51-C , 97-H ) :   0.9220
B( 52-C , 53-C ) :   1.1576 B( 53-C , 54-C ) :   1.6109 B( 53-C , 98-H ) :   0.9348
B( 54-C , 55-C ) :   1.1855 B( 54-C , 99-H ) :   0.9673 B( 55-C , 56-C ) :   1.6134
B( 55-C ,100-H ) :   0.9335 B( 56-C , 57-C ) :   0.9527 B( 56-C , 70-C ) :   1.0659
B( 57-C , 58-O ) :   2.2737 B( 57-C , 59-C ) :   0.9005 B( 59-C , 60-C ) :   1.3459
B( 59-C , 64-C ) :   1.3611 B( 60-C , 61-C ) :   1.3860 B( 60-C , 70-C ) :   0.9947
B( 61-C , 62-C ) :   1.3244 B( 61-C ,101-H ) :   0.9698 B( 62-C , 63-C ) :   1.3985
B( 62-C , 67-C ) :   0.8696 B( 63-C , 64-C ) :   1.3623 B( 63-C , 65-C ) :   1.0680
B( 64-C ,102-H ) :   1.0147 B( 65-C , 66-N ) :   3.0389 B( 67-C , 68-O ) :   2.1733
B( 67-C , 69-O ) :   1.2516 B( 69-O ,103-H ) :   0.9452 B( 70-C , 71-C ) :   1.6337
B( 71-C , 72-C ) :   1.1672 B( 71-C , 74-C ) :   1.1358 B( 72-C , 73-N ) :   2.9682
B( 74-C , 75-N ) :   2.9937

-----------------------------------------------------------------------------
         ABSORPTION SPECTRUM VIA TRANSITION ELECTRIC DIPOLE MOMENTS
-----------------------------------------------------------------------------
State   Energy  Wavelength   fosc         T2         TX        TY        TZ
        (cm-1)    (nm)                  (au**2)     (au)      (au)      (au)
-----------------------------------------------------------------------------
   0   11097.2    901.1   0.067876569   2.01364  -0.52923  -0.69817  -1.11629
   1   17967.1    556.6   0.055229316   1.01197  -0.37934  -0.76289  -0.53485
   2   19922.7    501.9   0.114682716   1.89507  -0.47377  -1.27102  -0.23475
   3   20105.0    497.4   0.247710244   4.05616  -0.17953   1.18899  -1.61562
   4   21835.1    458.0   0.005203342   0.07845  -0.09380  -0.07330   0.25354
   5   23445.8    426.5   0.118610427   1.66546  -0.24037   0.52272  -1.15518
   6   23538.8    424.8   0.072194132   1.00970  -0.46803   0.34992  -0.81744
   7   24349.7    410.7   0.194894386   2.63500   0.05693   1.51518  -0.57965
   8   24708.4    404.7   0.044658947   0.59503  -0.35339  -0.58195  -0.36259
   9   25940.1    385.5   0.294910142   3.74277  -0.09872  -0.10886   1.92903
  10   26653.1    375.2   0.174630128   2.15698  -0.88873  -1.01672   0.57742
  11   27264.3    366.8   0.059744813   0.72141  -0.06296  -0.11387  -0.83933
  12   28672.4    348.8   0.018246375   0.20950   0.37431  -0.25790   0.05371
  13   29399.3    340.1   1.001897981  11.21920   1.50054   1.91203   2.30472
  14   29798.4    335.6   0.122887166   1.35765   0.10314   0.40377   1.08811
  15   30214.4    331.0   0.029422359   0.32058   0.31641  -0.41663   0.21653
  16   30445.5    328.5   0.047334877   0.51184   0.04595  -0.48726  -0.52183
  17   30848.0    324.2   0.087595620   0.93483   0.58113   0.06902  -0.76964
  18   31173.7    320.8   0.044699424   0.47205   0.44313   0.51052  -0.12270
  19   31400.9    318.5   0.189252947   1.98416  -0.88427  -1.02274   0.39527
  20   32096.9    311.6   0.806488046   8.27199   1.54154   1.01867  -2.20408
  21   32404.0    308.6   0.182181317   1.85089   0.28285  -0.09713  -1.32720
  22   32832.3    304.6   0.078629414   0.78842   0.26068   0.82165  -0.21300
  23   33013.6    302.9   0.022994888   0.22931  -0.06169  -0.46946  -0.07145
  24   33100.3    302.1   0.070035466   0.69657  -0.06457  -0.81675   0.15912
  25   33149.0    301.7   0.022316169   0.22163   0.06990   0.40126   0.23608
  26   33567.4    297.9   0.023610744   0.23156   0.19947   0.35796  -0.25227
  27   34102.1    293.2   0.319829971   3.08755   0.30994   0.62257   1.61366
  28   34450.3    290.3   0.214634640   2.05108  -0.70167  -0.06765   1.24666
  29   34611.3    288.9   0.410261164   3.90228  -0.76205   0.77033   1.65171
  30   34790.8    287.4   0.455659244   4.31173  -1.39014   0.29402   1.51419
  31   34921.4    286.4   0.180770173   1.70416  -0.47485   0.10468   1.21150
  32   35715.8    280.0   0.061024601   0.56250   0.25676   0.20096  -0.67542
  33   35818.1    279.2   0.012464896   0.11457   0.08475   0.08828  -0.31558
  34   36148.8    276.6   0.066330114   0.60408   0.51574  -0.23445   0.53210
  35   36301.2    275.5   0.003117343   0.02827   0.02875  -0.13979  -0.08889
  36   36595.3    273.3   0.013371131   0.12029   0.33798   0.05742  -0.05253
  37   36996.3    270.3   0.032737701   0.29132  -0.08694   0.06769  -0.52837
  38   37596.8    266.0   0.026628388   0.23317   0.11338   0.46181   0.08395
  39   37852.0    264.2   0.131875303   1.14696  -0.06982  -1.05293   0.18286
  40   37931.2    263.6   0.091122243   0.79087   0.70785  -0.01770  -0.53805
  41   38123.1    262.3   0.034678861   0.29947   0.39823   0.36488   0.08803
  42   38412.0    260.3   0.012095377   0.10366  -0.10454  -0.23557   0.19298
  43   38484.6    259.8   0.034861371   0.29822  -0.06036   0.07513  -0.53752
  44   38649.0    258.7   0.066632076   0.56757   0.29277   0.27637  -0.63677
  45   38853.6    257.4   0.040026766   0.33915   0.42864  -0.11301  -0.37769
  46   39152.3    255.4   0.010465423   0.08800   0.13430  -0.18542   0.18863
  47   39218.5    255.0   0.058234258   0.48884   0.32450   0.16454  -0.59705
  48   39383.3    253.9   0.059537747   0.49769  -0.12401  -0.22730  -0.65623
  49   39565.6    252.7   0.026061389   0.21685  -0.26149   0.37918  -0.06848
  50   39680.6    252.0   0.004793061   0.03977  -0.12188   0.03552   0.15378
  51   39787.0    251.3   0.007747107   0.06410  -0.24752  -0.05153   0.01340
  52   39934.9    250.4   0.019328829   0.15934   0.22338   0.06388   0.32459

FINAL SINGLE POINT ENERGY     -4017.847480134128

DIPOLE MOMENT
-------------
                                X             Y             Z
Electronic contribution:     10.71354      28.70168     -31.83690
Nuclear contribution   :    -12.97159     -34.63002      38.04111
                        -----------------------------------------
Total Dipole Moment    :     -2.25804      -5.92834       6.20420
                        -----------------------------------------
Magnitude (a.u.)       :      8.87333
Magnitude (Debye)      :     22.55422

Rotational constants in cm-1:     0.001187     0.000387     0.000313
Rotational constants in MHz :    35.580882    11.590163     9.378626

                             ****ORCA TERMINATED NORMALLY****
TOTAL RUN TIME: 0 days 0 hours 11 minutes 26 seconds 453 msec
