                         Program Version 4.2.0 -  RELEASE  -
|  1> # ORCA input file
|  2> # SCF done       -178.350501487597          0.000707312496
|  3> ! CAM-B3LYP def2-SVP def2/J RIJCOSX Grid4 TightSCF
|  4> %maxcore 5000
|  5> %tddft
|  6>     Mode sTDDFT
|  7>     Ethresh 5.0
|  8>     maxcore 5000
|  9> end
| 10>
| 11> %pal
| 12>   nprocs 6
| 13>   end
| 14> * xyz 0 1
| 15>    C       -9.98403         4.66860        -7.45675
| 16>    C       -8.65167         4.80299        -7.29953
| 17>    C       -8.25929         4.05525        -6.11305
| 18>    C       -6.95265         3.87989        -5.66564
| 19>    N       -5.87506         3.72237        -5.29134
| 20>    C       -9.38673         3.51406        -5.54742
| 21>    C      -10.50967         3.86150        -6.36972
| 22>    C      -11.82443         3.44010        -6.25979
| 23>    C      -12.48709         2.78315        -5.10717
| 24>    C      -13.71456         2.33249        -5.54519
| 25>    C      -13.87864         2.72313        -6.90807
| 26>    C      -12.75875         3.42396        -7.32465
| 27>    C      -15.00532         2.43556        -7.68846
| 28>    N      -15.93096         2.19402        -8.32407
| 29>    C      -11.97362         2.81016        -3.79683
| 30>    C      -12.48266         2.16427        -2.70412
| 31>    C      -11.93096         2.26180        -1.40397
| 32>    C      -10.76000         2.94134        -1.11624
| 33>    C      -10.21327         3.11164         0.14074
| 34>    C      -10.73885         2.40550         1.31026
| 35>    C      -11.87082         1.66680         1.27926
| 36>    S      -12.84149         1.46542        -0.12571
| 37>    C       -9.79705         2.65953         2.34891
| 38>    C       -8.76130         3.46728         1.86811
| 39>    C       -7.80389         3.75679         2.86520
| 40>    C       -8.12506         3.17254         4.04833
| 41>    S       -9.59576         2.25680         4.00564
| 42>    C       -9.02176         3.80056         0.49654
| 43>    C       -8.26126         4.62536        -0.35221
| 44>    C       -8.80732         5.26409        -1.43605
| 45>    C       -8.11012         5.87142        -2.48697
| 46>    C       -6.74823         5.88585        -2.78894
| 47>    O       -5.79634         5.30663        -2.02647
| 48>    C       -4.58547         5.12556        -2.74609
| 49>    C       -4.19906         6.39163        -3.51775
| 50>    C       -2.89122         6.22267        -4.27066
| 51>    O       -5.20994         6.68506        -4.48365
| 52>    C       -6.45673         6.50814        -4.01064
| 53>    C       -7.57888         6.95966        -4.70058
| 54>    S       -9.01522         6.64525        -3.76378
| 55>    C       -7.61458         7.58792        -5.96128
| 56>    C       -8.76597         8.19056        -6.43986
| 57>    C       -8.87926         8.80605        -7.67110
| 58>    C       -7.83873         8.64927        -8.68796
| 59>    C       -6.61745         8.13291        -8.42486
| 60>    S       -6.11972         7.55816        -6.87843
| 61>    C       -8.41155         9.16335        -9.88831
| 62>    C       -9.69351         9.65521        -9.63356
| 63>    C      -10.29398        10.20237       -10.78827
| 64>    C       -9.47392        10.10954       -11.86761
| 65>    S       -7.94528         9.36950       -11.52772
| 66>    C       -9.98319         9.51037        -8.23100
| 67>    C      -11.06367        10.08300        -7.54724
| 68>    C      -11.02738        10.37942        -6.20331
| 69>    C      -12.05730        10.95103        -5.44611
| 70>    C      -13.32471        11.33043        -5.85520
| 71>    C      -13.93374        12.06267        -4.80448
| 72>    C      -15.22783        12.59676        -4.84429
| 73>    N      -16.28697        13.03959        -4.88248
| 74>    C      -13.04713        12.17324        -3.73524
| 75>    C      -11.87878        11.45636        -4.05407
| 76>    C      -10.79036        11.23228        -3.22261
| 77>    C      -10.35388        12.07530        -2.10261
| 78>    C       -9.25181        11.49236        -1.55083
| 79>    C       -8.97853        10.25820        -2.25271
| 80>    C       -9.89935        10.11833        -3.26592
| 81>    C       -7.92835         9.38570        -1.97421
| 82>    N       -7.04627         8.67299        -1.77229
| 83>    C      -10.90047        13.37008        -1.76643
| 84>    C      -10.79621        13.94110        -0.57006
| 85>    H      -10.58390         5.11545        -8.22598
| 86>    H       -7.96583         5.33952        -7.92907
| 87>    H       -9.39496         2.85011        -4.70436
| 88>    H      -14.46207         1.82236        -4.96788
| 89>    H      -12.59456         3.80633        -8.31361
| 90>    H      -11.11329         3.44779        -3.66426
| 91>    H      -13.36292         1.54658        -2.81261
| 92>    H      -10.20898         3.34320        -1.95110
| 93>    H      -12.25663         1.15259         2.14516
| 94>    H       -6.92835         4.36163         2.71597
| 95>    H       -7.58430         3.21912         4.97329
| 96>    H       -7.21153         4.76076        -0.13627
| 97>    H       -9.88464         5.32942        -1.51137
| 98>    H       -4.71063         4.30376        -3.46381
| 99>    H       -3.82783         4.87237        -2.00463
|100>    H       -4.14952         7.23601        -2.81389
|101>    H       -2.97334         5.38268        -4.95525
|102>    H       -2.07736         6.04455        -3.57455
|103>    H       -2.68252         7.12092        -4.84467
|104>    H       -9.63645         8.13099        -5.80136
|105>    H       -5.84486         8.06715        -9.17461
|106>    H      -11.27676        10.63565       -10.82485
|107>    H       -9.66783        10.43715       -12.87012
|108>    H      -11.91959        10.38408        -8.13548
|109>    H      -10.08233        10.24518        -5.69985
|110>    H      -13.78333        11.13566        -6.80594
|111>    H      -13.27486        12.62301        -2.78796
|112>    H       -8.64709        11.87656        -0.75106
|113>    H      -10.01198         9.24551        -3.87794
|114>    H      -11.41214        13.88995        -2.56590
|115>    H      -10.31469        13.44484         0.25554
|116>    H      -11.20318        14.91742        -0.37192
|117> *
|118>
|119>                          ****END OF INPUT****

CARTESIAN COORDINATES (ANGSTROEM)
---------------------------------
  C     -9.984030    4.668600   -7.456750
  C     -8.651670    4.802990   -7.299530
  C     -8.259290    4.055250   -6.113050
  C     -6.952650    3.879890   -5.665640
  N     -5.875060    3.722370   -5.291340
  C     -9.386730    3.514060   -5.547420
  C    -10.509670    3.861500   -6.369720
  C    -11.824430    3.440100   -6.259790
  C    -12.487090    2.783150   -5.107170
  C    -13.714560    2.332490   -5.545190
  C    -13.878640    2.723130   -6.908070
  C    -12.758750    3.423960   -7.324650
  C    -15.005320    2.435560   -7.688460
  N    -15.930960    2.194020   -8.324070
  C    -11.973620    2.810160   -3.796830
  C    -12.482660    2.164270   -2.704120
  C    -11.930960    2.261800   -1.403970
  C    -10.760000    2.941340   -1.116240
  C    -10.213270    3.111640    0.140740
  C    -10.738850    2.405500    1.310260
  C    -11.870820    1.666800    1.279260
  S    -12.841490    1.465420   -0.125710
  C     -9.797050    2.659530    2.348910
  C     -8.761300    3.467280    1.868110
  C     -7.803890    3.756790    2.865200
  C     -8.125060    3.172540    4.048330
  S     -9.595760    2.256800    4.005640
  C     -9.021760    3.800560    0.496540
  C     -8.261260    4.625360   -0.352210
  C     -8.807320    5.264090   -1.436050
  C     -8.110120    5.871420   -2.486970
  C     -6.748230    5.885850   -2.788940
  O     -5.796340    5.306630   -2.026470
  C     -4.585470    5.125560   -2.746090
  C     -4.199060    6.391630   -3.517750
  C     -2.891220    6.222670   -4.270660
  O     -5.209940    6.685060   -4.483650
  C     -6.456730    6.508140   -4.010640
  C     -7.578880    6.959660   -4.700580
  S     -9.015220    6.645250   -3.763780
  C     -7.614580    7.587920   -5.961280
  C     -8.765970    8.190560   -6.439860
  C     -8.879260    8.806050   -7.671100
  C     -7.838730    8.649270   -8.687960
  C     -6.617450    8.132910   -8.424860
  S     -6.119720    7.558160   -6.878430
  C     -8.411550    9.163350   -9.888310
  C     -9.693510    9.655210   -9.633560
  C    -10.293980   10.202370  -10.788270
  C     -9.473920   10.109540  -11.867610
  S     -7.945280    9.369500  -11.527720
  C     -9.983190    9.510370   -8.231000
  C    -11.063670   10.083000   -7.547240
  C    -11.027380   10.379420   -6.203310
  C    -12.057300   10.951030   -5.446110
  C    -13.324710   11.330430   -5.855200
  C    -13.933740   12.062670   -4.804480
  C    -15.227830   12.596760   -4.844290
  N    -16.286970   13.039590   -4.882480
  C    -13.047130   12.173240   -3.735240
  C    -11.878780   11.456360   -4.054070
  C    -10.790360   11.232280   -3.222610
  C    -10.353880   12.075300   -2.102610
  C     -9.251810   11.492360   -1.550830
  C     -8.978530   10.258200   -2.252710
  C     -9.899350   10.118330   -3.265920
  C     -7.928350    9.385700   -1.974210
  N     -7.046270    8.672990   -1.772290
  C    -10.900470   13.370080   -1.766430
  C    -10.796210   13.941100   -0.570060
  H    -10.583900    5.115450   -8.225980
  H     -7.965830    5.339520   -7.929070
  H     -9.394960    2.850110   -4.704360
  H    -14.462070    1.822360   -4.967880
  H    -12.594560    3.806330   -8.313610
  H    -11.113290    3.447790   -3.664260
  H    -13.362920    1.546580   -2.812610
  H    -10.208980    3.343200   -1.951100
  H    -12.256630    1.152590    2.145160
  H     -6.928350    4.361630    2.715970
  H     -7.584300    3.219120    4.973290
  H     -7.211530    4.760760   -0.136270
  H     -9.884640    5.329420   -1.511370
  H     -4.710630    4.303760   -3.463810
  H     -3.827830    4.872370   -2.004630
  H     -4.149520    7.236010   -2.813890
  H     -2.973340    5.382680   -4.955250
  H     -2.077360    6.044550   -3.574550
  H     -2.682520    7.120920   -4.844670
  H     -9.636450    8.130990   -5.801360
  H     -5.844860    8.067150   -9.174610
  H    -11.276760   10.635650  -10.824850
  H     -9.667830   10.437150  -12.870120
  H    -11.919590   10.384080   -8.135480
  H    -10.082330   10.245180   -5.699850
  H    -13.783330   11.135660   -6.805940
  H    -13.274860   12.623010   -2.787960
  H     -8.647090   11.876560   -0.751060
  H    -10.011980    9.245510   -3.877940
  H    -11.412140   13.889950   -2.565900
  H    -10.314690   13.444840    0.255540
  H    -11.203180   14.917420   -0.371920

 Total Charge           Charge          ....    0
 Multiplicity           Mult            ....    1
 Number of Electrons    NEL             ....  510
 Basis Dimension        Dim             .... 1160

ORBITAL ENERGIES
----------------

  NO   OCC          E(Eh)            E(eV)
   0   2.0000     -88.981449     -2421.3083
   1   2.0000     -88.978307     -2421.2228
   2   2.0000     -88.965788     -2420.8822
   3   2.0000     -88.961914     -2420.7767
   4   2.0000     -88.960995     -2420.7518
   5   2.0000     -19.266506      -524.2683
   6   2.0000     -19.259967      -524.0903
   7   2.0000     -14.415428      -392.2637
   8   2.0000     -14.407066      -392.0362
   9   2.0000     -14.397662      -391.7803
  10   2.0000     -14.397015      -391.7627
  11   2.0000     -10.348150      -281.5875
  12   2.0000     -10.341190      -281.3981
  13   2.0000     -10.338759      -281.3319
  14   2.0000     -10.337391      -281.2947
  15   2.0000     -10.332657      -281.1659
  16   2.0000     -10.328934      -281.0646
  17   2.0000     -10.326914      -281.0096
  18   2.0000     -10.325730      -280.9774
  19   2.0000     -10.317611      -280.7565
  20   2.0000     -10.316931      -280.7380
  21   2.0000     -10.315972      -280.7119
  22   2.0000     -10.314796      -280.6799
  23   2.0000     -10.314209      -280.6639
  24   2.0000     -10.313836      -280.6538
  25   2.0000     -10.312078      -280.6059
  26   2.0000     -10.305175      -280.4181
  27   2.0000     -10.304957      -280.4121
  28   2.0000     -10.303745      -280.3792
  29   2.0000     -10.303637      -280.3762
  30   2.0000     -10.301564      -280.3198
  31   2.0000     -10.301283      -280.3122
  32   2.0000     -10.300908      -280.3020
  33   2.0000     -10.300589      -280.2933
  34   2.0000     -10.299261      -280.2571
  35   2.0000     -10.299156      -280.2543
  36   2.0000     -10.298230      -280.2291
  37   2.0000     -10.297396      -280.2064
  38   2.0000     -10.295431      -280.1529
  39   2.0000     -10.295187      -280.1463
  40   2.0000     -10.294989      -280.1409
  41   2.0000     -10.294806      -280.1359
  42   2.0000     -10.293808      -280.1088
  43   2.0000     -10.293376      -280.0970
  44   2.0000     -10.292985      -280.0864
  45   2.0000     -10.292094      -280.0621
  46   2.0000     -10.291323      -280.0411
  47   2.0000     -10.289747      -279.9983
  48   2.0000     -10.288062      -279.9524
  49   2.0000     -10.287172      -279.9282
  50   2.0000     -10.284358      -279.8516
  51   2.0000     -10.284324      -279.8507
  52   2.0000     -10.282476      -279.8004
  53   2.0000     -10.282471      -279.8002
  54   2.0000     -10.281879      -279.7842
  55   2.0000     -10.281154      -279.7644
  56   2.0000     -10.280125      -279.7364
  57   2.0000     -10.279770      -279.7268
  58   2.0000     -10.279408      -279.7169
  59   2.0000     -10.278993      -279.7056
  60   2.0000     -10.278636      -279.6959
  61   2.0000     -10.274335      -279.5789
  62   2.0000     -10.271904      -279.5127
  63   2.0000     -10.271212      -279.4939
  64   2.0000     -10.268251      -279.4133
  65   2.0000     -10.267649      -279.3969
  66   2.0000     -10.265033      -279.3257
  67   2.0000     -10.260284      -279.1965
  68   2.0000     -10.258542      -279.1491
  69   2.0000     -10.254920      -279.0506
  70   2.0000      -8.075658      -219.7498
  71   2.0000      -8.073747      -219.6978
  72   2.0000      -8.059758      -219.3172
  73   2.0000      -8.057408      -219.2532
  74   2.0000      -8.056361      -219.2247
  75   2.0000      -6.045305      -164.5011
  76   2.0000      -6.043248      -164.4451
  77   2.0000      -6.040493      -164.3702
  78   2.0000      -6.038834      -164.3250
  79   2.0000      -6.037645      -164.2927
  80   2.0000      -6.035626      -164.2377
  81   2.0000      -6.029425      -164.0690
  82   2.0000      -6.026864      -163.9993
  83   2.0000      -6.025816      -163.9708
  84   2.0000      -6.025638      -163.9660
  85   2.0000      -6.022584      -163.8828
  86   2.0000      -6.021527      -163.8541
  87   2.0000      -6.020994      -163.8396
  88   2.0000      -6.019408      -163.7964
  89   2.0000      -6.018417      -163.7694
  90   2.0000      -1.191134       -32.4124
  91   2.0000      -1.152178       -31.3524
  92   2.0000      -1.013618       -27.5819
  93   2.0000      -1.012040       -27.5390
  94   2.0000      -1.008183       -27.4341
  95   2.0000      -1.000394       -27.2221
  96   2.0000      -0.997624       -27.1467
  97   2.0000      -0.990339       -26.9485
  98   2.0000      -0.986258       -26.8374
  99   2.0000      -0.983988       -26.7757
 100   2.0000      -0.978495       -26.6262
 101   2.0000      -0.972650       -26.4672
 102   2.0000      -0.971997       -26.4494
 103   2.0000      -0.970763       -26.4158
 104   2.0000      -0.956097       -26.0167
 105   2.0000      -0.937520       -25.5112
 106   2.0000      -0.933516       -25.4022
 107   2.0000      -0.918138       -24.9838
 108   2.0000      -0.906620       -24.6704
 109   2.0000      -0.895514       -24.3682
 110   2.0000      -0.888018       -24.1642
 111   2.0000      -0.880515       -23.9600
 112   2.0000      -0.873936       -23.7810
 113   2.0000      -0.868969       -23.6458
 114   2.0000      -0.868579       -23.6352
 115   2.0000      -0.854716       -23.2580
 116   2.0000      -0.852350       -23.1936
 117   2.0000      -0.847048       -23.0494
 118   2.0000      -0.837024       -22.7766
 119   2.0000      -0.830968       -22.6118
 120   2.0000      -0.822986       -22.3946
 121   2.0000      -0.819436       -22.2980
 122   2.0000      -0.813015       -22.1233
 123   2.0000      -0.808929       -22.0121
 124   2.0000      -0.800332       -21.7781
 125   2.0000      -0.793970       -21.6050
 126   2.0000      -0.791047       -21.5255
 127   2.0000      -0.785330       -21.3699
 128   2.0000      -0.776646       -21.1336
 129   2.0000      -0.773051       -21.0358
 130   2.0000      -0.759737       -20.6735
 131   2.0000      -0.746330       -20.3087
 132   2.0000      -0.741235       -20.1700
 133   2.0000      -0.735231       -20.0067
 134   2.0000      -0.725220       -19.7342
 135   2.0000      -0.718310       -19.5462
 136   2.0000      -0.706494       -19.2247
 137   2.0000      -0.702636       -19.1197
 138   2.0000      -0.696680       -18.9576
 139   2.0000      -0.690216       -18.7817
 140   2.0000      -0.679545       -18.4914
 141   2.0000      -0.675606       -18.3842
 142   2.0000      -0.671113       -18.2619
 143   2.0000      -0.668955       -18.2032
 144   2.0000      -0.655203       -17.8290
 145   2.0000      -0.651601       -17.7310
 146   2.0000      -0.643451       -17.5092
 147   2.0000      -0.641703       -17.4616
 148   2.0000      -0.637256       -17.3406
 149   2.0000      -0.635256       -17.2862
 150   2.0000      -0.631014       -17.1708
 151   2.0000      -0.626552       -17.0494
 152   2.0000      -0.622742       -16.9457
 153   2.0000      -0.619853       -16.8671
 154   2.0000      -0.611501       -16.6398
 155   2.0000      -0.610566       -16.6143
 156   2.0000      -0.597996       -16.2723
 157   2.0000      -0.594536       -16.1782
 158   2.0000      -0.590141       -16.0585
 159   2.0000      -0.589133       -16.0311
 160   2.0000      -0.587534       -15.9876
 161   2.0000      -0.580251       -15.7894
 162   2.0000      -0.571948       -15.5635
 163   2.0000      -0.569779       -15.5045
 164   2.0000      -0.568936       -15.4815
 165   2.0000      -0.561850       -15.2887
 166   2.0000      -0.555923       -15.1274
 167   2.0000      -0.551133       -14.9971
 168   2.0000      -0.543286       -14.7836
 169   2.0000      -0.538528       -14.6541
 170   2.0000      -0.536745       -14.6056
 171   2.0000      -0.527991       -14.3674
 172   2.0000      -0.526492       -14.3266
 173   2.0000      -0.525708       -14.3052
 174   2.0000      -0.523301       -14.2397
 175   2.0000      -0.521696       -14.1961
 176   2.0000      -0.520774       -14.1710
 177   2.0000      -0.517192       -14.0735
 178   2.0000      -0.516716       -14.0606
 179   2.0000      -0.513116       -13.9626
 180   2.0000      -0.510365       -13.8877
 181   2.0000      -0.509283       -13.8583
 182   2.0000      -0.506572       -13.7845
 183   2.0000      -0.505772       -13.7628
 184   2.0000      -0.502847       -13.6832
 185   2.0000      -0.498162       -13.5557
 186   2.0000      -0.494926       -13.4676
 187   2.0000      -0.493343       -13.4245
 188   2.0000      -0.491107       -13.3637
 189   2.0000      -0.488888       -13.3033
 190   2.0000      -0.487121       -13.2552
 191   2.0000      -0.486153       -13.2289
 192   2.0000      -0.483515       -13.1571
 193   2.0000      -0.479631       -13.0514
 194   2.0000      -0.478147       -13.0110
 195   2.0000      -0.477386       -12.9903
 196   2.0000      -0.475349       -12.9349
 197   2.0000      -0.472825       -12.8662
 198   2.0000      -0.471290       -12.8245
 199   2.0000      -0.470540       -12.8040
 200   2.0000      -0.469620       -12.7790
 201   2.0000      -0.467158       -12.7120
 202   2.0000      -0.464899       -12.6505
 203   2.0000      -0.463081       -12.6011
 204   2.0000      -0.460820       -12.5395
 205   2.0000      -0.456550       -12.4234
 206   2.0000      -0.455117       -12.3844
 207   2.0000      -0.449999       -12.2451
 208   2.0000      -0.448197       -12.1961
 209   2.0000      -0.444954       -12.1078
 210   2.0000      -0.441700       -12.0193
 211   2.0000      -0.439645       -11.9634
 212   2.0000      -0.439128       -11.9493
 213   2.0000      -0.434794       -11.8314
 214   2.0000      -0.433901       -11.8070
 215   2.0000      -0.433087       -11.7849
 216   2.0000      -0.432028       -11.7561
 217   2.0000      -0.429698       -11.6927
 218   2.0000      -0.427760       -11.6399
 219   2.0000      -0.427025       -11.6200
 220   2.0000      -0.424426       -11.5492
 221   2.0000      -0.423733       -11.5304
 222   2.0000      -0.422760       -11.5039
 223   2.0000      -0.420717       -11.4483
 224   2.0000      -0.417616       -11.3639
 225   2.0000      -0.415555       -11.3078
 226   2.0000      -0.414403       -11.2765
 227   2.0000      -0.412854       -11.2343
 228   2.0000      -0.411188       -11.1890
 229   2.0000      -0.407449       -11.0872
 230   2.0000      -0.406457       -11.0603
 231   2.0000      -0.404068       -10.9953
 232   2.0000      -0.400767       -10.9054
 233   2.0000      -0.394552       -10.7363
 234   2.0000      -0.393672       -10.7124
 235   2.0000      -0.389268       -10.5925
 236   2.0000      -0.377035       -10.2596
 237   2.0000      -0.367855       -10.0098
 238   2.0000      -0.363729        -9.8976
 239   2.0000      -0.359732        -9.7888
 240   2.0000      -0.351897        -9.5756
 241   2.0000      -0.338319        -9.2061
 242   2.0000      -0.335361        -9.1256
 243   2.0000      -0.323128        -8.7928
 244   2.0000      -0.309223        -8.4144
 245   2.0000      -0.307140        -8.3577
 246   2.0000      -0.302427        -8.2295
 247   2.0000      -0.296812        -8.0767
 248   2.0000      -0.291416        -7.9298
 249   2.0000      -0.289200        -7.8695
 250   2.0000      -0.275756        -7.5037
 251   2.0000      -0.267131        -7.2690
 252   2.0000      -0.259537        -7.0623
 253   2.0000      -0.227680        -6.1955
 254   2.0000      -0.208313        -5.6685
 255   0.0000      -0.125916        -3.4264
 256   0.0000      -0.115037        -3.1303
 257   0.0000      -0.075764        -2.0617
 258   0.0000      -0.052718        -1.4345
 259   0.0000      -0.038449        -1.0462

MULLIKEN ATOMIC CHARGES
-----------------------
   0 C :   -0.018657
   1 C :    0.084566
   2 C :   -0.157360
   3 C :   -0.093200
   4 N :    0.114612
   5 C :   -0.018344
   6 C :    0.038788
   7 C :    0.094549
   8 C :    0.094829
   9 C :   -0.051897
  10 C :   -0.083493
  11 C :   -0.043902
  12 C :   -0.132329
  13 N :    0.135667
  14 C :   -0.021883
  15 C :    0.051729
  16 C :   -0.084187
  17 C :   -0.048269
  18 C :    0.045157
  19 C :    0.070208
  20 C :   -0.133139
  21 S :    0.140872
  22 C :   -0.111261
  23 C :    0.064650
  24 C :    0.013921
  25 C :   -0.069387
  26 S :    0.133912
  27 C :    0.073803
  28 C :   -0.020347
  29 C :   -0.004066
  30 C :   -0.153321
  31 C :    0.235100
  32 O :   -0.292178
  33 C :    0.217452
  34 C :    0.051872
  35 C :    0.048567
  36 O :   -0.305996
  37 C :    0.166470
  38 C :   -0.150892
  39 S :    0.114512
  40 C :   -0.038361
  41 C :   -0.101345
  42 C :    0.065054
  43 C :    0.075332
  44 C :   -0.151983
  45 S :    0.183998
  46 C :   -0.115173
  47 C :    0.063430
  48 C :    0.012710
  49 C :   -0.068484
  50 S :    0.132420
  51 C :    0.062900
  52 C :    0.003641
  53 C :   -0.068643
  54 C :    0.113747
  55 C :   -0.079522
  56 C :   -0.082106
  57 C :   -0.126440
  58 N :    0.133163
  59 C :   -0.081087
  60 C :    0.067778
  61 C :    0.044546
  62 C :    0.067547
  63 C :   -0.038106
  64 C :   -0.126560
  65 C :   -0.018661
  66 C :   -0.098509
  67 N :    0.091726
  68 C :   -0.032647
  69 C :   -0.015091
  70 H :   -0.008169
  71 H :   -0.018920
  72 H :   -0.000262
  73 H :   -0.015218
  74 H :   -0.012891
  75 H :   -0.013618
  76 H :   -0.012059
  77 H :   -0.007057
  78 H :    0.038193
  79 H :   -0.012078
  80 H :    0.029690
  81 H :    0.009142
  82 H :   -0.006063
  83 H :    0.045402
  84 H :    0.022282
  85 H :    0.040461
  86 H :    0.036408
  87 H :    0.019574
  88 H :    0.030647
  89 H :    0.006106
  90 H :    0.037774
  91 H :   -0.014693
  92 H :    0.029009
  93 H :   -0.018899
  94 H :   -0.004521
  95 H :   -0.027084
  96 H :   -0.010107
  97 H :   -0.022955
  98 H :   -0.052550
  99 H :    0.007267
 100 H :    0.012305
 101 H :    0.020480
Sum of atomic charges:   -0.0000000

LOEWDIN ATOMIC CHARGES
----------------------
   0 C :   -0.032887
   1 C :    0.008943
   2 C :   -0.073761
   3 C :   -0.007964
   4 N :   -0.072806
   5 C :   -0.008822
   6 C :    0.020128
   7 C :    0.042895
   8 C :   -0.024489
   9 C :   -0.023015
  10 C :   -0.042438
  11 C :   -0.027368
  12 C :   -0.028205
  13 N :   -0.045079
  14 C :   -0.017878
  15 C :   -0.025473
  16 C :   -0.172355
  17 C :   -0.007279
  18 C :   -0.013524
  19 C :   -0.052850
  20 C :   -0.139567
  21 S :    0.450235
  22 C :   -0.196913
  23 C :   -0.040606
  24 C :   -0.058313
  25 C :   -0.162253
  26 S :    0.425977
  27 C :   -0.036674
  28 C :   -0.003832
  29 C :   -0.048486
  30 C :   -0.168570
  31 C :    0.007064
  32 O :   -0.080374
  33 C :    0.074446
  34 C :    0.065931
  35 C :   -0.050545
  36 O :   -0.085873
  37 C :    0.009331
  38 C :   -0.221142
  39 S :    0.448094
  40 C :   -0.157375
  41 C :   -0.036323
  42 C :    0.006027
  43 C :   -0.050161
  44 C :   -0.153201
  45 S :    0.492952
  46 C :   -0.207771
  47 C :   -0.038923
  48 C :   -0.061417
  49 C :   -0.162370
  50 S :    0.425243
  51 C :   -0.055332
  52 C :    0.016790
  53 C :   -0.035101
  54 C :   -0.006006
  55 C :   -0.061366
  56 C :   -0.031600
  57 C :   -0.025012
  58 N :   -0.050837
  59 C :   -0.062038
  60 C :    0.043258
  61 C :    0.010506
  62 C :   -0.035970
  63 C :   -0.005685
  64 C :   -0.076635
  65 C :   -0.023152
  66 C :   -0.020788
  67 N :   -0.085467
  68 C :   -0.024635
  69 C :   -0.042608
  70 H :    0.029299
  71 H :    0.027084
  72 H :    0.030972
  73 H :    0.028053
  74 H :    0.030529
  75 H :    0.026634
  76 H :    0.029193
  77 H :    0.037272
  78 H :    0.037101
  79 H :    0.033621
  80 H :    0.024584
  81 H :    0.035229
  82 H :    0.029483
  83 H :    0.023318
  84 H :    0.030123
  85 H :    0.027896
  86 H :    0.036037
  87 H :    0.032884
  88 H :    0.034691
  89 H :    0.029714
  90 H :    0.036133
  91 H :    0.032040
  92 H :    0.024524
  93 H :    0.030859
  94 H :    0.030656
  95 H :    0.022746
  96 H :    0.028946
  97 H :    0.026478
  98 H :    0.009383
  99 H :    0.031762
 100 H :    0.019960
 101 H :    0.024092

  Mayer bond orders larger than 0.100000
B(  0-C ,  1-C ) :   1.6549 B(  0-C ,  6-C ) :   1.1027 B(  0-C , 70-H ) :   1.0087
B(  1-C ,  2-C ) :   1.1053 B(  1-C , 71-H ) :   1.0021 B(  2-C ,  3-C ) :   1.0888
B(  2-C ,  5-C ) :   1.6173 B(  3-C ,  4-N ) :   2.9423 B(  5-C ,  6-C ) :   1.1009
B(  5-C , 72-H ) :   1.0121 B(  6-C ,  7-C ) :   1.4045 B(  7-C ,  8-C ) :   1.0257
B(  7-C , 11-C ) :   1.1549 B(  8-C ,  9-C ) :   1.5205 B(  8-C , 14-C ) :   1.1658
B(  9-C , 10-C ) :   1.1673 B(  9-C , 73-H ) :   1.0132 B( 10-C , 11-C ) :   1.5361
B( 10-C , 12-C ) :   1.0528 B( 11-C , 74-H ) :   1.0194 B( 12-C , 13-N ) :   3.0386
B( 14-C , 15-C ) :   1.6016 B( 14-C , 75-H ) :   0.9509 B( 15-C , 16-C ) :   1.1594
B( 15-C , 76-H ) :   0.9722 B( 16-C , 17-C ) :   1.4563 B( 16-C , 21-S ) :   1.0514
B( 17-C , 18-C ) :   1.3097 B( 17-C , 77-H ) :   0.9636 B( 18-C , 19-C ) :   1.0589
B( 18-C , 27-C ) :   1.3120 B( 19-C , 20-C ) :   1.6082 B( 19-C , 22-C ) :   1.1731
B( 20-C , 21-S ) :   1.1411 B( 20-C , 78-H ) :   0.9405 B( 22-C , 23-C ) :   1.4279
B( 22-C , 26-S ) :   1.0842 B( 23-C , 24-C ) :   1.2212 B( 23-C , 27-C ) :   1.1023
B( 24-C , 25-C ) :   1.5884 B( 24-C , 79-H ) :   1.0001 B( 25-C , 26-S ) :   1.1494
B( 25-C , 80-H ) :   0.9665 B( 27-C , 28-C ) :   1.1980 B( 28-C , 29-C ) :   1.5646
B( 28-C , 81-H ) :   0.9637 B( 29-C , 30-C ) :   1.2108 B( 29-C , 82-H ) :   0.9449
B( 30-C , 31-C ) :   1.4027 B( 30-C , 39-S ) :   1.0918 B( 31-C , 32-O ) :   1.1610
B( 31-C , 37-C ) :   1.2269 B( 32-O , 33-C ) :   0.9385 B( 33-C , 34-C ) :   1.0389
B( 33-C , 83-H ) :   0.9240 B( 33-C , 84-H ) :   0.9480 B( 34-C , 35-C ) :   1.0832
B( 34-C , 36-O ) :   0.8992 B( 34-C , 85-H ) :   0.9346 B( 35-C , 86-H ) :   0.9623
B( 35-C , 87-H ) :   0.9595 B( 35-C , 88-H ) :   0.9589 B( 36-O , 37-C ) :   1.1590
B( 37-C , 38-C ) :   1.3999 B( 38-C , 39-S ) :   1.0816 B( 38-C , 40-C ) :   1.2404
B( 40-C , 41-C ) :   1.3995 B( 40-C , 45-S ) :   1.0977 B( 41-C , 42-C ) :   1.3223
B( 41-C , 89-H ) :   0.9737 B( 42-C , 43-C ) :   1.0817 B( 42-C , 51-C ) :   1.2620
B( 43-C , 44-C ) :   1.5878 B( 43-C , 46-C ) :   1.1562 B( 44-C , 45-S ) :   1.1247
B( 44-C , 90-H ) :   0.9407 B( 46-C , 47-C ) :   1.4477 B( 46-C , 50-S ) :   1.0787
B( 47-C , 48-C ) :   1.2266 B( 47-C , 51-C ) :   1.0824 B( 48-C , 49-C ) :   1.5816
B( 48-C , 91-H ) :   0.9988 B( 49-C , 50-S ) :   1.1575 B( 49-C , 92-H ) :   0.9667
B( 51-C , 52-C ) :   1.2688 B( 52-C , 53-C ) :   1.4668 B( 52-C , 93-H ) :   0.9664
B( 53-C , 54-C ) :   1.2287 B( 53-C , 94-H ) :   0.9632 B( 54-C , 55-C ) :   1.4475
B( 54-C , 60-C ) :   1.0207 B( 55-C , 56-C ) :   1.2223 B( 55-C , 95-H ) :   1.0131
B( 56-C , 57-C ) :   1.0500 B( 56-C , 59-C ) :   1.4501 B( 57-C , 58-N ) :   3.0375
B( 59-C , 60-C ) :   1.2250 B( 59-C , 96-H ) :   1.0199 B( 60-C , 61-C ) :   1.3476
B( 61-C , 62-C ) :   1.1017 B( 61-C , 65-C ) :   1.1402 B( 62-C , 63-C ) :   1.5956
B( 62-C , 68-C ) :   1.0530 B( 63-C , 64-C ) :   1.1117 B( 63-C , 97-H ) :   1.0153
B( 64-C , 65-C ) :   1.5757 B( 64-C , 66-C ) :   1.0704 B( 65-C , 98-H ) :   0.9988
B( 66-C , 67-N ) :   2.9672 B( 68-C , 69-C ) :   1.9538 B( 68-C , 99-H ) :   0.9527
B( 69-C ,100-H ) :   0.9578 B( 69-C ,101-H ) :   0.9493

-----------------------------------------------------------------------------
         ABSORPTION SPECTRUM VIA TRANSITION ELECTRIC DIPOLE MOMENTS
-----------------------------------------------------------------------------
State   Energy  Wavelength   fosc         T2         TX        TY        TZ
        (cm-1)    (nm)                  (au**2)     (au)      (au)      (au)
-----------------------------------------------------------------------------
   0    3105.0   3220.6   0.049605127   5.25948   0.11912   1.77206   1.45090
   1    4163.4   2401.9   0.030932150   2.44590   0.83925  -1.30263  -0.21145
   2    7274.6   1374.6   0.036748379   1.66305  -0.19757  -0.05840  -1.27303
   3   10335.3    967.6   0.178643767   5.69034  -0.27306  -1.43212   1.88807
   4   12885.3    776.1   0.017006320   0.43450  -0.40754  -0.36867   0.36400
   5   13324.6    750.5   0.028193511   0.69658   0.41087   0.72408   0.05897
   6   14455.5    691.8   0.372190029   8.47633  -0.63235  -2.26778   1.71278
   7   16908.3    591.4   0.097408362   1.89659   1.13638  -0.49306   0.60176
   8   17535.1    570.3   0.001224197   0.02298   0.14658   0.01213  -0.03677
   9   17850.7    560.2   0.066780865   1.23161  -0.73756   0.04669  -0.82791
  10   18018.1    555.0   0.035797002   0.65405   0.79889   0.11817  -0.04312
  11   18496.5    540.6   0.110557626   1.96777  -1.17957   0.14102  -0.74599
  12   19239.0    519.8   0.001131884   0.01937   0.08494   0.03335  -0.10508
  13   19929.6    501.8   0.006424643   0.10613  -0.24382  -0.01460  -0.21556
  14   20298.5    492.6   0.026949186   0.43708   0.20241   0.17973  -0.60316
  15   20555.4    486.5   0.090409967   1.44799  -0.64450  -0.12735   1.00816
  16   21604.9    462.9   0.074419133   1.13399  -0.79693   0.35320   0.61166
  17   21977.3    455.0   0.111774693   1.67434   0.07995  -0.46198   1.20604
  18   22218.2    450.1   0.089094544   1.32014   0.29830  -0.28108   1.07338
  19   22890.4    436.9   0.075791698   1.09004  -0.42449   0.47528  -0.82702
  20   23294.5    429.3   0.032889043   0.46481   0.09470  -0.62759  -0.24893
  21   24084.3    415.2   0.084050795   1.14890   0.34242   0.36780  -0.94677
  22   24389.5    410.0   0.543082570   7.33060  -0.29913  -0.00891   2.69092
  23   25122.2    398.1   0.193250467   2.53243   0.80294   0.71688  -1.17210
  24   26340.3    379.6   0.489239856   6.11472  -1.18738   0.92557  -1.96167
  25   26677.3    374.9   0.069730123   0.86051   0.90654  -0.03366   0.19381
  26   26973.3    370.7   0.196255619   2.39532  -0.72771  -0.81324   1.09745
  27   27280.7    366.6   0.129191145   1.55902   1.19663  -0.02485   0.35566
  28   27431.3    364.5   0.101339202   1.21621   0.38013   0.41229  -0.94959
  29   27503.1    363.6   0.087947474   1.05273   0.90414   0.23288   0.42547
  30   27682.1    361.2   0.217958038   2.59209   1.10322   0.24945  -1.14577
  31   28136.9    355.4   0.085772301   1.00357  -0.91032  -0.21300  -0.35989
  32   28577.5    349.9   0.082867481   0.95463   0.51741   0.34988   0.75133
  33   28960.9    345.3   0.222172283   2.52553   1.47821   0.26728   0.51863
  34   29940.5    334.0   0.169945778   1.86865   0.38700  -0.31594   1.27242
  35   30522.0    327.6   0.498335481   5.37507  -2.21433   0.44084   0.52675
  36   30721.0    325.5   0.221478222   2.37340  -1.42467   0.50663   0.29506
  37   31688.0    315.6   0.012637828   0.13130  -0.35601  -0.06736   0.00422
  38   31973.4    312.8   0.034183668   0.35197   0.01688   0.38065   0.45475
  39   32049.3    312.0   0.027052912   0.27789  -0.09075  -0.12169   0.50482
  40   32227.3    310.3   0.077039832   0.78699  -0.17727  -0.33296  -0.80293
  41   32578.9    306.9   0.077198588   0.78010   0.86120   0.13246   0.14451
  42   32738.0    305.5   0.129427178   1.30151   1.03750   0.45752  -0.12559
  43   32838.3    304.5   0.062549211   0.62707   0.32702   0.16017   0.70319
  44   33002.7    303.0   0.018885943   0.18839   0.12442  -0.37249  -0.18483
  45   33159.8    301.6   0.049850646   0.49492  -0.36586  -0.47919  -0.36255
  46   33337.4    300.0   0.331033719   3.26900   1.69905  -0.11323   0.60780
  47   33840.2    295.5   0.077589526   0.75482   0.04013  -0.14868  -0.85505
  48   33903.6    295.0   0.100359124   0.97451   0.77452  -0.06036   0.60909
  49   34204.9    292.4   0.245586718   2.36370  -1.27685  -0.01010  -0.85630
  50   34282.8    291.7   0.047214471   0.45339  -0.30934   0.49886  -0.32990
  51   34558.6    289.4   0.128944960   1.22836   0.53892   0.11372   0.96176
  52   34944.9    286.2   0.042258077   0.39811  -0.25025   0.06737  -0.57528
  53   35307.0    283.2   0.034560095   0.32225  -0.43254   0.08081  -0.35865
  54   35692.8    280.2   0.041666196   0.38431  -0.33099   0.47984  -0.21097
  55   35950.2    278.2   0.018772982   0.17191   0.35303  -0.11581   0.18404
  56   36034.3    277.5   0.037158517   0.33948   0.02115  -0.01540   0.58206
  57   36199.6    276.2   0.063986891   0.58192   0.03771  -0.21254   0.73166
  58   36636.3    273.0   0.044576922   0.40057   0.41063  -0.38676  -0.28700
  59   36915.7    270.9   0.034251856   0.30546  -0.15563  -0.24939  -0.46802
  60   36998.3    270.3   0.002913361   0.02592  -0.11647  -0.05295   0.09775
  61   37161.3    269.1   0.062626831   0.55481   0.41805  -0.24327   0.56645
  62   37404.2    267.3   0.115026746   1.01240  -0.53910  -0.15380  -0.83554
  63   37641.3    265.7   0.040349632   0.35290  -0.10018   0.17290  -0.55944
  64   37802.8    264.5   0.004787049   0.04169  -0.05806  -0.08369   0.17696
  65   38073.3    262.7   0.008217487   0.07105  -0.13135  -0.11026  -0.20407
  66   38110.7    262.4   0.010501694   0.09072   0.20189  -0.03625  -0.22055
  67   38271.6    261.3   0.104108987   0.89555  -0.82302   0.30392  -0.35470
  68   38686.6    258.5   0.000597522   0.00508  -0.06564   0.01383  -0.02417
  69   38863.8    257.3   0.082230559   0.69657   0.58166  -0.31739   0.50745
  70   38937.2    256.8   0.149979371   1.26807  -0.93142   0.06500  -0.62952
  71   39014.6    256.3   0.079059454   0.66712  -0.44299   0.05586  -0.68393
  72   39059.1    256.0   0.001879494   0.01584  -0.05489  -0.01702   0.11198
  73   39235.0    254.9   0.028833942   0.24194   0.20840  -0.20973   0.39309
  74   39301.0    254.4   0.006524357   0.05465  -0.20693  -0.03635  -0.10252
  75   39568.5    252.7   0.001950223   0.01623  -0.01028   0.11820  -0.04637
  76   39857.8    250.9   0.006805346   0.05621  -0.13818  -0.01949  -0.19167
  77   40081.0    249.5   0.162685695   1.33625  -0.85626  -0.31906  -0.70800
  78   40326.6    248.0   0.016452115   0.13431  -0.02947  -0.19600  -0.30826

FINAL SINGLE POINT ENERGY     -4623.635225855654

DIPOLE MOMENT
-------------
                                X             Y             Z
Electronic contribution:    -13.48482     -16.30747      -3.98985
Nuclear contribution   :     17.02774      14.72051       4.98110
                        -----------------------------------------
Total Dipole Moment    :      3.54292      -1.58696       0.99124
                        -----------------------------------------
Magnitude (a.u.)       :      4.00665
Magnitude (Debye)      :     10.18410

Rotational constants in cm-1:     0.001045     0.000649     0.000633
Rotational constants in MHz :    31.322769    19.441645    18.964005

                             ****ORCA TERMINATED NORMALLY****
TOTAL RUN TIME: 0 days 0 hours 16 minutes 43 seconds 259 msec
