                         Program Version 4.2.0 -  RELEASE  -
|  1> # ORCA input file
|  2> # SCF done       -200.764252595174          0.000987597598
|  3> ! CAM-B3LYP def2-SVP def2/J RIJCOSX Grid4 TightSCF
|  4> %maxcore 5000
|  5> %tddft
|  6>     Mode sTDDFT
|  7>     Ethresh 5.0
|  8>     maxcore 5000
|  9> end
| 10>
| 11> %pal
| 12>   nprocs 6
| 13>   end
| 14> * xyz 0 1
| 15>    C        0.23901         2.10340         1.18202
| 16>    C       -0.80623         2.98303         1.12787
| 17>    F       -1.75748         2.94117         2.07851
| 18>    C       -0.93183         3.93993         0.11161
| 19>    C        0.02550         3.99937        -0.86256
| 20>    C        1.12516         3.11700        -0.85521
| 21>    C        1.23256         2.14814         0.18492
| 22>    C        2.32045         1.24380         0.20736
| 23>    C        3.26816         1.31241        -0.77686
| 24>    C        3.16898         2.29896        -1.79971
| 25>    C        2.12561         3.17741        -1.85108
| 26>    C        4.34114         2.19578        -2.68768
| 27>    O        4.57772         2.83129        -3.68994
| 28>    C        5.22333         1.17403        -2.05625
| 29>    C        4.46326         0.50732        -1.02341
| 30>    C        4.65957        -0.76249        -0.54274
| 31>    C        5.69331        -1.61249        -0.97850
| 32>    N        6.50971        -2.33989        -1.32971
| 33>    C        3.79234        -1.39873         0.36962
| 34>    N        3.11339        -1.96448         1.10162
| 35>    C        6.52376         1.10545        -2.46527
| 36>    C        7.63911         0.54572        -1.81428
| 37>    C        7.78918         0.16264        -0.48737
| 38>    C        9.06481        -0.30830        -0.21544
| 39>    C        9.91659        -0.27725        -1.34213
| 40>    S        9.13820         0.33986        -2.72253
| 41>    C       11.18053        -0.77919        -0.95756
| 42>    C       11.12943        -1.14213         0.40142
| 43>    C        9.79493        -0.86231         0.90896
| 44>    C        9.31687        -1.08485         2.16773
| 45>    C       10.11829        -1.63610         3.18839
| 46>    N       10.77735        -2.07602         4.01727
| 47>    C        7.98856        -0.76260         2.51642
| 48>    N        6.90928        -0.48617         2.78801
| 49>    C       12.33955        -1.63899         0.87805
| 50>    C       13.31813        -1.64494        -0.10239
| 51>    S       12.72541        -1.04334        -1.64294
| 52>    C       14.67105        -2.03912         0.03173
| 53>    C       15.68003        -1.91456        -0.90524
| 54>    C       16.90484        -2.36798        -0.41896
| 55>    C       16.82463        -2.85706         0.90130
| 56>    S       15.24380        -2.74638         1.54067
| 57>    C       18.11166        -3.27298         1.30639
| 58>    C       19.01258        -3.03745         0.24987
| 59>    C       18.27796        -2.46727        -0.86977
| 60>    C       18.77894        -2.09373        -2.08550
| 61>    C       20.13963        -2.23786        -2.41151
| 62>    N       21.24831        -2.34692        -2.68744
| 63>    C       17.96499        -1.53868        -3.09426
| 64>    N       17.30765        -1.08306        -3.91626
| 65>    C       20.32158        -3.39066         0.55813
| 66>    C       20.43676        -3.90382         1.84266
| 67>    S       18.88609        -3.95132         2.67255
| 68>    C       21.61615        -4.34864         2.50380
| 69>    C       22.88161        -4.12582         2.00620
| 70>    C       24.05761        -4.52581         2.63022
| 71>    C       24.04266        -5.25440         3.90034
| 72>    C       22.91758        -5.57848         4.57346
| 73>    S       21.33934        -5.18631         4.02661
| 74>    C       25.41069        -5.48293         4.21555
| 75>    C       26.23222        -4.92600         3.23084
| 76>    C       27.60043        -5.14703         3.51244
| 77>    C       27.77176        -5.83805         4.66942
| 78>    S       26.29420        -6.25416         5.46817
| 79>    C       25.39765        -4.31069         2.22773
| 80>    C       25.76761        -3.60398         1.06624
| 81>    C       27.03812        -3.26186         0.71503
| 82>    C       27.43048        -2.53227        -0.44090
| 83>    C       26.58170        -2.05309        -1.47386
| 84>    C       27.11387        -1.31373        -2.59105
| 85>    N       26.28768        -0.87747        -3.57555
| 86>    C       25.02044        -1.14319        -3.48125
| 87>    C       24.49070        -1.85457        -2.37976
| 88>    N       25.25334        -2.28946        -1.41725
| 89>    C       28.47169        -1.02724        -2.71187
| 90>    C       29.32045        -1.48537        -1.71497
| 91>    C       28.80602        -2.23492        -0.59083
| 92>    N       29.77841        -2.58835         0.25361
| 93>    S       31.17877        -2.03647        -0.30738
| 94>    N       30.64969        -1.32440        -1.63881
| 95>    H        0.30173         1.37741         1.97747
| 96>    H       -1.77881         4.60749         0.12058
| 97>    H       -0.04866         4.72852        -1.65534
| 98>    H        2.38366         0.52778         1.01138
| 99>    H        2.06478         3.91165        -2.64035
|100>    H        6.72961         1.62998        -3.39392
|101>    H        7.01291         0.27613         0.24677
|102>    H       12.52140        -1.97264         1.88403
|103>    H       15.51583        -1.50156        -1.88449
|104>    H       21.14995        -3.29583        -0.11880
|105>    H       22.95888        -3.58595         1.07417
|106>    H       22.92977        -6.10669         5.51358
|107>    H       28.42563        -4.82750         2.90360
|108>    H       28.69643        -6.14145         5.12016
|109>    H       24.97031        -3.29150         0.40870
|110>    H       27.86331        -3.52390         1.36037
|111>    H       24.38117        -0.79232        -4.27979
|112>    H       23.43236        -2.06000        -2.30347
|113>    H       28.83607        -0.47480        -3.56085
|114> *
|115>
|116>                          ****END OF INPUT****

CARTESIAN COORDINATES (ANGSTROEM)
---------------------------------
  C      0.239010    2.103400    1.182020
  C     -0.806230    2.983030    1.127870
  F     -1.757480    2.941170    2.078510
  C     -0.931830    3.939930    0.111610
  C      0.025500    3.999370   -0.862560
  C      1.125160    3.117000   -0.855210
  C      1.232560    2.148140    0.184920
  C      2.320450    1.243800    0.207360
  C      3.268160    1.312410   -0.776860
  C      3.168980    2.298960   -1.799710
  C      2.125610    3.177410   -1.851080
  C      4.341140    2.195780   -2.687680
  O      4.577720    2.831290   -3.689940
  C      5.223330    1.174030   -2.056250
  C      4.463260    0.507320   -1.023410
  C      4.659570   -0.762490   -0.542740
  C      5.693310   -1.612490   -0.978500
  N      6.509710   -2.339890   -1.329710
  C      3.792340   -1.398730    0.369620
  N      3.113390   -1.964480    1.101620
  C      6.523760    1.105450   -2.465270
  C      7.639110    0.545720   -1.814280
  C      7.789180    0.162640   -0.487370
  C      9.064810   -0.308300   -0.215440
  C      9.916590   -0.277250   -1.342130
  S      9.138200    0.339860   -2.722530
  C     11.180530   -0.779190   -0.957560
  C     11.129430   -1.142130    0.401420
  C      9.794930   -0.862310    0.908960
  C      9.316870   -1.084850    2.167730
  C     10.118290   -1.636100    3.188390
  N     10.777350   -2.076020    4.017270
  C      7.988560   -0.762600    2.516420
  N      6.909280   -0.486170    2.788010
  C     12.339550   -1.638990    0.878050
  C     13.318130   -1.644940   -0.102390
  S     12.725410   -1.043340   -1.642940
  C     14.671050   -2.039120    0.031730
  C     15.680030   -1.914560   -0.905240
  C     16.904840   -2.367980   -0.418960
  C     16.824630   -2.857060    0.901300
  S     15.243800   -2.746380    1.540670
  C     18.111660   -3.272980    1.306390
  C     19.012580   -3.037450    0.249870
  C     18.277960   -2.467270   -0.869770
  C     18.778940   -2.093730   -2.085500
  C     20.139630   -2.237860   -2.411510
  N     21.248310   -2.346920   -2.687440
  C     17.964990   -1.538680   -3.094260
  N     17.307650   -1.083060   -3.916260
  C     20.321580   -3.390660    0.558130
  C     20.436760   -3.903820    1.842660
  S     18.886090   -3.951320    2.672550
  C     21.616150   -4.348640    2.503800
  C     22.881610   -4.125820    2.006200
  C     24.057610   -4.525810    2.630220
  C     24.042660   -5.254400    3.900340
  C     22.917580   -5.578480    4.573460
  S     21.339340   -5.186310    4.026610
  C     25.410690   -5.482930    4.215550
  C     26.232220   -4.926000    3.230840
  C     27.600430   -5.147030    3.512440
  C     27.771760   -5.838050    4.669420
  S     26.294200   -6.254160    5.468170
  C     25.397650   -4.310690    2.227730
  C     25.767610   -3.603980    1.066240
  C     27.038120   -3.261860    0.715030
  C     27.430480   -2.532270   -0.440900
  C     26.581700   -2.053090   -1.473860
  C     27.113870   -1.313730   -2.591050
  N     26.287680   -0.877470   -3.575550
  C     25.020440   -1.143190   -3.481250
  C     24.490700   -1.854570   -2.379760
  N     25.253340   -2.289460   -1.417250
  C     28.471690   -1.027240   -2.711870
  C     29.320450   -1.485370   -1.714970
  C     28.806020   -2.234920   -0.590830
  N     29.778410   -2.588350    0.253610
  S     31.178770   -2.036470   -0.307380
  N     30.649690   -1.324400   -1.638810
  H      0.301730    1.377410    1.977470
  H     -1.778810    4.607490    0.120580
  H     -0.048660    4.728520   -1.655340
  H      2.383660    0.527780    1.011380
  H      2.064780    3.911650   -2.640350
  H      6.729610    1.629980   -3.393920
  H      7.012910    0.276130    0.246770
  H     12.521400   -1.972640    1.884030
  H     15.515830   -1.501560   -1.884490
  H     21.149950   -3.295830   -0.118800
  H     22.958880   -3.585950    1.074170
  H     22.929770   -6.106690    5.513580
  H     28.425630   -4.827500    2.903600
  H     28.696430   -6.141450    5.120160
  H     24.970310   -3.291500    0.408700
  H     27.863310   -3.523900    1.360370
  H     24.381170   -0.792320   -4.279790
  H     23.432360   -2.060000   -2.303470
  H     28.836070   -0.474800   -3.560850

 Total Charge           Charge          ....    0
 Multiplicity           Mult            ....    1
 Number of Electrons    NEL             ....  584
 Basis Dimension        Dim             .... 1243

ORBITAL ENERGIES
----------------

  NO   OCC          E(Eh)            E(eV)
   0   2.0000     -89.021164     -2422.3890
   1   2.0000     -89.000673     -2421.8314
   2   2.0000     -89.000542     -2421.8279
   3   2.0000     -88.999119     -2421.7892
   4   2.0000     -88.997374     -2421.7417
   5   2.0000     -88.980508     -2421.2827
   6   2.0000     -88.957950     -2420.6689
   7   2.0000     -24.784661      -674.4249
   8   2.0000     -19.214325      -522.8484
   9   2.0000     -14.446208      -393.1013
  10   2.0000     -14.439919      -392.9302
  11   2.0000     -14.437480      -392.8638
  12   2.0000     -14.436997      -392.8507
  13   2.0000     -14.430516      -392.6743
  14   2.0000     -14.426240      -392.5579
  15   2.0000     -14.418966      -392.3600
  16   2.0000     -14.415413      -392.2633
  17   2.0000     -14.413424      -392.2092
  18   2.0000     -14.413121      -392.2010
  19   2.0000     -10.374257      -282.2979
  20   2.0000     -10.372540      -282.2512
  21   2.0000     -10.368641      -282.1451
  22   2.0000     -10.366069      -282.0751
  23   2.0000     -10.362882      -281.9884
  24   2.0000     -10.359537      -281.8973
  25   2.0000     -10.348231      -281.5897
  26   2.0000     -10.348049      -281.5847
  27   2.0000     -10.344220      -281.4805
  28   2.0000     -10.343993      -281.4743
  29   2.0000     -10.343071      -281.4493
  30   2.0000     -10.342861      -281.4435
  31   2.0000     -10.340322      -281.3745
  32   2.0000     -10.339973      -281.3650
  33   2.0000     -10.337585      -281.3000
  34   2.0000     -10.337346      -281.2935
  35   2.0000     -10.336947      -281.2826
  36   2.0000     -10.336832      -281.2795
  37   2.0000     -10.335910      -281.2544
  38   2.0000     -10.332434      -281.1598
  39   2.0000     -10.331622      -281.1377
  40   2.0000     -10.329872      -281.0901
  41   2.0000     -10.326358      -280.9945
  42   2.0000     -10.319910      -280.8190
  43   2.0000     -10.316753      -280.7331
  44   2.0000     -10.316318      -280.7213
  45   2.0000     -10.315895      -280.7098
  46   2.0000     -10.314038      -280.6592
  47   2.0000     -10.313009      -280.6312
  48   2.0000     -10.312700      -280.6228
  49   2.0000     -10.312165      -280.6083
  50   2.0000     -10.311570      -280.5921
  51   2.0000     -10.311003      -280.5767
  52   2.0000     -10.310690      -280.5681
  53   2.0000     -10.310391      -280.5600
  54   2.0000     -10.309601      -280.5385
  55   2.0000     -10.309397      -280.5330
  56   2.0000     -10.308568      -280.5104
  57   2.0000     -10.305884      -280.4373
  58   2.0000     -10.305523      -280.4275
  59   2.0000     -10.305489      -280.4266
  60   2.0000     -10.302605      -280.3481
  61   2.0000     -10.301304      -280.3127
  62   2.0000     -10.300622      -280.2942
  63   2.0000     -10.300404      -280.2882
  64   2.0000     -10.299799      -280.2718
  65   2.0000     -10.297530      -280.2100
  66   2.0000     -10.297193      -280.2009
  67   2.0000     -10.296401      -280.1793
  68   2.0000     -10.293868      -280.1104
  69   2.0000     -10.289753      -279.9984
  70   2.0000     -10.289706      -279.9971
  71   2.0000     -10.288932      -279.9761
  72   2.0000     -10.288140      -279.9545
  73   2.0000     -10.287161      -279.9279
  74   2.0000     -10.277100      -279.6541
  75   2.0000     -10.275684      -279.6156
  76   2.0000     -10.274048      -279.5711
  77   2.0000     -10.270716      -279.4804
  78   2.0000     -10.264362      -279.3075
  79   2.0000     -10.263328      -279.2794
  80   2.0000      -8.112589      -220.7548
  81   2.0000      -8.095022      -220.2767
  82   2.0000      -8.094907      -220.2736
  83   2.0000      -8.093767      -220.2426
  84   2.0000      -8.091825      -220.1898
  85   2.0000      -8.076131      -219.7627
  86   2.0000      -8.053481      -219.1464
  87   2.0000      -6.083544      -165.5416
  88   2.0000      -6.075885      -165.3332
  89   2.0000      -6.075557      -165.3243
  90   2.0000      -6.064352      -165.0194
  91   2.0000      -6.064215      -165.0157
  92   2.0000      -6.062894      -164.9797
  93   2.0000      -6.061141      -164.9320
  94   2.0000      -6.060169      -164.9056
  95   2.0000      -6.060043      -164.9022
  96   2.0000      -6.058788      -164.8680
  97   2.0000      -6.057252      -164.8262
  98   2.0000      -6.057161      -164.8237
  99   2.0000      -6.056884      -164.8162
 100   2.0000      -6.056276      -164.7997
 101   2.0000      -6.054138      -164.7415
 102   2.0000      -6.045799      -164.5145
 103   2.0000      -6.041241      -164.3905
 104   2.0000      -6.037812      -164.2972
 105   2.0000      -6.022910      -163.8917
 106   2.0000      -6.018625      -163.7751
 107   2.0000      -6.015550      -163.6914
 108   2.0000      -1.299537       -35.3622
 109   2.0000      -1.129803       -30.7435
 110   2.0000      -1.115740       -30.3608
 111   2.0000      -1.069595       -29.1052
 112   2.0000      -1.055889       -28.7322
 113   2.0000      -1.052901       -28.6509
 114   2.0000      -1.034850       -28.1597
 115   2.0000      -1.029171       -28.0052
 116   2.0000      -1.020806       -27.7775
 117   2.0000      -1.020165       -27.7601
 118   2.0000      -1.015684       -27.6382
 119   2.0000      -1.014338       -27.6015
 120   2.0000      -1.008298       -27.4372
 121   2.0000      -1.001233       -27.2449
 122   2.0000      -1.000479       -27.2244
 123   2.0000      -0.994006       -27.0483
 124   2.0000      -0.993427       -27.0325
 125   2.0000      -0.979713       -26.6594
 126   2.0000      -0.975990       -26.5580
 127   2.0000      -0.968788       -26.3621
 128   2.0000      -0.967021       -26.3140
 129   2.0000      -0.962311       -26.1858
 130   2.0000      -0.942062       -25.6348
 131   2.0000      -0.933838       -25.4110
 132   2.0000      -0.930154       -25.3108
 133   2.0000      -0.924164       -25.1478
 134   2.0000      -0.916421       -24.9371
 135   2.0000      -0.901443       -24.5295
 136   2.0000      -0.894618       -24.3438
 137   2.0000      -0.887119       -24.1397
 138   2.0000      -0.881902       -23.9978
 139   2.0000      -0.880660       -23.9640
 140   2.0000      -0.876577       -23.8529
 141   2.0000      -0.871176       -23.7059
 142   2.0000      -0.865755       -23.5584
 143   2.0000      -0.861158       -23.4333
 144   2.0000      -0.854260       -23.2456
 145   2.0000      -0.846156       -23.0251
 146   2.0000      -0.838159       -22.8075
 147   2.0000      -0.833860       -22.6905
 148   2.0000      -0.821971       -22.3670
 149   2.0000      -0.817432       -22.2435
 150   2.0000      -0.807208       -21.9653
 151   2.0000      -0.789048       -21.4711
 152   2.0000      -0.787373       -21.4255
 153   2.0000      -0.782500       -21.2929
 154   2.0000      -0.775325       -21.0977
 155   2.0000      -0.768287       -20.9061
 156   2.0000      -0.760380       -20.6910
 157   2.0000      -0.746628       -20.3168
 158   2.0000      -0.735725       -20.0201
 159   2.0000      -0.731872       -19.9153
 160   2.0000      -0.725437       -19.7401
 161   2.0000      -0.718893       -19.5621
 162   2.0000      -0.713141       -19.4055
 163   2.0000      -0.708962       -19.2918
 164   2.0000      -0.706178       -19.2161
 165   2.0000      -0.696946       -18.9649
 166   2.0000      -0.695407       -18.9230
 167   2.0000      -0.688290       -18.7293
 168   2.0000      -0.687973       -18.7207
 169   2.0000      -0.679896       -18.5009
 170   2.0000      -0.676383       -18.4053
 171   2.0000      -0.665360       -18.1054
 172   2.0000      -0.656394       -17.8614
 173   2.0000      -0.652289       -17.7497
 174   2.0000      -0.646514       -17.5925
 175   2.0000      -0.641601       -17.4589
 176   2.0000      -0.639128       -17.3916
 177   2.0000      -0.636348       -17.3159
 178   2.0000      -0.635485       -17.2924
 179   2.0000      -0.630615       -17.1599
 180   2.0000      -0.629468       -17.1287
 181   2.0000      -0.628680       -17.1072
 182   2.0000      -0.625091       -17.0096
 183   2.0000      -0.622034       -16.9264
 184   2.0000      -0.612077       -16.6555
 185   2.0000      -0.606829       -16.5127
 186   2.0000      -0.602756       -16.4018
 187   2.0000      -0.594500       -16.1772
 188   2.0000      -0.588949       -16.0261
 189   2.0000      -0.584467       -15.9042
 190   2.0000      -0.575581       -15.6623
 191   2.0000      -0.571659       -15.5556
 192   2.0000      -0.565319       -15.3831
 193   2.0000      -0.560698       -15.2574
 194   2.0000      -0.559061       -15.2128
 195   2.0000      -0.558755       -15.2045
 196   2.0000      -0.557160       -15.1611
 197   2.0000      -0.555024       -15.1030
 198   2.0000      -0.550195       -14.9716
 199   2.0000      -0.547728       -14.9044
 200   2.0000      -0.545097       -14.8329
 201   2.0000      -0.542242       -14.7552
 202   2.0000      -0.541189       -14.7265
 203   2.0000      -0.536858       -14.6087
 204   2.0000      -0.535462       -14.5707
 205   2.0000      -0.534833       -14.5535
 206   2.0000      -0.529995       -14.4219
 207   2.0000      -0.525560       -14.3012
 208   2.0000      -0.523113       -14.2346
 209   2.0000      -0.522739       -14.2245
 210   2.0000      -0.519459       -14.1352
 211   2.0000      -0.517617       -14.0851
 212   2.0000      -0.514431       -13.9984
 213   2.0000      -0.513692       -13.9783
 214   2.0000      -0.511647       -13.9226
 215   2.0000      -0.510315       -13.8864
 216   2.0000      -0.510069       -13.8797
 217   2.0000      -0.506280       -13.7766
 218   2.0000      -0.503693       -13.7062
 219   2.0000      -0.503049       -13.6887
 220   2.0000      -0.499831       -13.6011
 221   2.0000      -0.497245       -13.5307
 222   2.0000      -0.495728       -13.4894
 223   2.0000      -0.492660       -13.4060
 224   2.0000      -0.492314       -13.3965
 225   2.0000      -0.487569       -13.2674
 226   2.0000      -0.485398       -13.2084
 227   2.0000      -0.481882       -13.1127
 228   2.0000      -0.480818       -13.0837
 229   2.0000      -0.479223       -13.0403
 230   2.0000      -0.476788       -12.9741
 231   2.0000      -0.469911       -12.7869
 232   2.0000      -0.467962       -12.7339
 233   2.0000      -0.467667       -12.7259
 234   2.0000      -0.466570       -12.6960
 235   2.0000      -0.463975       -12.6254
 236   2.0000      -0.463872       -12.6226
 237   2.0000      -0.461056       -12.5460
 238   2.0000      -0.458402       -12.4738
 239   2.0000      -0.457461       -12.4481
 240   2.0000      -0.456250       -12.4152
 241   2.0000      -0.453385       -12.3372
 242   2.0000      -0.452372       -12.3097
 243   2.0000      -0.451372       -12.2824
 244   2.0000      -0.450858       -12.2685
 245   2.0000      -0.448794       -12.2123
 246   2.0000      -0.447833       -12.1861
 247   2.0000      -0.447034       -12.1644
 248   2.0000      -0.444829       -12.1044
 249   2.0000      -0.444247       -12.0886
 250   2.0000      -0.439871       -11.9695
 251   2.0000      -0.438754       -11.9391
 252   2.0000      -0.437127       -11.8948
 253   2.0000      -0.436004       -11.8643
 254   2.0000      -0.434988       -11.8366
 255   2.0000      -0.432824       -11.7777
 256   2.0000      -0.430521       -11.7151
 257   2.0000      -0.428877       -11.6703
 258   2.0000      -0.425765       -11.5856
 259   2.0000      -0.424017       -11.5381
 260   2.0000      -0.423354       -11.5200
 261   2.0000      -0.419244       -11.4082
 262   2.0000      -0.416460       -11.3325
 263   2.0000      -0.414413       -11.2768
 264   2.0000      -0.411814       -11.2060
 265   2.0000      -0.408576       -11.1179
 266   2.0000      -0.403876       -10.9900
 267   2.0000      -0.402626       -10.9560
 268   2.0000      -0.392291       -10.6748
 269   2.0000      -0.391075       -10.6417
 270   2.0000      -0.386139       -10.5074
 271   2.0000      -0.379840       -10.3360
 272   2.0000      -0.370640       -10.0856
 273   2.0000      -0.367317        -9.9952
 274   2.0000      -0.361973        -9.8498
 275   2.0000      -0.359980        -9.7955
 276   2.0000      -0.357803        -9.7363
 277   2.0000      -0.354353        -9.6424
 278   2.0000      -0.342380        -9.3166
 279   2.0000      -0.335970        -9.1422
 280   2.0000      -0.331396        -9.0178
 281   2.0000      -0.329706        -8.9718
 282   2.0000      -0.328427        -8.9370
 283   2.0000      -0.321458        -8.7473
 284   2.0000      -0.314361        -8.5542
 285   2.0000      -0.307940        -8.3795
 286   2.0000      -0.302606        -8.2343
 287   2.0000      -0.296363        -8.0645
 288   2.0000      -0.287053        -7.8111
 289   2.0000      -0.274058        -7.4575
 290   2.0000      -0.253857        -6.9078
 291   2.0000      -0.219275        -5.9668
 292   0.0000      -0.120674        -3.2837
 293   0.0000      -0.113857        -3.0982
 294   0.0000      -0.091846        -2.4993
 295   0.0000      -0.086798        -2.3619
 296   0.0000      -0.059279        -1.6131

MULLIKEN ATOMIC CHARGES
-----------------------
   0 C :   -0.096235
   1 C :    0.302586
   2 F :   -0.190911
   3 C :   -0.030457
   4 C :   -0.010477
   5 C :    0.099878
   6 C :    0.098934
   7 C :   -0.081853
   8 C :    0.032341
   9 C :    0.014616
  10 C :   -0.080475
  11 C :    0.138330
  12 O :   -0.146482
  13 C :   -0.150074
  14 C :    0.270179
  15 C :   -0.328804
  16 C :   -0.204707
  17 N :    0.164458
  18 C :   -0.167347
  19 N :    0.158888
  20 C :    0.087938
  21 C :   -0.110589
  22 C :    0.003154
  23 C :   -0.010723
  24 C :   -0.068443
  25 S :    0.214916
  26 C :   -0.106612
  27 C :    0.026748
  28 C :    0.304607
  29 C :   -0.287860
  30 C :   -0.187949
  31 N :    0.174041
  32 C :   -0.182611
  33 N :    0.175967
  34 C :   -0.069336
  35 C :   -0.043086
  36 S :    0.201811
  37 C :   -0.057857
  38 C :   -0.056693
  39 C :    0.002108
  40 C :   -0.092765
  41 S :    0.200979
  42 C :   -0.105215
  43 C :    0.015875
  44 C :    0.312426
  45 C :   -0.306483
  46 C :   -0.168407
  47 N :    0.186460
  48 C :   -0.190398
  49 N :    0.177118
  50 C :   -0.048761
  51 C :   -0.058391
  52 S :    0.193500
  53 C :   -0.036981
  54 C :   -0.056174
  55 C :    0.046597
  56 C :    0.071064
  57 C :   -0.125714
  58 S :    0.115162
  59 C :   -0.114477
  60 C :    0.053091
  61 C :   -0.003058
  62 C :   -0.066446
  63 S :    0.127605
  64 C :    0.116111
  65 C :   -0.000689
  66 C :   -0.110916
  67 C :    0.138676
  68 C :   -0.053834
  69 C :    0.020377
  70 N :   -0.025682
  71 C :    0.021662
  72 C :    0.040680
  73 N :   -0.033111
  74 C :   -0.106614
  75 C :    0.119167
  76 C :   -0.034941
  77 N :   -0.295894
  78 S :    0.513031
  79 N :   -0.279045
  80 H :    0.000544
  81 H :    0.004305
  82 H :   -0.007757
  83 H :    0.002815
  84 H :   -0.010308
  85 H :    0.019463
  86 H :    0.026562
  87 H :    0.012481
  88 H :    0.012690
  89 H :    0.010548
  90 H :   -0.011518
  91 H :    0.036500
  92 H :    0.002781
  93 H :    0.025315
  94 H :   -0.016166
  95 H :   -0.027596
  96 H :    0.013172
  97 H :   -0.016244
  98 H :   -0.035094
Sum of atomic charges:   -0.0000000

LOEWDIN ATOMIC CHARGES
----------------------
   0 C :   -0.041119
   1 C :    0.093717
   2 F :   -0.064878
   3 C :   -0.036750
   4 C :    0.004236
   5 C :   -0.018885
   6 C :    0.003730
   7 C :    0.013274
   8 C :   -0.017120
   9 C :   -0.060139
  10 C :    0.034460
  11 C :    0.082655
  12 O :   -0.147486
  13 C :   -0.094326
  14 C :    0.065276
  15 C :   -0.137652
  16 C :   -0.015773
  17 N :   -0.046895
  18 C :   -0.018634
  19 N :   -0.046373
  20 C :    0.042779
  21 C :   -0.181570
  22 C :    0.013881
  23 C :   -0.069519
  24 C :   -0.155990
  25 S :    0.499902
  26 C :   -0.188788
  27 C :   -0.052256
  28 C :    0.082324
  29 C :   -0.095776
  30 C :   -0.015973
  31 N :   -0.030091
  32 C :   -0.013420
  33 N :   -0.028448
  34 C :   -0.042506
  35 C :   -0.167380
  36 S :    0.488255
  37 C :   -0.187145
  38 C :   -0.031184
  39 C :   -0.076912
  40 C :   -0.167014
  41 S :    0.486485
  42 C :   -0.194335
  43 C :   -0.064098
  44 C :    0.088761
  45 C :   -0.107119
  46 C :    0.004235
  47 N :   -0.032947
  48 C :   -0.017116
  49 N :   -0.030858
  50 C :   -0.031422
  51 C :   -0.172575
  52 S :    0.472065
  53 C :   -0.193614
  54 C :   -0.005702
  55 C :   -0.021726
  56 C :   -0.047077
  57 C :   -0.141489
  58 S :    0.430168
  59 C :   -0.198847
  60 C :   -0.035295
  61 C :   -0.060166
  62 C :   -0.164128
  63 S :    0.423941
  64 C :   -0.034834
  65 C :    0.001079
  66 C :   -0.030804
  67 C :   -0.017146
  68 C :   -0.017503
  69 C :   -0.011766
  70 N :   -0.037777
  71 C :    0.007453
  72 C :    0.008350
  73 N :   -0.035343
  74 C :   -0.025659
  75 C :   -0.054257
  76 C :   -0.047650
  77 N :   -0.297140
  78 S :    0.656071
  79 N :   -0.297292
  80 H :    0.044071
  81 H :    0.042062
  82 H :    0.035864
  83 H :    0.041001
  84 H :    0.039872
  85 H :    0.045522
  86 H :    0.043162
  87 H :    0.036357
  88 H :    0.036251
  89 H :    0.039401
  90 H :    0.041784
  91 H :    0.036999
  92 H :    0.034622
  93 H :    0.023804
  94 H :    0.022726
  95 H :    0.027514
  96 H :    0.026906
  97 H :    0.014303
  98 H :    0.040366

  Mayer bond orders larger than 0.100000
B(  0-C ,  1-C ) :   1.4412 B(  0-C ,  6-C ) :   1.2054 B(  0-C , 80-H ) :   1.0064
B(  1-C ,  2-F ) :   1.0875 B(  1-C ,  3-C ) :   1.2548 B(  3-C ,  4-C ) :   1.4624
B(  3-C , 81-H ) :   0.9927 B(  4-C ,  5-C ) :   1.2349 B(  4-C , 82-H ) :   0.9968
B(  5-C ,  6-C ) :   1.2546 B(  5-C , 10-C ) :   1.1931 B(  6-C ,  7-C ) :   1.2035
B(  7-C ,  8-C ) :   1.4682 B(  7-C , 83-H ) :   0.9946 B(  8-C ,  9-C ) :   1.2174
B(  8-C , 14-C ) :   0.9923 B(  9-C , 10-C ) :   1.4727 B(  9-C , 11-C ) :   0.9215
B( 10-C , 84-H ) :   1.0151 B( 11-C , 12-O ) :   2.2627 B( 11-C , 13-C ) :   0.9464
B( 13-C , 14-C ) :   1.0454 B( 13-C , 20-C ) :   1.6493 B( 14-C , 15-C ) :   1.6445
B( 15-C , 16-C ) :   1.1723 B( 15-C , 18-C ) :   1.1274 B( 16-C , 17-N ) :   2.9920
B( 18-C , 19-N ) :   2.9912 B( 20-C , 21-C ) :   1.1575 B( 20-C , 85-H ) :   0.9256
B( 21-C , 22-C ) :   1.3823 B( 21-C , 25-S ) :   1.0830 B( 22-C , 23-C ) :   1.3688
B( 22-C , 86-H ) :   0.9770 B( 23-C , 24-C ) :   1.3964 B( 23-C , 28-C ) :   1.0019
B( 24-C , 25-S ) :   1.1597 B( 24-C , 26-C ) :   1.2048 B( 26-C , 27-C ) :   1.4390
B( 26-C , 36-S ) :   1.1058 B( 27-C , 28-C ) :   0.9905 B( 27-C , 34-C ) :   1.3119
B( 28-C , 29-C ) :   1.7182 B( 29-C , 30-C ) :   1.1331 B( 29-C , 32-C ) :   1.1358
B( 30-C , 31-N ) :   2.9904 B( 32-C , 33-N ) :   2.9835 B( 34-C , 35-C ) :   1.4442
B( 34-C , 87-H ) :   0.9869 B( 35-C , 36-S ) :   1.1215 B( 35-C , 37-C ) :   1.1734
B( 37-C , 38-C ) :   1.4601 B( 37-C , 41-S ) :   1.0963 B( 38-C , 39-C ) :   1.3016
B( 38-C , 88-H ) :   0.9847 B( 39-C , 40-C ) :   1.4260 B( 39-C , 44-C ) :   1.0065
B( 40-C , 41-S ) :   1.1305 B( 40-C , 42-C ) :   1.2070 B( 42-C , 43-C ) :   1.4288
B( 42-C , 52-S ) :   1.1104 B( 43-C , 44-C ) :   0.9951 B( 43-C , 50-C ) :   1.3062
B( 44-C , 45-C ) :   1.6978 B( 45-C , 46-C ) :   1.1434 B( 45-C , 48-C ) :   1.1338
B( 46-C , 47-N ) :   2.9562 B( 47-N , 97-H ) :   0.1025 B( 48-C , 49-N ) :   2.9920
B( 50-C , 51-C ) :   1.4699 B( 50-C , 89-H ) :   0.9878 B( 51-C , 52-S ) :   1.1112
B( 51-C , 53-C ) :   1.1219 B( 53-C , 54-C ) :   1.5384 B( 53-C , 58-S ) :   1.0324
B( 54-C , 55-C ) :   1.2581 B( 54-C , 90-H ) :   0.9669 B( 55-C , 56-C ) :   1.0418
B( 55-C , 64-C ) :   1.3559 B( 56-C , 57-C ) :   1.6186 B( 56-C , 59-C ) :   1.1744
B( 57-C , 58-S ) :   1.1290 B( 57-C , 91-H ) :   0.9395 B( 59-C , 60-C ) :   1.4471
B( 59-C , 63-S ) :   1.0821 B( 60-C , 61-C ) :   1.2154 B( 60-C , 64-C ) :   1.0700
B( 61-C , 62-C ) :   1.5882 B( 61-C , 92-H ) :   1.0002 B( 62-C , 63-S ) :   1.1516
B( 62-C , 93-H ) :   0.9642 B( 64-C , 65-C ) :   1.1705 B( 65-C , 66-C ) :   1.5545
B( 65-C , 94-H ) :   0.9355 B( 66-C , 67-C ) :   1.1934 B( 66-C , 95-H ) :   0.9761
B( 67-C , 68-C ) :   1.2507 B( 67-C , 74-C ) :   0.1456 B( 67-C , 76-C ) :   1.1925
B( 68-C , 69-C ) :   1.1444 B( 68-C , 73-N ) :   1.4269 B( 69-C , 70-N ) :   1.3583
B( 69-C , 74-C ) :   1.3067 B( 70-N , 71-C ) :   1.7326 B( 71-C , 72-C ) :   1.1749
B( 71-C , 96-H ) :   0.9747 B( 72-C , 73-N ) :   1.6782 B( 72-C , 97-H ) :   0.9516
B( 73-N , 94-H ) :   0.1108 B( 74-C , 75-C ) :   1.1819 B( 74-C , 98-H ) :   1.0587
B( 75-C , 76-C ) :   1.1291 B( 75-C , 79-N ) :   1.4500 B( 76-C , 77-N ) :   1.5117
B( 77-N , 78-S ) :   1.2793 B( 77-N , 79-N ) :   0.1650 B( 78-S , 79-N ) :   1.2985

-----------------------------------------------------------------------------
         ABSORPTION SPECTRUM VIA TRANSITION ELECTRIC DIPOLE MOMENTS
-----------------------------------------------------------------------------
State   Energy  Wavelength   fosc         T2         TX        TY        TZ
        (cm-1)    (nm)                  (au**2)     (au)      (au)      (au)
-----------------------------------------------------------------------------
   0    7563.9   1322.1   0.304444065  13.25064  -3.60062   0.46844  -0.25832
   1   11359.1    880.4   0.352958290  10.22950   3.13592  -0.60633   0.16700
   2   13581.0    736.3   0.254807699   6.17671   1.66374   1.06986  -1.50469
   3   14103.6    709.0   0.207303988   4.83899   1.94126   0.45923  -0.92716
   4   15831.2    631.7   0.021860378   0.45459   0.45593  -0.32018   0.37973
   5   18691.4    535.0   1.089028538  19.18108   4.22657  -0.94022   0.65818
   6   20545.2    486.7   0.077147468   1.23620   1.05976  -0.20931   0.26323
   7   20950.6    477.3   0.050998163   0.80137   0.11767  -0.47776   0.74784
   8   21588.2    463.2   0.072418903   1.10436   0.96383  -0.28833   0.30374
   9   22428.3    445.9   0.286695259   4.20824   1.92131  -0.52692   0.48905
  10   23315.3    428.9   0.088061423   1.24343   0.91420  -0.29356   0.56699
  11   23544.0    424.7   0.135532388   1.89512  -0.05779  -0.84591   1.08454
  12   23785.2    420.4   0.012854900   0.17793  -0.13682   0.36193  -0.16797
  13   24399.6    409.8   0.005901745   0.07963   0.13926  -0.14283   0.19959
  14   25507.5    392.0   0.011147689   0.14388  -0.36490   0.00745  -0.10329
  15   25822.7    387.3   0.011490777   0.14650   0.29262  -0.24672   0.00040
  16   26873.3    372.1   0.335817085   4.11393  -1.87203   0.76966  -0.13060
  17   27332.5    365.9   0.124523374   1.49985   0.95308  -0.71464   0.28423
  18   27963.5    357.6   0.149626905   1.76155  -1.05335   0.76717  -0.25187
  19   28065.8    356.3   0.008907600   0.10449  -0.18811   0.26165   0.02528
  20   28431.2    351.7   0.004501035   0.05212   0.07783   0.15840  -0.14481
  21   28663.3    348.9   0.067796568   0.77868   0.76349   0.11373  -0.42759
  22   28891.0    346.1   0.015097224   0.17203   0.31388   0.06569   0.26305
  23   29376.5    340.4   0.024382449   0.27325   0.13646   0.01494  -0.50438
  24   29748.0    336.2   0.054683434   0.60517  -0.42754   0.61861  -0.19924
  25   30049.7    332.8   0.023275716   0.25500  -0.04008   0.16186   0.47665
  26   30309.5    329.9   0.070149299   0.76194   0.61868  -0.16468   0.59334
  27   30563.9    327.2   0.244968202   2.63862  -1.24339   0.83937  -0.62294
  28   30646.2    326.3   0.061986432   0.66588  -0.66317   0.13214   0.45675
  29   30657.5    326.2   0.014413662   0.15478  -0.24934  -0.02935  -0.30290
  30   31050.0    322.1   0.749630728   7.94806  -2.34984   0.11135   1.55367
  31   31143.4    321.1   0.085879265   0.90782  -0.60587  -0.48538   0.55240
  32   31320.2    319.3   0.045455371   0.47779   0.06237   0.54784  -0.41686
  33   31440.4    318.1   0.444321820   4.65249   0.29416  -0.53954   2.06757
  34   32260.4    310.0   0.285878956   2.91734   0.20231   0.50789  -1.61817
  35   32469.4    308.0   0.373745691   3.78947  -1.65398  -0.22431   1.00175
  36   32690.3    305.9   0.073740633   0.74262   0.54373   0.44191  -0.50169
  37   33068.4    302.4   0.135577615   1.34974  -0.94010   0.66609  -0.14925
  38   33426.7    299.2   0.013282015   0.13081   0.27231  -0.17757  -0.15852
  39   33605.5    297.6   0.000485567   0.00476  -0.05960   0.02698   0.02182
  40   33629.8    297.4   0.016577153   0.16228  -0.10771  -0.26394   0.28463
  41   33656.7    297.1   0.071095794   0.69542   0.78226  -0.13398   0.25602
  42   33757.6    296.2   0.037404645   0.36478  -0.16414   0.56128  -0.15102
  43   33956.6    294.5   0.074535782   0.72263   0.31505  -0.77557  -0.14784
  44   34163.2    292.7   0.313379110   3.01987  -1.47510   0.83732  -0.37792
  45   34546.4    289.5   0.001786324   0.01702   0.04388   0.05555  -0.10960
  46   34595.2    289.1   0.023957826   0.22799  -0.13511  -0.21863   0.40241
  47   34657.2    288.5   0.307339526   2.91945  -0.60438   0.73249  -1.42043
  48   34882.7    286.7   0.020868912   0.19695   0.29482  -0.31890  -0.09132
  49   35076.0    285.1   0.049670222   0.46619  -0.40768   0.19635   0.51131
  50   35329.1    283.1   0.005767936   0.05375   0.08375  -0.04942  -0.21046
  51   35473.8    281.9   0.237483387   2.20394  -1.06398   0.70251   0.76050
  52   35681.4    280.3   0.414046698   3.82018   1.38760  -0.97065   0.97601
  53   35923.3    278.4   0.073260781   0.67138   0.02335  -0.50605   0.64401
  54   36023.3    277.6   0.028954398   0.26461  -0.45003  -0.01987   0.24836
  55   36055.7    277.3   0.104568662   0.95478  -0.68675   0.26962  -0.64067
  56   36262.9    275.8   0.005711109   0.05185   0.06496  -0.13475  -0.17167
  57   36479.2    274.1   0.093241642   0.84147  -0.40804   0.08656   0.81699
  58   36661.4    272.8   0.049872388   0.44784  -0.46681  -0.32030   0.35686
  59   36884.8    271.1   0.000955805   0.00853   0.06377  -0.02023  -0.06368
  60   37086.4    269.6   0.044518271   0.39518   0.54334  -0.21702   0.22994
  61   37538.3    266.4   0.063035512   0.55282  -0.23211  -0.29336   0.64256
  62   37869.7    264.1   0.062270868   0.54134   0.34626  -0.37999   0.52635
  63   38297.5    261.1   0.005012964   0.04309   0.05891   0.19865  -0.01265
  64   38356.4    260.7   0.004923101   0.04225  -0.00123   0.13604  -0.15410
  65   38499.4    259.7   0.073457411   0.62814  -0.48123   0.40264  -0.48419
  66   38809.2    257.7   0.002963296   0.02514  -0.10955   0.08865   0.07265
  67   38916.5    257.0   0.007718434   0.06529   0.18977  -0.12806   0.11351
  68   38956.3    256.7   0.034279514   0.28969   0.31319  -0.23171   0.37137
  69   39070.5    255.9   0.022735287   0.19157  -0.29953   0.11894  -0.29615
  70   39190.3    255.2   0.062671616   0.52646   0.19828   0.56181  -0.41415
  71   39440.0    253.5   0.054720109   0.45676   0.41099  -0.50810   0.17227
  72   39614.5    252.4   0.189942757   1.57850   1.24497   0.07828  -0.14977
  73   39756.2    251.5   0.417194208   3.45469   1.83409   0.26463   0.14421
  74   40109.8    249.3   0.083556323   0.68581  -0.77304   0.01815  -0.29646
  75   40271.5    248.3   0.068406895   0.55921   0.74231  -0.07968  -0.04293

FINAL SINGLE POINT ENERGY     -5840.943999922079

DIPOLE MOMENT
-------------
                                X             Y             Z
Electronic contribution:    -16.26635      -4.57862       5.41076
Nuclear contribution   :     16.88081       5.22731      -4.55104
                        -----------------------------------------
Total Dipole Moment    :      0.61446       0.64868       0.85973
                        -----------------------------------------
Magnitude (a.u.)       :      1.23995
Magnitude (Debye)      :      3.15171

Rotational constants in cm-1:     0.001884     0.000151     0.000142
Rotational constants in MHz :    56.490483     4.523336     4.262159

                             ****ORCA TERMINATED NORMALLY****
TOTAL RUN TIME: 0 days 0 hours 11 minutes 36 seconds 831 msec
