                         Program Version 4.2.0 -  RELEASE  -
|  1> # ORCA input file
|  2> # SCF done       -172.211646537005          0.000657811625
|  3> ! CAM-B3LYP def2-SVP def2/J RIJCOSX Grid4 TightSCF
|  4> %maxcore 5000
|  5> %tddft
|  6>     Mode sTDDFT
|  7>     Ethresh 5.0
|  8>     maxcore 5000
|  9> end
| 10>
| 11> %pal
| 12>   nprocs 6
| 13>   end
| 14> * xyz 0 1
| 15>    C        6.01474        10.87757         7.57377
| 16>    C        4.72233        10.99927         7.98658
| 17>    C        3.82340        10.70768         6.94299
| 18>    C        4.47829        10.36939         5.75405
| 19>    S        6.17641        10.40855         5.91495
| 20>    C        3.49636        10.09535         4.75691
| 21>    C        2.22769        10.26021         5.32624
| 22>    C        2.38920        10.65042         6.72116
| 23>    C        1.39767        10.90386         7.62252
| 24>    C        0.03256        10.80666         7.27912
| 25>    N       -1.07742        10.72294         7.00449
| 26>    C        1.67011        11.27603         8.95591
| 27>    N        1.88702        11.57765        10.04048
| 28>    C        1.19271        10.01289         4.42173
| 29>    C        1.66833         9.65145         3.17698
| 30>    S        3.42658         9.63197         3.11816
| 31>    C        0.87359         9.37860         2.02116
| 32>    C        1.24330         8.89100         0.78531
| 33>    C        2.61975         8.47701         0.39289
| 34>    O        3.22743         8.97414        -0.50916
| 35>    O        3.14517         7.46870         1.11774
| 36>    C        0.16450         8.87426        -0.14610
| 37>    C       -1.00507         9.31240         0.41253
| 38>    S       -0.82323         9.78741         2.04418
| 39>    C        0.28043         8.40457        -1.51146
| 40>    C       -0.30920         8.94598        -2.62949
| 41>    C       -1.02326        10.24199        -2.54671
| 42>    O       -2.11912        10.47870        -2.98694
| 43>    O       -0.30559        11.15662        -1.88967
| 44>    C       -0.04623         8.18057        -3.81232
| 45>    C        0.73921         7.09272        -3.53078
| 46>    S        1.14168         6.95186        -1.87961
| 47>    C       -0.47701         8.48882        -5.16632
| 48>    C       -1.68084         9.05411        -5.47124
| 49>    C       -2.10719         9.36431        -6.76633
| 50>    C       -1.29350         9.04743        -7.93736
| 51>    C       -0.07711         8.45798        -7.87063
| 52>    S        0.68508         8.02542        -6.39816
| 53>    C       -2.05565         9.48793        -9.05465
| 54>    C       -3.25723        10.05438        -8.62484
| 55>    C       -4.03469        10.51415        -9.71161
| 56>    C       -3.41689        10.28828       -10.90125
| 57>    S       -1.87651         9.51525       -10.76302
| 58>    C       -3.30493         9.98379        -7.17929
| 59>    C       -4.30179        10.44724        -6.30416
| 60>    C       -5.46696        11.06402        -6.67253
| 61>    C       -6.40229        11.49809        -5.72495
| 62>    C       -7.58197        12.13941        -6.02851
| 63>    C       -8.58173        12.59578        -5.09231
| 64>    C       -8.57812        12.44038        -3.72649
| 65>    C       -9.59545        12.91215        -2.87347
| 66>    N      -10.38644        13.27006        -2.12108
| 67>    C       -7.58358        11.78884        -2.97027
| 68>    N       -6.83070        11.27750        -2.26813
| 69>    C       -9.63852        13.25617        -5.85588
| 70>    C       -9.30923        13.19547        -7.23113
| 71>    C       -8.01921        12.49153        -7.39310
| 72>    O       -7.45890        12.26802        -8.44996
| 73>    C      -10.10925        13.73029        -8.21009
| 74>    C      -11.29531        14.35764        -7.81340
| 75>    C      -11.61636        14.41400        -6.43769
| 76>    C      -10.80588        13.87233        -5.44702
| 77>    S      -13.12583        15.23328        -6.16669
| 78>    C      -13.30070        15.48422        -7.88320
| 79>    C      -12.28403        14.98241        -8.62270
| 80>   Br      -14.81075        16.38568        -8.53775
| 81>    H        6.90451        11.03679         8.14937
| 82>    H        4.43768        11.28221         8.98337
| 83>    H        0.14343        10.08511         4.64496
| 84>    H        2.53808         7.12891         1.78849
| 85>    H       -1.96990         9.36514        -0.05209
| 86>    H       -0.79630        11.99299        -1.83350
| 87>    H        1.08750         6.35205        -4.22339
| 88>    H       -2.34325         9.27783        -4.64962
| 89>    H        0.50789         8.22735        -8.74692
| 90>    H       -4.99636        10.98816        -9.64491
| 91>    H       -3.77647        10.53293       -11.88155
| 92>    H       -4.11661        10.31136        -5.24530
| 93>    H       -5.68998        11.23029        -7.71203
| 94>    H       -6.16614        11.31322        -4.68463
| 95>    H       -9.82976        13.66746        -9.25021
| 96>    H      -11.09629        13.94329        -4.41230
| 97>    H      -12.23098        15.04859        -9.69416
| 98> *
| 99>
|100>                          ****END OF INPUT****

CARTESIAN COORDINATES (ANGSTROEM)
---------------------------------
  C      6.014740   10.877570    7.573770
  C      4.722330   10.999270    7.986580
  C      3.823400   10.707680    6.942990
  C      4.478290   10.369390    5.754050
  S      6.176410   10.408550    5.914950
  C      3.496360   10.095350    4.756910
  C      2.227690   10.260210    5.326240
  C      2.389200   10.650420    6.721160
  C      1.397670   10.903860    7.622520
  C      0.032560   10.806660    7.279120
  N     -1.077420   10.722940    7.004490
  C      1.670110   11.276030    8.955910
  N      1.887020   11.577650   10.040480
  C      1.192710   10.012890    4.421730
  C      1.668330    9.651450    3.176980
  S      3.426580    9.631970    3.118160
  C      0.873590    9.378600    2.021160
  C      1.243300    8.891000    0.785310
  C      2.619750    8.477010    0.392890
  O      3.227430    8.974140   -0.509160
  O      3.145170    7.468700    1.117740
  C      0.164500    8.874260   -0.146100
  C     -1.005070    9.312400    0.412530
  S     -0.823230    9.787410    2.044180
  C      0.280430    8.404570   -1.511460
  C     -0.309200    8.945980   -2.629490
  C     -1.023260   10.241990   -2.546710
  O     -2.119120   10.478700   -2.986940
  O     -0.305590   11.156620   -1.889670
  C     -0.046230    8.180570   -3.812320
  C      0.739210    7.092720   -3.530780
  S      1.141680    6.951860   -1.879610
  C     -0.477010    8.488820   -5.166320
  C     -1.680840    9.054110   -5.471240
  C     -2.107190    9.364310   -6.766330
  C     -1.293500    9.047430   -7.937360
  C     -0.077110    8.457980   -7.870630
  S      0.685080    8.025420   -6.398160
  C     -2.055650    9.487930   -9.054650
  C     -3.257230   10.054380   -8.624840
  C     -4.034690   10.514150   -9.711610
  C     -3.416890   10.288280  -10.901250
  S     -1.876510    9.515250  -10.763020
  C     -3.304930    9.983790   -7.179290
  C     -4.301790   10.447240   -6.304160
  C     -5.466960   11.064020   -6.672530
  C     -6.402290   11.498090   -5.724950
  C     -7.581970   12.139410   -6.028510
  C     -8.581730   12.595780   -5.092310
  C     -8.578120   12.440380   -3.726490
  C     -9.595450   12.912150   -2.873470
  N    -10.386440   13.270060   -2.121080
  C     -7.583580   11.788840   -2.970270
  N     -6.830700   11.277500   -2.268130
  C     -9.638520   13.256170   -5.855880
  C     -9.309230   13.195470   -7.231130
  C     -8.019210   12.491530   -7.393100
  O     -7.458900   12.268020   -8.449960
  C    -10.109250   13.730290   -8.210090
  C    -11.295310   14.357640   -7.813400
  C    -11.616360   14.414000   -6.437690
  C    -10.805880   13.872330   -5.447020
  S    -13.125830   15.233280   -6.166690
  C    -13.300700   15.484220   -7.883200
  C    -12.284030   14.982410   -8.622700
  Br   -14.810750   16.385680   -8.537750
  H      6.904510   11.036790    8.149370
  H      4.437680   11.282210    8.983370
  H      0.143430   10.085110    4.644960
  H      2.538080    7.128910    1.788490
  H     -1.969900    9.365140   -0.052090
  H     -0.796300   11.992990   -1.833500
  H      1.087500    6.352050   -4.223390
  H     -2.343250    9.277830   -4.649620
  H      0.507890    8.227350   -8.746920
  H     -4.996360   10.988160   -9.644910
  H     -3.776470   10.532930  -11.881550
  H     -4.116610   10.311360   -5.245300
  H     -5.689980   11.230290   -7.712030
  H     -6.166140   11.313220   -4.684630
  H     -9.829760   13.667460   -9.250210
  H    -11.096290   13.943290   -4.412300
  H    -12.230980   15.048590   -9.694160

 Total Charge           Charge          ....    0
 Multiplicity           Mult            ....    1
 Number of Electrons    NEL             ....  526
 Basis Dimension        Dim             .... 1055

ORBITAL ENERGIES
----------------

  NO   OCC          E(Eh)            E(eV)
   0   2.0000    -482.876800    -13139.7457
   1   2.0000     -88.998394     -2421.7694
   2   2.0000     -88.992296     -2421.6035
   3   2.0000     -88.985563     -2421.4203
   4   2.0000     -88.984126     -2421.3812
   5   2.0000     -88.981318     -2421.3048
   6   2.0000     -88.964432     -2420.8453
   7   2.0000     -88.956325     -2420.6247
   8   2.0000     -62.554526     -1702.1952
   9   2.0000     -56.388464     -1534.4081
  10   2.0000     -56.385771     -1534.3348
  11   2.0000     -56.385731     -1534.3337
  12   2.0000     -19.276250      -524.5334
  13   2.0000     -19.274864      -524.4957
  14   2.0000     -19.224055      -523.1131
  15   2.0000     -19.217103      -522.9240
  16   2.0000     -19.199749      -522.4517
  17   2.0000     -14.433505      -392.7556
  18   2.0000     -14.432531      -392.7291
  19   2.0000     -14.399890      -391.8409
  20   2.0000     -14.397973      -391.7888
  21   2.0000     -10.424986      -283.6783
  22   2.0000     -10.421165      -283.5743
  23   2.0000     -10.367773      -282.1214
  24   2.0000     -10.355374      -281.7841
  25   2.0000     -10.349871      -281.6343
  26   2.0000     -10.348287      -281.5912
  27   2.0000     -10.341350      -281.4024
  28   2.0000     -10.338291      -281.3192
  29   2.0000     -10.336655      -281.2747
  30   2.0000     -10.334767      -281.2233
  31   2.0000     -10.333766      -281.1961
  32   2.0000     -10.333755      -281.1958
  33   2.0000     -10.333733      -281.1952
  34   2.0000     -10.332673      -281.1663
  35   2.0000     -10.331146      -281.1248
  36   2.0000     -10.323517      -280.9172
  37   2.0000     -10.321368      -280.8587
  38   2.0000     -10.318644      -280.7846
  39   2.0000     -10.316469      -280.7254
  40   2.0000     -10.315441      -280.6974
  41   2.0000     -10.314372      -280.6683
  42   2.0000     -10.314300      -280.6664
  43   2.0000     -10.312709      -280.6231
  44   2.0000     -10.310580      -280.5651
  45   2.0000     -10.310342      -280.5587
  46   2.0000     -10.307836      -280.4905
  47   2.0000     -10.307755      -280.4883
  48   2.0000     -10.304777      -280.4072
  49   2.0000     -10.304656      -280.4040
  50   2.0000     -10.303907      -280.3836
  51   2.0000     -10.302310      -280.3401
  52   2.0000     -10.301781      -280.3257
  53   2.0000     -10.296704      -280.1876
  54   2.0000     -10.294917      -280.1389
  55   2.0000     -10.294861      -280.1374
  56   2.0000     -10.294199      -280.1194
  57   2.0000     -10.293561      -280.1020
  58   2.0000     -10.293182      -280.0917
  59   2.0000     -10.291490      -280.0457
  60   2.0000     -10.290548      -280.0201
  61   2.0000     -10.288002      -279.9508
  62   2.0000     -10.287419      -279.9349
  63   2.0000     -10.286475      -279.9092
  64   2.0000     -10.277178      -279.6562
  65   2.0000     -10.277123      -279.6547
  66   2.0000     -10.276140      -279.6280
  67   2.0000     -10.272876      -279.5392
  68   2.0000     -10.270820      -279.4832
  69   2.0000     -10.260834      -279.2115
  70   2.0000      -8.783961      -239.0237
  71   2.0000      -8.092541      -220.2092
  72   2.0000      -8.087275      -220.0659
  73   2.0000      -8.080828      -219.8905
  74   2.0000      -8.079739      -219.8609
  75   2.0000      -8.077133      -219.7900
  76   2.0000      -8.060404      -219.3348
  77   2.0000      -8.051875      -219.1026
  78   2.0000      -6.620214      -180.1452
  79   2.0000      -6.605699      -179.7502
  80   2.0000      -6.605547      -179.7461
  81   2.0000      -6.061827      -164.9507
  82   2.0000      -6.057514      -164.8333
  83   2.0000      -6.056486      -164.8054
  84   2.0000      -6.054943      -164.7634
  85   2.0000      -6.052083      -164.6856
  86   2.0000      -6.050275      -164.6364
  87   2.0000      -6.049927      -164.6269
  88   2.0000      -6.049112      -164.6047
  89   2.0000      -6.046275      -164.5275
  90   2.0000      -6.045637      -164.5101
  91   2.0000      -6.044668      -164.4838
  92   2.0000      -6.043041      -164.4395
  93   2.0000      -6.041981      -164.4107
  94   2.0000      -6.041923      -164.4091
  95   2.0000      -6.039612      -164.3462
  96   2.0000      -6.030088      -164.0870
  97   2.0000      -6.025850      -163.9717
  98   2.0000      -6.021618      -163.8566
  99   2.0000      -6.021304      -163.8480
 100   2.0000      -6.017029      -163.7317
 101   2.0000      -6.013934      -163.6475
 102   2.0000      -2.736081       -74.4525
 103   2.0000      -2.732016       -74.3419
 104   2.0000      -2.731910       -74.3390
 105   2.0000      -2.720365       -74.0249
 106   2.0000      -2.720350       -74.0245
 107   2.0000      -1.207161       -32.8485
 108   2.0000      -1.199458       -32.6389
 109   2.0000      -1.115234       -30.3471
 110   2.0000      -1.112702       -30.2782
 111   2.0000      -1.111476       -30.2448
 112   2.0000      -1.048996       -28.5446
 113   2.0000      -1.026431       -27.9306
 114   2.0000      -1.023000       -27.8372
 115   2.0000      -1.013228       -27.5713
 116   2.0000      -1.010533       -27.4980
 117   2.0000      -1.009002       -27.4564
 118   2.0000      -1.006188       -27.3798
 119   2.0000      -0.998470       -27.1697
 120   2.0000      -0.994914       -27.0730
 121   2.0000      -0.978020       -26.6133
 122   2.0000      -0.973980       -26.5033
 123   2.0000      -0.973764       -26.4975
 124   2.0000      -0.960604       -26.1394
 125   2.0000      -0.933917       -25.4132
 126   2.0000      -0.928827       -25.2747
 127   2.0000      -0.917897       -24.9772
 128   2.0000      -0.908995       -24.7350
 129   2.0000      -0.897860       -24.4320
 130   2.0000      -0.894159       -24.3313
 131   2.0000      -0.889802       -24.2127
 132   2.0000      -0.875273       -23.8174
 133   2.0000      -0.873092       -23.7580
 134   2.0000      -0.872738       -23.7484
 135   2.0000      -0.868242       -23.6261
 136   2.0000      -0.862092       -23.4587
 137   2.0000      -0.855415       -23.2770
 138   2.0000      -0.846343       -23.0302
 139   2.0000      -0.837513       -22.7899
 140   2.0000      -0.821402       -22.3515
 141   2.0000      -0.815896       -22.2017
 142   2.0000      -0.804109       -21.8809
 143   2.0000      -0.791636       -21.5415
 144   2.0000      -0.781927       -21.2773
 145   2.0000      -0.780869       -21.2485
 146   2.0000      -0.757021       -20.5996
 147   2.0000      -0.750649       -20.4262
 148   2.0000      -0.743164       -20.2225
 149   2.0000      -0.741065       -20.1654
 150   2.0000      -0.724840       -19.7239
 151   2.0000      -0.723106       -19.6767
 152   2.0000      -0.713569       -19.4172
 153   2.0000      -0.707344       -19.2478
 154   2.0000      -0.699364       -19.0307
 155   2.0000      -0.690145       -18.7798
 156   2.0000      -0.687810       -18.7162
 157   2.0000      -0.680807       -18.5257
 158   2.0000      -0.676824       -18.4173
 159   2.0000      -0.670011       -18.2319
 160   2.0000      -0.661736       -18.0067
 161   2.0000      -0.655838       -17.8462
 162   2.0000      -0.653567       -17.7845
 163   2.0000      -0.645837       -17.5741
 164   2.0000      -0.644451       -17.5364
 165   2.0000      -0.641469       -17.4553
 166   2.0000      -0.631702       -17.1895
 167   2.0000      -0.622070       -16.9274
 168   2.0000      -0.621590       -16.9143
 169   2.0000      -0.614169       -16.7124
 170   2.0000      -0.609013       -16.5721
 171   2.0000      -0.599330       -16.3086
 172   2.0000      -0.591443       -16.0940
 173   2.0000      -0.582486       -15.8503
 174   2.0000      -0.581403       -15.8208
 175   2.0000      -0.576965       -15.7000
 176   2.0000      -0.571282       -15.5454
 177   2.0000      -0.563758       -15.3406
 178   2.0000      -0.560816       -15.2606
 179   2.0000      -0.554844       -15.0981
 180   2.0000      -0.554268       -15.0824
 181   2.0000      -0.551591       -15.0095
 182   2.0000      -0.550172       -14.9709
 183   2.0000      -0.548771       -14.9328
 184   2.0000      -0.545121       -14.8335
 185   2.0000      -0.540427       -14.7058
 186   2.0000      -0.536045       -14.5865
 187   2.0000      -0.534219       -14.5368
 188   2.0000      -0.526408       -14.3243
 189   2.0000      -0.524274       -14.2662
 190   2.0000      -0.522281       -14.2120
 191   2.0000      -0.518272       -14.1029
 192   2.0000      -0.515818       -14.0361
 193   2.0000      -0.514487       -13.9999
 194   2.0000      -0.511943       -13.9307
 195   2.0000      -0.511243       -13.9116
 196   2.0000      -0.507114       -13.7993
 197   2.0000      -0.504601       -13.7309
 198   2.0000      -0.498818       -13.5735
 199   2.0000      -0.497336       -13.5332
 200   2.0000      -0.495917       -13.4946
 201   2.0000      -0.495407       -13.4807
 202   2.0000      -0.494184       -13.4474
 203   2.0000      -0.489431       -13.3181
 204   2.0000      -0.485482       -13.2106
 205   2.0000      -0.483862       -13.1665
 206   2.0000      -0.481259       -13.0957
 207   2.0000      -0.477992       -13.0068
 208   2.0000      -0.477190       -12.9850
 209   2.0000      -0.475628       -12.9425
 210   2.0000      -0.471832       -12.8392
 211   2.0000      -0.471271       -12.8239
 212   2.0000      -0.464051       -12.6275
 213   2.0000      -0.461040       -12.5455
 214   2.0000      -0.460409       -12.5284
 215   2.0000      -0.460030       -12.5180
 216   2.0000      -0.455652       -12.3989
 217   2.0000      -0.453367       -12.3367
 218   2.0000      -0.447558       -12.1787
 219   2.0000      -0.447178       -12.1683
 220   2.0000      -0.444805       -12.1038
 221   2.0000      -0.443243       -12.0613
 222   2.0000      -0.443124       -12.0580
 223   2.0000      -0.441915       -12.0251
 224   2.0000      -0.439418       -11.9572
 225   2.0000      -0.436142       -11.8680
 226   2.0000      -0.435039       -11.8380
 227   2.0000      -0.432702       -11.7744
 228   2.0000      -0.429061       -11.6753
 229   2.0000      -0.428736       -11.6665
 230   2.0000      -0.427542       -11.6340
 231   2.0000      -0.427172       -11.6239
 232   2.0000      -0.425095       -11.5674
 233   2.0000      -0.420953       -11.4547
 234   2.0000      -0.416509       -11.3338
 235   2.0000      -0.412140       -11.2149
 236   2.0000      -0.411524       -11.1981
 237   2.0000      -0.408022       -11.1028
 238   2.0000      -0.407361       -11.0849
 239   2.0000      -0.403525       -10.9805
 240   2.0000      -0.398053       -10.8316
 241   2.0000      -0.391695       -10.6586
 242   2.0000      -0.388057       -10.5596
 243   2.0000      -0.384713       -10.4686
 244   2.0000      -0.374711       -10.1964
 245   2.0000      -0.374023       -10.1777
 246   2.0000      -0.373046       -10.1511
 247   2.0000      -0.366391        -9.9700
 248   2.0000      -0.354496        -9.6463
 249   2.0000      -0.352977        -9.6050
 250   2.0000      -0.351561        -9.5665
 251   2.0000      -0.340791        -9.2734
 252   2.0000      -0.337728        -9.1900
 253   2.0000      -0.332150        -9.0383
 254   2.0000      -0.324716        -8.8360
 255   2.0000      -0.319387        -8.6910
 256   2.0000      -0.310385        -8.4460
 257   2.0000      -0.303354        -8.2547
 258   2.0000      -0.301407        -8.2017
 259   2.0000      -0.282084        -7.6759
 260   2.0000      -0.278706        -7.5840
 261   2.0000      -0.269733        -7.3398
 262   2.0000      -0.235200        -6.4001
 263   0.0000      -0.106561        -2.8997
 264   0.0000      -0.086433        -2.3520
 265   0.0000      -0.052265        -1.4222
 266   0.0000      -0.050621        -1.3775
 267   0.0000      -0.034137        -0.9289

MULLIKEN ATOMIC CHARGES
-----------------------
   0 C :   -0.080537
   1 C :    0.037775
   2 C :   -0.031180
   3 C :   -0.115811
   4 S :    0.190117
   5 C :   -0.089916
   6 C :    0.024964
   7 C :    0.294723
   8 C :   -0.293061
   9 C :   -0.189055
  10 N :    0.172355
  11 C :   -0.188490
  12 N :    0.177937
  13 C :   -0.059085
  14 C :   -0.096842
  15 S :    0.183550
  16 C :   -0.109124
  17 C :   -0.051964
  18 C :    0.114583
  19 O :   -0.147339
  20 O :   -0.163818
  21 C :    0.107951
  22 C :   -0.110278
  23 S :    0.165687
  24 C :   -0.168617
  25 C :    0.093402
  26 C :    0.094338
  27 O :   -0.188602
  28 O :   -0.154442
  29 C :    0.074711
  30 C :   -0.122257
  31 S :    0.179951
  32 C :   -0.103228
  33 C :   -0.027199
  34 C :    0.053218
  35 C :    0.071311
  36 C :   -0.129696
  37 S :    0.151607
  38 C :   -0.118678
  39 C :    0.059275
  40 C :   -0.010482
  41 C :   -0.065846
  42 S :    0.125824
  43 C :    0.095989
  44 C :   -0.003562
  45 C :   -0.023718
  46 C :   -0.029630
  47 C :   -0.085186
  48 C :    0.339811
  49 C :   -0.367080
  50 C :   -0.188698
  51 N :    0.134526
  52 C :   -0.191851
  53 N :    0.134483
  54 C :    0.012065
  55 C :   -0.002504
  56 C :    0.143394
  57 O :   -0.172771
  58 C :   -0.083276
  59 C :    0.119456
  60 C :   -0.089929
  61 C :   -0.028516
  62 S :    0.179220
  63 C :   -0.123852
  64 C :    0.036473
  65 Br:    0.014588
  66 H :    0.038826
  67 H :    0.013412
  68 H :    0.018416
  69 H :    0.189035
  70 H :    0.053181
  71 H :    0.197616
  72 H :    0.038090
  73 H :    0.017803
  74 H :    0.039505
  75 H :    0.015264
  76 H :    0.026487
  77 H :   -0.000316
  78 H :    0.001925
  79 H :    0.005345
  80 H :   -0.016385
  81 H :   -0.009467
  82 H :   -0.005906
Sum of atomic charges:   -0.0000000

LOEWDIN ATOMIC CHARGES
----------------------
   0 C :   -0.174678
   1 C :   -0.033693
   2 C :   -0.073586
   3 C :   -0.187609
   4 S :    0.484062
   5 C :   -0.175788
   6 C :   -0.072587
   7 C :    0.081753
   8 C :   -0.101334
   9 C :   -0.017113
  10 N :   -0.031733
  11 C :   -0.017298
  12 N :   -0.029990
  13 C :   -0.029337
  14 C :   -0.200645
  15 S :    0.499996
  16 C :   -0.176121
  17 C :   -0.119362
  18 C :    0.045421
  19 O :   -0.130790
  20 O :   -0.033631
  21 C :   -0.068626
  22 C :   -0.167195
  23 S :    0.481097
  24 C :   -0.141771
  25 C :   -0.087538
  26 C :    0.086199
  27 O :   -0.165028
  28 O :   -0.016310
  29 C :   -0.067153
  30 C :   -0.187071
  31 S :    0.495535
  32 C :   -0.156643
  33 C :   -0.018126
  34 C :    0.009406
  35 C :   -0.046817
  36 C :   -0.141505
  37 S :    0.476250
  38 C :   -0.206455
  39 C :   -0.032062
  40 C :   -0.059050
  41 C :   -0.162472
  42 S :    0.421514
  43 C :   -0.061424
  44 C :    0.047763
  45 C :   -0.055579
  46 C :    0.071443
  47 C :   -0.117889
  48 C :    0.076980
  49 C :   -0.156250
  50 C :   -0.018467
  51 N :   -0.068792
  52 C :   -0.020125
  53 N :   -0.067617
  54 C :   -0.018858
  55 C :   -0.048196
  56 C :    0.084902
  57 O :   -0.164110
  58 C :    0.016854
  59 C :   -0.035590
  60 C :   -0.145742
  61 C :   -0.012989
  62 S :    0.427057
  63 C :   -0.274541
  64 C :   -0.071399
  65 Br:    0.129645
  66 H :    0.028842
  67 H :    0.043148
  68 H :    0.036939
  69 H :    0.093554
  70 H :    0.034748
  71 H :    0.105408
  72 H :    0.023769
  73 H :    0.039373
  74 H :    0.037704
  75 H :    0.038944
  76 H :    0.024469
  77 H :    0.038162
  78 H :    0.028857
  79 H :    0.040799
  80 H :    0.038439
  81 H :    0.040105
  82 H :    0.037548

  Mayer bond orders larger than 0.100000
B(  0-C ,  1-C ) :   1.5467 B(  0-C ,  4-S ) :   1.1549 B(  0-C , 66-H ) :   0.9642
B(  1-C ,  2-C ) :   1.2793 B(  1-C , 67-H ) :   0.9957 B(  2-C ,  3-C ) :   1.4565
B(  2-C ,  7-C ) :   1.0154 B(  3-C ,  4-S ) :   1.1364 B(  3-C ,  5-C ) :   1.1741
B(  5-C ,  6-C ) :   1.4543 B(  5-C , 15-S ) :   1.1356 B(  6-C ,  7-C ) :   0.9902
B(  6-C , 13-C ) :   1.2920 B(  7-C ,  8-C ) :   1.7157 B(  8-C ,  9-C ) :   1.1314
B(  8-C , 11-C ) :   1.1291 B(  9-C , 10-N ) :   2.9906 B( 11-C , 12-N ) :   3.0031
B( 13-C , 14-C ) :   1.4628 B( 13-C , 68-H ) :   0.9905 B( 14-C , 15-S ) :   1.1131
B( 14-C , 16-C ) :   1.1192 B( 16-C , 17-C ) :   1.5204 B( 16-C , 23-S ) :   1.1685
B( 17-C , 18-C ) :   0.8816 B( 17-C , 21-C ) :   1.2818 B( 18-C , 19-O ) :   2.2037
B( 18-C , 20-O ) :   1.2025 B( 20-O , 69-H ) :   0.9476 B( 21-C , 22-C ) :   1.5629
B( 21-C , 24-C ) :   0.9949 B( 22-C , 23-S ) :   1.1549 B( 22-C , 70-H ) :   0.9599
B( 24-C , 25-C ) :   1.5651 B( 24-C , 31-S ) :   1.1929 B( 25-C , 26-C ) :   0.8909
B( 25-C , 29-C ) :   1.2669 B( 26-C , 27-O ) :   2.0775 B( 26-C , 28-O ) :   1.2925
B( 28-O , 71-H ) :   0.9406 B( 29-C , 30-C ) :   1.5444 B( 29-C , 32-C ) :   1.0370
B( 30-C , 31-S ) :   1.1727 B( 30-C , 72-H ) :   0.9628 B( 32-C , 33-C ) :   1.5662
B( 32-C , 37-S ) :   1.0795 B( 33-C , 34-C ) :   1.2349 B( 33-C , 73-H ) :   0.9482
B( 34-C , 35-C ) :   1.0714 B( 34-C , 43-C ) :   1.3400 B( 35-C , 36-C ) :   1.5806
B( 35-C , 38-C ) :   1.1737 B( 36-C , 37-S ) :   1.1490 B( 36-C , 74-H ) :   0.9416
B( 38-C , 39-C ) :   1.4588 B( 38-C , 42-S ) :   1.0780 B( 39-C , 40-C ) :   1.2243
B( 39-C , 43-C ) :   1.0619 B( 40-C , 41-C ) :   1.5845 B( 40-C , 75-H ) :   0.9974
B( 41-C , 42-S ) :   1.1554 B( 41-C , 76-H ) :   0.9630 B( 43-C , 44-C ) :   1.1893
B( 44-C , 45-C ) :   1.4517 B( 44-C , 77-H ) :   0.9782 B( 45-C , 46-C ) :   1.2285
B( 45-C , 78-H ) :   0.9962 B( 46-C , 47-C ) :   1.4386 B( 46-C , 79-H ) :   0.9681
B( 47-C , 48-C ) :   1.0955 B( 47-C , 56-C ) :   0.9700 B( 48-C , 49-C ) :   1.5933
B( 48-C , 54-C ) :   0.9917 B( 49-C , 50-C ) :   1.1472 B( 49-C , 52-C ) :   1.1527
B( 50-C , 51-N ) :   2.9618 B( 52-C , 53-N ) :   2.9605 B( 54-C , 55-C ) :   1.2804
B( 54-C , 61-C ) :   1.4146 B( 55-C , 56-C ) :   0.9390 B( 55-C , 58-C ) :   1.4240
B( 56-C , 57-O ) :   2.1728 B( 58-C , 59-C ) :   1.2386 B( 58-C , 80-H ) :   1.0180
B( 59-C , 60-C ) :   1.3161 B( 59-C , 64-C ) :   1.1596 B( 60-C , 61-C ) :   1.3219
B( 60-C , 62-S ) :   1.0816 B( 61-C , 81-H ) :   0.9803 B( 62-S , 63-C ) :   1.0859
B( 63-C , 64-C ) :   1.6202 B( 63-C , 65-Br) :   1.0137 B( 64-C , 82-H ) :   1.0007

-----------------------------------------------------------------------------
         ABSORPTION SPECTRUM VIA TRANSITION ELECTRIC DIPOLE MOMENTS
-----------------------------------------------------------------------------
State   Energy  Wavelength   fosc         T2         TX        TY        TZ
        (cm-1)    (nm)                  (au**2)     (au)      (au)      (au)
-----------------------------------------------------------------------------
   0   15398.1    649.4   0.075542416   1.61510   0.91544   0.08217   0.87768
   1   16967.6    589.4   1.208113986  23.44028  -4.33071   2.16243   0.09554
   2   20410.0    490.0   0.000222066   0.00358   0.01191   0.01618   0.05638
   3   23309.9    429.0   0.160866452   2.27196  -0.60156   0.23000   1.36279
   4   25061.9    399.0   0.172475303   2.26563   1.33383  -0.66199   0.21977
   5   25478.8    392.5   0.130853298   1.69076   0.74678  -0.33214  -1.01132
   6   28037.9    356.7   0.420814826   4.94107   1.60173  -0.90284   1.24915
   7   28729.9    348.1   0.156325961   1.79132   0.51223   0.26590   1.20757
   8   29119.4    343.4   0.000639282   0.00723   0.05938  -0.04210   0.04392
   9   29215.6    342.3   0.013774300   0.15521  -0.25798   0.15164  -0.25625
  10   29671.5    337.0   0.586727013   6.50986   0.83564   0.49479   2.35940
  11   30063.7    332.6   0.249436896   2.73145   0.64496   0.35555   1.47955
  12   30271.0    330.3   0.056906008   0.61888   0.59633  -0.51002  -0.05611
  13   30800.5    324.7   0.118131734   1.26266   0.05538  -0.16062  -1.11076
  14   30943.5    323.2   0.034848183   0.37075   0.17681  -0.12318   0.56949
  15   31191.6    320.6   0.015717045   0.16589  -0.31338   0.14225   0.21781
  16   31597.5    316.5   0.033103485   0.34490  -0.30896   0.49728   0.04647
  17   31620.6    316.2   0.829600382   8.63722  -2.79599   0.41821   0.80297
  18   31943.5    313.1   0.000935833   0.00964  -0.06895   0.06504  -0.02570
  19   32099.3    311.5   0.004455434   0.04570  -0.19237  -0.02628  -0.08943
  20   33471.5    298.8   0.022694279   0.22321  -0.13400  -0.09385  -0.44322
  21   33594.0    297.7   0.554234576   5.43134   1.38570  -0.95733   1.61081
  22   33990.9    294.2   0.332334339   3.21875  -0.39662  -0.46334  -1.68724
  23   34683.6    288.3   0.030604190   0.29049   0.05744  -0.13645   0.51824
  24   35376.8    282.7   0.094310914   0.87764   0.71186  -0.34511   0.50180
  25   35919.5    278.4   0.000096444   0.00088  -0.01128   0.00731   0.02652
  26   36161.1    276.5   0.066315322   0.60374   0.11192  -0.11159  -0.76076
  27   36564.1    273.5   0.080085746   0.72107  -0.56499   0.37944  -0.50782
  28   37264.3    268.4   0.000345478   0.00305  -0.04276   0.02165   0.02748
  29   37466.2    266.9   0.075181274   0.66061  -0.78493   0.21090  -0.00412
  30   38072.0    262.7   0.315479079   2.72798  -0.47561   0.15607  -1.57398
  31   38237.8    261.5   0.253400277   2.18167  -0.40389   0.31301  -1.38585
  32   38426.9    260.2   0.082782647   0.70922  -0.30747   0.64675   0.44316
  33   38783.3    257.8   0.257883214   2.18904   0.92348  -0.42773  -1.07390
  34   39152.7    255.4   0.006151465   0.05172   0.22166  -0.03884   0.03291
  35   39214.1    255.0   0.029061068   0.24397   0.48094  -0.10391   0.04332
  36   39310.5    254.4   0.035927977   0.30088  -0.45735   0.26411   0.14818
  37   39616.4    252.4   0.094367240   0.78419   0.04267   0.01525  -0.88439
  38   40175.6    248.9   0.000012638   0.00010  -0.00422   0.00323   0.00868

FINAL SINGLE POINT ENERGY     -7829.847179017712

DIPOLE MOMENT
-------------
                                X             Y             Z
Electronic contribution:   -109.99626      53.48548     -42.39270
Nuclear contribution   :    113.93966     -54.99775      41.17459
                        -----------------------------------------
Total Dipole Moment    :      3.94341      -1.51227      -1.21811
                        -----------------------------------------
Magnitude (a.u.)       :      4.39559
Magnitude (Debye)      :     11.17270

Rotational constants in cm-1:     0.001133     0.000257     0.000213
Rotational constants in MHz :    33.979997     7.700618     6.398676

                             ****ORCA TERMINATED NORMALLY****
TOTAL RUN TIME: 0 days 0 hours 11 minutes 54 seconds 164 msec
