                         Program Version 4.2.0 -  RELEASE  -
|  1> # ORCA input file
|  2> # SCF done       -159.056451283324          0.000240728135
|  3> ! CAM-B3LYP def2-SVP def2/J RIJCOSX Grid4 TightSCF
|  4> %maxcore 5000
|  5> %tddft
|  6>     Mode sTDDFT
|  7>     Ethresh 5.0
|  8>     maxcore 5000
|  9> end
| 10>
| 11> %pal
| 12>   nprocs 6
| 13>   end
| 14> * xyz 0 1
| 15>    C        2.06050        -2.69859       -10.31288
| 16>    C        1.92232        -2.03838       -11.49327
| 17>    C        2.30552        -0.68680       -11.37722
| 18>    C        2.73227        -0.36198       -10.07673
| 19>    S        2.66042        -1.70330        -9.01999
| 20>    C        3.09735         1.00317       -10.04313
| 21>    C        2.90079         1.54582       -11.32848
| 22>    C        2.39561         0.48948       -12.20523
| 23>    C        2.08154         0.60866       -13.53172
| 24>    C        2.21878         1.82363       -14.22991
| 25>    N        2.32867         2.80974       -14.80695
| 26>    C        1.59946        -0.47674       -14.28910
| 27>    N        1.20681        -1.35620       -14.91312
| 28>    C        3.22911         2.88770       -11.40686
| 29>    C        3.68335         3.39632       -10.18533
| 30>    S        3.69171         2.16054        -8.93046
| 31>    C        4.08837         4.71632        -9.96085
| 32>    C        4.54688         5.26861        -8.78795
| 33>    C        4.95179         6.61255        -8.60612
| 34>    C        5.37097         6.90727        -7.34268
| 35>    C        5.31893         5.81177        -6.45662
| 36>    S        4.71801         4.38940        -7.28162
| 37>    C        5.67128         5.77307        -5.11867
| 38>    C        6.17304         6.81636        -4.31458
| 39>    C        6.42529         6.44539        -3.02763
| 40>    C        6.13794         5.08810        -2.73346
| 41>    S        5.52862         4.30453        -4.18092
| 42>    C        6.32504         4.51445        -1.49930
| 43>    C        6.08327         3.19352        -1.05682
| 44>    C        5.55349         2.14863        -1.84226
| 45>    C        5.35409         0.90738        -1.31082
| 46>    F        4.84008        -0.04719        -2.11913
| 47>    C        5.65171         0.55854         0.02930
| 48>    C        6.18368         1.60274         0.81411
| 49>    C        6.37954         2.84533         0.28352
| 50>    F        6.88916         3.80151         1.09255
| 51>    C        5.39885        -0.75958         0.47297
| 52>    C        5.61138        -1.34312         1.69851
| 53>    C        5.29001        -2.69229         1.99691
| 54>    C        5.58217        -3.08009         3.26993
| 55>    C        6.15626        -2.06167         4.05744
| 56>    S        6.30743        -0.59037         3.12148
| 57>    C        6.57004        -2.12574         5.37554
| 58>    C        6.50778        -3.22789         6.25502
| 59>    C        7.00375        -2.96782         7.49680
| 60>    C        7.48701        -1.64752         7.66900
| 61>    S        7.28003        -0.74335         6.17979
| 62>    C        8.03981        -1.13806         8.81822
| 63>    C        8.53509         0.15424         9.03771
| 64>    C        9.09693         0.62313        10.22557
| 65>    C        9.50755         1.94365        10.16660
| 66>    C        9.26176         2.51227         8.91668
| 67>    S        8.52508         1.41209         7.81818
| 68>    C        9.63493         3.86572         8.72525
| 69>    C       10.21881         4.53710         9.78850
| 70>   Ge       10.35179         3.30471        11.31669
| 71>    C        9.23668         3.82773        12.87330
| 72>    C       12.21925         2.86034        11.82187
| 73>    C       10.53385         5.86347         9.45582
| 74>    C       10.19410         6.17948         8.17426
| 75>    S        9.47607         4.86471         7.32646
| 76>    H        1.84656        -3.72780       -10.10493
| 77>    H        1.56470        -2.49798       -12.39660
| 78>    H        3.15507         3.49618       -12.28998
| 79>    H        4.03312         5.37530       -10.81799
| 80>    H        4.92061         7.31878        -9.41699
| 81>    H        5.71299         7.87734        -7.02973
| 82>    H        6.33542         7.80606        -4.70195
| 83>    H        6.81142         7.10678        -2.27211
| 84>    H        6.72252         5.18531        -0.74741
| 85>    H        5.29393         2.31203        -2.87439
| 86>    H        6.44103         1.43942         1.84688
| 87>    H        4.96772        -1.41951        -0.26983
| 88>    H        4.84948        -3.33431         1.25463
| 89>    H        5.40186        -4.06645         3.65798
| 90>    H        6.10157        -4.17601         5.95169
| 91>    H        7.03978        -3.68356         8.29934
| 92>    H        8.10636        -1.81352         9.66238
| 93>    H        9.19339        -0.00204        11.09660
| 94>    H        8.22607         4.06007        12.55300
| 95>    H        9.65787         4.70220        13.35946
| 96>    H        9.19634         3.01762        13.59482
| 97>    H       12.78951         2.57529        10.94351
| 98>    H       12.23224         2.03645        12.52859
| 99>    H       12.69698         3.71879        12.28368
|100>    H       10.99339         6.55987        10.13548
|101>    H       10.32164         7.11532         7.66593
|102> *
|103>
|104>                          ****END OF INPUT****

CARTESIAN COORDINATES (ANGSTROEM)
---------------------------------
  C      2.060500   -2.698590  -10.312880
  C      1.922320   -2.038380  -11.493270
  C      2.305520   -0.686800  -11.377220
  C      2.732270   -0.361980  -10.076730
  S      2.660420   -1.703300   -9.019990
  C      3.097350    1.003170  -10.043130
  C      2.900790    1.545820  -11.328480
  C      2.395610    0.489480  -12.205230
  C      2.081540    0.608660  -13.531720
  C      2.218780    1.823630  -14.229910
  N      2.328670    2.809740  -14.806950
  C      1.599460   -0.476740  -14.289100
  N      1.206810   -1.356200  -14.913120
  C      3.229110    2.887700  -11.406860
  C      3.683350    3.396320  -10.185330
  S      3.691710    2.160540   -8.930460
  C      4.088370    4.716320   -9.960850
  C      4.546880    5.268610   -8.787950
  C      4.951790    6.612550   -8.606120
  C      5.370970    6.907270   -7.342680
  C      5.318930    5.811770   -6.456620
  S      4.718010    4.389400   -7.281620
  C      5.671280    5.773070   -5.118670
  C      6.173040    6.816360   -4.314580
  C      6.425290    6.445390   -3.027630
  C      6.137940    5.088100   -2.733460
  S      5.528620    4.304530   -4.180920
  C      6.325040    4.514450   -1.499300
  C      6.083270    3.193520   -1.056820
  C      5.553490    2.148630   -1.842260
  C      5.354090    0.907380   -1.310820
  F      4.840080   -0.047190   -2.119130
  C      5.651710    0.558540    0.029300
  C      6.183680    1.602740    0.814110
  C      6.379540    2.845330    0.283520
  F      6.889160    3.801510    1.092550
  C      5.398850   -0.759580    0.472970
  C      5.611380   -1.343120    1.698510
  C      5.290010   -2.692290    1.996910
  C      5.582170   -3.080090    3.269930
  C      6.156260   -2.061670    4.057440
  S      6.307430   -0.590370    3.121480
  C      6.570040   -2.125740    5.375540
  C      6.507780   -3.227890    6.255020
  C      7.003750   -2.967820    7.496800
  C      7.487010   -1.647520    7.669000
  S      7.280030   -0.743350    6.179790
  C      8.039810   -1.138060    8.818220
  C      8.535090    0.154240    9.037710
  C      9.096930    0.623130   10.225570
  C      9.507550    1.943650   10.166600
  C      9.261760    2.512270    8.916680
  S      8.525080    1.412090    7.818180
  C      9.634930    3.865720    8.725250
  C     10.218810    4.537100    9.788500
  Ge    10.351790    3.304710   11.316690
  C      9.236680    3.827730   12.873300
  C     12.219250    2.860340   11.821870
  C     10.533850    5.863470    9.455820
  C     10.194100    6.179480    8.174260
  S      9.476070    4.864710    7.326460
  H      1.846560   -3.727800  -10.104930
  H      1.564700   -2.497980  -12.396600
  H      3.155070    3.496180  -12.289980
  H      4.033120    5.375300  -10.817990
  H      4.920610    7.318780   -9.416990
  H      5.712990    7.877340   -7.029730
  H      6.335420    7.806060   -4.701950
  H      6.811420    7.106780   -2.272110
  H      6.722520    5.185310   -0.747410
  H      5.293930    2.312030   -2.874390
  H      6.441030    1.439420    1.846880
  H      4.967720   -1.419510   -0.269830
  H      4.849480   -3.334310    1.254630
  H      5.401860   -4.066450    3.657980
  H      6.101570   -4.176010    5.951690
  H      7.039780   -3.683560    8.299340
  H      8.106360   -1.813520    9.662380
  H      9.193390   -0.002040   11.096600
  H      8.226070    4.060070   12.553000
  H      9.657870    4.702200   13.359460
  H      9.196340    3.017620   13.594820
  H     12.789510    2.575290   10.943510
  H     12.232240    2.036450   12.528590
  H     12.696980    3.718790   12.283680
  H     10.993390    6.559870   10.135480
  H     10.321640    7.115320    7.665930

 Total Charge           Charge          ....    0
 Multiplicity           Mult            ....    1
 Number of Electrons    NEL             ....  506
 Basis Dimension        Dim             .... 1034

ORBITAL ENERGIES
----------------

  NO   OCC          E(Eh)            E(eV)
   0   2.0000    -398.767993    -10851.0287
   1   2.0000     -88.975013     -2421.1332
   2   2.0000     -88.974598     -2421.1219
   3   2.0000     -88.954881     -2420.5854
   4   2.0000     -88.951473     -2420.4926
   5   2.0000     -88.948628     -2420.4152
   6   2.0000     -88.947840     -2420.3938
   7   2.0000     -88.943636     -2420.2794
   8   2.0000     -88.943528     -2420.2764
   9   2.0000     -49.827541     -1355.8763
  10   2.0000     -44.364748     -1207.2262
  11   2.0000     -44.364018     -1207.2063
  12   2.0000     -44.363716     -1207.1981
  13   2.0000     -24.774655      -674.1526
  14   2.0000     -24.773612      -674.1243
  15   2.0000     -14.417992      -392.3335
  16   2.0000     -14.417536      -392.3211
  17   2.0000     -10.351136      -281.6687
  18   2.0000     -10.349453      -281.6229
  19   2.0000     -10.349241      -281.6172
  20   2.0000     -10.338278      -281.3188
  21   2.0000     -10.318971      -280.7935
  22   2.0000     -10.318469      -280.7798
  23   2.0000     -10.318317      -280.7757
  24   2.0000     -10.312507      -280.6176
  25   2.0000     -10.311377      -280.5868
  26   2.0000     -10.311190      -280.5818
  27   2.0000     -10.310448      -280.5616
  28   2.0000     -10.309475      -280.5351
  29   2.0000     -10.309133      -280.5258
  30   2.0000     -10.307854      -280.4910
  31   2.0000     -10.305981      -280.4400
  32   2.0000     -10.304586      -280.4020
  33   2.0000     -10.302554      -280.3467
  34   2.0000     -10.299343      -280.2594
  35   2.0000     -10.298518      -280.2369
  36   2.0000     -10.297015      -280.1960
  37   2.0000     -10.295229      -280.1474
  38   2.0000     -10.289792      -279.9995
  39   2.0000     -10.288953      -279.9766
  40   2.0000     -10.288875      -279.9745
  41   2.0000     -10.287298      -279.9316
  42   2.0000     -10.287051      -279.9249
  43   2.0000     -10.286706      -279.9155
  44   2.0000     -10.286692      -279.9151
  45   2.0000     -10.286279      -279.9039
  46   2.0000     -10.285564      -279.8844
  47   2.0000     -10.285381      -279.8794
  48   2.0000     -10.285370      -279.8792
  49   2.0000     -10.284926      -279.8671
  50   2.0000     -10.284424      -279.8534
  51   2.0000     -10.284415      -279.8532
  52   2.0000     -10.283625      -279.8317
  53   2.0000     -10.282398      -279.7983
  54   2.0000     -10.281346      -279.7696
  55   2.0000     -10.278857      -279.7019
  56   2.0000     -10.276349      -279.6337
  57   2.0000     -10.274592      -279.5859
  58   2.0000     -10.273378      -279.5528
  59   2.0000     -10.272647      -279.5329
  60   2.0000     -10.267356      -279.3890
  61   2.0000     -10.258256      -279.1413
  62   2.0000     -10.257986      -279.1340
  63   2.0000     -10.256612      -279.0966
  64   2.0000     -10.255119      -279.0560
  65   2.0000      -8.069604      -219.5851
  66   2.0000      -8.069059      -219.5702
  67   2.0000      -8.049937      -219.0499
  68   2.0000      -8.047202      -218.9755
  69   2.0000      -8.044821      -218.9107
  70   2.0000      -8.043712      -218.8805
  71   2.0000      -8.039668      -218.7705
  72   2.0000      -8.039460      -218.7648
  73   2.0000      -6.287441      -171.0900
  74   2.0000      -6.038841      -164.3252
  75   2.0000      -6.038358      -164.3121
  76   2.0000      -6.034470      -164.2063
  77   2.0000      -6.034102      -164.1963
  78   2.0000      -6.032173      -164.1438
  79   2.0000      -6.031457      -164.1243
  80   2.0000      -6.019147      -163.7893
  81   2.0000      -6.016440      -163.7157
  82   2.0000      -6.015120      -163.6797
  83   2.0000      -6.014542      -163.6640
  84   2.0000      -6.013464      -163.6347
  85   2.0000      -6.012166      -163.5994
  86   2.0000      -6.012139      -163.5986
  87   2.0000      -6.010455      -163.5528
  88   2.0000      -6.009583      -163.5291
  89   2.0000      -6.009437      -163.5251
  90   2.0000      -6.009381      -163.5236
  91   2.0000      -6.009207      -163.5188
  92   2.0000      -6.005782      -163.4256
  93   2.0000      -6.005312      -163.4128
  94   2.0000      -6.005131      -163.4079
  95   2.0000      -6.004701      -163.3962
  96   2.0000      -6.000566      -163.2837
  97   2.0000      -6.000466      -163.2810
  98   2.0000      -4.463640      -121.4618
  99   2.0000      -4.462569      -121.4327
 100   2.0000      -4.461655      -121.4078
 101   2.0000      -1.287669       -35.0392
 102   2.0000      -1.287545       -35.0359
 103   2.0000      -1.286502       -35.0075
 104   2.0000      -1.285767       -34.9875
 105   2.0000      -1.285419       -34.9780
 106   2.0000      -1.284438       -34.9513
 107   2.0000      -1.283927       -34.9374
 108   2.0000      -1.028506       -27.9871
 109   2.0000      -1.008655       -27.4469
 110   2.0000      -0.997388       -27.1403
 111   2.0000      -0.995103       -27.0781
 112   2.0000      -0.994104       -27.0510
 113   2.0000      -0.987623       -26.8746
 114   2.0000      -0.981983       -26.7211
 115   2.0000      -0.973314       -26.4852
 116   2.0000      -0.971769       -26.4432
 117   2.0000      -0.961629       -26.1673
 118   2.0000      -0.958204       -26.0740
 119   2.0000      -0.942856       -25.6564
 120   2.0000      -0.906897       -24.6779
 121   2.0000      -0.900995       -24.5173
 122   2.0000      -0.890449       -24.2303
 123   2.0000      -0.878431       -23.9033
 124   2.0000      -0.865005       -23.5380
 125   2.0000      -0.855080       -23.2679
 126   2.0000      -0.849478       -23.1155
 127   2.0000      -0.845849       -23.0167
 128   2.0000      -0.840767       -22.8784
 129   2.0000      -0.837831       -22.7986
 130   2.0000      -0.834173       -22.6990
 131   2.0000      -0.832635       -22.6572
 132   2.0000      -0.828813       -22.5531
 133   2.0000      -0.822916       -22.3927
 134   2.0000      -0.819342       -22.2954
 135   2.0000      -0.811788       -22.0899
 136   2.0000      -0.807035       -21.9605
 137   2.0000      -0.790452       -21.5093
 138   2.0000      -0.785819       -21.3832
 139   2.0000      -0.772176       -21.0120
 140   2.0000      -0.763888       -20.7864
 141   2.0000      -0.763274       -20.7697
 142   2.0000      -0.754334       -20.5265
 143   2.0000      -0.739234       -20.1156
 144   2.0000      -0.719823       -19.5874
 145   2.0000      -0.708786       -19.2870
 146   2.0000      -0.699639       -19.0381
 147   2.0000      -0.690160       -18.7802
 148   2.0000      -0.683349       -18.5949
 149   2.0000      -0.673509       -18.3271
 150   2.0000      -0.670870       -18.2553
 151   2.0000      -0.669704       -18.2236
 152   2.0000      -0.666404       -18.1338
 153   2.0000      -0.655131       -17.8270
 154   2.0000      -0.642170       -17.4743
 155   2.0000      -0.638314       -17.3694
 156   2.0000      -0.629329       -17.1249
 157   2.0000      -0.626918       -17.0593
 158   2.0000      -0.623241       -16.9593
 159   2.0000      -0.621396       -16.9090
 160   2.0000      -0.616066       -16.7640
 161   2.0000      -0.610424       -16.6105
 162   2.0000      -0.607197       -16.5227
 163   2.0000      -0.605257       -16.4699
 164   2.0000      -0.603912       -16.4333
 165   2.0000      -0.599429       -16.3113
 166   2.0000      -0.597585       -16.2611
 167   2.0000      -0.594804       -16.1854
 168   2.0000      -0.587066       -15.9749
 169   2.0000      -0.579573       -15.7710
 170   2.0000      -0.570430       -15.5222
 171   2.0000      -0.559933       -15.2366
 172   2.0000      -0.551454       -15.0058
 173   2.0000      -0.549908       -14.9638
 174   2.0000      -0.541724       -14.7411
 175   2.0000      -0.538427       -14.6514
 176   2.0000      -0.535590       -14.5742
 177   2.0000      -0.531683       -14.4678
 178   2.0000      -0.531592       -14.4654
 179   2.0000      -0.528163       -14.3721
 180   2.0000      -0.526333       -14.3223
 181   2.0000      -0.525235       -14.2924
 182   2.0000      -0.510149       -13.8819
 183   2.0000      -0.509350       -13.8601
 184   2.0000      -0.507085       -13.7985
 185   2.0000      -0.500868       -13.6293
 186   2.0000      -0.499766       -13.5993
 187   2.0000      -0.497811       -13.5461
 188   2.0000      -0.495788       -13.4911
 189   2.0000      -0.491838       -13.3836
 190   2.0000      -0.490581       -13.3494
 191   2.0000      -0.490526       -13.3479
 192   2.0000      -0.488772       -13.3002
 193   2.0000      -0.486584       -13.2406
 194   2.0000      -0.485487       -13.2108
 195   2.0000      -0.483548       -13.1580
 196   2.0000      -0.482701       -13.1350
 197   2.0000      -0.479821       -13.0566
 198   2.0000      -0.478811       -13.0291
 199   2.0000      -0.475087       -12.9278
 200   2.0000      -0.473455       -12.8834
 201   2.0000      -0.471951       -12.8425
 202   2.0000      -0.470770       -12.8103
 203   2.0000      -0.465905       -12.6779
 204   2.0000      -0.464806       -12.6480
 205   2.0000      -0.462251       -12.5785
 206   2.0000      -0.458975       -12.4893
 207   2.0000      -0.456009       -12.4086
 208   2.0000      -0.454799       -12.3757
 209   2.0000      -0.452884       -12.3236
 210   2.0000      -0.449900       -12.2424
 211   2.0000      -0.448753       -12.2112
 212   2.0000      -0.445596       -12.1253
 213   2.0000      -0.442084       -12.0297
 214   2.0000      -0.439543       -11.9606
 215   2.0000      -0.438351       -11.9281
 216   2.0000      -0.437187       -11.8965
 217   2.0000      -0.432886       -11.7794
 218   2.0000      -0.431186       -11.7332
 219   2.0000      -0.428247       -11.6532
 220   2.0000      -0.427734       -11.6392
 221   2.0000      -0.426728       -11.6119
 222   2.0000      -0.425837       -11.5876
 223   2.0000      -0.421027       -11.4567
 224   2.0000      -0.416376       -11.3302
 225   2.0000      -0.412345       -11.2205
 226   2.0000      -0.411810       -11.2059
 227   2.0000      -0.408041       -11.1034
 228   2.0000      -0.401062       -10.9134
 229   2.0000      -0.392562       -10.6822
 230   2.0000      -0.389587       -10.6012
 231   2.0000      -0.389368       -10.5952
 232   2.0000      -0.379942       -10.3388
 233   2.0000      -0.373329       -10.1588
 234   2.0000      -0.368177       -10.0186
 235   2.0000      -0.358590        -9.7577
 236   2.0000      -0.358417        -9.7530
 237   2.0000      -0.344197        -9.3661
 238   2.0000      -0.340796        -9.2735
 239   2.0000      -0.335547        -9.1307
 240   2.0000      -0.332950        -9.0600
 241   2.0000      -0.327435        -8.9099
 242   2.0000      -0.324536        -8.8311
 243   2.0000      -0.316641        -8.6162
 244   2.0000      -0.314600        -8.5607
 245   2.0000      -0.313879        -8.5411
 246   2.0000      -0.313220        -8.5231
 247   2.0000      -0.307144        -8.3578
 248   2.0000      -0.296870        -8.0782
 249   2.0000      -0.270072        -7.3490
 250   2.0000      -0.253263        -6.8916
 251   2.0000      -0.216153        -5.8818
 252   2.0000      -0.194499        -5.2926
 253   0.0000      -0.098244        -2.6733
 254   0.0000      -0.083099        -2.2612
 255   0.0000      -0.062784        -1.7084
 256   0.0000      -0.023825        -0.6483
 257   0.0000      -0.005304        -0.1443

MULLIKEN ATOMIC CHARGES
-----------------------
   0 C :   -0.086694
   1 C :    0.039397
   2 C :   -0.042446
   3 C :   -0.107971
   4 S :    0.174869
   5 C :   -0.099293
   6 C :    0.034196
   7 C :    0.301047
   8 C :   -0.305596
   9 C :   -0.185587
  10 N :    0.162349
  11 C :   -0.190616
  12 N :    0.168039
  13 C :   -0.056322
  14 C :   -0.050170
  15 S :    0.157229
  16 C :   -0.014460
  17 C :   -0.030958
  18 C :    0.032054
  19 C :    0.028172
  20 C :   -0.032245
  21 S :    0.055350
  22 C :   -0.029514
  23 C :    0.024948
  24 C :    0.036970
  25 C :   -0.009096
  26 S :    0.055117
  27 C :   -0.027694
  28 C :    0.003910
  29 C :   -0.084031
  30 C :    0.250623
  31 F :   -0.196505
  32 C :    0.014952
  33 C :   -0.088271
  34 C :    0.255736
  35 F :   -0.195258
  36 C :   -0.042923
  37 C :   -0.000208
  38 C :    0.027854
  39 C :    0.031174
  40 C :   -0.040685
  41 S :    0.054219
  42 C :   -0.026804
  43 C :    0.021836
  44 C :    0.038583
  45 C :   -0.041483
  46 S :    0.063693
  47 C :    0.007978
  48 C :   -0.064087
  49 C :   -0.035306
  50 C :   -0.073740
  51 C :   -0.072720
  52 S :    0.122239
  53 C :   -0.123816
  54 C :   -0.103243
  55 Ge:    0.447373
  56 C :   -0.194707
  57 C :   -0.192368
  58 C :    0.017517
  59 C :   -0.078960
  60 S :    0.139576
  61 H :    0.031881
  62 H :    0.008523
  63 H :    0.003674
  64 H :   -0.005062
  65 H :   -0.009898
  66 H :   -0.013604
  67 H :   -0.013855
  68 H :   -0.009272
  69 H :   -0.006573
  70 H :   -0.006686
  71 H :   -0.004888
  72 H :   -0.010373
  73 H :   -0.012523
  74 H :   -0.015360
  75 H :   -0.016521
  76 H :   -0.013038
  77 H :   -0.013362
  78 H :   -0.025616
  79 H :    0.056230
  80 H :    0.042978
  81 H :    0.043102
  82 H :    0.056068
  83 H :    0.042846
  84 H :    0.042841
  85 H :   -0.017273
  86 H :    0.022537
Sum of atomic charges:   -0.0000000

LOEWDIN ATOMIC CHARGES
----------------------
   0 C :   -0.183678
   1 C :   -0.034028
   2 C :   -0.086622
   3 C :   -0.173499
   4 S :    0.469025
   5 C :   -0.199647
   6 C :   -0.065478
   7 C :    0.085818
   8 C :   -0.111401
   9 C :   -0.015601
  10 N :   -0.042639
  11 C :   -0.016500
  12 N :   -0.040097
  13 C :   -0.029248
  14 C :   -0.163634
  15 S :    0.465222
  16 C :   -0.073543
  17 C :   -0.154912
  18 C :   -0.033042
  19 C :   -0.035416
  20 C :   -0.181302
  21 S :    0.366446
  22 C :   -0.172835
  23 C :   -0.039808
  24 C :   -0.024120
  25 C :   -0.146222
  26 S :    0.385724
  27 C :   -0.044786
  28 C :   -0.058041
  29 C :   -0.048569
  30 C :    0.087661
  31 F :   -0.073053
  32 C :   -0.045588
  33 C :   -0.052846
  34 C :    0.092669
  35 F :   -0.071872
  36 C :   -0.065168
  37 C :   -0.136028
  38 C :   -0.035935
  39 C :   -0.032568
  40 C :   -0.187502
  41 S :    0.384130
  42 C :   -0.169240
  43 C :   -0.044868
  44 C :   -0.025712
  45 C :   -0.166343
  46 S :    0.368453
  47 C :   -0.058545
  48 C :   -0.179783
  49 C :   -0.049499
  50 C :   -0.172519
  51 C :   -0.186500
  52 S :    0.433557
  53 C :   -0.198815
  54 C :   -0.172667
  55 Ge:    0.513577
  56 C :   -0.202503
  57 C :   -0.202053
  58 C :   -0.065158
  59 C :   -0.187957
  60 S :    0.435218
  61 H :    0.025417
  62 H :    0.041392
  63 H :    0.039508
  64 H :    0.043605
  65 H :    0.034307
  66 H :    0.032309
  67 H :    0.032138
  68 H :    0.034857
  69 H :    0.037310
  70 H :    0.022476
  71 H :    0.023363
  72 H :    0.035387
  73 H :    0.033266
  74 H :    0.031670
  75 H :    0.030827
  76 H :    0.033036
  77 H :    0.040188
  78 H :    0.026768
  79 H :    0.040876
  80 H :    0.035539
  81 H :    0.035393
  82 H :    0.040892
  83 H :    0.035211
  84 H :    0.035401
  85 H :    0.027716
  86 H :    0.021041

  Mayer bond orders larger than 0.100000
B(  0-C ,  1-C ) :   1.5595 B(  0-C ,  4-S ) :   1.1333 B(  0-C , 61-H ) :   0.9639
B(  1-C ,  2-C ) :   1.2680 B(  1-C , 62-H ) :   0.9951 B(  2-C ,  3-C ) :   1.4284
B(  2-C ,  7-C ) :   1.0396 B(  3-C ,  4-S ) :   1.1389 B(  3-C ,  5-C ) :   1.2092
B(  5-C ,  6-C ) :   1.4153 B(  5-C , 15-S ) :   1.1140 B(  6-C ,  7-C ) :   0.9801
B(  6-C , 13-C ) :   1.3231 B(  7-C ,  8-C ) :   1.6962 B(  8-C ,  9-C ) :   1.1360
B(  8-C , 11-C ) :   1.1344 B(  9-C , 10-N ) :   2.9881 B( 11-C , 12-N ) :   3.0007
B( 13-C , 14-C ) :   1.3684 B( 13-C , 63-H ) :   1.0058 B( 14-C , 15-S ) :   1.0927
B( 14-C , 16-C ) :   1.2105 B( 16-C , 17-C ) :   1.5358 B( 16-C , 64-H ) :   0.9706
B( 17-C , 18-C ) :   1.1547 B( 17-C , 21-S ) :   1.0368 B( 18-C , 19-C ) :   1.5785
B( 18-C , 65-H ) :   1.0012 B( 19-C , 20-C ) :   1.1964 B( 19-C , 66-H ) :   0.9928
B( 20-C , 21-S ) :   1.0398 B( 20-C , 22-C ) :   1.4958 B( 22-C , 23-C ) :   1.1935
B( 22-C , 26-S ) :   1.0458 B( 23-C , 24-C ) :   1.5796 B( 23-C , 67-H ) :   0.9933
B( 24-C , 25-C ) :   1.1544 B( 24-C , 68-H ) :   0.9991 B( 25-C , 26-S ) :   1.0317
B( 25-C , 27-C ) :   1.5476 B( 27-C , 28-C ) :   1.1632 B( 27-C , 69-H ) :   0.9664
B( 28-C , 29-C ) :   1.2287 B( 28-C , 34-C ) :   1.2707 B( 29-C , 30-C ) :   1.4555
B( 29-C , 70-H ) :   0.9720 B( 30-C , 31-F ) :   1.1072 B( 30-C , 32-C ) :   1.2659
B( 32-C , 33-C ) :   1.2327 B( 32-C , 36-C ) :   1.1671 B( 33-C , 34-C ) :   1.4479
B( 33-C , 71-H ) :   0.9732 B( 34-C , 35-F ) :   1.1090 B( 36-C , 37-C ) :   1.5389
B( 36-C , 72-H ) :   0.9665 B( 37-C , 38-C ) :   1.1555 B( 37-C , 41-S ) :   1.0427
B( 38-C , 39-C ) :   1.5779 B( 38-C , 73-H ) :   0.9994 B( 39-C , 40-C ) :   1.1952
B( 39-C , 74-H ) :   0.9929 B( 40-C , 41-S ) :   1.0338 B( 40-C , 42-C ) :   1.4988
B( 42-C , 43-C ) :   1.1917 B( 42-C , 46-S ) :   1.0509 B( 43-C , 44-C ) :   1.5826
B( 43-C , 75-H ) :   0.9927 B( 44-C , 45-C ) :   1.1524 B( 44-C , 76-H ) :   0.9997
B( 45-C , 46-S ) :   1.0263 B( 45-C , 47-C ) :   1.5469 B( 47-C , 48-C ) :   1.2051
B( 47-C , 77-H ) :   0.9705 B( 48-C , 49-C ) :   1.4008 B( 48-C , 52-S ) :   1.0872
B( 49-C , 50-C ) :   1.2888 B( 49-C , 78-H ) :   1.0052 B( 50-C , 51-C ) :   1.4828
B( 50-C , 55-Ge) :   0.8788 B( 51-C , 52-S ) :   1.1199 B( 51-C , 53-C ) :   1.1670
B( 53-C , 54-C ) :   1.5260 B( 53-C , 60-S ) :   1.1175 B( 54-C , 55-Ge) :   0.8893
B( 54-C , 58-C ) :   1.2551 B( 55-Ge, 56-C ) :   1.0100 B( 55-Ge, 57-C ) :   1.0119
B( 56-C , 79-H ) :   0.9596 B( 56-C , 80-H ) :   0.9614 B( 56-C , 81-H ) :   0.9607
B( 57-C , 82-H ) :   0.9593 B( 57-C , 83-H ) :   0.9607 B( 57-C , 84-H ) :   0.9609
B( 58-C , 59-C ) :   1.5522 B( 58-C , 85-H ) :   0.9976 B( 59-C , 60-S ) :   1.1563
B( 59-C , 86-H ) :   0.9722

-----------------------------------------------------------------------------
         ABSORPTION SPECTRUM VIA TRANSITION ELECTRIC DIPOLE MOMENTS
-----------------------------------------------------------------------------
State   Energy  Wavelength   fosc         T2         TX        TY        TZ
        (cm-1)    (nm)                  (au**2)     (au)      (au)      (au)
-----------------------------------------------------------------------------
   0    8575.6   1166.1   0.799856738  30.70589  -1.67533  -0.62561  -5.24478
   1   11564.8    864.7   1.256434063  35.76658  -1.45095   1.21175  -5.67388
   2   15088.0    662.8   0.088414249   1.92915  -0.40956  -0.36364  -1.27639
   3   16669.6    599.9   0.066278425   1.30895   0.39632   0.98216  -0.43270
   4   18377.4    544.1   0.006486908   0.11621   0.04978   0.32412  -0.09314
   5   20725.5    482.5   0.047854278   0.76013  -0.29407  -0.21362  -0.79248
   6   22704.3    440.4   0.262851271   3.81134   0.58506   1.85543   0.16252
   7   23179.7    431.4   0.912028933  12.95318   1.21515   3.26724   0.89540
   8   25683.0    389.4   1.022729887  13.10966  -0.85765  -3.47818   0.52571
   9   26283.7    380.5   0.115584605   1.44773  -0.21852  -1.12894   0.35424
  10   27810.4    359.6   0.101279979   1.19892  -0.17058  -1.00138   0.40873
  11   29199.0    342.5   0.122576166   1.38202   0.33860   0.32640   1.07742
  12   30046.4    332.8   0.045377643   0.49719  -0.25000  -0.44039  -0.49066
  13   30505.4    327.8   0.047467378   0.51226  -0.24263  -0.20049  -0.64281
  14   30764.6    325.0   0.000615171   0.00658   0.04035  -0.03997  -0.05794
  15   31130.2    321.2   0.187377148   1.98157  -0.33816   0.05276  -1.36544
  16   31362.5    318.9   0.006653857   0.06985   0.02549   0.10759  -0.24004
  17   31518.8    317.3   0.224968460   2.34978   0.08780  -0.88684   1.24723
  18   31792.8    314.5   0.019651659   0.20349   0.17385   0.33342   0.24920
  19   32138.3    311.2   0.159025382   1.62899   0.06941   1.02392  -0.75879
  20   32623.0    306.5   0.024998002   0.25226   0.14856  -0.00117   0.47979
  21   32864.4    304.3   0.041438520   0.41510  -0.13109  -0.62107   0.11038
  22   33556.3    298.0   0.085682002   0.84060   0.29250   0.23303   0.83710
  23   33871.4    295.2   0.053211391   0.51719  -0.15485  -0.70087   0.04464
  24   34739.8    287.9   0.053239844   0.50453   0.03941  -0.39274   0.59054
  25   35002.7    285.7   0.080271171   0.75498  -0.09481  -0.79219   0.34413
  26   35154.8    284.5   0.072299225   0.67706  -0.00828  -0.60922   0.55302
  27   35542.7    281.4   0.117422728   1.08762   0.35245   0.42341   0.88551
  28   35984.7    277.9   0.084019658   0.76867   0.27271   0.14878   0.81986
  29   36179.3    276.4   0.031103560   0.28303   0.06128   0.48521  -0.20938
  30   36466.3    274.2   0.091191972   0.82327  -0.16508  -0.85008   0.27089
  31   37082.7    269.7   0.004826468   0.04285  -0.09332  -0.12616  -0.13499
  32   37487.7    266.8   0.079067170   0.69436   0.27059   0.15947   0.77182
  33   37871.7    264.0   0.123626762   1.07467  -0.10837   0.58122  -0.85153
  34   38013.6    263.1   0.036453234   0.31570  -0.21684  -0.24779  -0.45528
  35   38575.8    259.2   0.010990039   0.09379  -0.06535   0.08867  -0.28576
  36   38722.1    258.3   0.036045946   0.30646   0.15544   0.53047  -0.03003
  37   39518.2    253.0   0.054067687   0.45042  -0.21840  -0.06495  -0.63127
  38   39757.7    251.5   0.000287342   0.00238   0.02139  -0.03588   0.02519
  39   39888.3    250.7   0.004956486   0.04091   0.06516   0.19141   0.00494
  40   40178.7    248.9   0.000114900   0.00094  -0.03052   0.00263   0.00174
  41   40282.0    248.2   0.015682945   0.12817  -0.13282  -0.20138  -0.26453

FINAL SINGLE POINT ENERGY     -7412.521044716534

DIPOLE MOMENT
-------------
                                X             Y             Z
Electronic contribution:     11.72381       4.08796      31.40634
Nuclear contribution   :    -10.31209      -3.82802     -26.78935
                        -----------------------------------------
Total Dipole Moment    :      1.41172       0.25994       4.61699
                        -----------------------------------------
Magnitude (a.u.)       :      4.83499
Magnitude (Debye)      :     12.28956

Rotational constants in cm-1:     0.001990     0.000217     0.000196
Rotational constants in MHz :    59.651909     6.507398     5.884182

                             ****ORCA TERMINATED NORMALLY****
TOTAL RUN TIME: 0 days 0 hours 12 minutes 47 seconds 627 msec
