                         Program Version 4.2.0 -  RELEASE  -
|  1> # ORCA input file
|  2> # SCF done       -199.584796582850          0.000591828230
|  3> ! CAM-B3LYP def2-SVP def2/J RIJCOSX Grid4 TightSCF
|  4> %maxcore 5000
|  5> %tddft
|  6>     Mode sTDDFT
|  7>     Ethresh 5.0
|  8>     maxcore 5000
|  9> end
| 10>
| 11> %pal
| 12>   nprocs 6
| 13>   end
| 14> * xyz 0 1
| 15>    C       -1.48702         0.89496         2.38553
| 16>    C       -1.10653         0.66512         3.68255
| 17>    C       -1.43826        -0.49602         4.40974
| 18>    N       -1.66004        -1.42551         5.04613
| 19>    C       -0.36458         1.57651         4.46077
| 20>    N        0.22356         2.29003         5.14215
| 21>    C       -2.36054         0.05309         1.58090
| 22>    C       -2.65706         0.73562         0.36643
| 23>    C       -3.48155         0.19918        -0.57912
| 24>    C       -4.05862        -1.06965        -0.34835
| 25>    C       -3.75933        -1.76356         0.85963
| 26>    C       -2.90077        -1.18218         1.82075
| 27>    C       -4.33805        -3.03063         1.07586
| 28>    C       -5.17489        -3.58643         0.14664
| 29>    C       -5.47044        -2.90171        -1.04143
| 30>    C       -4.92455        -1.67012        -1.28312
| 31>    C       -1.96440         2.03091         0.34362
| 32>    O       -1.92218         2.82814        -0.56892
| 33>    C       -1.20457         2.09437         1.62662
| 34>    C       -0.27587         3.05127         1.91848
| 35>    C       -0.20421         4.31643         1.28400
| 36>    S        1.34116         5.03066         0.97174
| 37>    C        0.65521         6.35782         0.11572
| 38>    C       -0.74030         6.26041         0.07029
| 39>    C       -1.23595         5.13707         0.79878
| 40>    C       -2.63351         4.97746         0.97109
| 41>    C       -3.23302         4.00160         1.92591
| 42>    O       -4.11365         3.23651         1.64750
| 43>    O       -2.75983         4.06814         3.18710
| 44>    C       -3.48135         5.80138         0.27060
| 45>    C       -2.99645         6.81991        -0.55585
| 46>    C       -1.64959         7.07587        -0.65511
| 47>    O       -1.15494         8.05646        -1.44185
| 48>    C        1.51320         7.36390        -0.42232
| 49>    C        1.33964         8.74145        -0.45682
| 50>    N        0.26459         9.37996         0.22535
| 51>    O       -0.21415         8.79658         1.18050
| 52>    O       -0.09497        10.47390        -0.15322
| 53>    C        2.37420         9.44582        -1.12817
| 54>    C        2.36580        10.91274        -1.37712
| 55>    C        3.36779         8.58979        -1.54873
| 56>    S        2.99932         6.92614        -1.18607
| 57>    C        4.56589         8.90452        -2.27098
| 58>    S        4.92007         8.02582        -3.70988
| 59>    C        6.18402         9.11656        -4.16707
| 60>    C        6.40066        10.06351        -3.15993
| 61>    C        5.49338         9.92890        -2.05982
| 62>    C        5.63381        10.77971        -0.92988
| 63>    C        4.96856        10.58115         0.37419
| 64>    O        4.71391        11.46707         1.15037
| 65>    O        4.75107         9.28958         0.67741
| 66>    C        6.55821        11.79928        -0.98917
| 67>    C        7.44039        11.93421        -2.06212
| 68>    C        7.42777        11.04420        -3.11298
| 69>    O        8.38426        11.04549        -4.06165
| 70>    C        6.77686         8.95579        -5.44141
| 71>    C        7.13333         9.97231        -6.27838
| 72>    C        7.86264         9.84691        -7.52302
| 73>    C        8.56795         8.74822        -7.94141
| 74>    C        9.29615         8.68981        -9.14734
| 75>    N        9.90186         8.58128       -10.11663
| 76>    C        8.68693         7.54509        -7.21537
| 77>    N        8.83920         6.54424        -6.67324
| 78>    C        7.79269        11.12994        -8.21153
| 79>    C        7.07837        12.04720        -7.38877
| 80>    C        6.64596        11.37029        -6.15337
| 81>    O        5.95162        11.84268        -5.27620
| 82>    C        6.85092        13.33606        -7.77606
| 83>    C        7.34036        13.77736        -9.02619
| 84>    C        8.05232        12.86467        -9.85672
| 85>    C        8.26979        11.53414        -9.42996
| 86>    C        8.52849        13.31293       -11.10541
| 87>    C        8.31336        14.60060       -11.51568
| 88>    C        7.61268        15.49854       -10.69689
| 89>    C        7.13754        15.09593        -9.47812
| 90>    H       -3.69827         0.74124        -1.48725
| 91>    H       -2.68997        -1.73160         2.72486
| 92>    H       -4.10959        -3.55304         1.99328
| 93>    H       -5.61457        -4.55683         0.32250
| 94>    H       -6.13293        -3.35479        -1.76387
| 95>    H       -5.14927        -1.13767        -2.19574
| 96>    H        0.50178         2.83360         2.64058
| 97>    H       -2.08702         4.75239         3.30592
| 98>    H       -4.54623         5.66006         0.37120
| 99>    H       -3.69604         7.42956        -1.10990
|100>    H       -1.87735         8.54053        -1.86449
|101>    H        1.42145        11.20279        -1.83275
|102>    H        3.18516        11.19955        -2.02970
|103>    H        2.45269        11.46570        -0.44215
|104>    H        4.39149         9.22450         1.57677
|105>    H        6.63798        12.46857        -0.14625
|106>    H        8.18568        12.71704        -2.03751
|107>    H        9.00386        11.76981        -3.90011
|108>    H        6.87172         7.93360        -5.78734
|109>    H        6.30294        14.01207        -7.13625
|110>    H        8.80326        10.86401       -10.08530
|111>    H        9.06804        12.61797       -11.73197
|112>    H        8.68183        14.93424       -12.47410
|113>    H        7.45038        16.51045       -11.03677
|114>    H        6.59621        15.78271        -8.84382
|115> *
|116>
|117>                          ****END OF INPUT****

CARTESIAN COORDINATES (ANGSTROEM)
---------------------------------
  C     -1.487020    0.894960    2.385530
  C     -1.106530    0.665120    3.682550
  C     -1.438260   -0.496020    4.409740
  N     -1.660040   -1.425510    5.046130
  C     -0.364580    1.576510    4.460770
  N      0.223560    2.290030    5.142150
  C     -2.360540    0.053090    1.580900
  C     -2.657060    0.735620    0.366430
  C     -3.481550    0.199180   -0.579120
  C     -4.058620   -1.069650   -0.348350
  C     -3.759330   -1.763560    0.859630
  C     -2.900770   -1.182180    1.820750
  C     -4.338050   -3.030630    1.075860
  C     -5.174890   -3.586430    0.146640
  C     -5.470440   -2.901710   -1.041430
  C     -4.924550   -1.670120   -1.283120
  C     -1.964400    2.030910    0.343620
  O     -1.922180    2.828140   -0.568920
  C     -1.204570    2.094370    1.626620
  C     -0.275870    3.051270    1.918480
  C     -0.204210    4.316430    1.284000
  S      1.341160    5.030660    0.971740
  C      0.655210    6.357820    0.115720
  C     -0.740300    6.260410    0.070290
  C     -1.235950    5.137070    0.798780
  C     -2.633510    4.977460    0.971090
  C     -3.233020    4.001600    1.925910
  O     -4.113650    3.236510    1.647500
  O     -2.759830    4.068140    3.187100
  C     -3.481350    5.801380    0.270600
  C     -2.996450    6.819910   -0.555850
  C     -1.649590    7.075870   -0.655110
  O     -1.154940    8.056460   -1.441850
  C      1.513200    7.363900   -0.422320
  C      1.339640    8.741450   -0.456820
  N      0.264590    9.379960    0.225350
  O     -0.214150    8.796580    1.180500
  O     -0.094970   10.473900   -0.153220
  C      2.374200    9.445820   -1.128170
  C      2.365800   10.912740   -1.377120
  C      3.367790    8.589790   -1.548730
  S      2.999320    6.926140   -1.186070
  C      4.565890    8.904520   -2.270980
  S      4.920070    8.025820   -3.709880
  C      6.184020    9.116560   -4.167070
  C      6.400660   10.063510   -3.159930
  C      5.493380    9.928900   -2.059820
  C      5.633810   10.779710   -0.929880
  C      4.968560   10.581150    0.374190
  O      4.713910   11.467070    1.150370
  O      4.751070    9.289580    0.677410
  C      6.558210   11.799280   -0.989170
  C      7.440390   11.934210   -2.062120
  C      7.427770   11.044200   -3.112980
  O      8.384260   11.045490   -4.061650
  C      6.776860    8.955790   -5.441410
  C      7.133330    9.972310   -6.278380
  C      7.862640    9.846910   -7.523020
  C      8.567950    8.748220   -7.941410
  C      9.296150    8.689810   -9.147340
  N      9.901860    8.581280  -10.116630
  C      8.686930    7.545090   -7.215370
  N      8.839200    6.544240   -6.673240
  C      7.792690   11.129940   -8.211530
  C      7.078370   12.047200   -7.388770
  C      6.645960   11.370290   -6.153370
  O      5.951620   11.842680   -5.276200
  C      6.850920   13.336060   -7.776060
  C      7.340360   13.777360   -9.026190
  C      8.052320   12.864670   -9.856720
  C      8.269790   11.534140   -9.429960
  C      8.528490   13.312930  -11.105410
  C      8.313360   14.600600  -11.515680
  C      7.612680   15.498540  -10.696890
  C      7.137540   15.095930   -9.478120
  H     -3.698270    0.741240   -1.487250
  H     -2.689970   -1.731600    2.724860
  H     -4.109590   -3.553040    1.993280
  H     -5.614570   -4.556830    0.322500
  H     -6.132930   -3.354790   -1.763870
  H     -5.149270   -1.137670   -2.195740
  H      0.501780    2.833600    2.640580
  H     -2.087020    4.752390    3.305920
  H     -4.546230    5.660060    0.371200
  H     -3.696040    7.429560   -1.109900
  H     -1.877350    8.540530   -1.864490
  H      1.421450   11.202790   -1.832750
  H      3.185160   11.199550   -2.029700
  H      2.452690   11.465700   -0.442150
  H      4.391490    9.224500    1.576770
  H      6.637980   12.468570   -0.146250
  H      8.185680   12.717040   -2.037510
  H      9.003860   11.769810   -3.900110
  H      6.871720    7.933600   -5.787340
  H      6.302940   14.012070   -7.136250
  H      8.803260   10.864010  -10.085300
  H      9.068040   12.617970  -11.731970
  H      8.681830   14.934240  -12.474100
  H      7.450380   16.510450  -11.036770
  H      6.596210   15.782710   -8.843820

 Total Charge           Charge          ....    0
 Multiplicity           Mult            ....    1
 Number of Electrons    NEL             ....  530
 Basis Dimension        Dim             .... 1187

ORBITAL ENERGIES
----------------

  NO   OCC          E(Eh)            E(eV)
   0   2.0000     -88.993377     -2421.6329
   1   2.0000     -88.992550     -2421.6104
   2   2.0000     -88.990003     -2421.5411
   3   2.0000     -19.277403      -524.5648
   4   2.0000     -19.276639      -524.5440
   5   2.0000     -19.269014      -524.3365
   6   2.0000     -19.257737      -524.0297
   7   2.0000     -19.249596      -523.8081
   8   2.0000     -19.246309      -523.7187
   9   2.0000     -19.214184      -522.8445
  10   2.0000     -19.208491      -522.6896
  11   2.0000     -19.205281      -522.6023
  12   2.0000     -19.201145      -522.4897
  13   2.0000     -14.656634      -398.8273
  14   2.0000     -14.415940      -392.2777
  15   2.0000     -14.415342      -392.2614
  16   2.0000     -14.408953      -392.0876
  17   2.0000     -14.407108      -392.0373
  18   2.0000     -10.411407      -283.3088
  19   2.0000     -10.403414      -283.0913
  20   2.0000     -10.367695      -282.1193
  21   2.0000     -10.366745      -282.0935
  22   2.0000     -10.364518      -282.0329
  23   2.0000     -10.357724      -281.8480
  24   2.0000     -10.346458      -281.5414
  25   2.0000     -10.344346      -281.4840
  26   2.0000     -10.342120      -281.4234
  27   2.0000     -10.340298      -281.3738
  28   2.0000     -10.339760      -281.3592
  29   2.0000     -10.339495      -281.3520
  30   2.0000     -10.333920      -281.2003
  31   2.0000     -10.331325      -281.1297
  32   2.0000     -10.330963      -281.1198
  33   2.0000     -10.328527      -281.0535
  34   2.0000     -10.324074      -280.9323
  35   2.0000     -10.323164      -280.9076
  36   2.0000     -10.319153      -280.7984
  37   2.0000     -10.318782      -280.7883
  38   2.0000     -10.318287      -280.7749
  39   2.0000     -10.314061      -280.6599
  40   2.0000     -10.313586      -280.6469
  41   2.0000     -10.312354      -280.6134
  42   2.0000     -10.311478      -280.5896
  43   2.0000     -10.309818      -280.5444
  44   2.0000     -10.309477      -280.5351
  45   2.0000     -10.307232      -280.4740
  46   2.0000     -10.304324      -280.3949
  47   2.0000     -10.301541      -280.3192
  48   2.0000     -10.300181      -280.2822
  49   2.0000     -10.299801      -280.2718
  50   2.0000     -10.299615      -280.2668
  51   2.0000     -10.298884      -280.2469
  52   2.0000     -10.298675      -280.2412
  53   2.0000     -10.298154      -280.2270
  54   2.0000     -10.297906      -280.2203
  55   2.0000     -10.294957      -280.1400
  56   2.0000     -10.292068      -280.0614
  57   2.0000     -10.292053      -280.0610
  58   2.0000     -10.291846      -280.0554
  59   2.0000     -10.290477      -280.0181
  60   2.0000     -10.289284      -279.9856
  61   2.0000     -10.288797      -279.9724
  62   2.0000     -10.288365      -279.9606
  63   2.0000     -10.287873      -279.9473
  64   2.0000     -10.287830      -279.9461
  65   2.0000     -10.287573      -279.9391
  66   2.0000     -10.286875      -279.9201
  67   2.0000     -10.286784      -279.9176
  68   2.0000     -10.284950      -279.8677
  69   2.0000     -10.278057      -279.6802
  70   2.0000     -10.277912      -279.6762
  71   2.0000     -10.277298      -279.6595
  72   2.0000     -10.277116      -279.6546
  73   2.0000     -10.276645      -279.6417
  74   2.0000     -10.271627      -279.5052
  75   2.0000      -8.088624      -220.1027
  76   2.0000      -8.088065      -220.0875
  77   2.0000      -8.085479      -220.0171
  78   2.0000      -6.057500      -164.8330
  79   2.0000      -6.056947      -164.8179
  80   2.0000      -6.054698      -164.7567
  81   2.0000      -6.053373      -164.7207
  82   2.0000      -6.052781      -164.7045
  83   2.0000      -6.051567      -164.6715
  84   2.0000      -6.050962      -164.6551
  85   2.0000      -6.050563      -164.6442
  86   2.0000      -6.047652      -164.5650
  87   2.0000      -1.329679       -36.1824
  88   2.0000      -1.196219       -32.5508
  89   2.0000      -1.181553       -32.1517
  90   2.0000      -1.176128       -32.0041
  91   2.0000      -1.173905       -31.9436
  92   2.0000      -1.146792       -31.2058
  93   2.0000      -1.128980       -30.7211
  94   2.0000      -1.121687       -30.5227
  95   2.0000      -1.098841       -29.9010
  96   2.0000      -1.096805       -29.8456
  97   2.0000      -1.035556       -28.1789
  98   2.0000      -1.023236       -27.8437
  99   2.0000      -1.018418       -27.7126
 100   2.0000      -1.010661       -27.5015
 101   2.0000      -1.008108       -27.4320
 102   2.0000      -0.999555       -27.1993
 103   2.0000      -0.994222       -27.0542
 104   2.0000      -0.989421       -26.9235
 105   2.0000      -0.986357       -26.8401
 106   2.0000      -0.973370       -26.4867
 107   2.0000      -0.963126       -26.2080
 108   2.0000      -0.955385       -25.9973
 109   2.0000      -0.951129       -25.8815
 110   2.0000      -0.931798       -25.3555
 111   2.0000      -0.924049       -25.1447
 112   2.0000      -0.919776       -25.0284
 113   2.0000      -0.911158       -24.7939
 114   2.0000      -0.904738       -24.6192
 115   2.0000      -0.893824       -24.3222
 116   2.0000      -0.884470       -24.0677
 117   2.0000      -0.882495       -24.0139
 118   2.0000      -0.874523       -23.7970
 119   2.0000      -0.871055       -23.7026
 120   2.0000      -0.867744       -23.6125
 121   2.0000      -0.858790       -23.3689
 122   2.0000      -0.857192       -23.3254
 123   2.0000      -0.855365       -23.2757
 124   2.0000      -0.832144       -22.6438
 125   2.0000      -0.830332       -22.5945
 126   2.0000      -0.826273       -22.4840
 127   2.0000      -0.818830       -22.2815
 128   2.0000      -0.800846       -21.7921
 129   2.0000      -0.789669       -21.4880
 130   2.0000      -0.771164       -20.9844
 131   2.0000      -0.769564       -20.9409
 132   2.0000      -0.762466       -20.7478
 133   2.0000      -0.758424       -20.6378
 134   2.0000      -0.752328       -20.4719
 135   2.0000      -0.749574       -20.3969
 136   2.0000      -0.731915       -19.9164
 137   2.0000      -0.731378       -19.9018
 138   2.0000      -0.723226       -19.6800
 139   2.0000      -0.712950       -19.4004
 140   2.0000      -0.706423       -19.2228
 141   2.0000      -0.704437       -19.1687
 142   2.0000      -0.700001       -19.0480
 143   2.0000      -0.694974       -18.9112
 144   2.0000      -0.692590       -18.8463
 145   2.0000      -0.686405       -18.6780
 146   2.0000      -0.683961       -18.6115
 147   2.0000      -0.678940       -18.4749
 148   2.0000      -0.671821       -18.2812
 149   2.0000      -0.667789       -18.1715
 150   2.0000      -0.665445       -18.1077
 151   2.0000      -0.657713       -17.8973
 152   2.0000      -0.647401       -17.6167
 153   2.0000      -0.642446       -17.4818
 154   2.0000      -0.641778       -17.4637
 155   2.0000      -0.636393       -17.3171
 156   2.0000      -0.633785       -17.2462
 157   2.0000      -0.623938       -16.9782
 158   2.0000      -0.617362       -16.7993
 159   2.0000      -0.611599       -16.6425
 160   2.0000      -0.608676       -16.5629
 161   2.0000      -0.607285       -16.5251
 162   2.0000      -0.599929       -16.3249
 163   2.0000      -0.597549       -16.2601
 164   2.0000      -0.591847       -16.1050
 165   2.0000      -0.588533       -16.0148
 166   2.0000      -0.585617       -15.9355
 167   2.0000      -0.578755       -15.7487
 168   2.0000      -0.573936       -15.6176
 169   2.0000      -0.568705       -15.4752
 170   2.0000      -0.564508       -15.3610
 171   2.0000      -0.561444       -15.2777
 172   2.0000      -0.558606       -15.2004
 173   2.0000      -0.553501       -15.0615
 174   2.0000      -0.551428       -15.0051
 175   2.0000      -0.548979       -14.9385
 176   2.0000      -0.546094       -14.8600
 177   2.0000      -0.544854       -14.8262
 178   2.0000      -0.542711       -14.7679
 179   2.0000      -0.541145       -14.7253
 180   2.0000      -0.538778       -14.6609
 181   2.0000      -0.536601       -14.6017
 182   2.0000      -0.532708       -14.4957
 183   2.0000      -0.530617       -14.4388
 184   2.0000      -0.529214       -14.4006
 185   2.0000      -0.527629       -14.3575
 186   2.0000      -0.527224       -14.3465
 187   2.0000      -0.524094       -14.2613
 188   2.0000      -0.520696       -14.1689
 189   2.0000      -0.515993       -14.0409
 190   2.0000      -0.514443       -13.9987
 191   2.0000      -0.512426       -13.9438
 192   2.0000      -0.511149       -13.9091
 193   2.0000      -0.509969       -13.8770
 194   2.0000      -0.508135       -13.8271
 195   2.0000      -0.505703       -13.7609
 196   2.0000      -0.503972       -13.7138
 197   2.0000      -0.501300       -13.6411
 198   2.0000      -0.497677       -13.5425
 199   2.0000      -0.495916       -13.4946
 200   2.0000      -0.495032       -13.4705
 201   2.0000      -0.494563       -13.4577
 202   2.0000      -0.490975       -13.3601
 203   2.0000      -0.490021       -13.3341
 204   2.0000      -0.488827       -13.3016
 205   2.0000      -0.486427       -13.2364
 206   2.0000      -0.482306       -13.1242
 207   2.0000      -0.478808       -13.0290
 208   2.0000      -0.474039       -12.8993
 209   2.0000      -0.472016       -12.8442
 210   2.0000      -0.469898       -12.7866
 211   2.0000      -0.467184       -12.7127
 212   2.0000      -0.463643       -12.6164
 213   2.0000      -0.456805       -12.4303
 214   2.0000      -0.455595       -12.3974
 215   2.0000      -0.453801       -12.3486
 216   2.0000      -0.452229       -12.3058
 217   2.0000      -0.450221       -12.2511
 218   2.0000      -0.449207       -12.2236
 219   2.0000      -0.445982       -12.1358
 220   2.0000      -0.445300       -12.1172
 221   2.0000      -0.442613       -12.0441
 222   2.0000      -0.442488       -12.0407
 223   2.0000      -0.440622       -11.9899
 224   2.0000      -0.437414       -11.9026
 225   2.0000      -0.435589       -11.8530
 226   2.0000      -0.432524       -11.7696
 227   2.0000      -0.432323       -11.7641
 228   2.0000      -0.428648       -11.6641
 229   2.0000      -0.427552       -11.6343
 230   2.0000      -0.425456       -11.5772
 231   2.0000      -0.425091       -11.5673
 232   2.0000      -0.420768       -11.4497
 233   2.0000      -0.420391       -11.4394
 234   2.0000      -0.416253       -11.3268
 235   2.0000      -0.412785       -11.2324
 236   2.0000      -0.409566       -11.1449
 237   2.0000      -0.407369       -11.0851
 238   2.0000      -0.402346       -10.9484
 239   2.0000      -0.401926       -10.9370
 240   2.0000      -0.399104       -10.8602
 241   2.0000      -0.392508       -10.6807
 242   2.0000      -0.389391       -10.5959
 243   2.0000      -0.386367       -10.5136
 244   2.0000      -0.382889       -10.4189
 245   2.0000      -0.379788       -10.3346
 246   2.0000      -0.372751       -10.1431
 247   2.0000      -0.368330       -10.0228
 248   2.0000      -0.360926        -9.8213
 249   2.0000      -0.357959        -9.7406
 250   2.0000      -0.353424        -9.6172
 251   2.0000      -0.348615        -9.4863
 252   2.0000      -0.345035        -9.3889
 253   2.0000      -0.341939        -9.3046
 254   2.0000      -0.335929        -9.1411
 255   2.0000      -0.329678        -8.9710
 256   2.0000      -0.326482        -8.8840
 257   2.0000      -0.320735        -8.7276
 258   2.0000      -0.314778        -8.5655
 259   2.0000      -0.311471        -8.4756
 260   2.0000      -0.302511        -8.2318
 261   2.0000      -0.296973        -8.0811
 262   2.0000      -0.286080        -7.7846
 263   2.0000      -0.270547        -7.3620
 264   2.0000      -0.257178        -6.9982
 265   0.0000      -0.107012        -2.9119
 266   0.0000      -0.097645        -2.6570
 267   0.0000      -0.067140        -1.8270
 268   0.0000      -0.063509        -1.7282
 269   0.0000      -0.045886        -1.2486

MULLIKEN ATOMIC CHARGES
-----------------------
   0 C :    0.318505
   1 C :   -0.337624
   2 C :   -0.180897
   3 N :    0.146045
   4 C :   -0.202538
   5 N :    0.153882
   6 C :    0.055004
   7 C :    0.022048
   8 C :   -0.076728
   9 C :    0.098446
  10 C :    0.096944
  11 C :   -0.089414
  12 C :   -0.016779
  13 C :    0.036237
  14 C :    0.034145
  15 C :   -0.016632
  16 C :    0.141241
  17 O :   -0.146299
  18 C :   -0.081265
  19 C :   -0.044789
  20 C :   -0.184185
  21 S :    0.219040
  22 C :   -0.177862
  23 C :    0.163583
  24 C :    0.147787
  25 C :   -0.057869
  26 C :    0.116768
  27 O :   -0.179367
  28 O :   -0.154290
  29 C :    0.018779
  30 C :   -0.066768
  31 C :    0.123313
  32 O :   -0.185119
  33 C :   -0.141023
  34 C :    0.149089
  35 N :    0.251484
  36 O :   -0.239966
  37 O :   -0.240525
  38 C :   -0.095544
  39 C :    0.147148
  40 C :   -0.149882
  41 S :    0.196630
  42 C :   -0.193649
  43 S :    0.218901
  44 C :   -0.170219
  45 C :    0.141123
  46 C :    0.180870
  47 C :   -0.057571
  48 C :    0.100571
  49 O :   -0.195439
  50 O :   -0.178420
  51 C :    0.012177
  52 C :   -0.073839
  53 C :    0.141560
  54 O :   -0.160740
  55 C :   -0.002944
  56 C :   -0.058147
  57 C :    0.300813
  58 C :   -0.345574
  59 C :   -0.183352
  60 N :    0.148217
  61 C :   -0.204039
  62 N :    0.160096
  63 C :    0.055220
  64 C :   -0.012661
  65 C :    0.141742
  66 O :   -0.160031
  67 C :   -0.090026
  68 C :    0.100377
  69 C :    0.098367
  70 C :   -0.091858
  71 C :   -0.022180
  72 C :    0.037798
  73 C :    0.037203
  74 C :   -0.019595
  75 H :   -0.019325
  76 H :   -0.010623
  77 H :   -0.012190
  78 H :   -0.008565
  79 H :   -0.008154
  80 H :   -0.021477
  81 H :    0.031561
  82 H :    0.195137
  83 H :    0.004528
  84 H :   -0.029806
  85 H :    0.196694
  86 H :    0.042740
  87 H :    0.030308
  88 H :    0.045846
  89 H :    0.195556
  90 H :    0.009639
  91 H :   -0.027152
  92 H :    0.191394
  93 H :    0.029564
  94 H :   -0.016213
  95 H :   -0.008170
  96 H :   -0.008064
  97 H :   -0.005240
  98 H :   -0.005356
  99 H :   -0.018132
Sum of atomic charges:    0.0000000

LOEWDIN ATOMIC CHARGES
----------------------
   0 C :    0.080446
   1 C :   -0.135009
   2 C :   -0.016418
   3 N :   -0.054481
   4 C :   -0.018840
   5 N :   -0.061454
   6 C :   -0.021334
   7 C :   -0.043749
   8 C :    0.033857
   9 C :   -0.006658
  10 C :   -0.006533
  11 C :    0.019715
  12 C :   -0.005693
  13 C :   -0.016320
  14 C :   -0.014793
  15 C :   -0.010374
  16 C :    0.076739
  17 O :   -0.140698
  18 C :   -0.085267
  19 C :    0.023994
  20 C :   -0.199925
  21 S :    0.517461
  22 C :   -0.171186
  23 C :   -0.051980
  24 C :   -0.010066
  25 C :   -0.089727
  26 C :    0.079940
  27 O :   -0.148895
  28 O :   -0.026232
  29 C :    0.037097
  30 C :   -0.081396
  31 C :    0.074754
  32 O :   -0.032346
  33 C :   -0.176802
  34 C :   -0.061772
  35 N :    0.288258
  36 O :   -0.202450
  37 O :   -0.195553
  38 C :   -0.033394
  39 C :   -0.052082
  40 C :   -0.196283
  41 S :    0.478170
  42 C :   -0.181111
  43 S :    0.518608
  44 C :   -0.172123
  45 C :   -0.038501
  46 C :   -0.025347
  47 C :   -0.087186
  48 C :    0.081840
  49 O :   -0.181533
  50 O :   -0.032331
  51 C :    0.035386
  52 C :   -0.077621
  53 C :    0.083572
  54 O :   -0.016610
  55 C :    0.035675
  56 C :   -0.083568
  57 C :    0.074594
  58 C :   -0.140417
  59 C :   -0.017958
  60 N :   -0.055118
  61 C :   -0.023553
  62 N :   -0.052763
  63 C :   -0.025840
  64 C :   -0.054872
  65 C :    0.076229
  66 O :   -0.150505
  67 C :    0.027142
  68 C :   -0.009242
  69 C :   -0.007130
  70 C :    0.018156
  71 C :   -0.005611
  72 C :   -0.013640
  73 C :   -0.012605
  74 C :   -0.011040
  75 H :    0.037700
  76 H :    0.038145
  77 H :    0.033703
  78 H :    0.031736
  79 H :    0.031387
  80 H :    0.030516
  81 H :    0.043496
  82 H :    0.098124
  83 H :    0.042691
  84 H :    0.030932
  85 H :    0.105672
  86 H :    0.041955
  87 H :    0.037159
  88 H :    0.045504
  89 H :    0.102035
  90 H :    0.042999
  91 H :    0.030921
  92 H :    0.103875
  93 H :    0.045321
  94 H :    0.037351
  95 H :    0.038943
  96 H :    0.034930
  97 H :    0.033151
  98 H :    0.032734
  99 H :    0.031327

  Mayer bond orders larger than 0.100000
B(  0-C ,  1-C ) :   1.6476 B(  0-C ,  6-C ) :   0.9965 B(  0-C , 18-C ) :   1.0702
B(  1-C ,  2-C ) :   1.1396 B(  1-C ,  4-C ) :   1.1484 B(  2-C ,  3-N ) :   2.9683
B(  4-C ,  5-N ) :   2.9872 B(  6-C ,  7-C ) :   1.2181 B(  6-C , 11-C ) :   1.4430
B(  7-C ,  8-C ) :   1.4794 B(  7-C , 16-C ) :   0.9453 B(  8-C ,  9-C ) :   1.1729
B(  8-C , 75-H ) :   1.0168 B(  9-C , 10-C ) :   1.2588 B(  9-C , 15-C ) :   1.2450
B( 10-C , 11-C ) :   1.2053 B( 10-C , 12-C ) :   1.2396 B( 11-C , 76-H ) :   0.9900
B( 12-C , 13-C ) :   1.4888 B( 12-C , 77-H ) :   0.9970 B( 13-C , 14-C ) :   1.2598
B( 13-C , 78-H ) :   0.9884 B( 14-C , 15-C ) :   1.4870 B( 14-C , 79-H ) :   0.9889
B( 15-C , 80-H ) :   0.9975 B( 16-C , 17-O ) :   2.2143 B( 16-C , 18-C ) :   0.9334
B( 18-C , 19-C ) :   1.5827 B( 19-C , 20-C ) :   1.1502 B( 19-C , 81-H ) :   0.9418
B( 20-C , 21-S ) :   1.1202 B( 20-C , 22-C ) :   0.1191 B( 20-C , 24-C ) :   1.3452
B( 21-S , 22-C ) :   1.2231 B( 22-C , 23-C ) :   1.3681 B( 22-C , 33-C ) :   1.0709
B( 23-C , 24-C ) :   1.2427 B( 23-C , 31-C ) :   1.1676 B( 24-C , 25-C ) :   1.2080
B( 25-C , 26-C ) :   0.9172 B( 25-C , 29-C ) :   1.5359 B( 26-C , 27-O ) :   2.1575
B( 26-C , 28-O ) :   1.2118 B( 28-O , 82-H ) :   0.9434 B( 29-C , 30-C ) :   1.2049
B( 29-C , 83-H ) :   0.9918 B( 30-C , 31-C ) :   1.4475 B( 30-C , 84-H ) :   0.9874
B( 31-C , 32-O ) :   1.2341 B( 32-O , 85-H ) :   0.9462 B( 33-C , 34-C ) :   1.5052
B( 33-C , 40-C ) :   0.1283 B( 33-C , 41-S ) :   1.1774 B( 34-C , 35-N ) :   0.9074
B( 34-C , 38-C ) :   1.2699 B( 35-N , 36-O ) :   1.5224 B( 35-N , 37-O ) :   1.5249
B( 36-O , 37-O ) :   0.2582 B( 38-C , 39-C ) :   1.1381 B( 38-C , 40-C ) :   1.5619
B( 39-C , 86-H ) :   0.9247 B( 39-C , 87-H ) :   0.9253 B( 39-C , 88-H ) :   0.9193
B( 40-C , 41-S ) :   1.1052 B( 40-C , 42-C ) :   1.0378 B( 42-C , 43-S ) :   1.2160
B( 42-C , 44-C ) :   0.1208 B( 42-C , 46-C ) :   1.3883 B( 43-S , 44-C ) :   1.1413
B( 44-C , 45-C ) :   1.3437 B( 44-C , 55-C ) :   1.1582 B( 45-C , 46-C ) :   1.2445
B( 45-C , 53-C ) :   1.1743 B( 46-C , 47-C ) :   1.1466 B( 47-C , 48-C ) :   0.9262
B( 47-C , 51-C ) :   1.5470 B( 48-C , 49-O ) :   2.1458 B( 48-C , 50-O ) :   1.2437
B( 50-O , 89-H ) :   0.9406 B( 51-C , 52-C ) :   1.2146 B( 51-C , 90-H ) :   0.9859
B( 52-C , 53-C ) :   1.4308 B( 52-C , 91-H ) :   0.9867 B( 53-C , 54-O ) :   1.2528
B( 54-O , 92-H ) :   0.9494 B( 55-C , 56-C ) :   1.6083 B( 55-C , 93-H ) :   0.9309
B( 56-C , 57-C ) :   1.0866 B( 56-C , 65-C ) :   0.9379 B( 57-C , 58-C ) :   1.6353
B( 57-C , 63-C ) :   0.9885 B( 58-C , 59-C ) :   1.1462 B( 58-C , 61-C ) :   1.1416
B( 59-C , 60-N ) :   2.9654 B( 61-C , 62-N ) :   2.9901 B( 63-C , 64-C ) :   1.2113
B( 63-C , 70-C ) :   1.4486 B( 64-C , 65-C ) :   0.9444 B( 64-C , 67-C ) :   1.4738
B( 65-C , 66-O ) :   2.2066 B( 67-C , 68-C ) :   1.1749 B( 67-C , 94-H ) :   1.0169
B( 68-C , 69-C ) :   1.2559 B( 68-C , 74-C ) :   1.2456 B( 69-C , 70-C ) :   1.2032
B( 69-C , 71-C ) :   1.2408 B( 70-C , 95-H ) :   0.9904 B( 71-C , 72-C ) :   1.4890
B( 71-C , 96-H ) :   0.9971 B( 72-C , 73-C ) :   1.2601 B( 72-C , 97-H ) :   0.9885
B( 73-C , 74-C ) :   1.4876 B( 73-C , 98-H ) :   0.9890 B( 74-C , 99-H ) :   0.9974

-----------------------------------------------------------------------------
         ABSORPTION SPECTRUM VIA TRANSITION ELECTRIC DIPOLE MOMENTS
-----------------------------------------------------------------------------
State   Energy  Wavelength   fosc         T2         TX        TY        TZ
        (cm-1)    (nm)                  (au**2)     (au)      (au)      (au)
-----------------------------------------------------------------------------
   0   16674.0    599.7   1.356912357  26.79087  -2.63693  -3.20326   3.09461
   1   19101.1    523.5   0.389549058   6.71396  -0.89950   1.65517   1.77912
   2   22181.8    450.8   0.003292779   0.04887  -0.17634  -0.13321   0.00524
   3   23529.8    425.0   0.067902388   0.95004   0.45812  -0.06455   0.85790
   4   23941.2    417.7   0.028936704   0.39790  -0.31821   0.02636  -0.54401
   5   24469.7    408.7   0.007326228   0.09857   0.02319   0.10821   0.29380
   6   24541.1    407.5   0.036215356   0.48582  -0.29190  -0.61470  -0.15086
   7   25119.8    398.1   0.010778591   0.14126   0.35311   0.12454   0.03260
   8   25863.0    386.7   0.001361902   0.01734  -0.06139   0.05431   0.10304
   9   26706.1    374.4   0.103898099   1.28077   0.00221  -0.92327   0.65448
  10   27674.0    361.3   0.026527763   0.31558   0.03538  -0.37680   0.41515
  11   28164.2    355.1   0.053385567   0.62402  -0.13339  -0.21969   0.74697
  12   28816.2    347.0   0.040448868   0.46211   0.62435  -0.25661  -0.08027
  13   29288.1    341.4   0.244119271   2.74401  -1.09497  -1.23841  -0.10675
  14   30298.9    330.0   0.057655702   0.62646  -0.15987   0.33611   0.69852
  15   30887.4    323.8   0.010018684   0.10678   0.21815   0.06621   0.23412
  16   31395.0    318.5   0.041947099   0.43986   0.58217   0.27455   0.15989
  17   31860.2    313.9   0.237632200   2.45545   0.92205   1.07353   0.67291
  18   31999.4    312.5   0.024566809   0.25275   0.22038  -0.10937   0.43842
  19   32405.9    308.6   0.067990011   0.69071   0.53434  -0.62111  -0.13931
  20   32614.6    306.6   0.001376403   0.01389  -0.06692   0.09703  -0.00019
  21   32849.3    304.4   0.198252652   1.98687  -0.75299  -1.15497  -0.29311
  22   32986.9    303.2   0.185081834   1.84713   0.91878  -0.22704   0.97541
  23   33236.4    300.9   0.403696663   3.99868  -0.07740  -1.45060   1.37421
  24   33438.9    299.1   0.274566368   2.70315  -0.02507  -1.53811   0.58029
  25   33505.6    298.5   0.164860622   1.61985  -0.32062   1.00255   0.71550
  26   33650.1    297.2   0.135822788   1.32881   0.10960   1.13458  -0.17184
  27   34109.0    293.2   0.021203002   0.20465   0.29161   0.34299   0.04433
  28   34281.7    291.7   0.022057633   0.21182  -0.07306  -0.22435   0.39516
  29   34502.2    289.8   0.053782424   0.51318  -0.48232  -0.29750  -0.43822
  30   34600.9    289.0   0.010302506   0.09802  -0.10547   0.08368  -0.28266
  31   34830.7    287.1   0.055692961   0.52640  -0.36017   0.41920  -0.47006
  32   35615.9    280.8   0.104069609   0.96196  -0.58773  -0.15204   0.77034
  33   35962.3    278.1   0.100942233   0.92406   0.88099   0.34659   0.16673
  34   36196.1    276.3   0.012069778   0.10978   0.23979  -0.18522   0.13406
  35   36431.9    274.5   0.045262832   0.40901  -0.63202  -0.05013   0.08396
  36   36702.0    272.5   0.074386293   0.66724   0.68796   0.26763  -0.34974
  37   37025.1    270.1   0.081685787   0.72632   0.57090  -0.19614  -0.60160
  38   37106.8    269.5   0.218716559   1.94046   0.75654  -0.51360   1.05086
  39   37296.6    268.1   0.080097448   0.70701  -0.62720   0.52555   0.19346
  40   37457.9    267.0   0.167519299   1.47230  -0.49698  -0.58477  -0.93987
  41   37868.1    264.1   0.008234387   0.07159  -0.26068   0.03104   0.05167
  42   38030.9    262.9   0.042529262   0.36815  -0.30032  -0.45297  -0.26977
  43   38141.7    262.2   0.085803890   0.74060  -0.51330   0.24886  -0.64435
  44   38364.2    260.7   0.002666493   0.02288  -0.05488  -0.11866   0.07609
  45   38408.8    260.4   0.027586240   0.23645  -0.34623   0.29796  -0.16672
  46   38579.0    259.2   0.009660742   0.08244  -0.21608   0.11467   0.15033
  47   38619.8    258.9   0.120715163   1.02903   0.42972   0.05581   0.91720
  48   39072.7    255.9   0.095675217   0.80612  -0.04878   0.78771   0.42809
  49   39230.5    254.9   0.034616189   0.29049   0.03140   0.53802   0.00600
  50   39539.0    252.9   0.120232606   1.00109   0.05934  -0.83853  -0.54261
  51   39694.3    251.9   0.039095115   0.32424   0.51028  -0.25096   0.02950
  52   40106.3    249.3   0.009508699   0.07805   0.19191  -0.07021   0.19050
  53   40201.5    248.7   0.044070790   0.36090   0.08430  -0.46909  -0.36572

FINAL SINGLE POINT ENERGY     -4403.227011699324

DIPOLE MOMENT
-------------
                                X             Y             Z
Electronic contribution:      8.63616     -12.76062      18.70200
Nuclear contribution   :     -8.38477      16.23395     -21.82893
                        -----------------------------------------
Total Dipole Moment    :      0.25139       3.47333      -3.12693
                        -----------------------------------------
Magnitude (a.u.)       :      4.68027
Magnitude (Debye)      :     11.89629

Rotational constants in cm-1:     0.001752     0.000299     0.000283
Rotational constants in MHz :    52.528824     8.978770     8.485468

                             ****ORCA TERMINATED NORMALLY****
TOTAL RUN TIME: 0 days 0 hours 12 minutes 1 seconds 401 msec
