                         Program Version 4.2.0 -  RELEASE  -
|  1> # ORCA input file
|  2> # SCF done       -215.405693757131          0.000669447267
|  3> ! CAM-B3LYP def2-SVP def2/J RIJCOSX Grid4 TightSCF
|  4> %maxcore 5000
|  5> %tddft
|  6>     Mode sTDDFT
|  7>     Ethresh 5.0
|  8>     maxcore 5000
|  9> end
| 10>
| 11> %pal
| 12>   nprocs 6
| 13>   end
| 14> * xyz 0 1
| 15>    C       -8.32135        -9.60719       -11.47281
| 16>    O       -8.73957        -9.20962       -10.25668
| 17>    C       -7.41527       -10.61109       -11.33545
| 18>    C       -6.52407       -11.53675       -12.04979
| 19>    O       -6.32716       -11.70010       -13.22571
| 20>    N       -5.89076       -12.23499       -11.02880
| 21>    C       -6.25906       -11.86565        -9.73617
| 22>    O       -5.77486       -12.32874        -8.72950
| 23>    C       -7.26707       -10.83505        -9.93298
| 24>    C       -8.11401        -9.94756        -9.29771
| 25>    C       -8.41680        -9.70939        -7.92684
| 26>    C       -7.87427       -10.45752        -6.94170
| 27>    C       -8.01590       -10.25593        -5.52412
| 28>    C       -8.62952        -9.10227        -4.99826
| 29>    C       -8.59922        -8.79074        -3.65914
| 30>    C       -7.87098        -9.57770        -2.76711
| 31>    C       -7.27057       -10.71377        -3.24892
| 32>    C       -7.41558       -11.11349        -4.58872
| 33>    N       -6.85455       -12.37032        -4.74566
| 34>    C       -7.00595       -13.27759        -5.85482
| 35>    C       -6.23420       -12.79014        -3.58984
| 36>    O       -5.71368       -13.86831        -3.44453
| 37>    C       -6.29182       -11.64000        -2.59755
| 38>    C       -4.89093       -10.94524        -2.58856
| 39>    C       -5.00961        -9.70049        -1.70656
| 40>    O       -5.12552        -9.66071        -0.50568
| 41>    N       -5.03237        -8.61268        -2.53629
| 42>    C       -5.22363        -7.26392        -2.07678
| 43>    C       -4.86601        -8.97972        -3.86341
| 44>    C       -4.96347        -8.20301        -4.99503
| 45>    C       -4.82092        -8.82272        -6.24780
| 46>    C       -4.47607       -10.17805        -6.30943
| 47>    C       -4.38161       -10.94977        -5.16236
| 48>    C       -4.63470       -10.36022        -3.94176
| 49>    C       -5.10584        -8.02751        -7.41601
| 50>    C       -5.14208        -8.45242        -8.69671
| 51>    C       -5.52759        -7.58796        -9.75836
| 52>    O       -5.53036        -8.05070       -11.03947
| 53>    C       -5.94555        -6.26942        -9.77139
| 54>    C       -6.23797        -5.10084        -8.93720
| 55>    O       -6.17691        -4.94747        -7.74139
| 56>    N       -6.64475        -4.13532        -9.84781
| 57>    C       -6.66343        -4.54369       -11.18499
| 58>    O       -7.01898        -3.86376       -12.11077
| 59>    C       -6.19584        -5.92879       -11.12226
| 60>    C       -5.92612        -7.05130       -11.88571
| 61>    C       -5.99752        -7.23101       -13.28361
| 62>    C       -5.84933        -8.43939       -13.90005
| 63>    C       -5.88948        -8.69448       -15.28227
| 64>    C       -5.73970        -7.80442       -16.31930
| 65>    C       -5.80584        -8.13926       -17.69692
| 66>    C       -5.52336        -7.10932       -18.54093
| 67>    C       -5.20097        -5.90434       -17.87581
| 68>    S       -5.31754        -6.10997       -16.14808
| 69>    C       -4.80415        -4.70193       -18.43843
| 70>    C       -4.69633        -4.37758       -19.80752
| 71>    C       -4.23172        -3.11514       -20.03462
| 72>    C       -3.94299        -2.38636       -18.85803
| 73>    S       -4.30758        -3.35131       -17.44599
| 74>    C       -3.42220        -1.10801       -18.79040
| 75>    C       -3.12101        -0.47523       -17.58853
| 76>    C       -2.57943         0.78965       -17.47431
| 77>    C       -2.23598         1.47059       -16.25211
| 78>    C       -2.29300         0.96611       -14.97311
| 79>    C       -1.95060         1.69816       -13.81945
| 80>    N       -1.69054         2.23971       -12.84007
| 81>    C       -2.66742        -0.34626       -14.62159
| 82>    N       -2.93155        -1.40022       -14.24699
| 83>    C       -1.76712         2.80954       -16.60569
| 84>    C       -1.78033         2.93626       -18.01590
| 85>    C       -2.28229         1.68033       -18.61292
| 86>    O       -2.41625         1.45431       -19.80033
| 87>    C       -1.37615         4.07810       -18.66178
| 88>    C       -0.94017         5.15214       -17.87760
| 89>    C       -0.93694         5.01936       -16.46993
| 90>    C       -1.34385         3.86163       -15.81661
| 91>    S       -0.36465         6.46494       -15.69253
| 92>    C       -0.13878         7.21614       -17.24980
| 93>    C       -0.47451         6.42835       -18.29836
| 94>   Br        0.51962         8.97058       -17.34387
| 95>    H       -8.73102        -9.10291       -12.32541
| 96>    H       -5.19772       -12.94781       -11.20962
| 97>    H       -9.11059        -8.90435        -7.74176
| 98>    H       -7.19999       -11.24176        -7.24268
| 99>    H       -9.12073        -8.42537        -5.67775
|100>    H       -9.10207        -7.90505        -3.30277
|101>    H       -7.77724        -9.30029        -1.72865
|102>    H       -6.30157       -13.06155        -6.66005
|103>    H       -8.02581       -13.23692        -6.23762
|104>    H       -6.79627       -14.27856        -5.47434
|105>    H       -6.53657       -11.96273        -1.58552
|106>    H       -4.14435       -11.65104        -2.22324
|107>    H       -5.29282        -7.29444        -0.99012
|108>    H       -6.14403        -6.84735        -2.49114
|109>    H       -4.38065        -6.63630        -2.37046
|110>    H       -5.18925        -7.15001        -4.94003
|111>    H       -4.31972       -10.65084        -7.26480
|112>    H       -4.14296       -12.00012        -5.23001
|113>    H       -5.36420        -6.99515        -7.21893
|114>    H       -4.88867        -9.46294        -8.97866
|115>    H       -6.90873        -3.20177        -9.56599
|116>    H       -6.22896        -6.33216       -13.83495
|117>    H       -5.73015        -9.30977       -13.27174
|118>    H       -6.01195        -9.73308       -15.56266
|119>    H       -6.05646        -9.13560       -18.01560
|120>    H       -5.51584        -7.18863       -19.61289
|121>    H       -4.96169        -5.07363       -20.58283
|122>    H       -4.07874        -2.68637       -21.00892
|123>    H       -3.22800        -0.58970       -19.71837
|124>    H       -3.32984        -1.02841       -16.68090
|125>    H       -1.39435         4.14195       -19.73858
|126>    H       -1.32142         3.81154       -14.74101
|127>    H       -0.39742         6.73196       -19.32649
|128> *
|129>
|130>                          ****END OF INPUT****

CARTESIAN COORDINATES (ANGSTROEM)
---------------------------------
  C     -8.321350   -9.607190  -11.472810
  O     -8.739570   -9.209620  -10.256680
  C     -7.415270  -10.611090  -11.335450
  C     -6.524070  -11.536750  -12.049790
  O     -6.327160  -11.700100  -13.225710
  N     -5.890760  -12.234990  -11.028800
  C     -6.259060  -11.865650   -9.736170
  O     -5.774860  -12.328740   -8.729500
  C     -7.267070  -10.835050   -9.932980
  C     -8.114010   -9.947560   -9.297710
  C     -8.416800   -9.709390   -7.926840
  C     -7.874270  -10.457520   -6.941700
  C     -8.015900  -10.255930   -5.524120
  C     -8.629520   -9.102270   -4.998260
  C     -8.599220   -8.790740   -3.659140
  C     -7.870980   -9.577700   -2.767110
  C     -7.270570  -10.713770   -3.248920
  C     -7.415580  -11.113490   -4.588720
  N     -6.854550  -12.370320   -4.745660
  C     -7.005950  -13.277590   -5.854820
  C     -6.234200  -12.790140   -3.589840
  O     -5.713680  -13.868310   -3.444530
  C     -6.291820  -11.640000   -2.597550
  C     -4.890930  -10.945240   -2.588560
  C     -5.009610   -9.700490   -1.706560
  O     -5.125520   -9.660710   -0.505680
  N     -5.032370   -8.612680   -2.536290
  C     -5.223630   -7.263920   -2.076780
  C     -4.866010   -8.979720   -3.863410
  C     -4.963470   -8.203010   -4.995030
  C     -4.820920   -8.822720   -6.247800
  C     -4.476070  -10.178050   -6.309430
  C     -4.381610  -10.949770   -5.162360
  C     -4.634700  -10.360220   -3.941760
  C     -5.105840   -8.027510   -7.416010
  C     -5.142080   -8.452420   -8.696710
  C     -5.527590   -7.587960   -9.758360
  O     -5.530360   -8.050700  -11.039470
  C     -5.945550   -6.269420   -9.771390
  C     -6.237970   -5.100840   -8.937200
  O     -6.176910   -4.947470   -7.741390
  N     -6.644750   -4.135320   -9.847810
  C     -6.663430   -4.543690  -11.184990
  O     -7.018980   -3.863760  -12.110770
  C     -6.195840   -5.928790  -11.122260
  C     -5.926120   -7.051300  -11.885710
  C     -5.997520   -7.231010  -13.283610
  C     -5.849330   -8.439390  -13.900050
  C     -5.889480   -8.694480  -15.282270
  C     -5.739700   -7.804420  -16.319300
  C     -5.805840   -8.139260  -17.696920
  C     -5.523360   -7.109320  -18.540930
  C     -5.200970   -5.904340  -17.875810
  S     -5.317540   -6.109970  -16.148080
  C     -4.804150   -4.701930  -18.438430
  C     -4.696330   -4.377580  -19.807520
  C     -4.231720   -3.115140  -20.034620
  C     -3.942990   -2.386360  -18.858030
  S     -4.307580   -3.351310  -17.445990
  C     -3.422200   -1.108010  -18.790400
  C     -3.121010   -0.475230  -17.588530
  C     -2.579430    0.789650  -17.474310
  C     -2.235980    1.470590  -16.252110
  C     -2.293000    0.966110  -14.973110
  C     -1.950600    1.698160  -13.819450
  N     -1.690540    2.239710  -12.840070
  C     -2.667420   -0.346260  -14.621590
  N     -2.931550   -1.400220  -14.246990
  C     -1.767120    2.809540  -16.605690
  C     -1.780330    2.936260  -18.015900
  C     -2.282290    1.680330  -18.612920
  O     -2.416250    1.454310  -19.800330
  C     -1.376150    4.078100  -18.661780
  C     -0.940170    5.152140  -17.877600
  C     -0.936940    5.019360  -16.469930
  C     -1.343850    3.861630  -15.816610
  S     -0.364650    6.464940  -15.692530
  C     -0.138780    7.216140  -17.249800
  C     -0.474510    6.428350  -18.298360
  Br     0.519620    8.970580  -17.343870
  H     -8.731020   -9.102910  -12.325410
  H     -5.197720  -12.947810  -11.209620
  H     -9.110590   -8.904350   -7.741760
  H     -7.199990  -11.241760   -7.242680
  H     -9.120730   -8.425370   -5.677750
  H     -9.102070   -7.905050   -3.302770
  H     -7.777240   -9.300290   -1.728650
  H     -6.301570  -13.061550   -6.660050
  H     -8.025810  -13.236920   -6.237620
  H     -6.796270  -14.278560   -5.474340
  H     -6.536570  -11.962730   -1.585520
  H     -4.144350  -11.651040   -2.223240
  H     -5.292820   -7.294440   -0.990120
  H     -6.144030   -6.847350   -2.491140
  H     -4.380650   -6.636300   -2.370460
  H     -5.189250   -7.150010   -4.940030
  H     -4.319720  -10.650840   -7.264800
  H     -4.142960  -12.000120   -5.230010
  H     -5.364200   -6.995150   -7.218930
  H     -4.888670   -9.462940   -8.978660
  H     -6.908730   -3.201770   -9.565990
  H     -6.228960   -6.332160  -13.834950
  H     -5.730150   -9.309770  -13.271740
  H     -6.011950   -9.733080  -15.562660
  H     -6.056460   -9.135600  -18.015600
  H     -5.515840   -7.188630  -19.612890
  H     -4.961690   -5.073630  -20.582830
  H     -4.078740   -2.686370  -21.008920
  H     -3.228000   -0.589700  -19.718370
  H     -3.329840   -1.028410  -16.680900
  H     -1.394350    4.141950  -19.738580
  H     -1.321420    3.811540  -14.741010
  H     -0.397420    6.731960  -19.326490

 Total Charge           Charge          ....    0
 Multiplicity           Mult            ....    1
 Number of Electrons    NEL             ....  596
 Basis Dimension        Dim             .... 1315

ORBITAL ENERGIES
----------------

  NO   OCC          E(Eh)            E(eV)
   0   2.0000    -482.877398    -13139.7620
   1   2.0000     -88.965162     -2420.8651
   2   2.0000     -88.964119     -2420.8368
   3   2.0000     -88.958734     -2420.6902
   4   2.0000     -62.555108     -1702.2110
   5   2.0000     -56.389050     -1534.4241
   6   2.0000     -56.386353     -1534.3507
   7   2.0000     -56.386316     -1534.3497
   8   2.0000     -19.320214      -525.7297
   9   2.0000     -19.312011      -525.5065
  10   2.0000     -19.228063      -523.2222
  11   2.0000     -19.224170      -523.1162
  12   2.0000     -19.212144      -522.7890
  13   2.0000     -19.208441      -522.6883
  14   2.0000     -19.201154      -522.4900
  15   2.0000     -19.197182      -522.3819
  16   2.0000     -19.193129      -522.2716
  17   2.0000     -14.468616      -393.7111
  18   2.0000     -14.457895      -393.4193
  19   2.0000     -14.454293      -393.3213
  20   2.0000     -14.452859      -393.2823
  21   2.0000     -14.400581      -391.8597
  22   2.0000     -14.399144      -391.8206
  23   2.0000     -10.414712      -283.3987
  24   2.0000     -10.412889      -283.3491
  25   2.0000     -10.400271      -283.0058
  26   2.0000     -10.397312      -282.9252
  27   2.0000     -10.377427      -282.3841
  28   2.0000     -10.376159      -282.3496
  29   2.0000     -10.369405      -282.1658
  30   2.0000     -10.364705      -282.0380
  31   2.0000     -10.360726      -281.9297
  32   2.0000     -10.358955      -281.8815
  33   2.0000     -10.351381      -281.6754
  34   2.0000     -10.348797      -281.6051
  35   2.0000     -10.334112      -281.2055
  36   2.0000     -10.327055      -281.0135
  37   2.0000     -10.326676      -281.0031
  38   2.0000     -10.324536      -280.9449
  39   2.0000     -10.323539      -280.9178
  40   2.0000     -10.323112      -280.9062
  41   2.0000     -10.323044      -280.9043
  42   2.0000     -10.316558      -280.7278
  43   2.0000     -10.313655      -280.6488
  44   2.0000     -10.307173      -280.4724
  45   2.0000     -10.305838      -280.4361
  46   2.0000     -10.304490      -280.3994
  47   2.0000     -10.304159      -280.3904
  48   2.0000     -10.303363      -280.3688
  49   2.0000     -10.302544      -280.3465
  50   2.0000     -10.300640      -280.2947
  51   2.0000     -10.300063      -280.2790
  52   2.0000     -10.298592      -280.2389
  53   2.0000     -10.298478      -280.2358
  54   2.0000     -10.298068      -280.2247
  55   2.0000     -10.297840      -280.2185
  56   2.0000     -10.297765      -280.2164
  57   2.0000     -10.297447      -280.2078
  58   2.0000     -10.295617      -280.1580
  59   2.0000     -10.294483      -280.1271
  60   2.0000     -10.293974      -280.1133
  61   2.0000     -10.292385      -280.0700
  62   2.0000     -10.292279      -280.0671
  63   2.0000     -10.291833      -280.0550
  64   2.0000     -10.291476      -280.0453
  65   2.0000     -10.291152      -280.0365
  66   2.0000     -10.290671      -280.0234
  67   2.0000     -10.289727      -279.9977
  68   2.0000     -10.288969      -279.9771
  69   2.0000     -10.288485      -279.9639
  70   2.0000     -10.287155      -279.9277
  71   2.0000     -10.287150      -279.9276
  72   2.0000     -10.287074      -279.9255
  73   2.0000     -10.283094      -279.8172
  74   2.0000     -10.282434      -279.7992
  75   2.0000     -10.281977      -279.7868
  76   2.0000     -10.281305      -279.7685
  77   2.0000     -10.279728      -279.7256
  78   2.0000     -10.278374      -279.6888
  79   2.0000     -10.277985      -279.6782
  80   2.0000     -10.277966      -279.6777
  81   2.0000     -10.274906      -279.5944
  82   2.0000     -10.274561      -279.5850
  83   2.0000     -10.271828      -279.5107
  84   2.0000      -8.784524      -239.0391
  85   2.0000      -8.061159      -219.3553
  86   2.0000      -8.060075      -219.3258
  87   2.0000      -8.054835      -219.1832
  88   2.0000      -6.620791      -180.1609
  89   2.0000      -6.606274      -179.7659
  90   2.0000      -6.606087      -179.7608
  91   2.0000      -6.030870      -164.1083
  92   2.0000      -6.029709      -164.0767
  93   2.0000      -6.026581      -163.9916
  94   2.0000      -6.025591      -163.9647
  95   2.0000      -6.024433      -163.9331
  96   2.0000      -6.022366      -163.8769
  97   2.0000      -6.021227      -163.8459
  98   2.0000      -6.020388      -163.8231
  99   2.0000      -6.015974      -163.7030
 100   2.0000      -2.736630       -74.4675
 101   2.0000      -2.732585       -74.3574
 102   2.0000      -2.732498       -74.3551
 103   2.0000      -2.720932       -74.0403
 104   2.0000      -2.720909       -74.0397
 105   2.0000      -1.236197       -33.6386
 106   2.0000      -1.224798       -33.3285
 107   2.0000      -1.169936       -31.8356
 108   2.0000      -1.154217       -31.4079
 109   2.0000      -1.149541       -31.2806
 110   2.0000      -1.140967       -31.0473
 111   2.0000      -1.136201       -30.9176
 112   2.0000      -1.133613       -30.8472
 113   2.0000      -1.114470       -30.3263
 114   2.0000      -1.065189       -28.9853
 115   2.0000      -1.059418       -28.8282
 116   2.0000      -1.055726       -28.7278
 117   2.0000      -1.041364       -28.3370
 118   2.0000      -1.012152       -27.5421
 119   2.0000      -1.009938       -27.4818
 120   2.0000      -0.999415       -27.1955
 121   2.0000      -0.989336       -26.9212
 122   2.0000      -0.978956       -26.6387
 123   2.0000      -0.975135       -26.5348
 124   2.0000      -0.963358       -26.2143
 125   2.0000      -0.956050       -26.0154
 126   2.0000      -0.941591       -25.6220
 127   2.0000      -0.934477       -25.4284
 128   2.0000      -0.931013       -25.3341
 129   2.0000      -0.929431       -25.2911
 130   2.0000      -0.923438       -25.1280
 131   2.0000      -0.916967       -24.9519
 132   2.0000      -0.912043       -24.8179
 133   2.0000      -0.902572       -24.5602
 134   2.0000      -0.895479       -24.3672
 135   2.0000      -0.886628       -24.1264
 136   2.0000      -0.877385       -23.8749
 137   2.0000      -0.873497       -23.7691
 138   2.0000      -0.867521       -23.6064
 139   2.0000      -0.863805       -23.5053
 140   2.0000      -0.860774       -23.4229
 141   2.0000      -0.846167       -23.0254
 142   2.0000      -0.842499       -22.9256
 143   2.0000      -0.838015       -22.8036
 144   2.0000      -0.831416       -22.6240
 145   2.0000      -0.823422       -22.4064
 146   2.0000      -0.817237       -22.2381
 147   2.0000      -0.812909       -22.1204
 148   2.0000      -0.805861       -21.9286
 149   2.0000      -0.798536       -21.7293
 150   2.0000      -0.786038       -21.3892
 151   2.0000      -0.778779       -21.1917
 152   2.0000      -0.774782       -21.0829
 153   2.0000      -0.769600       -20.9419
 154   2.0000      -0.766831       -20.8665
 155   2.0000      -0.760626       -20.6977
 156   2.0000      -0.754577       -20.5331
 157   2.0000      -0.745124       -20.2758
 158   2.0000      -0.734746       -19.9934
 159   2.0000      -0.730045       -19.8655
 160   2.0000      -0.718547       -19.5527
 161   2.0000      -0.710503       -19.3338
 162   2.0000      -0.708439       -19.2776
 163   2.0000      -0.703203       -19.1351
 164   2.0000      -0.699616       -19.0375
 165   2.0000      -0.692911       -18.8551
 166   2.0000      -0.684967       -18.6389
 167   2.0000      -0.682265       -18.5654
 168   2.0000      -0.679715       -18.4960
 169   2.0000      -0.676337       -18.4041
 170   2.0000      -0.665915       -18.1205
 171   2.0000      -0.658318       -17.9138
 172   2.0000      -0.655638       -17.8408
 173   2.0000      -0.645633       -17.5686
 174   2.0000      -0.643354       -17.5066
 175   2.0000      -0.636212       -17.3122
 176   2.0000      -0.632407       -17.2087
 177   2.0000      -0.627507       -17.0753
 178   2.0000      -0.624722       -16.9996
 179   2.0000      -0.618976       -16.8432
 180   2.0000      -0.614978       -16.7344
 181   2.0000      -0.610675       -16.6173
 182   2.0000      -0.608043       -16.5457
 183   2.0000      -0.606534       -16.5046
 184   2.0000      -0.602426       -16.3929
 185   2.0000      -0.600415       -16.3381
 186   2.0000      -0.598422       -16.2839
 187   2.0000      -0.593911       -16.1611
 188   2.0000      -0.593371       -16.1464
 189   2.0000      -0.587880       -15.9970
 190   2.0000      -0.585809       -15.9407
 191   2.0000      -0.584218       -15.8974
 192   2.0000      -0.580412       -15.7938
 193   2.0000      -0.579542       -15.7701
 194   2.0000      -0.574526       -15.6337
 195   2.0000      -0.572940       -15.5905
 196   2.0000      -0.570242       -15.5171
 197   2.0000      -0.565781       -15.3957
 198   2.0000      -0.559907       -15.2358
 199   2.0000      -0.558822       -15.2063
 200   2.0000      -0.558348       -15.1934
 201   2.0000      -0.554009       -15.0753
 202   2.0000      -0.549438       -14.9510
 203   2.0000      -0.546875       -14.8812
 204   2.0000      -0.541343       -14.7307
 205   2.0000      -0.539005       -14.6671
 206   2.0000      -0.535672       -14.5764
 207   2.0000      -0.534661       -14.5489
 208   2.0000      -0.533268       -14.5109
 209   2.0000      -0.530799       -14.4438
 210   2.0000      -0.528224       -14.3737
 211   2.0000      -0.527224       -14.3465
 212   2.0000      -0.525863       -14.3095
 213   2.0000      -0.521854       -14.2004
 214   2.0000      -0.520596       -14.1661
 215   2.0000      -0.519004       -14.1228
 216   2.0000      -0.518482       -14.1086
 217   2.0000      -0.516439       -14.0530
 218   2.0000      -0.514282       -13.9943
 219   2.0000      -0.511955       -13.9310
 220   2.0000      -0.510992       -13.9048
 221   2.0000      -0.507078       -13.7983
 222   2.0000      -0.505905       -13.7664
 223   2.0000      -0.502282       -13.6678
 224   2.0000      -0.501330       -13.6419
 225   2.0000      -0.499734       -13.5984
 226   2.0000      -0.496978       -13.5235
 227   2.0000      -0.496604       -13.5133
 228   2.0000      -0.495075       -13.4717
 229   2.0000      -0.490969       -13.3600
 230   2.0000      -0.488397       -13.2900
 231   2.0000      -0.483478       -13.1561
 232   2.0000      -0.483351       -13.1526
 233   2.0000      -0.481563       -13.1040
 234   2.0000      -0.480877       -13.0853
 235   2.0000      -0.480275       -13.0689
 236   2.0000      -0.478049       -13.0084
 237   2.0000      -0.477694       -12.9987
 238   2.0000      -0.475756       -12.9460
 239   2.0000      -0.473415       -12.8823
 240   2.0000      -0.471892       -12.8408
 241   2.0000      -0.469878       -12.7860
 242   2.0000      -0.469433       -12.7739
 243   2.0000      -0.467039       -12.7088
 244   2.0000      -0.460339       -12.5265
 245   2.0000      -0.459682       -12.5086
 246   2.0000      -0.458915       -12.4877
 247   2.0000      -0.454053       -12.3554
 248   2.0000      -0.451406       -12.2834
 249   2.0000      -0.446853       -12.1595
 250   2.0000      -0.444808       -12.1038
 251   2.0000      -0.439573       -11.9614
 252   2.0000      -0.437754       -11.9119
 253   2.0000      -0.436532       -11.8786
 254   2.0000      -0.434313       -11.8183
 255   2.0000      -0.433712       -11.8019
 256   2.0000      -0.431719       -11.7477
 257   2.0000      -0.429631       -11.6909
 258   2.0000      -0.427081       -11.6215
 259   2.0000      -0.425085       -11.5672
 260   2.0000      -0.422533       -11.4977
 261   2.0000      -0.418146       -11.3783
 262   2.0000      -0.413163       -11.2427
 263   2.0000      -0.411868       -11.2075
 264   2.0000      -0.409463       -11.1420
 265   2.0000      -0.408022       -11.1028
 266   2.0000      -0.399809       -10.8793
 267   2.0000      -0.393555       -10.7092
 268   2.0000      -0.393087       -10.6965
 269   2.0000      -0.390772       -10.6335
 270   2.0000      -0.385679       -10.4949
 271   2.0000      -0.382577       -10.4104
 272   2.0000      -0.378668       -10.3041
 273   2.0000      -0.378651       -10.3036
 274   2.0000      -0.374586       -10.1930
 275   2.0000      -0.371173       -10.1001
 276   2.0000      -0.367833       -10.0093
 277   2.0000      -0.367053        -9.9880
 278   2.0000      -0.363014        -9.8781
 279   2.0000      -0.360612        -9.8127
 280   2.0000      -0.357246        -9.7212
 281   2.0000      -0.350984        -9.5508
 282   2.0000      -0.347750        -9.4628
 283   2.0000      -0.345497        -9.4014
 284   2.0000      -0.344762        -9.3815
 285   2.0000      -0.342624        -9.3233
 286   2.0000      -0.335727        -9.1356
 287   2.0000      -0.332052        -9.0356
 288   2.0000      -0.324283        -8.8242
 289   2.0000      -0.321149        -8.7389
 290   2.0000      -0.304102        -8.2750
 291   2.0000      -0.302907        -8.2425
 292   2.0000      -0.296004        -8.0547
 293   2.0000      -0.286808        -7.8044
 294   2.0000      -0.281575        -7.6621
 295   2.0000      -0.267762        -7.2862
 296   2.0000      -0.262626        -7.1464
 297   2.0000      -0.224908        -6.1201
 298   0.0000      -0.112801        -3.0695
 299   0.0000      -0.065231        -1.7750
 300   0.0000      -0.060498        -1.6462
 301   0.0000      -0.053058        -1.4438
 302   0.0000      -0.046090        -1.2542

MULLIKEN ATOMIC CHARGES
-----------------------
   0 C :    0.069276
   1 O :   -0.184368
   2 C :   -0.017285
   3 C :    0.190870
   4 O :   -0.157193
   5 N :   -0.153117
   6 C :    0.197830
   7 O :   -0.169100
   8 C :   -0.132922
   9 C :    0.133722
  10 C :    0.016450
  11 C :   -0.040121
  12 C :    0.057494
  13 C :   -0.023184
  14 C :    0.030291
  15 C :   -0.009631
  16 C :   -0.089182
  17 C :    0.170195
  18 N :   -0.246806
  19 C :    0.114579
  20 C :    0.124128
  21 O :   -0.186151
  22 C :    0.035507
  23 C :    0.047459
  24 C :    0.115306
  25 O :   -0.193410
  26 N :   -0.229542
  27 C :    0.121265
  28 C :    0.250544
  29 C :   -0.156830
  30 C :    0.140669
  31 C :   -0.035390
  32 C :    0.006866
  33 C :   -0.100708
  34 C :   -0.010623
  35 C :    0.025471
  36 C :    0.134346
  37 O :   -0.222554
  38 C :   -0.090343
  39 C :    0.192047
  40 O :   -0.167608
  41 N :   -0.162581
  42 C :    0.166249
  43 O :   -0.134627
  44 C :   -0.011981
  45 C :    0.072686
  46 C :   -0.028585
  47 C :    0.008771
  48 C :    0.010863
  49 C :   -0.034896
  50 C :    0.052820
  51 C :    0.023569
  52 C :   -0.033942
  53 S :    0.112705
  54 C :   -0.051667
  55 C :    0.045272
  56 C :    0.025183
  57 C :    0.006007
  58 S :    0.118712
  59 C :   -0.024385
  60 C :   -0.040942
  61 C :   -0.084943
  62 C :    0.326188
  63 C :   -0.362311
  64 C :   -0.187905
  65 N :    0.135884
  66 C :   -0.193205
  67 N :    0.138167
  68 C :    0.015478
  69 C :   -0.005599
  70 C :    0.137440
  71 O :   -0.166467
  72 C :   -0.080754
  73 C :    0.121205
  74 C :   -0.089998
  75 C :   -0.030782
  76 S :    0.179976
  77 C :   -0.121277
  78 C :    0.032585
  79 Br:    0.014234
  80 H :    0.030577
  81 H :    0.140629
  82 H :   -0.015844
  83 H :   -0.006046
  84 H :   -0.023544
  85 H :   -0.017321
  86 H :   -0.005872
  87 H :    0.063238
  88 H :    0.029102
  89 H :    0.048833
  90 H :    0.041463
  91 H :    0.044837
  92 H :    0.056770
  93 H :    0.030838
  94 H :    0.038146
  95 H :   -0.027497
  96 H :   -0.023420
  97 H :   -0.006328
  98 H :    0.000494
  99 H :   -0.021159
 100 H :    0.139571
 101 H :    0.025508
 102 H :   -0.003525
 103 H :    0.011624
 104 H :   -0.000474
 105 H :   -0.005249
 106 H :   -0.005018
 107 H :    0.000443
 108 H :    0.016651
 109 H :    0.016860
 110 H :   -0.014392
 111 H :   -0.009462
 112 H :   -0.005828
Sum of atomic charges:   -0.0000000

LOEWDIN ATOMIC CHARGES
----------------------
   0 C :    0.080296
   1 O :    0.028325
   2 C :   -0.105000
   3 C :    0.088634
   4 O :   -0.163663
   5 N :    0.001993
   6 C :    0.092150
   7 O :   -0.172564
   8 C :   -0.127819
   9 C :    0.080248
  10 C :   -0.060177
  11 C :    0.031927
  12 C :   -0.063643
  13 C :    0.003708
  14 C :   -0.040835
  15 C :   -0.008943
  16 C :   -0.042398
  17 C :    0.056183
  18 N :   -0.003461
  19 C :    0.024279
  20 C :    0.079324
  21 O :   -0.181544
  22 C :   -0.014206
  23 C :   -0.013348
  24 C :    0.075974
  25 O :   -0.192889
  26 N :   -0.006850
  27 C :    0.032647
  28 C :    0.036094
  29 C :   -0.040712
  30 C :   -0.020526
  31 C :   -0.022380
  32 C :   -0.010964
  33 C :   -0.040000
  34 C :    0.030539
  35 C :   -0.052162
  36 C :    0.078256
  37 O :    0.009981
  38 C :   -0.109721
  39 C :    0.088423
  40 O :   -0.170926
  41 N :   -0.002678
  42 C :    0.086008
  43 O :   -0.151785
  44 C :   -0.086807
  45 C :    0.058168
  46 C :   -0.037780
  47 C :   -0.023466
  48 C :   -0.031055
  49 C :   -0.145990
  50 C :   -0.010797
  51 C :   -0.038661
  52 C :   -0.152632
  53 S :    0.417669
  54 C :   -0.188042
  55 C :   -0.009179
  56 C :   -0.038450
  57 C :   -0.104928
  58 S :    0.416316
  59 C :   -0.070000
  60 C :    0.049743
  61 C :   -0.105342
  62 C :    0.072418
  63 C :   -0.154018
  64 C :   -0.018351
  65 N :   -0.068276
  66 C :   -0.022246
  67 N :   -0.063053
  68 C :   -0.017793
  69 C :   -0.048948
  70 C :    0.082384
  71 O :   -0.158155
  72 C :    0.017206
  73 C :   -0.035753
  74 C :   -0.145381
  75 C :   -0.013784
  76 S :    0.427437
  77 C :   -0.274550
  78 C :   -0.071101
  79 Br:    0.129846
  80 H :    0.034438
  81 H :    0.096168
  82 H :    0.033806
  83 H :    0.033317
  84 H :    0.028711
  85 H :    0.028533
  86 H :    0.034506
  87 H :    0.025740
  88 H :    0.028254
  89 H :    0.038023
  90 H :    0.050296
  91 H :    0.050926
  92 H :    0.040499
  93 H :    0.025276
  94 H :    0.030067
  95 H :    0.033094
  96 H :    0.024922
  97 H :    0.034563
  98 H :    0.033994
  99 H :    0.031730
 100 H :    0.095868
 101 H :    0.032561
 102 H :    0.032976
 103 H :    0.044158
 104 H :    0.038533
 105 H :    0.034623
 106 H :    0.035385
 107 H :    0.039005
 108 H :    0.038651
 109 H :    0.032224
 110 H :    0.039012
 111 H :    0.040050
 112 H :    0.037643

  Mayer bond orders larger than 0.100000
B(  0-C ,  1-O ) :   1.1431 B(  0-C ,  2-C ) :   1.5451 B(  0-C , 80-H ) :   1.0049
B(  1-O ,  9-C ) :   1.1633 B(  2-C ,  3-C ) :   0.8655 B(  2-C ,  8-C ) :   1.2409
B(  3-C ,  4-O ) :   2.2120 B(  3-C ,  5-N ) :   1.0908 B(  5-N ,  6-C ) :   1.0978
B(  5-N , 81-H ) :   0.9151 B(  6-C ,  7-O ) :   2.0881 B(  6-C ,  8-C ) :   0.9251
B(  8-C ,  9-C ) :   1.4367 B(  9-C , 10-C ) :   1.1497 B( 10-C , 11-C ) :   1.6378
B( 10-C , 82-H ) :   0.9646 B( 11-C , 12-C ) :   1.0849 B( 11-C , 83-H ) :   0.9649
B( 12-C , 13-C ) :   1.2940 B( 12-C , 17-C ) :   1.3457 B( 13-C , 14-C ) :   1.4488
B( 13-C , 84-H ) :   0.9885 B( 14-C , 15-C ) :   1.2733 B( 14-C , 85-H ) :   0.9882
B( 15-C , 16-C ) :   1.4838 B( 15-C , 86-H ) :   0.9916 B( 16-C , 17-C ) :   1.3120
B( 16-C , 22-C ) :   0.9486 B( 17-C , 18-N ) :   1.0775 B( 18-N , 19-C ) :   0.9485
B( 18-N , 20-C ) :   1.1000 B( 19-C , 87-H ) :   0.9520 B( 19-C , 88-H ) :   0.9677
B( 19-C , 89-H ) :   0.9462 B( 20-C , 21-O ) :   2.1754 B( 20-C , 22-C ) :   0.9284
B( 22-C , 23-C ) :   1.0138 B( 22-C , 90-H ) :   0.8991 B( 23-C , 24-C ) :   0.9239
B( 23-C , 33-C ) :   0.9523 B( 23-C , 91-H ) :   0.8975 B( 24-C , 25-O ) :   2.1704
B( 24-C , 26-N ) :   1.1253 B( 26-N , 27-C ) :   0.9656 B( 26-N , 28-C ) :   1.0404
B( 27-C , 92-H ) :   0.9576 B( 27-C , 93-H ) :   0.9682 B( 27-C , 94-H ) :   0.9731
B( 28-C , 29-C ) :   1.3483 B( 28-C , 33-C ) :   1.3425 B( 29-C , 30-C ) :   1.2549
B( 29-C , 95-H ) :   1.0252 B( 30-C , 31-C ) :   1.3575 B( 30-C , 34-C ) :   1.0791
B( 31-C , 32-C ) :   1.3629 B( 31-C , 96-H ) :   0.9870 B( 32-C , 33-C ) :   1.4240
B( 32-C , 97-H ) :   0.9907 B( 34-C , 35-C ) :   1.6340 B( 34-C , 98-H ) :   0.9695
B( 35-C , 36-C ) :   1.1465 B( 35-C , 99-H ) :   0.9620 B( 36-C , 37-O ) :   1.1395
B( 36-C , 38-C ) :   1.4250 B( 37-O , 45-C ) :   1.1172 B( 38-C , 39-C ) :   0.8876
B( 38-C , 44-C ) :   1.2768 B( 39-C , 40-O ) :   2.1533 B( 39-C , 41-N ) :   1.1097
B( 41-N , 42-C ) :   1.0690 B( 41-N ,100-H ) :   0.9149 B( 42-C , 43-O ) :   2.2673
B( 42-C , 44-C ) :   0.8793 B( 44-C , 45-C ) :   1.3878 B( 45-C , 46-C ) :   1.2310
B( 46-C , 47-C ) :   1.5648 B( 46-C ,101-H ) :   0.9349 B( 47-C , 48-C ) :   1.1966
B( 47-C ,102-H ) :   0.9710 B( 48-C , 49-C ) :   1.5488 B( 48-C ,103-H ) :   0.9648
B( 49-C , 50-C ) :   1.1545 B( 49-C , 53-S ) :   1.0377 B( 50-C , 51-C ) :   1.5792
B( 50-C ,104-H ) :   0.9990 B( 51-C , 52-C ) :   1.1927 B( 51-C ,105-H ) :   0.9946
B( 52-C , 53-S ) :   1.0775 B( 52-C , 54-C ) :   1.4673 B( 54-C , 55-C ) :   1.2132
B( 54-C , 58-S ) :   1.0512 B( 55-C , 56-C ) :   1.5434 B( 55-C ,106-H ) :   0.9948
B( 56-C , 57-C ) :   1.1768 B( 56-C ,107-H ) :   1.0026 B( 57-C , 58-S ) :   1.0852
B( 57-C , 59-C ) :   1.4195 B( 59-C , 60-C ) :   1.2530 B( 59-C ,108-H ) :   0.9784
B( 60-C , 61-C ) :   1.4837 B( 60-C ,109-H ) :   0.9446 B( 61-C , 62-C ) :   1.1100
B( 61-C , 70-C ) :   0.9650 B( 62-C , 63-C ) :   1.5871 B( 62-C , 68-C ) :   0.9891
B( 63-C , 64-C ) :   1.1506 B( 63-C , 66-C ) :   1.1517 B( 64-C , 65-N ) :   2.9609
B( 66-C , 67-N ) :   2.9626 B( 68-C , 69-C ) :   1.2789 B( 68-C , 75-C ) :   1.4173
B( 69-C , 70-C ) :   0.9360 B( 69-C , 72-C ) :   1.4270 B( 70-C , 71-O ) :   2.1843
B( 72-C , 73-C ) :   1.2384 B( 72-C ,110-H ) :   1.0175 B( 73-C , 74-C ) :   1.3153
B( 73-C , 78-C ) :   1.1585 B( 74-C , 75-C ) :   1.3195 B( 74-C , 76-S ) :   1.0837
B( 75-C ,111-H ) :   0.9810 B( 76-S , 77-C ) :   1.0851 B( 77-C , 78-C ) :   1.6202
B( 77-C , 79-Br) :   1.0128 B( 78-C ,112-H ) :   1.0012

-----------------------------------------------------------------------------
         ABSORPTION SPECTRUM VIA TRANSITION ELECTRIC DIPOLE MOMENTS
-----------------------------------------------------------------------------
State   Energy  Wavelength   fosc         T2         TX        TY        TZ
        (cm-1)    (nm)                  (au**2)     (au)      (au)      (au)
-----------------------------------------------------------------------------
   0   10708.0    933.9   1.040009100  31.97456  -1.86107  -4.61651   2.68306
   1   19422.6    514.9   0.040345929   0.68386  -0.29938  -0.65496  -0.40652
   2   20840.8    479.8   1.053607096  16.64334   0.69037   1.33062   3.79423
   3   22840.5    437.8   0.008637032   0.12449  -0.01247   0.10504   0.33660
   4   22900.7    436.7   0.001402119   0.02016  -0.10668  -0.09331   0.00840
   5   23397.6    427.4   0.122708180   1.72654  -0.31416  -0.42646  -1.20249
   6   24452.0    409.0   0.240597724   3.23932   0.45266   1.53183  -0.82940
   7   24767.6    403.8   0.103770261   1.37932   0.40549  -1.05026   0.33445
   8   26271.4    380.6   0.604490630   7.57498  -0.18261  -0.46846  -2.70595
   9   26550.5    376.6   0.003678862   0.04562   0.04283   0.19297  -0.08089
  10   26971.0    370.8   0.218842329   2.67122  -0.27106  -1.49807  -0.59459
  11   28110.0    355.7   0.013595155   0.15922   0.04763   0.31810  -0.23614
  12   28217.5    354.4   0.019415892   0.22652   0.22872   0.12463  -0.39834
  13   28515.8    350.7   0.024485868   0.28269  -0.04585   0.11115  -0.51791
  14   28811.0    347.1   0.006207701   0.07093   0.06939  -0.23428   0.10598
  15   29431.8    339.8   0.008712794   0.09746  -0.05377  -0.10899   0.28755
  16   30073.2    332.5   0.198957142   2.17799  -0.45214  -1.02174  -0.96416
  17   30293.9    330.1   0.007676700   0.08342  -0.12393   0.14105  -0.21948
  18   30434.1    328.6   0.133672300   1.44596   0.18077  -0.72271   0.94392
  19   30814.2    324.5   0.067960238   0.72607  -0.07286  -0.80306   0.27544
  20   31007.2    322.5   0.265217021   2.81588  -0.02932  -1.40653   0.91471
  21   32025.7    312.2   0.014021492   0.14414  -0.06475  -0.33712   0.16216
  22   32141.4    311.1   0.016927291   0.17338   0.21666   0.01159   0.35539
  23   32199.6    310.6   0.129326153   1.32224   0.26781  -0.97903  -0.54040
  24   32336.5    309.2   0.500733890   5.09788  -0.74275  -1.91093   0.94580
  25   33262.6    300.6   0.123346629   1.22081   0.87337  -0.60337  -0.30657
  26   33695.1    296.8   0.000495309   0.00484  -0.06429  -0.02214   0.01469
  27   34089.4    293.3   0.023475479   0.22671   0.08373   0.01490  -0.46848
  28   34538.1    289.5   0.010009640   0.09541   0.02940  -0.15802   0.26377
  29   34659.3    288.5   0.048459300   0.46029   0.07589   0.65249   0.16967
  30   35020.8    285.5   0.021036645   0.19775  -0.16425   0.34153   0.23267
  31   35143.9    284.5   0.068122877   0.63814  -0.09374  -0.02590   0.79290
  32   35390.5    282.6   0.040964694   0.38106  -0.14237  -0.26090  -0.54104
  33   35495.9    281.7   0.034269245   0.31784  -0.00272   0.56372  -0.00679
  34   35693.2    280.2   0.399144830   3.68147   0.19735  -0.64835   1.79504
  35   35953.3    278.1   0.049164161   0.45018   0.24105   0.10840   0.61670
  36   36122.0    276.8   0.023494935   0.21413   0.13678   0.40807   0.17001
  37   37366.0    267.6   0.122019059   1.07504   0.16438   0.33241  -0.96826
  38   38115.9    262.4   0.111120688   0.95976  -0.21348   0.04079  -0.95526
  39   38338.3    260.8   0.002082656   0.01788   0.01139  -0.11123  -0.07335
  40   38456.2    260.0   0.002837301   0.02429   0.04669  -0.14640   0.02600
  41   38980.2    256.5   0.028774786   0.24302   0.01580  -0.05996   0.48906
  42   39311.7    254.4   0.014432653   0.12086   0.11942   0.26514   0.19054
  43   39352.4    254.1   0.000586464   0.00491   0.05241  -0.03992   0.02379
  44   39593.5    252.6   0.012691416   0.10553  -0.22701   0.12621   0.19510
  45   39718.7    251.8   0.002569759   0.02130  -0.03467  -0.06896   0.12386
  46   39770.5    251.4   0.004437928   0.03674  -0.01126   0.14593   0.12375
  47   39892.3    250.7   0.117904154   0.97301   0.07128  -0.34460   0.92151
  48   40093.7    249.4   0.081221201   0.66691   0.00056  -0.48864   0.65433

FINAL SINGLE POINT ENERGY     -7113.926396723298

DIPOLE MOMENT
-------------
                                X             Y             Z
Electronic contribution:     75.35229     205.33582    -107.47884
Nuclear contribution   :    -77.20361    -207.20808     105.09250
                        -----------------------------------------
Total Dipole Moment    :     -1.85132      -1.87226      -2.38634
                        -----------------------------------------
Magnitude (a.u.)       :      3.55350
Magnitude (Debye)      :      9.03227

Rotational constants in cm-1:     0.001136     0.000206     0.000179
Rotational constants in MHz :    34.041936     6.179981     5.369385

                             ****ORCA TERMINATED NORMALLY****
TOTAL RUN TIME: 0 days 0 hours 13 minutes 46 seconds 691 msec
