                         Program Version 4.2.0 -  RELEASE  -
|  1> # ORCA input file
|  2> # SCF done       -160.627749900277          0.000885311524
|  3> ! CAM-B3LYP def2-SVP def2/J RIJCOSX Grid4 TightSCF
|  4> %maxcore 5000
|  5> %tddft
|  6>     Mode sTDDFT
|  7>     Ethresh 5.0
|  8>     maxcore 5000
|  9> end
| 10>
| 11> %pal
| 12>   nprocs 6
| 13>   end
| 14> * xyz 0 1
| 15>    C       -2.51683         3.06725        -4.53169
| 16>    C       -1.95493         1.99958        -3.87616
| 17>    C       -0.61642         1.58785        -4.03924
| 18>    N        0.46064         1.19890        -4.12600
| 19>    C       -2.60867         1.16411        -2.94765
| 20>    N       -3.05771         0.44089        -2.17592
| 21>    C       -1.80716         3.96424        -5.43924
| 22>    C       -2.71167         4.95227        -5.89898
| 23>    C       -2.34224         5.95036        -6.76579
| 24>    C       -1.00994         5.98242        -7.19377
| 25>    C       -0.11341         4.99245        -6.72923
| 26>    C       -0.49010         3.97789        -5.85718
| 27>    S        1.48177         5.21679        -7.38198
| 28>    C        0.92960         6.62008        -8.25631
| 29>    C       -0.38087         6.90705        -8.07172
| 30>   Br        2.13532         7.57513        -9.33008
| 31>    C       -4.04166         4.69688        -5.31363
| 32>    O       -5.07868         5.27280        -5.60314
| 33>    C       -3.87951         3.54472        -4.42229
| 34>    C       -4.87989         2.93931        -3.69568
| 35>    C       -6.14441         3.42749        -3.35530
| 36>    S       -7.29012         2.26395        -2.68509
| 37>    C       -8.50949         3.45588        -2.37491
| 38>    C       -8.03955         4.71250        -2.75822
| 39>    C       -6.72880         4.69078        -3.31091
| 40>    S       -6.22146         6.29766        -3.65507
| 41>    C       -7.78014         6.84376        -3.06270
| 42>    N       -8.59805         5.94749        -2.65621
| 43>    C       -9.74474         3.09587        -1.78903
| 44>    C      -10.73784         3.97829        -1.51555
| 45>    C      -11.95557         3.57317        -0.89605
| 46>    C      -13.02146         4.35096        -0.62376
| 47>    C      -13.11579         5.81231        -0.91747
| 48>    C      -14.22628         3.75428         0.06062
| 49>    N      -14.34387         4.26689         1.40702
| 50>    C      -15.25026         5.19007         1.78601
| 51>    C      -15.17620         5.91755         2.93391
| 52>    C      -16.19734         6.78059         3.36563
| 53>    C      -16.13968         7.55287         4.49652
| 54>    C      -17.14929         8.40248         5.00805
| 55>    C      -16.80886         9.05443         6.15382
| 56>    C      -15.50091         8.77099         6.60913
| 57>    S      -14.72382         7.62339         5.54457
| 58>    C      -14.85171         9.30010         7.70716
| 59>    C      -15.35336        10.21256         8.66071
| 60>    C      -14.45067        10.56565         9.61587
| 61>    C      -13.17713         9.95767         9.46963
| 62>    S      -13.18244         8.89649         8.07373
| 63>    C      -12.08988        10.16553        10.27604
| 64>    C      -10.80970         9.60187        10.14072
| 65>    S      -10.32197         8.47647         8.88344
| 66>    C       -8.70335         8.34372         9.45240
| 67>    C       -8.51795         9.12595        10.56767
| 68>    C       -9.70439         9.82512        10.94465
| 69>    O       -9.49133        10.58477        12.04078
| 70>    C       -8.18649        10.37892        12.36645
| 71>    N       -7.67596        11.05824        13.49486
| 72>    O       -6.50332        10.86303        13.76098
| 73>    O       -8.42627        11.78207        14.11487
| 74>    C       -7.54015         9.51335        11.52387
| 75>    H       -3.05548         6.68710        -7.10058
| 76>    H        0.23121         3.24563        -5.53570
| 77>    H       -0.88449         7.73588        -8.53476
| 78>    H       -4.68293         1.94312        -3.31996
| 79>    H       -8.01886         7.88966        -3.07204
| 80>    H       -9.86969         2.04749        -1.55043
| 81>    H      -10.58959         5.01446        -1.77821
| 82>    H      -12.01554         2.52166        -0.63897
| 83>    H      -12.13698         6.27423        -0.99681
| 84>    H      -13.68248         6.32160        -0.13864
| 85>    H      -13.64061         5.96502        -1.86158
| 86>    H      -14.13730         2.66348         0.10310
| 87>    H      -15.14081         4.00860        -0.48183
| 88>    H      -13.51472         4.18126         1.97857
| 89>    H      -16.10540         5.29280         1.13055
| 90>    H      -14.30123         5.82579         3.56371
| 91>    H      -17.10040         6.83920         2.77177
| 92>    H      -18.09943         8.50071         4.51255
| 93>    H      -17.45493         9.73560         6.67767
| 94>    H      -16.36270        10.58086         8.61813
| 95>    H      -14.65044        11.24890        10.42209
| 96>    H      -12.20646        10.84406        11.11071
| 97>    H       -8.00677         7.71364         8.94084
| 98>    H       -6.51568         9.21281        11.59645
| 99> *
|100>
|101>                          ****END OF INPUT****

CARTESIAN COORDINATES (ANGSTROEM)
---------------------------------
  C     -2.516830    3.067250   -4.531690
  C     -1.954930    1.999580   -3.876160
  C     -0.616420    1.587850   -4.039240
  N      0.460640    1.198900   -4.126000
  C     -2.608670    1.164110   -2.947650
  N     -3.057710    0.440890   -2.175920
  C     -1.807160    3.964240   -5.439240
  C     -2.711670    4.952270   -5.898980
  C     -2.342240    5.950360   -6.765790
  C     -1.009940    5.982420   -7.193770
  C     -0.113410    4.992450   -6.729230
  C     -0.490100    3.977890   -5.857180
  S      1.481770    5.216790   -7.381980
  C      0.929600    6.620080   -8.256310
  C     -0.380870    6.907050   -8.071720
  Br     2.135320    7.575130   -9.330080
  C     -4.041660    4.696880   -5.313630
  O     -5.078680    5.272800   -5.603140
  C     -3.879510    3.544720   -4.422290
  C     -4.879890    2.939310   -3.695680
  C     -6.144410    3.427490   -3.355300
  S     -7.290120    2.263950   -2.685090
  C     -8.509490    3.455880   -2.374910
  C     -8.039550    4.712500   -2.758220
  C     -6.728800    4.690780   -3.310910
  S     -6.221460    6.297660   -3.655070
  C     -7.780140    6.843760   -3.062700
  N     -8.598050    5.947490   -2.656210
  C     -9.744740    3.095870   -1.789030
  C    -10.737840    3.978290   -1.515550
  C    -11.955570    3.573170   -0.896050
  C    -13.021460    4.350960   -0.623760
  C    -13.115790    5.812310   -0.917470
  C    -14.226280    3.754280    0.060620
  N    -14.343870    4.266890    1.407020
  C    -15.250260    5.190070    1.786010
  C    -15.176200    5.917550    2.933910
  C    -16.197340    6.780590    3.365630
  C    -16.139680    7.552870    4.496520
  C    -17.149290    8.402480    5.008050
  C    -16.808860    9.054430    6.153820
  C    -15.500910    8.770990    6.609130
  S    -14.723820    7.623390    5.544570
  C    -14.851710    9.300100    7.707160
  C    -15.353360   10.212560    8.660710
  C    -14.450670   10.565650    9.615870
  C    -13.177130    9.957670    9.469630
  S    -13.182440    8.896490    8.073730
  C    -12.089880   10.165530   10.276040
  C    -10.809700    9.601870   10.140720
  S    -10.321970    8.476470    8.883440
  C     -8.703350    8.343720    9.452400
  C     -8.517950    9.125950   10.567670
  C     -9.704390    9.825120   10.944650
  O     -9.491330   10.584770   12.040780
  C     -8.186490   10.378920   12.366450
  N     -7.675960   11.058240   13.494860
  O     -6.503320   10.863030   13.760980
  O     -8.426270   11.782070   14.114870
  C     -7.540150    9.513350   11.523870
  H     -3.055480    6.687100   -7.100580
  H      0.231210    3.245630   -5.535700
  H     -0.884490    7.735880   -8.534760
  H     -4.682930    1.943120   -3.319960
  H     -8.018860    7.889660   -3.072040
  H     -9.869690    2.047490   -1.550430
  H    -10.589590    5.014460   -1.778210
  H    -12.015540    2.521660   -0.638970
  H    -12.136980    6.274230   -0.996810
  H    -13.682480    6.321600   -0.138640
  H    -13.640610    5.965020   -1.861580
  H    -14.137300    2.663480    0.103100
  H    -15.140810    4.008600   -0.481830
  H    -13.514720    4.181260    1.978570
  H    -16.105400    5.292800    1.130550
  H    -14.301230    5.825790    3.563710
  H    -17.100400    6.839200    2.771770
  H    -18.099430    8.500710    4.512550
  H    -17.454930    9.735600    6.677670
  H    -16.362700   10.580860    8.618130
  H    -14.650440   11.248900   10.422090
  H    -12.206460   10.844060   11.110710
  H     -8.006770    7.713640    8.940840
  H     -6.515680    9.212810   11.596450

 Total Charge           Charge          ....    0
 Multiplicity           Mult            ....    1
 Number of Electrons    NEL             ....  486
 Basis Dimension        Dim             .... 1002

ORBITAL ENERGIES
----------------

  NO   OCC          E(Eh)            E(eV)
   0   2.0000    -482.885248    -13139.9756
   1   2.0000     -88.980969     -2421.2953
   2   2.0000     -88.976493     -2421.1735
   3   2.0000     -88.974440     -2421.1176
   4   2.0000     -88.961755     -2420.7724
   5   2.0000     -88.934893     -2420.0415
   6   2.0000     -88.934724     -2420.0369
   7   2.0000     -62.562935     -1702.4240
   8   2.0000     -56.396883     -1534.6372
   9   2.0000     -56.394171     -1534.5634
  10   2.0000     -56.394139     -1534.5625
  11   2.0000     -19.296074      -525.0729
  12   2.0000     -19.233701      -523.3756
  13   2.0000     -19.231342      -523.3114
  14   2.0000     -19.216425      -522.9055
  15   2.0000     -14.644984      -398.5103
  16   2.0000     -14.450267      -393.2117
  17   2.0000     -14.428068      -392.6077
  18   2.0000     -14.414656      -392.2427
  19   2.0000     -14.412181      -392.1754
  20   2.0000     -10.375034      -282.3190
  21   2.0000     -10.364667      -282.0369
  22   2.0000     -10.358092      -281.8580
  23   2.0000     -10.345681      -281.5203
  24   2.0000     -10.339661      -281.3565
  25   2.0000     -10.338689      -281.3300
  26   2.0000     -10.337893      -281.3084
  27   2.0000     -10.330176      -281.0984
  28   2.0000     -10.328747      -281.0595
  29   2.0000     -10.328008      -281.0394
  30   2.0000     -10.327527      -281.0263
  31   2.0000     -10.326442      -280.9968
  32   2.0000     -10.323696      -280.9220
  33   2.0000     -10.323336      -280.9122
  34   2.0000     -10.322218      -280.8818
  35   2.0000     -10.317805      -280.7617
  36   2.0000     -10.315556      -280.7005
  37   2.0000     -10.306291      -280.4484
  38   2.0000     -10.305769      -280.4342
  39   2.0000     -10.304055      -280.3876
  40   2.0000     -10.303907      -280.3836
  41   2.0000     -10.303836      -280.3816
  42   2.0000     -10.303222      -280.3649
  43   2.0000     -10.300661      -280.2952
  44   2.0000     -10.299701      -280.2691
  45   2.0000     -10.299375      -280.2602
  46   2.0000     -10.297735      -280.2156
  47   2.0000     -10.296646      -280.1860
  48   2.0000     -10.295982      -280.1679
  49   2.0000     -10.295691      -280.1600
  50   2.0000     -10.295312      -280.1497
  51   2.0000     -10.293265      -280.0940
  52   2.0000     -10.291294      -280.0404
  53   2.0000     -10.290773      -280.0262
  54   2.0000     -10.287221      -279.9295
  55   2.0000     -10.284526      -279.8562
  56   2.0000     -10.282558      -279.8026
  57   2.0000     -10.281284      -279.7679
  58   2.0000     -10.279345      -279.7152
  59   2.0000     -10.276105      -279.6270
  60   2.0000     -10.274934      -279.5952
  61   2.0000     -10.272500      -279.5289
  62   2.0000     -10.270013      -279.4613
  63   2.0000     -10.264782      -279.3189
  64   2.0000      -8.792352      -239.2521
  65   2.0000      -8.076312      -219.7676
  66   2.0000      -8.071115      -219.6262
  67   2.0000      -8.070459      -219.6083
  68   2.0000      -8.056238      -219.2214
  69   2.0000      -8.031036      -218.5356
  70   2.0000      -8.030948      -218.5332
  71   2.0000      -6.628622      -180.3740
  72   2.0000      -6.614100      -179.9788
  73   2.0000      -6.613901      -179.9734
  74   2.0000      -6.045570      -164.5083
  75   2.0000      -6.041533      -164.3985
  76   2.0000      -6.040549      -164.3717
  77   2.0000      -6.040157      -164.3610
  78   2.0000      -6.038350      -164.3118
  79   2.0000      -6.036114      -164.2510
  80   2.0000      -6.035867      -164.2443
  81   2.0000      -6.033127      -164.1697
  82   2.0000      -6.031668      -164.1300
  83   2.0000      -6.025590      -163.9646
  84   2.0000      -6.021173      -163.8444
  85   2.0000      -6.018656      -163.7760
  86   2.0000      -6.000770      -163.2893
  87   2.0000      -6.000721      -163.2879
  88   2.0000      -5.996840      -163.1823
  89   2.0000      -5.996667      -163.1776
  90   2.0000      -5.991891      -163.0476
  91   2.0000      -5.991841      -163.0463
  92   2.0000      -2.744524       -74.6823
  93   2.0000      -2.740391       -74.5698
  94   2.0000      -2.740284       -74.5669
  95   2.0000      -2.728716       -74.2521
  96   2.0000      -2.728703       -74.2518
  97   2.0000      -1.315973       -35.8094
  98   2.0000      -1.215722       -33.0815
  99   2.0000      -1.132035       -30.8042
 100   2.0000      -1.130796       -30.7705
 101   2.0000      -1.082577       -29.4584
 102   2.0000      -1.052240       -28.6329
 103   2.0000      -1.021549       -27.7977
 104   2.0000      -1.012064       -27.5397
 105   2.0000      -0.997634       -27.1470
 106   2.0000      -0.992241       -27.0002
 107   2.0000      -0.987427       -26.8692
 108   2.0000      -0.986545       -26.8453
 109   2.0000      -0.979823       -26.6623
 110   2.0000      -0.960973       -26.1494
 111   2.0000      -0.944657       -25.7054
 112   2.0000      -0.938788       -25.5457
 113   2.0000      -0.923640       -25.1335
 114   2.0000      -0.923154       -25.1203
 115   2.0000      -0.907156       -24.6850
 116   2.0000      -0.899946       -24.4888
 117   2.0000      -0.898663       -24.4539
 118   2.0000      -0.887370       -24.1466
 119   2.0000      -0.884418       -24.0662
 120   2.0000      -0.881479       -23.9863
 121   2.0000      -0.866550       -23.5800
 122   2.0000      -0.863000       -23.4834
 123   2.0000      -0.843399       -22.9500
 124   2.0000      -0.838433       -22.8149
 125   2.0000      -0.833230       -22.6733
 126   2.0000      -0.828319       -22.5397
 127   2.0000      -0.821065       -22.3423
 128   2.0000      -0.817033       -22.2326
 129   2.0000      -0.808396       -21.9976
 130   2.0000      -0.793271       -21.5860
 131   2.0000      -0.786939       -21.4137
 132   2.0000      -0.771946       -21.0057
 133   2.0000      -0.760920       -20.7057
 134   2.0000      -0.757897       -20.6234
 135   2.0000      -0.751900       -20.4602
 136   2.0000      -0.723886       -19.6979
 137   2.0000      -0.718311       -19.5462
 138   2.0000      -0.715023       -19.4568
 139   2.0000      -0.701666       -19.0933
 140   2.0000      -0.695870       -18.9356
 141   2.0000      -0.693649       -18.8752
 142   2.0000      -0.688873       -18.7452
 143   2.0000      -0.683930       -18.6107
 144   2.0000      -0.668739       -18.1973
 145   2.0000      -0.660811       -17.9816
 146   2.0000      -0.658903       -17.9297
 147   2.0000      -0.652844       -17.7648
 148   2.0000      -0.636317       -17.3151
 149   2.0000      -0.633894       -17.2491
 150   2.0000      -0.630504       -17.1569
 151   2.0000      -0.629867       -17.1395
 152   2.0000      -0.625464       -17.0197
 153   2.0000      -0.621860       -16.9217
 154   2.0000      -0.619540       -16.8585
 155   2.0000      -0.614671       -16.7260
 156   2.0000      -0.609681       -16.5903
 157   2.0000      -0.601836       -16.3768
 158   2.0000      -0.597270       -16.2525
 159   2.0000      -0.589170       -16.0321
 160   2.0000      -0.585466       -15.9313
 161   2.0000      -0.582968       -15.8634
 162   2.0000      -0.579123       -15.7587
 163   2.0000      -0.576380       -15.6841
 164   2.0000      -0.574122       -15.6227
 165   2.0000      -0.569371       -15.4934
 166   2.0000      -0.561847       -15.2886
 167   2.0000      -0.552955       -15.0467
 168   2.0000      -0.551505       -15.0072
 169   2.0000      -0.546450       -14.8697
 170   2.0000      -0.545318       -14.8389
 171   2.0000      -0.541808       -14.7433
 172   2.0000      -0.539316       -14.6755
 173   2.0000      -0.538745       -14.6600
 174   2.0000      -0.535329       -14.5670
 175   2.0000      -0.531927       -14.4745
 176   2.0000      -0.530847       -14.4451
 177   2.0000      -0.521277       -14.1847
 178   2.0000      -0.518590       -14.1116
 179   2.0000      -0.512199       -13.9376
 180   2.0000      -0.510166       -13.8823
 181   2.0000      -0.507612       -13.8128
 182   2.0000      -0.504900       -13.7390
 183   2.0000      -0.497416       -13.5354
 184   2.0000      -0.494921       -13.4675
 185   2.0000      -0.494145       -13.4464
 186   2.0000      -0.492445       -13.4001
 187   2.0000      -0.488080       -13.2813
 188   2.0000      -0.486184       -13.2297
 189   2.0000      -0.484606       -13.1868
 190   2.0000      -0.479735       -13.0543
 191   2.0000      -0.478651       -13.0248
 192   2.0000      -0.474077       -12.9003
 193   2.0000      -0.471944       -12.8422
 194   2.0000      -0.467568       -12.7232
 195   2.0000      -0.465709       -12.6726
 196   2.0000      -0.462634       -12.5889
 197   2.0000      -0.461459       -12.5569
 198   2.0000      -0.458133       -12.4664
 199   2.0000      -0.455654       -12.3990
 200   2.0000      -0.454489       -12.3673
 201   2.0000      -0.450443       -12.2572
 202   2.0000      -0.447551       -12.1785
 203   2.0000      -0.445875       -12.1329
 204   2.0000      -0.442734       -12.0474
 205   2.0000      -0.442317       -12.0361
 206   2.0000      -0.440257       -11.9800
 207   2.0000      -0.438839       -11.9414
 208   2.0000      -0.436181       -11.8691
 209   2.0000      -0.431862       -11.7516
 210   2.0000      -0.429990       -11.7006
 211   2.0000      -0.426622       -11.6090
 212   2.0000      -0.425029       -11.5656
 213   2.0000      -0.421695       -11.4749
 214   2.0000      -0.417922       -11.3722
 215   2.0000      -0.411034       -11.1848
 216   2.0000      -0.406655       -11.0656
 217   2.0000      -0.405896       -11.0450
 218   2.0000      -0.398707       -10.8494
 219   2.0000      -0.391939       -10.6652
 220   2.0000      -0.387542       -10.5455
 221   2.0000      -0.383791       -10.4435
 222   2.0000      -0.378833       -10.3086
 223   2.0000      -0.376797       -10.2532
 224   2.0000      -0.374625       -10.1941
 225   2.0000      -0.369805       -10.0629
 226   2.0000      -0.369571       -10.0565
 227   2.0000      -0.364718        -9.9245
 228   2.0000      -0.361090        -9.8258
 229   2.0000      -0.349318        -9.5054
 230   2.0000      -0.344421        -9.3722
 231   2.0000      -0.331991        -9.0339
 232   2.0000      -0.328572        -8.9409
 233   2.0000      -0.327419        -8.9095
 234   2.0000      -0.320702        -8.7268
 235   2.0000      -0.319086        -8.6828
 236   2.0000      -0.312961        -8.5161
 237   2.0000      -0.307631        -8.3711
 238   2.0000      -0.294609        -8.0167
 239   2.0000      -0.292619        -7.9626
 240   2.0000      -0.263246        -7.1633
 241   2.0000      -0.254981        -6.9384
 242   2.0000      -0.195057        -5.3078
 243   0.0000      -0.100388        -2.7317
 244   0.0000      -0.068354        -1.8600
 245   0.0000      -0.064948        -1.7673
 246   0.0000      -0.046961        -1.2779
 247   0.0000      -0.035363        -0.9623

MULLIKEN ATOMIC CHARGES
-----------------------
   0 C :    0.321547
   1 C :   -0.354341
   2 C :   -0.187341
   3 N :    0.147811
   4 C :   -0.194908
   5 N :    0.148767
   6 C :    0.011662
   7 C :   -0.007505
   8 C :   -0.076093
   9 C :    0.119309
  10 C :   -0.094337
  11 C :   -0.020799
  12 S :    0.185763
  13 C :   -0.122828
  14 C :    0.036534
  15 Br:    0.022167
  16 C :    0.130246
  17 O :   -0.185991
  18 C :   -0.095328
  19 C :    0.037481
  20 C :   -0.206894
  21 S :    0.174167
  22 C :   -0.112334
  23 C :    0.052655
  24 C :    0.023187
  25 S :    0.178130
  26 C :    0.011852
  27 N :   -0.062727
  28 C :    0.009804
  29 C :    0.030548
  30 C :    0.007052
  31 C :   -0.197672
  32 C :    0.089336
  33 C :    0.217884
  34 N :   -0.145479
  35 C :    0.048387
  36 C :   -0.025837
  37 C :   -0.006791
  38 C :   -0.042086
  39 C :    0.046895
  40 C :    0.006471
  41 C :   -0.035369
  42 S :    0.057427
  43 C :   -0.050024
  44 C :    0.032101
  45 C :    0.024750
  46 C :   -0.019339
  47 S :    0.047534
  48 C :   -0.025740
  49 C :   -0.184846
  50 S :    0.130732
  51 C :   -0.143263
  52 C :    0.130512
  53 C :    0.186571
  54 O :   -0.186251
  55 C :    0.231186
  56 N :    0.274392
  57 O :   -0.255098
  58 O :   -0.234388
  59 C :   -0.074583
  60 H :   -0.014366
  61 H :   -0.007063
  62 H :   -0.004363
  63 H :    0.009991
  64 H :    0.043744
  65 H :   -0.020499
  66 H :    0.015581
  67 H :   -0.024359
  68 H :    0.034367
  69 H :    0.027715
  70 H :    0.034503
  71 H :    0.013438
  72 H :    0.019814
  73 H :    0.122538
  74 H :    0.002706
  75 H :   -0.011933
  76 H :   -0.022558
  77 H :   -0.019787
  78 H :   -0.018495
  79 H :   -0.019237
  80 H :   -0.016174
  81 H :   -0.002592
  82 H :    0.024104
  83 H :    0.008257
Sum of atomic charges:    0.0000000

LOEWDIN ATOMIC CHARGES
----------------------
   0 C :    0.077970
   1 C :   -0.146302
   2 C :   -0.018463
   3 N :   -0.057106
   4 C :   -0.023059
   5 N :   -0.055900
   6 C :   -0.021703
   7 C :   -0.048333
   8 C :    0.017306
   9 C :   -0.033336
  10 C :   -0.145703
  11 C :   -0.009358
  12 S :    0.432176
  13 C :   -0.272244
  14 C :   -0.071344
  15 Br:    0.135381
  16 C :    0.070120
  17 O :   -0.177083
  18 C :   -0.111395
  19 C :    0.038775
  20 C :   -0.199774
  21 S :    0.475321
  22 C :   -0.135573
  23 C :   -0.074925
  24 C :   -0.173065
  25 S :    0.472056
  26 C :   -0.104440
  27 N :   -0.094372
  28 C :   -0.054543
  29 C :    0.020274
  30 C :   -0.054604
  31 C :   -0.021571
  32 C :   -0.050652
  33 C :    0.049468
  34 N :    0.004687
  35 C :    0.042818
  36 C :   -0.123524
  37 C :   -0.031922
  38 C :   -0.177311
  39 C :   -0.024602
  40 C :   -0.052544
  41 C :   -0.164200
  42 S :    0.355819
  43 C :   -0.199815
  44 C :   -0.031520
  45 C :   -0.046495
  46 C :   -0.145785
  47 S :    0.352958
  48 C :   -0.090851
  49 C :   -0.198102
  50 S :    0.464815
  51 C :   -0.205145
  52 C :   -0.084465
  53 C :    0.012085
  54 O :   -0.000842
  55 C :    0.022014
  56 N :    0.272462
  57 O :   -0.215933
  58 O :   -0.196040
  59 C :   -0.011118
  60 H :    0.039228
  61 H :    0.040977
  62 H :    0.038213
  63 H :    0.043212
  64 H :    0.020890
  65 H :    0.029183
  66 H :    0.031975
  67 H :    0.025640
  68 H :    0.037232
  69 H :    0.035741
  70 H :    0.043515
  71 H :    0.026455
  72 H :    0.033028
  73 H :    0.081805
  74 H :    0.027182
  75 H :    0.019073
  76 H :    0.030218
  77 H :    0.030939
  78 H :    0.029302
  79 H :    0.030191
  80 H :    0.031733
  81 H :    0.042924
  82 H :    0.024947
  83 H :    0.044951

  Mayer bond orders larger than 0.100000
B(  0-C ,  1-C ) :   1.6154 B(  0-C ,  6-C ) :   0.9966 B(  0-C , 18-C ) :   1.0956
B(  1-C ,  2-C ) :   1.1451 B(  1-C ,  4-C ) :   1.1450 B(  2-C ,  3-N ) :   2.9664
B(  4-C ,  5-N ) :   2.9681 B(  6-C ,  7-C ) :   1.2748 B(  6-C , 11-C ) :   1.4168
B(  7-C ,  8-C ) :   1.4274 B(  7-C , 16-C ) :   0.9344 B(  8-C ,  9-C ) :   1.2412
B(  8-C , 60-H ) :   1.0159 B(  9-C , 10-C ) :   1.3130 B(  9-C , 14-C ) :   1.1620
B( 10-C , 11-C ) :   1.3251 B( 10-C , 12-S ) :   1.0847 B( 11-C , 61-H ) :   0.9788
B( 12-S , 13-C ) :   1.0876 B( 13-C , 14-C ) :   1.6176 B( 13-C , 15-Br) :   1.0184
B( 14-C , 62-H ) :   1.0005 B( 16-C , 17-O ) :   2.1423 B( 16-C , 18-C ) :   0.9906
B( 18-C , 19-C ) :   1.5066 B( 19-C , 20-C ) :   1.2877 B( 19-C , 63-H ) :   0.9163
B( 20-C , 21-S ) :   1.0918 B( 20-C , 24-C ) :   1.4077 B( 21-S , 22-C ) :   1.1703
B( 22-C , 23-C ) :   1.3641 B( 22-C , 28-C ) :   1.1320 B( 23-C , 24-C ) :   1.2753
B( 23-C , 27-N ) :   1.3099 B( 24-C , 25-S ) :   1.1122 B( 25-S , 26-C ) :   1.1100
B( 26-C , 27-N ) :   1.7461 B( 26-C , 64-H ) :   0.9637 B( 28-C , 29-C ) :   1.6676
B( 28-C , 65-H ) :   0.9645 B( 29-C , 30-C ) :   1.1135 B( 29-C , 66-H ) :   0.9528
B( 30-C , 31-C ) :   1.7320 B( 30-C , 67-H ) :   0.9759 B( 31-C , 32-C ) :   1.0719
B( 31-C , 33-C ) :   1.0466 B( 32-C , 68-H ) :   0.9500 B( 32-C , 69-H ) :   0.9477
B( 32-C , 70-H ) :   0.9420 B( 33-C , 34-N ) :   0.9994 B( 33-C , 71-H ) :   0.9380
B( 33-C , 72-H ) :   0.9295 B( 34-N , 35-C ) :   1.2287 B( 34-N , 73-H ) :   0.9365
B( 35-C , 36-C ) :   1.5882 B( 35-C , 74-H ) :   0.9669 B( 36-C , 37-C ) :   1.1762
B( 36-C , 75-H ) :   0.9629 B( 37-C , 38-C ) :   1.5816 B( 37-C , 76-H ) :   0.9788
B( 38-C , 39-C ) :   1.1498 B( 38-C , 42-S ) :   1.0085 B( 39-C , 40-C ) :   1.5857
B( 39-C , 77-H ) :   0.9977 B( 40-C , 41-C ) :   1.1891 B( 40-C , 78-H ) :   0.9944
B( 41-C , 42-S ) :   1.0559 B( 41-C , 43-C ) :   1.5097 B( 43-C , 44-C ) :   1.1929
B( 43-C , 47-S ) :   1.0229 B( 44-C , 45-C ) :   1.5878 B( 44-C , 79-H ) :   0.9917
B( 45-C , 46-C ) :   1.1438 B( 45-C , 80-H ) :   1.0004 B( 46-C , 47-S ) :   1.0408
B( 46-C , 48-C ) :   1.5610 B( 48-C , 49-C ) :   1.1743 B( 48-C , 81-H ) :   0.9738
B( 49-C , 50-S ) :   1.1097 B( 49-C , 51-C ) :   0.1085 B( 49-C , 53-C ) :   1.4432
B( 50-S , 51-C ) :   1.1743 B( 51-C , 52-C ) :   1.4146 B( 51-C , 82-H ) :   0.9765
B( 52-C , 53-C ) :   1.2296 B( 52-C , 59-C ) :   1.0631 B( 53-C , 54-O ) :   1.1147
B( 54-O , 55-C ) :   1.1272 B( 55-C , 56-N ) :   0.9207 B( 55-C , 59-C ) :   1.5694
B( 56-N , 57-O ) :   1.5295 B( 56-N , 58-O ) :   1.5124 B( 57-O , 58-O ) :   0.2771
B( 59-C , 83-H ) :   1.0248

-----------------------------------------------------------------------------
         ABSORPTION SPECTRUM VIA TRANSITION ELECTRIC DIPOLE MOMENTS
-----------------------------------------------------------------------------
State   Energy  Wavelength   fosc         T2         TX        TY        TZ
        (cm-1)    (nm)                  (au**2)     (au)      (au)      (au)
-----------------------------------------------------------------------------
   0   11779.5    848.9   0.211936928   5.92317   0.78864  -0.91453  -2.11302
   1   14988.1    667.2   0.747496070  16.41862   2.16314   1.33830   3.15411
   2   18493.9    540.7   0.655190661  11.66314  -0.67314   1.58944   2.94681
   3   19726.2    506.9   1.425844589  23.79601  -4.83521   0.05386   0.64329
   4   20507.7    487.6   0.024442452   0.39238  -0.53866  -0.23623  -0.21545
   5   24648.1    405.7   0.036604188   0.48890   0.60517  -0.19696  -0.28961
   6   25353.8    394.4   0.040820571   0.53004  -0.57640   0.08642   0.43628
   7   25444.2    393.0   0.027657168   0.35785  -0.50871  -0.27284   0.15689
   8   26786.8    373.3   0.024433961   0.30029  -0.37705   0.39332   0.05859
   9   27277.5    366.6   0.503906237   6.08164   1.56060   1.13036  -1.53898
  10   27847.0    359.1   0.004513224   0.05336  -0.02887  -0.22447   0.04622
  11   29590.3    337.9   0.027882165   0.31021  -0.53612  -0.03843   0.14595
  12   30092.6    332.3   0.336128581   3.67724   1.32398  -1.12598  -0.81024
  13   30207.0    331.0   0.009293593   0.10129  -0.15301  -0.27671  -0.03617
  14   30239.8    330.7   0.144507809   1.57321   0.71425  -0.90220  -0.49908
  15   30920.7    323.4   0.308558337   3.28522  -1.69792   0.60875  -0.17810
  16   32394.0    308.7   0.094321366   0.95856  -0.00601  -0.66138   0.72187
  17   32538.5    307.3   0.414224306   4.19097   0.29869   1.77928  -0.96742
  18   32713.4    305.7   0.081918718   0.82439   0.36665   0.18493  -0.80979
  19   32894.2    304.0   0.022565204   0.22584   0.17898   0.37266  -0.23436
  20   33279.3    300.5   0.023565470   0.23312   0.12735   0.29038   0.36412
  21   33524.5    298.3   0.013898146   0.13648  -0.11804   0.27236   0.21992
  22   34013.6    294.0   0.065931504   0.63814  -0.32114  -0.47624  -0.55517
  23   34492.1    289.9   0.031822000   0.30373   0.23570  -0.38204  -0.31972
  24   34640.3    288.7   0.008568709   0.08143   0.14343   0.09777  -0.22650
  25   34781.9    287.5   0.012772981   0.12090   0.32118  -0.01362   0.13249
  26   35735.6    279.8   0.005405207   0.04980   0.12931  -0.00645   0.18175
  27   35841.7    279.0   0.060453824   0.55528  -0.13507   0.57658  -0.45231
  28   36396.4    274.8   0.019735691   0.17851  -0.11528   0.38787  -0.12156
  29   37086.7    269.6   0.490306765   4.35236   0.82930   0.98525   1.64132
  30   37234.3    268.6   0.003393766   0.03001   0.13567  -0.08314  -0.06846
  31   37709.8    265.2   0.005251242   0.04584   0.19614  -0.05115  -0.06896
  32   38037.1    262.9   0.235371198   2.03714   1.35102  -0.45656  -0.05875
  33   39101.3    255.7   0.016213733   0.13651   0.35948  -0.01140  -0.08460
  34   39401.6    253.8   0.055810824   0.46632  -0.21670   0.55671  -0.33081
  35   39435.3    253.6   0.010414886   0.08695   0.02125   0.05093   0.28965
  36   39580.1    252.7   0.002048784   0.01704   0.04403   0.02161  -0.12098
  37   39705.6    251.9   0.026477552   0.21953   0.06879   0.23285   0.40073
  38   39947.9    250.3   0.004930291   0.04063   0.05704   0.12696  -0.14580
  39   40273.7    248.3   0.006899149   0.05640   0.11270   0.00702   0.20892

FINAL SINGLE POINT ENERGY     -7225.080066900081

DIPOLE MOMENT
-------------
                                X             Y             Z
Electronic contribution:    172.74836      12.44795    -116.36120
Nuclear contribution   :   -176.19258     -12.40161     112.09895
                        -----------------------------------------
Total Dipole Moment    :     -3.44423       0.04633      -4.26226
                        -----------------------------------------
Magnitude (a.u.)       :      5.48012
Magnitude (Debye)      :     13.92935

Rotational constants in cm-1:     0.001030     0.000220     0.000195
Rotational constants in MHz :    30.881511     6.601295     5.837932

                             ****ORCA TERMINATED NORMALLY****
TOTAL RUN TIME: 0 days 0 hours 6 minutes 13 seconds 253 msec
