                         Program Version 4.2.0 -  RELEASE  -
|  1> # ORCA input file
|  2> # SCF done       -188.309503089498          0.000457500470
|  3> ! CAM-B3LYP def2-SVP def2/J RIJCOSX Grid4 TightSCF
|  4> %maxcore 5000
|  5> %tddft
|  6>     Mode sTDDFT
|  7>     Ethresh 5.0
|  8>     maxcore 5000
|  9> end
| 10>
| 11> %pal
| 12>   nprocs 6
| 13>   end
| 14> * xyz 0 1
| 15>    C       -5.95346         0.26175         3.46877
| 16>    C       -7.03561        -0.27637         4.11965
| 17>    C       -6.95844        -0.96828         5.34649
| 18>    N       -6.96924        -1.54155         6.34127
| 19>    C       -8.37678        -0.21512         3.69099
| 20>    N       -9.49538        -0.19751         3.42637
| 21>    C       -4.57876         0.20868         3.94755
| 22>    C       -3.74754         0.88689         3.02373
| 23>    C       -2.39275         1.02423         3.20365
| 24>    C       -1.82626         0.45684         4.34941
| 25>    C       -2.66282        -0.22462         5.26575
| 26>    C       -4.03329        -0.35820         5.08587
| 27>    S       -1.75899        -0.85144         6.61133
| 28>    C       -0.29090        -0.19813         5.93399
| 29>    C       -0.46561         0.45566         4.76096
| 30>   Br        1.33325        -0.43992         6.84018
| 31>    C       -4.56088         1.37957         1.89517
| 32>    O       -4.15236         2.02149         0.95092
| 33>    C       -5.95506         0.97083         2.19781
| 34>    C       -7.07686         1.32218         1.50907
| 35>    C       -7.18948         1.91454         0.21202
| 36>    C       -6.29401         1.62091        -0.78625
| 37>    S       -6.71683         2.21870        -2.32132
| 38>    C       -8.14941         2.94568        -1.65067
| 39>    C       -8.29564         2.72355        -0.27356
| 40>    C       -9.40424         3.30266         0.39772
| 41>    C       -9.50886         3.20946         1.89996
| 42>    C       -8.35795         3.94317         2.59199
| 43>    C      -10.36779         3.99582        -0.32878
| 44>    C      -11.61020         4.54544         0.32313
| 45>    C      -11.38063         5.94168         0.90566
| 46>    C      -10.21565         4.19616        -1.72102
| 47>    C      -11.08036         4.84808        -2.67574
| 48>    C      -10.59517         4.75998        -3.94272
| 49>    S       -9.08260         3.94686        -4.07913
| 50>    C       -9.09095         3.66232        -2.36812
| 51>    C      -12.33783         5.54167        -2.42109
| 52>    C      -13.47719         5.21973        -3.05432
| 53>    C      -14.73865         5.86151        -2.85504
| 54>    N      -15.89880         5.26689        -3.30429
| 55>    C      -16.95333         6.04493        -2.94216
| 56>    C      -18.33866         6.13558        -2.96158
| 57>    C      -18.65836         7.34015        -2.31470
| 58>    N      -17.48787         7.96653        -1.92212
| 59>    C      -16.43583         7.18337        -2.27441
| 60>    C      -15.04828         7.06138        -2.21381
| 61>    C      -19.92215         7.90397        -2.04592
| 62>    C      -21.11134         7.25599        -2.23529
| 63>    C      -22.36639         7.80831        -1.95972
| 64>    C      -23.54663         7.10542        -2.04046
| 65>    C      -24.85302         7.58118        -1.79009
| 66>    C      -25.82922         6.63623        -1.91113
| 67>    C      -25.34576         5.35525        -2.25430
| 68>    S      -23.60923         5.39532        -2.44863
| 69>    C      -26.06422         4.18322        -2.40191
| 70>    C      -27.45703         3.99160        -2.28153
| 71>    C      -27.85380         2.70016        -2.45126
| 72>    C      -26.79449         1.79304        -2.70897
| 73>    S      -25.26970         2.65806        -2.75146
| 74>    C      -26.91829         0.43942        -2.88103
| 75>    C      -25.88662        -0.48858        -3.10160
| 76>    S      -24.17900        -0.09833        -3.23412
| 77>    C      -23.69217        -1.73339        -3.46056
| 78>    C      -24.78331        -2.56960        -3.43941
| 79>    C      -26.00699        -1.86163        -3.23974
| 80>    O      -27.05871        -2.70842        -3.21985
| 81>    C      -26.52190        -3.94508        -3.40344
| 82>    N      -27.40352        -5.04794        -3.42506
| 83>    O      -26.89750        -6.14385        -3.59118
| 84>    O      -28.58923        -4.83638        -3.27991
| 85>    C      -25.15884        -3.93647        -3.54306
| 86>    H       -1.78948         1.55130         2.48119
| 87>    H       -4.62540        -0.88422         5.81550
| 88>    H        0.33069         0.91896         4.20764
| 89>    H       -8.01950         1.09320         1.97965
| 90>    H       -5.41776         1.01113        -0.69704
| 91>    H       -9.54972         2.16739         2.21875
| 92>    H      -10.43347         3.66325         2.24407
| 93>    H       -7.38867         3.54665         2.30184
| 94>    H       -8.45656         3.85278         3.67166
| 95>    H       -8.37846         4.99909         2.32992
| 96>    H      -11.96520         3.87277         1.10437
| 97>    H      -12.39950         4.59554        -0.42747
| 98>    H      -10.67138         5.90960         1.72851
| 99>    H      -12.31743         6.35363         1.27465
|100>    H      -10.97912         6.61001         0.14701
|101>    H      -11.04215         5.17373        -4.82586
|102>    H      -12.32121         6.36557        -1.72344
|103>    H      -13.47978         4.36974        -3.72629
|104>    H      -15.93927         4.37993        -3.77583
|105>    H      -19.04046         5.44782        -3.38683
|106>    H      -17.45035         8.83546        -1.41810
|107>    H      -14.34364         7.74305        -1.78252
|108>    H      -19.93435         8.90558        -1.63308
|109>    H      -21.09728         6.23753        -2.59820
|110>    H      -22.42431         8.84380        -1.64964
|111>    H      -25.03292         8.60857        -1.52542
|112>    H      -26.87594         6.82407        -1.75251
|113>    H      -28.12659         4.80674        -2.07309
|114>    H      -28.87314         2.36208        -2.39284
|115>    H      -27.91291         0.01637        -2.83093
|116>    H      -22.65728        -1.97031        -3.59007
|117>    H      -24.53736        -4.79418        -3.69538
|118> *
|119>
|120>                          ****END OF INPUT****

CARTESIAN COORDINATES (ANGSTROEM)
---------------------------------
  C     -5.953460    0.261750    3.468770
  C     -7.035610   -0.276370    4.119650
  C     -6.958440   -0.968280    5.346490
  N     -6.969240   -1.541550    6.341270
  C     -8.376780   -0.215120    3.690990
  N     -9.495380   -0.197510    3.426370
  C     -4.578760    0.208680    3.947550
  C     -3.747540    0.886890    3.023730
  C     -2.392750    1.024230    3.203650
  C     -1.826260    0.456840    4.349410
  C     -2.662820   -0.224620    5.265750
  C     -4.033290   -0.358200    5.085870
  S     -1.758990   -0.851440    6.611330
  C     -0.290900   -0.198130    5.933990
  C     -0.465610    0.455660    4.760960
  Br     1.333250   -0.439920    6.840180
  C     -4.560880    1.379570    1.895170
  O     -4.152360    2.021490    0.950920
  C     -5.955060    0.970830    2.197810
  C     -7.076860    1.322180    1.509070
  C     -7.189480    1.914540    0.212020
  C     -6.294010    1.620910   -0.786250
  S     -6.716830    2.218700   -2.321320
  C     -8.149410    2.945680   -1.650670
  C     -8.295640    2.723550   -0.273560
  C     -9.404240    3.302660    0.397720
  C     -9.508860    3.209460    1.899960
  C     -8.357950    3.943170    2.591990
  C    -10.367790    3.995820   -0.328780
  C    -11.610200    4.545440    0.323130
  C    -11.380630    5.941680    0.905660
  C    -10.215650    4.196160   -1.721020
  C    -11.080360    4.848080   -2.675740
  C    -10.595170    4.759980   -3.942720
  S     -9.082600    3.946860   -4.079130
  C     -9.090950    3.662320   -2.368120
  C    -12.337830    5.541670   -2.421090
  C    -13.477190    5.219730   -3.054320
  C    -14.738650    5.861510   -2.855040
  N    -15.898800    5.266890   -3.304290
  C    -16.953330    6.044930   -2.942160
  C    -18.338660    6.135580   -2.961580
  C    -18.658360    7.340150   -2.314700
  N    -17.487870    7.966530   -1.922120
  C    -16.435830    7.183370   -2.274410
  C    -15.048280    7.061380   -2.213810
  C    -19.922150    7.903970   -2.045920
  C    -21.111340    7.255990   -2.235290
  C    -22.366390    7.808310   -1.959720
  C    -23.546630    7.105420   -2.040460
  C    -24.853020    7.581180   -1.790090
  C    -25.829220    6.636230   -1.911130
  C    -25.345760    5.355250   -2.254300
  S    -23.609230    5.395320   -2.448630
  C    -26.064220    4.183220   -2.401910
  C    -27.457030    3.991600   -2.281530
  C    -27.853800    2.700160   -2.451260
  C    -26.794490    1.793040   -2.708970
  S    -25.269700    2.658060   -2.751460
  C    -26.918290    0.439420   -2.881030
  C    -25.886620   -0.488580   -3.101600
  S    -24.179000   -0.098330   -3.234120
  C    -23.692170   -1.733390   -3.460560
  C    -24.783310   -2.569600   -3.439410
  C    -26.006990   -1.861630   -3.239740
  O    -27.058710   -2.708420   -3.219850
  C    -26.521900   -3.945080   -3.403440
  N    -27.403520   -5.047940   -3.425060
  O    -26.897500   -6.143850   -3.591180
  O    -28.589230   -4.836380   -3.279910
  C    -25.158840   -3.936470   -3.543060
  H     -1.789480    1.551300    2.481190
  H     -4.625400   -0.884220    5.815500
  H      0.330690    0.918960    4.207640
  H     -8.019500    1.093200    1.979650
  H     -5.417760    1.011130   -0.697040
  H     -9.549720    2.167390    2.218750
  H    -10.433470    3.663250    2.244070
  H     -7.388670    3.546650    2.301840
  H     -8.456560    3.852780    3.671660
  H     -8.378460    4.999090    2.329920
  H    -11.965200    3.872770    1.104370
  H    -12.399500    4.595540   -0.427470
  H    -10.671380    5.909600    1.728510
  H    -12.317430    6.353630    1.274650
  H    -10.979120    6.610010    0.147010
  H    -11.042150    5.173730   -4.825860
  H    -12.321210    6.365570   -1.723440
  H    -13.479780    4.369740   -3.726290
  H    -15.939270    4.379930   -3.775830
  H    -19.040460    5.447820   -3.386830
  H    -17.450350    8.835460   -1.418100
  H    -14.343640    7.743050   -1.782520
  H    -19.934350    8.905580   -1.633080
  H    -21.097280    6.237530   -2.598200
  H    -22.424310    8.843800   -1.649640
  H    -25.032920    8.608570   -1.525420
  H    -26.875940    6.824070   -1.752510
  H    -28.126590    4.806740   -2.073090
  H    -28.873140    2.362080   -2.392840
  H    -27.912910    0.016370   -2.830930
  H    -22.657280   -1.970310   -3.590070
  H    -24.537360   -4.794180   -3.695380

 Total Charge           Charge          ....    0
 Multiplicity           Mult            ....    1
 Number of Electrons    NEL             ....  560
 Basis Dimension        Dim             .... 1196

ORBITAL ENERGIES
----------------

  NO   OCC          E(Eh)            E(eV)
   0   2.0000    -482.887366    -13140.0332
   1   2.0000     -88.977380     -2421.1976
   2   2.0000     -88.966232     -2420.8942
   3   2.0000     -88.965952     -2420.8866
   4   2.0000     -88.952199     -2420.5124
   5   2.0000     -88.940152     -2420.1846
   6   2.0000     -88.938418     -2420.1374
   7   2.0000     -62.565083     -1702.4825
   8   2.0000     -56.399039     -1534.6959
   9   2.0000     -56.396314     -1534.6217
  10   2.0000     -56.396282     -1534.6209
  11   2.0000     -19.300193      -525.1849
  12   2.0000     -19.236277      -523.4457
  13   2.0000     -19.233873      -523.3803
  14   2.0000     -19.217507      -522.9350
  15   2.0000     -14.647687      -398.5838
  16   2.0000     -14.454236      -393.3198
  17   2.0000     -14.454015      -393.3138
  18   2.0000     -14.419678      -392.3794
  19   2.0000     -14.415607      -392.2686
  20   2.0000     -10.378568      -282.4152
  21   2.0000     -10.369520      -282.1690
  22   2.0000     -10.361114      -281.9403
  23   2.0000     -10.343488      -281.4606
  24   2.0000     -10.342504      -281.4339
  25   2.0000     -10.335268      -281.2369
  26   2.0000     -10.327562      -281.0272
  27   2.0000     -10.322943      -280.9016
  28   2.0000     -10.319475      -280.8072
  29   2.0000     -10.318926      -280.7922
  30   2.0000     -10.313516      -280.6450
  31   2.0000     -10.309892      -280.5464
  32   2.0000     -10.309752      -280.5426
  33   2.0000     -10.308474      -280.5078
  34   2.0000     -10.307445      -280.4798
  35   2.0000     -10.306617      -280.4573
  36   2.0000     -10.304207      -280.3917
  37   2.0000     -10.303920      -280.3839
  38   2.0000     -10.302894      -280.3560
  39   2.0000     -10.302336      -280.3408
  40   2.0000     -10.301915      -280.3294
  41   2.0000     -10.301038      -280.3055
  42   2.0000     -10.300924      -280.3024
  43   2.0000     -10.300570      -280.2927
  44   2.0000     -10.299849      -280.2731
  45   2.0000     -10.298673      -280.2411
  46   2.0000     -10.298075      -280.2249
  47   2.0000     -10.297747      -280.2159
  48   2.0000     -10.294077      -280.1161
  49   2.0000     -10.293787      -280.1082
  50   2.0000     -10.293778      -280.1080
  51   2.0000     -10.289307      -279.9863
  52   2.0000     -10.288648      -279.9683
  53   2.0000     -10.287292      -279.9315
  54   2.0000     -10.287124      -279.9269
  55   2.0000     -10.282265      -279.7947
  56   2.0000     -10.281137      -279.7640
  57   2.0000     -10.280619      -279.7499
  58   2.0000     -10.280495      -279.7465
  59   2.0000     -10.280397      -279.7438
  60   2.0000     -10.279817      -279.7280
  61   2.0000     -10.279586      -279.7217
  62   2.0000     -10.279400      -279.7167
  63   2.0000     -10.278297      -279.6867
  64   2.0000     -10.277220      -279.6574
  65   2.0000     -10.276967      -279.6505
  66   2.0000     -10.276731      -279.6441
  67   2.0000     -10.276074      -279.6262
  68   2.0000     -10.269144      -279.4376
  69   2.0000     -10.263624      -279.2874
  70   2.0000     -10.262053      -279.2446
  71   2.0000     -10.260111      -279.1918
  72   2.0000     -10.259070      -279.1635
  73   2.0000     -10.258734      -279.1543
  74   2.0000     -10.256099      -279.0826
  75   2.0000      -8.794514      -239.3109
  76   2.0000      -8.073388      -219.6880
  77   2.0000      -8.062186      -219.3832
  78   2.0000      -8.060717      -219.3433
  79   2.0000      -8.048461      -219.0097
  80   2.0000      -8.036233      -218.6770
  81   2.0000      -8.034686      -218.6349
  82   2.0000      -6.630842      -180.4344
  83   2.0000      -6.616231      -180.0368
  84   2.0000      -6.616035      -180.0315
  85   2.0000      -6.043086      -164.4407
  86   2.0000      -6.038787      -164.3237
  87   2.0000      -6.034603      -164.2099
  88   2.0000      -6.031494      -164.1253
  89   2.0000      -6.030074      -164.0867
  90   2.0000      -6.027231      -164.0093
  91   2.0000      -6.025643      -163.9661
  92   2.0000      -6.024252      -163.9282
  93   2.0000      -6.023130      -163.8977
  94   2.0000      -6.017973      -163.7574
  95   2.0000      -6.013801      -163.6438
  96   2.0000      -6.010043      -163.5416
  97   2.0000      -6.006034      -163.4325
  98   2.0000      -6.004397      -163.3879
  99   2.0000      -6.001919      -163.3205
 100   2.0000      -6.000461      -163.2808
 101   2.0000      -5.997118      -163.1899
 102   2.0000      -5.995576      -163.1479
 103   2.0000      -2.746685       -74.7411
 104   2.0000      -2.742642       -74.6311
 105   2.0000      -2.742441       -74.6256
 106   2.0000      -2.730857       -74.3104
 107   2.0000      -2.730840       -74.3099
 108   2.0000      -1.318493       -35.8780
 109   2.0000      -1.219744       -33.1909
 110   2.0000      -1.134501       -30.8714
 111   2.0000      -1.132967       -30.8296
 112   2.0000      -1.085273       -29.5318
 113   2.0000      -1.049069       -28.5466
 114   2.0000      -1.024908       -27.8892
 115   2.0000      -1.015940       -27.6451
 116   2.0000      -1.008256       -27.4360
 117   2.0000      -0.996498       -27.1161
 118   2.0000      -0.991389       -26.9771
 119   2.0000      -0.991095       -26.9691
 120   2.0000      -0.984326       -26.7849
 121   2.0000      -0.977791       -26.6071
 122   2.0000      -0.965792       -26.2805
 123   2.0000      -0.944490       -25.7009
 124   2.0000      -0.928100       -25.2549
 125   2.0000      -0.927173       -25.2297
 126   2.0000      -0.910171       -24.7670
 127   2.0000      -0.909793       -24.7567
 128   2.0000      -0.907031       -24.6816
 129   2.0000      -0.899891       -24.4873
 130   2.0000      -0.890708       -24.2374
 131   2.0000      -0.887873       -24.1602
 132   2.0000      -0.876049       -23.8385
 133   2.0000      -0.874573       -23.7984
 134   2.0000      -0.869760       -23.6674
 135   2.0000      -0.862808       -23.4782
 136   2.0000      -0.858720       -23.3670
 137   2.0000      -0.855282       -23.2734
 138   2.0000      -0.848129       -23.0788
 139   2.0000      -0.839822       -22.8527
 140   2.0000      -0.832161       -22.6443
 141   2.0000      -0.829768       -22.5791
 142   2.0000      -0.823465       -22.4076
 143   2.0000      -0.821092       -22.3430
 144   2.0000      -0.811823       -22.0908
 145   2.0000      -0.798521       -21.7289
 146   2.0000      -0.791341       -21.5335
 147   2.0000      -0.784583       -21.3496
 148   2.0000      -0.773459       -21.0469
 149   2.0000      -0.765175       -20.8215
 150   2.0000      -0.759366       -20.6634
 151   2.0000      -0.753754       -20.5107
 152   2.0000      -0.736270       -20.0349
 153   2.0000      -0.721161       -19.6238
 154   2.0000      -0.712569       -19.3900
 155   2.0000      -0.708957       -19.2917
 156   2.0000      -0.700175       -19.0527
 157   2.0000      -0.698164       -18.9980
 158   2.0000      -0.697749       -18.9867
 159   2.0000      -0.690653       -18.7936
 160   2.0000      -0.689352       -18.7582
 161   2.0000      -0.683498       -18.5989
 162   2.0000      -0.679346       -18.4859
 163   2.0000      -0.675517       -18.3818
 164   2.0000      -0.665061       -18.0972
 165   2.0000      -0.660228       -17.9657
 166   2.0000      -0.657812       -17.9000
 167   2.0000      -0.649589       -17.6762
 168   2.0000      -0.639307       -17.3964
 169   2.0000      -0.637413       -17.3449
 170   2.0000      -0.634308       -17.2604
 171   2.0000      -0.632618       -17.2144
 172   2.0000      -0.627929       -17.0868
 173   2.0000      -0.625265       -17.0143
 174   2.0000      -0.624312       -16.9884
 175   2.0000      -0.619071       -16.8458
 176   2.0000      -0.617005       -16.7895
 177   2.0000      -0.611132       -16.6298
 178   2.0000      -0.601429       -16.3657
 179   2.0000      -0.599023       -16.3002
 180   2.0000      -0.596293       -16.2260
 181   2.0000      -0.591040       -16.0830
 182   2.0000      -0.587722       -15.9927
 183   2.0000      -0.579371       -15.7655
 184   2.0000      -0.576992       -15.7007
 185   2.0000      -0.572054       -15.5664
 186   2.0000      -0.565541       -15.3892
 187   2.0000      -0.556837       -15.1523
 188   2.0000      -0.556465       -15.1422
 189   2.0000      -0.551376       -15.0037
 190   2.0000      -0.547763       -14.9054
 191   2.0000      -0.543799       -14.7975
 192   2.0000      -0.543623       -14.7927
 193   2.0000      -0.541277       -14.7289
 194   2.0000      -0.539151       -14.6710
 195   2.0000      -0.535351       -14.5676
 196   2.0000      -0.533302       -14.5119
 197   2.0000      -0.529953       -14.4208
 198   2.0000      -0.528398       -14.3784
 199   2.0000      -0.526254       -14.3201
 200   2.0000      -0.523632       -14.2487
 201   2.0000      -0.519988       -14.1496
 202   2.0000      -0.515452       -14.0262
 203   2.0000      -0.510934       -13.9032
 204   2.0000      -0.509688       -13.8693
 205   2.0000      -0.507062       -13.7979
 206   2.0000      -0.505059       -13.7433
 207   2.0000      -0.502359       -13.6699
 208   2.0000      -0.500614       -13.6224
 209   2.0000      -0.498177       -13.5561
 210   2.0000      -0.496526       -13.5112
 211   2.0000      -0.494799       -13.4642
 212   2.0000      -0.492041       -13.3891
 213   2.0000      -0.491663       -13.3788
 214   2.0000      -0.488938       -13.3047
 215   2.0000      -0.484561       -13.1856
 216   2.0000      -0.484055       -13.1718
 217   2.0000      -0.481284       -13.0964
 218   2.0000      -0.479121       -13.0376
 219   2.0000      -0.476846       -12.9756
 220   2.0000      -0.471723       -12.8362
 221   2.0000      -0.467399       -12.7186
 222   2.0000      -0.465550       -12.6683
 223   2.0000      -0.461753       -12.5649
 224   2.0000      -0.461006       -12.5446
 225   2.0000      -0.458943       -12.4885
 226   2.0000      -0.457309       -12.4440
 227   2.0000      -0.456665       -12.4265
 228   2.0000      -0.451925       -12.2975
 229   2.0000      -0.451632       -12.2895
 230   2.0000      -0.450068       -12.2470
 231   2.0000      -0.448950       -12.2166
 232   2.0000      -0.448425       -12.2023
 233   2.0000      -0.445589       -12.1251
 234   2.0000      -0.444658       -12.0998
 235   2.0000      -0.441390       -12.0108
 236   2.0000      -0.439964       -11.9720
 237   2.0000      -0.438661       -11.9366
 238   2.0000      -0.435470       -11.8497
 239   2.0000      -0.434536       -11.8243
 240   2.0000      -0.432083       -11.7576
 241   2.0000      -0.429182       -11.6786
 242   2.0000      -0.425003       -11.5649
 243   2.0000      -0.423508       -11.5243
 244   2.0000      -0.422380       -11.4936
 245   2.0000      -0.417520       -11.3613
 246   2.0000      -0.415844       -11.3157
 247   2.0000      -0.410830       -11.1793
 248   2.0000      -0.409012       -11.1298
 249   2.0000      -0.408828       -11.1248
 250   2.0000      -0.408253       -11.1091
 251   2.0000      -0.393939       -10.7196
 252   2.0000      -0.392528       -10.6812
 253   2.0000      -0.389112       -10.5883
 254   2.0000      -0.387285       -10.5386
 255   2.0000      -0.383432       -10.4337
 256   2.0000      -0.381849       -10.3906
 257   2.0000      -0.377854       -10.2819
 258   2.0000      -0.376699       -10.2505
 259   2.0000      -0.373344       -10.1592
 260   2.0000      -0.372341       -10.1319
 261   2.0000      -0.366301        -9.9676
 262   2.0000      -0.363581        -9.8935
 263   2.0000      -0.357975        -9.7410
 264   2.0000      -0.342998        -9.3334
 265   2.0000      -0.338955        -9.2234
 266   2.0000      -0.332905        -9.0588
 267   2.0000      -0.332430        -9.0459
 268   2.0000      -0.322829        -8.7846
 269   2.0000      -0.317481        -8.6391
 270   2.0000      -0.315872        -8.5953
 271   2.0000      -0.314954        -8.5703
 272   2.0000      -0.303738        -8.2651
 273   2.0000      -0.295242        -8.0340
 274   2.0000      -0.287004        -7.8098
 275   2.0000      -0.279261        -7.5991
 276   2.0000      -0.269830        -7.3424
 277   2.0000      -0.269127        -7.3233
 278   2.0000      -0.233769        -6.3612
 279   2.0000      -0.193184        -5.2568
 280   0.0000      -0.087666        -2.3855
 281   0.0000      -0.077357        -2.1050
 282   0.0000      -0.059057        -1.6070
 283   0.0000      -0.053218        -1.4481
 284   0.0000      -0.019937        -0.5425

MULLIKEN ATOMIC CHARGES
-----------------------
   0 C :    0.321313
   1 C :   -0.362198
   2 C :   -0.186428
   3 N :    0.149403
   4 C :   -0.175501
   5 N :    0.147160
   6 C :    0.012709
   7 C :   -0.018490
   8 C :   -0.072668
   9 C :    0.117533
  10 C :   -0.090767
  11 C :   -0.019309
  12 S :    0.187600
  13 C :   -0.123883
  14 C :    0.041550
  15 Br:    0.025195
  16 C :    0.128624
  17 O :   -0.147733
  18 C :   -0.072428
  19 C :   -0.060659
  20 C :    0.050899
  21 C :   -0.046918
  22 S :    0.159362
  23 C :   -0.164124
  24 C :    0.126750
  25 C :   -0.101311
  26 C :    0.030812
  27 C :    0.009758
  28 C :   -0.123509
  29 C :    0.008470
  30 C :    0.035809
  31 C :    0.113172
  32 C :    0.051107
  33 C :   -0.111183
  34 S :    0.116917
  35 C :   -0.137791
  36 C :   -0.045195
  37 C :    0.005288
  38 C :    0.097241
  39 N :   -0.037162
  40 C :    0.109670
  41 C :   -0.165916
  42 C :    0.102924
  43 N :   -0.039913
  44 C :    0.112501
  45 C :   -0.176970
  46 C :    0.005481
  47 C :   -0.015449
  48 C :    0.003499
  49 C :   -0.029440
  50 C :    0.041457
  51 C :    0.016105
  52 C :   -0.037825
  53 S :    0.062809
  54 C :   -0.044883
  55 C :    0.028234
  56 C :    0.030089
  57 C :   -0.022555
  58 S :    0.054134
  59 C :   -0.018937
  60 C :   -0.183304
  61 S :    0.133641
  62 C :   -0.139412
  63 C :    0.129147
  64 C :    0.185372
  65 O :   -0.184505
  66 C :    0.229201
  67 N :    0.277695
  68 O :   -0.254009
  69 O :   -0.233784
  70 C :   -0.073273
  71 H :   -0.010272
  72 H :   -0.005453
  73 H :   -0.003373
  74 H :    0.013735
  75 H :    0.035518
  76 H :    0.022103
  77 H :   -0.005704
  78 H :    0.026912
  79 H :    0.018622
  80 H :    0.013576
  81 H :    0.015536
  82 H :    0.018289
  83 H :    0.007820
  84 H :    0.016667
  85 H :    0.011763
  86 H :    0.016249
  87 H :    0.008809
  88 H :   -0.024475
  89 H :    0.118970
  90 H :   -0.033878
  91 H :    0.117712
  92 H :   -0.038727
  93 H :   -0.034826
  94 H :   -0.000829
  95 H :   -0.021755
  96 H :   -0.015720
  97 H :   -0.016122
  98 H :   -0.015659
  99 H :   -0.013509
 100 H :   -0.000176
 101 H :    0.027201
 102 H :    0.009798
Sum of atomic charges:   -0.0000000

LOEWDIN ATOMIC CHARGES
----------------------
   0 C :    0.079816
   1 C :   -0.145562
   2 C :   -0.018348
   3 N :   -0.055086
   4 C :   -0.017840
   5 N :   -0.053762
   6 C :   -0.022492
   7 C :   -0.050771
   8 C :    0.021674
   9 C :   -0.031922
  10 C :   -0.143675
  11 C :   -0.008905
  12 S :    0.433318
  13 C :   -0.270724
  14 C :   -0.070266
  15 Br:    0.137973
  16 C :    0.080499
  17 O :   -0.141855
  18 C :   -0.103668
  19 C :    0.086102
  20 C :   -0.083629
  21 C :   -0.109586
  22 S :    0.451401
  23 C :   -0.179428
  24 C :   -0.034078
  25 C :   -0.019600
  26 C :   -0.032742
  27 C :   -0.051001
  28 C :   -0.013832
  29 C :   -0.032118
  30 C :   -0.051009
  31 C :   -0.041931
  32 C :   -0.059661
  33 C :   -0.169304
  34 S :    0.403320
  35 C :   -0.178308
  36 C :   -0.023231
  37 C :   -0.034951
  38 C :   -0.003413
  39 N :    0.068922
  40 C :   -0.025157
  41 C :   -0.086981
  42 C :   -0.009382
  43 N :    0.067430
  44 C :   -0.018690
  45 C :   -0.102122
  46 C :   -0.025381
  47 C :   -0.043548
  48 C :   -0.045947
  49 C :   -0.157656
  50 C :   -0.029785
  51 C :   -0.042650
  52 C :   -0.169573
  53 S :    0.365971
  54 C :   -0.190098
  55 C :   -0.033373
  56 C :   -0.040159
  57 C :   -0.148316
  58 S :    0.358230
  59 C :   -0.082310
  60 C :   -0.199780
  61 S :    0.467496
  62 C :   -0.199763
  63 C :   -0.084458
  64 C :    0.014783
  65 O :    0.000163
  66 C :    0.022588
  67 N :    0.272913
  68 O :   -0.214885
  69 O :   -0.195118
  70 C :   -0.010005
  71 H :    0.040889
  72 H :    0.041320
  73 H :    0.038991
  74 H :    0.041994
  75 H :    0.029068
  76 H :    0.027886
  77 H :    0.028447
  78 H :    0.022799
  79 H :    0.027075
  80 H :    0.024636
  81 H :    0.028721
  82 H :    0.032991
  83 H :    0.022906
  84 H :    0.025593
  85 H :    0.021094
  86 H :    0.023312
  87 H :    0.028438
  88 H :    0.026845
  89 H :    0.088287
  90 H :    0.023983
  91 H :    0.087504
  92 H :    0.021654
  93 H :    0.025412
  94 H :    0.021359
  95 H :    0.030949
  96 H :    0.032389
  97 H :    0.030439
  98 H :    0.031301
  99 H :    0.032953
 100 H :    0.044179
 101 H :    0.026226
 102 H :    0.045599

  Mayer bond orders larger than 0.100000
B(  0-C ,  1-C ) :   1.6263 B(  0-C ,  6-C ) :   1.0083 B(  0-C , 18-C ) :   1.0551
B(  1-C ,  2-C ) :   1.1409 B(  1-C ,  4-C ) :   1.1578 B(  2-C ,  3-N ) :   2.9669
B(  4-C ,  5-N ) :   2.9305 B(  6-C ,  7-C ) :   1.2680 B(  6-C , 11-C ) :   1.4021
B(  7-C ,  8-C ) :   1.4237 B(  7-C , 16-C ) :   0.9428 B(  8-C ,  9-C ) :   1.2438
B(  8-C , 71-H ) :   1.0172 B(  9-C , 10-C ) :   1.3035 B(  9-C , 14-C ) :   1.1645
B( 10-C , 11-C ) :   1.3353 B( 10-C , 12-S ) :   1.0857 B( 11-C , 72-H ) :   0.9790
B( 12-S , 13-C ) :   1.0876 B( 13-C , 14-C ) :   1.6168 B( 13-C , 15-Br) :   1.0193
B( 14-C , 73-H ) :   1.0005 B( 16-C , 17-O ) :   2.2276 B( 16-C , 18-C ) :   0.9290
B( 18-C , 19-C ) :   1.6231 B( 19-C , 20-C ) :   1.0809 B( 19-C , 74-H ) :   0.9338
B( 20-C , 21-C ) :   1.5511 B( 20-C , 24-C ) :   1.1256 B( 21-C , 22-S ) :   1.1819
B( 21-C , 75-H ) :   0.9534 B( 22-S , 23-C ) :   1.0617 B( 23-C , 24-C ) :   1.3840
B( 23-C , 35-C ) :   1.3840 B( 24-C , 25-C ) :   1.2484 B( 25-C , 26-C ) :   1.0620
B( 25-C , 28-C ) :   1.5142 B( 26-C , 27-C ) :   1.1007 B( 26-C , 76-H ) :   0.9203
B( 26-C , 77-H ) :   0.9054 B( 27-C , 78-H ) :   0.9639 B( 27-C , 79-H ) :   0.9660
B( 27-C , 80-H ) :   0.9567 B( 28-C , 29-C ) :   1.0577 B( 28-C , 31-C ) :   1.2693
B( 29-C , 30-C ) :   1.1058 B( 29-C , 81-H ) :   0.9184 B( 29-C , 82-H ) :   0.9133
B( 30-C , 83-H ) :   0.9637 B( 30-C , 84-H ) :   0.9653 B( 30-C , 85-H ) :   0.9580
B( 31-C , 32-C ) :   1.1617 B( 31-C , 35-C ) :   1.3635 B( 32-C , 33-C ) :   1.6381
B( 32-C , 36-C ) :   0.9898 B( 33-C , 34-S ) :   1.0990 B( 33-C , 86-H ) :   0.9662
B( 34-S , 35-C ) :   1.0801 B( 36-C , 37-C ) :   1.7900 B( 36-C , 87-H ) :   0.9461
B( 37-C , 38-C ) :   1.0768 B( 37-C , 88-H ) :   0.9640 B( 38-C , 39-N ) :   1.1788
B( 38-C , 45-C ) :   1.4269 B( 39-N , 40-C ) :   1.1561 B( 39-N , 89-H ) :   0.9385
B( 40-C , 41-C ) :   1.2715 B( 40-C , 44-C ) :   1.3148 B( 41-C , 42-C ) :   1.3857
B( 41-C , 90-H ) :   1.0304 B( 42-C , 43-N ) :   1.1594 B( 42-C , 46-C ) :   1.1267
B( 43-N , 44-C ) :   1.1694 B( 43-N , 91-H ) :   0.9388 B( 44-C , 45-C ) :   1.2450
B( 45-C , 92-H ) :   1.0317 B( 46-C , 47-C ) :   1.6042 B( 46-C , 93-H ) :   0.9723
B( 47-C , 48-C ) :   1.1834 B( 47-C , 94-H ) :   0.9712 B( 48-C , 49-C ) :   1.5376
B( 48-C , 95-H ) :   0.9819 B( 49-C , 50-C ) :   1.1583 B( 49-C , 53-S ) :   1.0237
B( 50-C , 51-C ) :   1.5724 B( 50-C , 96-H ) :   0.9986 B( 51-C , 52-C ) :   1.1985
B( 51-C , 97-H ) :   0.9943 B( 52-C , 53-S ) :   1.0531 B( 52-C , 54-C ) :   1.4998
B( 54-C , 55-C ) :   1.1955 B( 54-C , 58-S ) :   1.0310 B( 55-C , 56-C ) :   1.5850
B( 55-C , 98-H ) :   0.9921 B( 56-C , 57-C ) :   1.1444 B( 56-C , 99-H ) :   1.0008
B( 57-C , 58-S ) :   1.0388 B( 57-C , 59-C ) :   1.5602 B( 59-C , 60-C ) :   1.1769
B( 59-C ,100-H ) :   0.9739 B( 60-C , 61-S ) :   1.1076 B( 60-C , 62-C ) :   0.1081
B( 60-C , 64-C ) :   1.4410 B( 61-S , 62-C ) :   1.1782 B( 62-C , 63-C ) :   1.4131
B( 62-C ,101-H ) :   0.9770 B( 63-C , 64-C ) :   1.2306 B( 63-C , 70-C ) :   1.0626
B( 64-C , 65-O ) :   1.1195 B( 65-O , 66-C ) :   1.1251 B( 66-C , 67-N ) :   0.9220
B( 66-C , 70-C ) :   1.5716 B( 67-N , 68-O ) :   1.5281 B( 67-N , 69-O ) :   1.5122
B( 68-O , 69-O ) :   0.2782 B( 70-C ,102-H ) :   1.0253

-----------------------------------------------------------------------------
         ABSORPTION SPECTRUM VIA TRANSITION ELECTRIC DIPOLE MOMENTS
-----------------------------------------------------------------------------
State   Energy  Wavelength   fosc         T2         TX        TY        TZ
        (cm-1)    (nm)                  (au**2)     (au)      (au)      (au)
-----------------------------------------------------------------------------
   0   12480.2    801.3   1.249994054  32.97320   4.50527   3.53540   0.42040
   1   16329.7    612.4   0.001052215   0.02121  -0.11760   0.08526  -0.01072
   2   17577.5    568.9   0.317574481   5.94791  -2.43390  -0.15478   0.00805
   3   20810.4    480.5   0.274226405   4.33815  -1.29417   1.61428   0.23950
   4   22481.9    444.8   0.548734262   8.03536  -1.12553   1.40255  -2.19121
   5   22846.5    437.7   0.017690385   0.25491  -0.08265   0.17163  -0.46758
   6   23715.7    421.7   0.006325039   0.08780  -0.11683  -0.02343   0.27130
   7   24860.6    402.2   1.331251002  17.62886  -3.02838   2.83317   0.65643
   8   26281.3    380.5   0.004859874   0.06088   0.20332  -0.10206  -0.09550
   9   26769.2    373.6   0.002146906   0.02640   0.09615   0.06393   0.11433
  10   27698.7    361.0   0.039785730   0.47287   0.34326   0.59301   0.05822
  11   28470.5    351.2   0.301328215   3.48434  -1.82489   0.39046   0.04065
  12   28561.4    350.1   0.288594595   3.32647   1.74413   0.18306   0.50096
  13   30236.6    330.7   0.034899185   0.37998  -0.46779   0.19305  -0.35197
  14   30289.4    330.1   0.006141281   0.06675   0.12463   0.05730  -0.21894
  15   30334.5    329.7   0.001786388   0.01939   0.09458  -0.10200  -0.00611
  16   30434.1    328.6   0.016779275   0.18150   0.31133   0.19851  -0.21253
  17   30695.5    325.8   0.029042512   0.31148  -0.48644  -0.02226  -0.27270
  18   31344.3    319.0   0.038067978   0.39983   0.52828   0.25608   0.23490
  19   31978.0    312.7   0.078992452   0.81322  -0.76508   0.09690  -0.46742
  20   32369.5    308.9   0.057967887   0.58956   0.52067   0.55180   0.11822
  21   32407.8    308.6   0.053509522   0.54357  -0.20225   0.61352  -0.35532
  22   32670.9    306.1   0.000005077   0.00005   0.00498   0.00181  -0.00481
  23   32980.8    303.2   0.249894384   2.49442   0.87773  -0.48909   1.21853
  24   33113.8    302.0   0.103787319   1.03184   0.34701  -0.43366   0.85050
  25   33353.8    299.8   0.145938467   1.44046   1.17105   0.26285   0.00247
  26   33531.2    298.2   0.164111986   1.61127   1.05577  -0.15686   0.68703
  27   33794.7    295.9   0.441895530   4.30474   2.01861   0.45744  -0.14388
  28   34265.8    291.8   0.003268032   0.03140   0.09246  -0.13763  -0.06252
  29   34524.4    289.6   0.028853914   0.27514  -0.01416  -0.52421   0.01207
  30   34619.6    288.9   0.017462192   0.16606  -0.02953  -0.37647  -0.15316
  31   34835.4    287.1   0.046145141   0.43610   0.12048  -0.64929  -0.00006
  32   35343.8    282.9   0.003473571   0.03235   0.06040  -0.07270   0.15304
  33   35969.2    278.0   0.015879274   0.14534  -0.37479   0.06863  -0.01271
  34   36051.2    277.4   0.101917531   0.93069   0.58794   0.73714   0.20407
  35   37184.6    268.9   0.250546072   2.21820   0.85851   1.21408  -0.08468
  36   37458.6    267.0   0.110953874   0.97514   0.61046  -0.32902  -0.70301
  37   37835.9    264.3   0.024618796   0.21421   0.03438   0.45946   0.04388
  38   38259.9    261.4   0.324327181   2.79071  -1.14009   0.44891  -1.13551
  39   38785.9    257.8   0.138165901   1.17274   0.34265   1.01360  -0.16717
  40   39159.3    255.4   0.072145948   0.60653  -0.34838   0.54143  -0.43820
  41   39228.6    254.9   0.080428650   0.67497  -0.78348  -0.12156   0.21531
  42   39382.1    253.9   0.249091163   2.08226  -0.54223   0.66979  -1.15743
  43   39563.4    252.8   0.085960255   0.71529  -0.76656   0.09671  -0.34397
  44   39911.6    250.6   0.010130011   0.08356  -0.08140  -0.07850   0.26602
  45   40250.9    248.4   0.025238752   0.20643   0.42519   0.15211   0.05007

FINAL SINGLE POINT ENERGY     -7648.549676419656

DIPOLE MOMENT
-------------
                                X             Y             Z
Electronic contribution:    175.85323     -80.11948      74.56596
Nuclear contribution   :   -172.88341      83.88278     -75.11487
                        -----------------------------------------
Total Dipole Moment    :      2.96982       3.76330      -0.54890
                        -----------------------------------------
Magnitude (a.u.)       :      4.82530
Magnitude (Debye)      :     12.26495

Rotational constants in cm-1:     0.000982     0.000146     0.000135
Rotational constants in MHz :    29.442098     4.381691     4.040760

                             ****ORCA TERMINATED NORMALLY****
TOTAL RUN TIME: 0 days 0 hours 10 minutes 45 seconds 879 msec
