                         Program Version 4.2.0 -  RELEASE  -
|  1> # ORCA input file
|  2> # SCF done       -178.388294043388          0.000943338838
|  3> ! CAM-B3LYP def2-SVP def2/J RIJCOSX Grid4 TightSCF
|  4> %maxcore 5000
|  5> %tddft
|  6>     Mode sTDDFT
|  7>     Ethresh 5.0
|  8>     maxcore 5000
|  9> end
| 10>
| 11> %pal
| 12>   nprocs 6
| 13>   end
| 14> * xyz 0 1
| 15>    C       -6.14022        -3.96171        -6.21009
| 16>    C       -6.09071        -4.25287        -4.90409
| 17>    C       -7.17553        -4.21139        -3.96542
| 18>    C       -6.83586        -4.54982        -2.70450
| 19>    C       -5.46199        -4.89422        -2.53321
| 20>    S       -4.61692        -4.75633        -4.05863
| 21>    C       -4.86559        -5.28258        -1.35897
| 22>    C       -5.50515        -5.40308        -0.09719
| 23>    C       -4.68171        -5.79544         0.90491
| 24>    C       -3.33466        -6.01108         0.50528
| 25>    S       -3.16368        -5.70054        -1.21089
| 26>    C       -2.32155        -6.38935         1.34377
| 27>    C       -0.98178        -6.61465         0.98800
| 28>    O       -0.54827        -6.49291        -0.29958
| 29>    C        0.09558        -6.99370         1.77387
| 30>    C        0.50995        -7.32536         3.13275
| 31>    O       -0.10565        -7.36126         4.16884
| 32>    N        1.86798        -7.61924         2.99731
| 33>    C        2.37510        -7.51755         1.70282
| 34>    O        3.51736        -7.73368         1.38740
| 35>    C        1.21380        -7.10913         0.91201
| 36>    C        0.78113        -6.79643        -0.36073
| 37>    C        1.46672        -6.81274        -1.60599
| 38>    C        0.84492        -6.47036        -2.75413
| 39>    C        1.42224        -6.53435        -4.07053
| 40>    C        2.77804        -6.46441        -4.24404
| 41>    S        3.30196        -6.54568        -5.87016
| 42>    C        1.65226        -6.70725        -6.39153
| 43>    C        0.72685        -6.68567        -5.33568
| 44>    C       -0.64536        -6.87056        -5.64161
| 45>    C       -1.65579        -6.91902        -4.52519
| 46>    C       -1.56868        -8.22955        -3.74360
| 47>    C       -1.05490        -7.03855        -6.95940
| 48>    C       -2.50750        -7.29190        -7.26791
| 49>    C       -3.25887        -5.96584        -7.41616
| 50>    C       -0.12295        -6.95766        -8.02382
| 51>    C       -0.29595        -7.03179        -9.46343
| 52>    C        0.90573        -7.01922       -10.11793
| 53>    S        2.27473        -6.87229        -9.10132
| 54>    C        1.23743        -6.83656        -7.70626
| 55>    C       -1.54544        -7.02071       -10.17178
| 56>    C       -1.78484        -7.38259       -11.45056
| 57>    C       -3.12006        -7.31766       -11.94918
| 58>    O       -4.13849        -7.14240       -11.06075
| 59>    C       -3.66380        -7.38756       -13.21446
| 60>    C       -3.34905        -7.54640       -14.63423
| 61>    O       -2.30076        -7.71070       -15.20454
| 62>    N       -4.59440        -7.46626       -15.25571
| 63>    C       -5.68033        -7.27294       -14.40042
| 64>    O       -6.82819        -7.17350       -14.75404
| 65>    C       -5.06874        -7.22515       -13.07510
| 66>    C       -5.32974        -7.08819       -11.72326
| 67>    C       -6.52878        -6.92670       -10.99190
| 68>    C       -6.56692        -7.00398        -9.62970
| 69>    C       -7.71161        -6.80174        -8.84495
| 70>    C       -7.75294        -6.94454        -7.48037
| 71>    C       -8.87342        -6.70813        -6.64236
| 72>    C       -8.65045        -6.94331        -5.32346
| 73>    C       -7.33861        -7.39357        -5.03011
| 74>    S       -6.39530        -7.48609        -6.50435
| 75>    C       -6.83052        -7.73454        -3.79954
| 76>    C       -7.52025        -7.69751        -2.55378
| 77>    C       -6.78210        -8.09437        -1.49524
| 78>    C       -5.43925        -8.48284        -1.82040
| 79>    S       -5.18957        -8.29837        -3.56329
| 80>    C       -4.49804        -8.92570        -0.97628
| 81>    H       -7.06910        -3.66777        -6.66690
| 82>    H       -5.27307        -4.01183        -6.84097
| 83>    H       -8.16173        -3.92304        -4.28328
| 84>    H       -7.52326        -4.56451        -1.87795
| 85>    H       -6.55094        -5.19109         0.03188
| 86>    H       -4.98336        -5.93668         1.92756
| 87>    H       -2.54738        -6.53564         2.38991
| 88>    H        2.44282        -7.88744         3.78276
| 89>    H        2.48574        -7.16510        -1.56482
| 90>    H       -0.17217        -6.13128        -2.65955
| 91>    H        3.51305        -6.32744        -3.47546
| 92>    H       -1.51016        -6.06500        -3.86593
| 93>    H       -2.66849        -6.82014        -4.90171
| 94>    H       -2.23367        -8.18370        -2.88617
| 95>    H       -0.55876        -8.42007        -3.39077
| 96>    H       -1.87218        -9.06136        -4.37487
| 97>    H       -2.97323        -7.88334        -6.48073
| 98>    H       -2.58462        -7.88820        -8.17562
| 99>    H       -3.33352        -5.46911        -6.45190
|100>    H       -4.26342        -6.13604        -7.79368
|101>    H       -2.73679        -5.29031        -8.09115
|102>    H        1.05371        -7.03914       -11.17982
|103>    H       -2.39601        -6.63810        -9.63651
|104>    H       -1.03003        -7.73374       -12.13543
|105>    H       -4.70337        -7.54119       -16.25678
|106>    H       -7.42246        -6.75575       -11.57261
|107>    H       -5.64992        -7.24719        -9.10799
|108>    H       -8.62706        -6.50822        -9.34154
|109>    H       -9.80991        -6.37021        -7.05040
|110>    H       -9.39072        -6.81546        -4.55427
|111>    H       -8.54615        -7.38068        -2.49213
|112>    H       -7.13232        -8.13878        -0.47934
|113>    H       -4.70697        -9.01716         0.07516
|114>    H       -3.51731        -9.21046        -1.31021
|115> *
|116>
|117>                          ****END OF INPUT****

CARTESIAN COORDINATES (ANGSTROEM)
---------------------------------
  C     -6.140220   -3.961710   -6.210090
  C     -6.090710   -4.252870   -4.904090
  C     -7.175530   -4.211390   -3.965420
  C     -6.835860   -4.549820   -2.704500
  C     -5.461990   -4.894220   -2.533210
  S     -4.616920   -4.756330   -4.058630
  C     -4.865590   -5.282580   -1.358970
  C     -5.505150   -5.403080   -0.097190
  C     -4.681710   -5.795440    0.904910
  C     -3.334660   -6.011080    0.505280
  S     -3.163680   -5.700540   -1.210890
  C     -2.321550   -6.389350    1.343770
  C     -0.981780   -6.614650    0.988000
  O     -0.548270   -6.492910   -0.299580
  C      0.095580   -6.993700    1.773870
  C      0.509950   -7.325360    3.132750
  O     -0.105650   -7.361260    4.168840
  N      1.867980   -7.619240    2.997310
  C      2.375100   -7.517550    1.702820
  O      3.517360   -7.733680    1.387400
  C      1.213800   -7.109130    0.912010
  C      0.781130   -6.796430   -0.360730
  C      1.466720   -6.812740   -1.605990
  C      0.844920   -6.470360   -2.754130
  C      1.422240   -6.534350   -4.070530
  C      2.778040   -6.464410   -4.244040
  S      3.301960   -6.545680   -5.870160
  C      1.652260   -6.707250   -6.391530
  C      0.726850   -6.685670   -5.335680
  C     -0.645360   -6.870560   -5.641610
  C     -1.655790   -6.919020   -4.525190
  C     -1.568680   -8.229550   -3.743600
  C     -1.054900   -7.038550   -6.959400
  C     -2.507500   -7.291900   -7.267910
  C     -3.258870   -5.965840   -7.416160
  C     -0.122950   -6.957660   -8.023820
  C     -0.295950   -7.031790   -9.463430
  C      0.905730   -7.019220  -10.117930
  S      2.274730   -6.872290   -9.101320
  C      1.237430   -6.836560   -7.706260
  C     -1.545440   -7.020710  -10.171780
  C     -1.784840   -7.382590  -11.450560
  C     -3.120060   -7.317660  -11.949180
  O     -4.138490   -7.142400  -11.060750
  C     -3.663800   -7.387560  -13.214460
  C     -3.349050   -7.546400  -14.634230
  O     -2.300760   -7.710700  -15.204540
  N     -4.594400   -7.466260  -15.255710
  C     -5.680330   -7.272940  -14.400420
  O     -6.828190   -7.173500  -14.754040
  C     -5.068740   -7.225150  -13.075100
  C     -5.329740   -7.088190  -11.723260
  C     -6.528780   -6.926700  -10.991900
  C     -6.566920   -7.003980   -9.629700
  C     -7.711610   -6.801740   -8.844950
  C     -7.752940   -6.944540   -7.480370
  C     -8.873420   -6.708130   -6.642360
  C     -8.650450   -6.943310   -5.323460
  C     -7.338610   -7.393570   -5.030110
  S     -6.395300   -7.486090   -6.504350
  C     -6.830520   -7.734540   -3.799540
  C     -7.520250   -7.697510   -2.553780
  C     -6.782100   -8.094370   -1.495240
  C     -5.439250   -8.482840   -1.820400
  S     -5.189570   -8.298370   -3.563290
  C     -4.498040   -8.925700   -0.976280
  H     -7.069100   -3.667770   -6.666900
  H     -5.273070   -4.011830   -6.840970
  H     -8.161730   -3.923040   -4.283280
  H     -7.523260   -4.564510   -1.877950
  H     -6.550940   -5.191090    0.031880
  H     -4.983360   -5.936680    1.927560
  H     -2.547380   -6.535640    2.389910
  H      2.442820   -7.887440    3.782760
  H      2.485740   -7.165100   -1.564820
  H     -0.172170   -6.131280   -2.659550
  H      3.513050   -6.327440   -3.475460
  H     -1.510160   -6.065000   -3.865930
  H     -2.668490   -6.820140   -4.901710
  H     -2.233670   -8.183700   -2.886170
  H     -0.558760   -8.420070   -3.390770
  H     -1.872180   -9.061360   -4.374870
  H     -2.973230   -7.883340   -6.480730
  H     -2.584620   -7.888200   -8.175620
  H     -3.333520   -5.469110   -6.451900
  H     -4.263420   -6.136040   -7.793680
  H     -2.736790   -5.290310   -8.091150
  H      1.053710   -7.039140  -11.179820
  H     -2.396010   -6.638100   -9.636510
  H     -1.030030   -7.733740  -12.135430
  H     -4.703370   -7.541190  -16.256780
  H     -7.422460   -6.755750  -11.572610
  H     -5.649920   -7.247190   -9.107990
  H     -8.627060   -6.508220   -9.341540
  H     -9.809910   -6.370210   -7.050400
  H     -9.390720   -6.815460   -4.554270
  H     -8.546150   -7.380680   -2.492130
  H     -7.132320   -8.138780   -0.479340
  H     -4.706970   -9.017160    0.075160
  H     -3.517310   -9.210460   -1.310210

 Total Charge           Charge          ....    0
 Multiplicity           Mult            ....    1
 Number of Electrons    NEL             ....  504
 Basis Dimension        Dim             .... 1118

ORBITAL ENERGIES
----------------

  NO   OCC          E(Eh)            E(eV)
   0   2.0000     -88.955612     -2420.6053
   1   2.0000     -88.954235     -2420.5678
   2   2.0000     -88.953447     -2420.5463
   3   2.0000     -88.950828     -2420.4751
   4   2.0000     -88.949493     -2420.4388
   5   2.0000     -88.948126     -2420.4016
   6   2.0000     -19.303436      -525.2732
   7   2.0000     -19.298467      -525.1380
   8   2.0000     -19.199626      -522.4484
   9   2.0000     -19.199010      -522.4316
  10   2.0000     -19.197406      -522.3880
  11   2.0000     -19.197348      -522.3864
  12   2.0000     -14.443453      -393.0264
  13   2.0000     -14.442075      -392.9888
  14   2.0000     -10.389114      -282.7022
  15   2.0000     -10.388456      -282.6843
  16   2.0000     -10.387365      -282.6546
  17   2.0000     -10.387110      -282.6476
  18   2.0000     -10.353850      -281.7426
  19   2.0000     -10.351948      -281.6908
  20   2.0000     -10.351744      -281.6853
  21   2.0000     -10.350448      -281.6500
  22   2.0000     -10.321152      -280.8528
  23   2.0000     -10.320563      -280.8368
  24   2.0000     -10.319217      -280.8002
  25   2.0000     -10.316552      -280.7277
  26   2.0000     -10.314714      -280.6776
  27   2.0000     -10.313705      -280.6502
  28   2.0000     -10.313681      -280.6495
  29   2.0000     -10.312943      -280.6295
  30   2.0000     -10.298877      -280.2467
  31   2.0000     -10.298548      -280.2377
  32   2.0000     -10.298441      -280.2348
  33   2.0000     -10.297553      -280.2107
  34   2.0000     -10.296904      -280.1930
  35   2.0000     -10.296840      -280.1913
  36   2.0000     -10.296718      -280.1879
  37   2.0000     -10.296590      -280.1844
  38   2.0000     -10.294519      -280.1281
  39   2.0000     -10.294224      -280.1201
  40   2.0000     -10.291647      -280.0499
  41   2.0000     -10.290657      -280.0230
  42   2.0000     -10.287937      -279.9490
  43   2.0000     -10.287416      -279.9348
  44   2.0000     -10.285116      -279.8722
  45   2.0000     -10.285092      -279.8716
  46   2.0000     -10.284922      -279.8670
  47   2.0000     -10.284498      -279.8554
  48   2.0000     -10.284180      -279.8468
  49   2.0000     -10.282832      -279.8101
  50   2.0000     -10.282602      -279.8038
  51   2.0000     -10.281785      -279.7816
  52   2.0000     -10.280102      -279.7358
  53   2.0000     -10.279866      -279.7294
  54   2.0000     -10.279525      -279.7201
  55   2.0000     -10.278621      -279.6955
  56   2.0000     -10.278364      -279.6885
  57   2.0000     -10.278170      -279.6832
  58   2.0000     -10.277904      -279.6760
  59   2.0000     -10.277573      -279.6670
  60   2.0000     -10.274168      -279.5743
  61   2.0000     -10.273687      -279.5612
  62   2.0000     -10.262937      -279.2687
  63   2.0000     -10.258056      -279.1359
  64   2.0000     -10.256544      -279.0948
  65   2.0000     -10.249650      -278.9071
  66   2.0000      -8.051681      -219.0974
  67   2.0000      -8.050510      -219.0655
  68   2.0000      -8.048262      -219.0044
  69   2.0000      -8.046452      -218.9551
  70   2.0000      -8.044938      -218.9139
  71   2.0000      -8.043668      -218.8793
  72   2.0000      -6.021124      -163.8431
  73   2.0000      -6.019945      -163.8110
  74   2.0000      -6.018170      -163.7627
  75   2.0000      -6.016879      -163.7276
  76   2.0000      -6.016203      -163.7092
  77   2.0000      -6.015717      -163.6960
  78   2.0000      -6.014782      -163.6705
  79   2.0000      -6.013981      -163.6487
  80   2.0000      -6.013541      -163.6368
  81   2.0000      -6.013507      -163.6358
  82   2.0000      -6.012308      -163.6032
  83   2.0000      -6.012283      -163.6025
  84   2.0000      -6.010835      -163.5631
  85   2.0000      -6.009579      -163.5290
  86   2.0000      -6.009167      -163.5178
  87   2.0000      -6.007288      -163.4666
  88   2.0000      -6.005652      -163.4221
  89   2.0000      -6.004336      -163.3863
  90   2.0000      -1.217532       -33.1307
  91   2.0000      -1.214996       -33.0617
  92   2.0000      -1.143527       -31.1169
  93   2.0000      -1.141875       -31.0720
  94   2.0000      -1.122724       -30.5509
  95   2.0000      -1.121052       -30.5054
  96   2.0000      -1.031173       -28.0596
  97   2.0000      -1.029398       -28.0113
  98   2.0000      -1.002889       -27.2900
  99   2.0000      -1.002876       -27.2897
 100   2.0000      -0.997486       -27.1430
 101   2.0000      -0.978213       -26.6185
 102   2.0000      -0.977031       -26.5864
 103   2.0000      -0.973585       -26.4926
 104   2.0000      -0.929031       -25.2802
 105   2.0000      -0.925772       -25.1915
 106   2.0000      -0.923505       -25.1299
 107   2.0000      -0.913308       -24.8524
 108   2.0000      -0.910438       -24.7743
 109   2.0000      -0.907488       -24.6940
 110   2.0000      -0.897872       -24.4323
 111   2.0000      -0.886299       -24.1174
 112   2.0000      -0.876956       -23.8632
 113   2.0000      -0.869549       -23.6616
 114   2.0000      -0.861587       -23.4450
 115   2.0000      -0.856354       -23.3026
 116   2.0000      -0.854166       -23.2430
 117   2.0000      -0.849681       -23.1210
 118   2.0000      -0.844644       -22.9839
 119   2.0000      -0.836008       -22.7489
 120   2.0000      -0.829254       -22.5652
 121   2.0000      -0.827046       -22.5051
 122   2.0000      -0.815741       -22.1974
 123   2.0000      -0.812208       -22.1013
 124   2.0000      -0.795798       -21.6548
 125   2.0000      -0.789511       -21.4837
 126   2.0000      -0.777483       -21.1564
 127   2.0000      -0.773406       -21.0454
 128   2.0000      -0.758922       -20.6513
 129   2.0000      -0.758256       -20.6332
 130   2.0000      -0.752667       -20.4811
 131   2.0000      -0.749982       -20.4081
 132   2.0000      -0.731959       -19.9176
 133   2.0000      -0.727897       -19.8071
 134   2.0000      -0.720699       -19.6112
 135   2.0000      -0.709937       -19.3184
 136   2.0000      -0.703733       -19.1496
 137   2.0000      -0.697211       -18.9721
 138   2.0000      -0.693961       -18.8836
 139   2.0000      -0.689904       -18.7732
 140   2.0000      -0.686803       -18.6889
 141   2.0000      -0.685310       -18.6482
 142   2.0000      -0.682804       -18.5801
 143   2.0000      -0.665531       -18.1100
 144   2.0000      -0.652786       -17.7632
 145   2.0000      -0.646844       -17.6015
 146   2.0000      -0.641954       -17.4685
 147   2.0000      -0.632848       -17.2207
 148   2.0000      -0.629859       -17.1393
 149   2.0000      -0.628422       -17.1002
 150   2.0000      -0.623515       -16.9667
 151   2.0000      -0.620330       -16.8800
 152   2.0000      -0.610093       -16.6015
 153   2.0000      -0.607582       -16.5331
 154   2.0000      -0.605458       -16.4753
 155   2.0000      -0.605022       -16.4635
 156   2.0000      -0.595678       -16.2092
 157   2.0000      -0.590125       -16.0581
 158   2.0000      -0.582764       -15.8578
 159   2.0000      -0.581423       -15.8213
 160   2.0000      -0.576750       -15.6942
 161   2.0000      -0.575633       -15.6638
 162   2.0000      -0.574526       -15.6336
 163   2.0000      -0.572904       -15.5895
 164   2.0000      -0.567229       -15.4351
 165   2.0000      -0.562684       -15.3114
 166   2.0000      -0.556670       -15.1478
 167   2.0000      -0.550502       -14.9799
 168   2.0000      -0.545744       -14.8504
 169   2.0000      -0.540528       -14.7085
 170   2.0000      -0.539468       -14.6797
 171   2.0000      -0.536967       -14.6116
 172   2.0000      -0.534517       -14.5450
 173   2.0000      -0.533834       -14.5264
 174   2.0000      -0.530921       -14.4471
 175   2.0000      -0.529286       -14.4026
 176   2.0000      -0.525371       -14.2961
 177   2.0000      -0.522362       -14.2142
 178   2.0000      -0.518007       -14.0957
 179   2.0000      -0.516375       -14.0513
 180   2.0000      -0.515560       -14.0291
 181   2.0000      -0.513787       -13.9808
 182   2.0000      -0.508444       -13.8355
 183   2.0000      -0.506169       -13.7735
 184   2.0000      -0.505508       -13.7556
 185   2.0000      -0.503881       -13.7113
 186   2.0000      -0.502928       -13.6854
 187   2.0000      -0.498985       -13.5781
 188   2.0000      -0.495615       -13.4864
 189   2.0000      -0.493935       -13.4407
 190   2.0000      -0.493273       -13.4226
 191   2.0000      -0.491575       -13.3764
 192   2.0000      -0.490685       -13.3522
 193   2.0000      -0.487991       -13.2789
 194   2.0000      -0.484931       -13.1956
 195   2.0000      -0.484206       -13.1759
 196   2.0000      -0.473468       -12.8837
 197   2.0000      -0.472410       -12.8549
 198   2.0000      -0.471468       -12.8293
 199   2.0000      -0.469671       -12.7804
 200   2.0000      -0.469141       -12.7660
 201   2.0000      -0.466860       -12.7039
 202   2.0000      -0.465608       -12.6698
 203   2.0000      -0.464623       -12.6430
 204   2.0000      -0.462104       -12.5745
 205   2.0000      -0.459473       -12.5029
 206   2.0000      -0.458069       -12.4647
 207   2.0000      -0.455603       -12.3976
 208   2.0000      -0.452174       -12.3043
 209   2.0000      -0.447381       -12.1739
 210   2.0000      -0.445021       -12.1096
 211   2.0000      -0.443141       -12.0585
 212   2.0000      -0.437966       -11.9177
 213   2.0000      -0.435248       -11.8437
 214   2.0000      -0.434900       -11.8342
 215   2.0000      -0.427718       -11.6388
 216   2.0000      -0.426356       -11.6017
 217   2.0000      -0.425073       -11.5668
 218   2.0000      -0.423400       -11.5213
 219   2.0000      -0.419712       -11.4209
 220   2.0000      -0.416959       -11.3460
 221   2.0000      -0.409232       -11.1358
 222   2.0000      -0.405993       -11.0476
 223   2.0000      -0.402955       -10.9650
 224   2.0000      -0.399613       -10.8740
 225   2.0000      -0.395781       -10.7698
 226   2.0000      -0.390760       -10.6331
 227   2.0000      -0.385694       -10.4953
 228   2.0000      -0.378719       -10.3055
 229   2.0000      -0.374340       -10.1863
 230   2.0000      -0.369765       -10.0618
 231   2.0000      -0.363177        -9.8825
 232   2.0000      -0.361141        -9.8272
 233   2.0000      -0.358702        -9.7608
 234   2.0000      -0.358095        -9.7443
 235   2.0000      -0.356705        -9.7064
 236   2.0000      -0.351155        -9.5554
 237   2.0000      -0.349262        -9.5039
 238   2.0000      -0.345849        -9.4110
 239   2.0000      -0.334675        -9.1070
 240   2.0000      -0.332970        -9.0606
 241   2.0000      -0.332524        -9.0484
 242   2.0000      -0.329887        -8.9767
 243   2.0000      -0.326343        -8.8802
 244   2.0000      -0.322654        -8.7799
 245   2.0000      -0.310469        -8.4483
 246   2.0000      -0.290820        -7.9136
 247   2.0000      -0.283705        -7.7200
 248   2.0000      -0.260406        -7.0860
 249   2.0000      -0.256270        -6.9735
 250   2.0000      -0.223722        -6.0878
 251   2.0000      -0.218878        -5.9560
 252   0.0000      -0.089458        -2.4343
 253   0.0000      -0.072901        -1.9837
 254   0.0000      -0.041010        -1.1159
 255   0.0000      -0.039586        -1.0772
 256   0.0000      -0.025692        -0.6991

MULLIKEN ATOMIC CHARGES
-----------------------
   0 C :   -0.018148
   1 C :   -0.058568
   2 C :    0.059612
   3 C :    0.051954
   4 C :   -0.072142
   5 S :    0.073529
   6 C :   -0.053335
   7 C :    0.053753
   8 C :    0.010467
   9 C :    0.009941
  10 S :    0.104554
  11 C :   -0.077499
  12 C :    0.098852
  13 O :   -0.236633
  14 C :   -0.036044
  15 C :    0.155851
  16 O :   -0.154694
  17 N :   -0.168137
  18 C :    0.157787
  19 O :   -0.148814
  20 C :   -0.031219
  21 C :    0.082840
  22 C :   -0.033772
  23 C :   -0.007939
  24 C :    0.085329
  25 C :   -0.116095
  26 S :    0.139129
  27 C :   -0.151016
  28 C :    0.123949
  29 C :   -0.111053
  30 C :    0.016018
  31 C :    0.036947
  32 C :   -0.122789
  33 C :    0.014548
  34 C :    0.048325
  35 C :    0.113709
  36 C :    0.100541
  37 C :   -0.117314
  38 S :    0.140004
  39 C :   -0.149953
  40 C :   -0.023871
  41 C :   -0.019048
  42 C :    0.079711
  43 O :   -0.230764
  44 C :   -0.035006
  45 C :    0.156675
  46 O :   -0.149543
  47 N :   -0.168216
  48 C :    0.156394
  49 O :   -0.151669
  50 C :   -0.031571
  51 C :    0.093764
  52 C :   -0.037712
  53 C :    0.021531
  54 C :   -0.023005
  55 C :   -0.000348
  56 C :    0.016452
  57 C :    0.042072
  58 C :   -0.047690
  59 S :    0.073627
  60 C :   -0.080564
  61 C :    0.048506
  62 C :    0.052796
  63 C :   -0.065115
  64 S :    0.086901
  65 C :   -0.013987
  66 H :    0.022964
  67 H :    0.031185
  68 H :   -0.014151
  69 H :   -0.015709
  70 H :   -0.016892
  71 H :   -0.010221
  72 H :    0.006672
  73 H :    0.134277
  74 H :    0.001922
  75 H :    0.007856
  76 H :    0.027788
  77 H :    0.011818
  78 H :    0.000869
  79 H :    0.002909
  80 H :    0.023103
  81 H :    0.005823
  82 H :    0.008285
  83 H :    0.011527
  84 H :    0.002027
  85 H :    0.006818
  86 H :    0.016501
  87 H :    0.027251
  88 H :    0.001770
  89 H :    0.002189
  90 H :    0.133907
  91 H :    0.007615
  92 H :    0.014151
  93 H :   -0.012725
  94 H :   -0.012946
  95 H :   -0.015463
  96 H :   -0.016858
  97 H :   -0.013726
  98 H :    0.023235
  99 H :    0.033429
Sum of atomic charges:   -0.0000000

LOEWDIN ATOMIC CHARGES
----------------------
   0 C :   -0.056063
   1 C :   -0.141909
   2 C :   -0.021574
   3 C :   -0.031304
   4 C :   -0.166253
   5 S :    0.380433
   6 C :   -0.187790
   7 C :   -0.021494
   8 C :   -0.041280
   9 C :   -0.128225
  10 S :    0.396676
  11 C :   -0.086994
  12 C :    0.063603
  13 O :   -0.000522
  14 C :   -0.104917
  15 C :    0.081889
  16 O :   -0.171481
  17 N :   -0.008881
  18 C :    0.083404
  19 O :   -0.167435
  20 C :   -0.103486
  21 C :    0.072806
  22 C :   -0.046828
  23 C :    0.010640
  24 C :   -0.067337
  25 C :   -0.158425
  26 S :    0.426237
  27 C :   -0.178043
  28 C :   -0.037662
  29 C :   -0.015868
  30 C :   -0.034900
  31 C :   -0.053636
  32 C :   -0.018291
  33 C :   -0.031924
  34 C :   -0.058363
  35 C :   -0.039436
  36 C :   -0.068372
  37 C :   -0.156102
  38 S :    0.426983
  39 C :   -0.178688
  40 C :    0.007448
  41 C :   -0.046346
  42 C :    0.076681
  43 O :    0.006604
  44 C :   -0.107289
  45 C :    0.082475
  46 O :   -0.168598
  47 N :   -0.008872
  48 C :    0.082063
  49 O :   -0.169501
  50 C :   -0.102741
  51 C :    0.067471
  52 C :   -0.045328
  53 C :   -0.011496
  54 C :   -0.066882
  55 C :   -0.132689
  56 C :   -0.040787
  57 C :   -0.025337
  58 C :   -0.185005
  59 S :    0.385856
  60 C :   -0.170771
  61 C :   -0.032163
  62 C :   -0.023701
  63 C :   -0.143010
  64 S :    0.373774
  65 C :   -0.058613
  66 H :    0.031040
  67 H :    0.028969
  68 H :    0.032322
  69 H :    0.029355
  70 H :    0.029724
  71 H :    0.034364
  72 H :    0.049861
  73 H :    0.092100
  74 H :    0.040686
  75 H :    0.030479
  76 H :    0.025692
  77 H :    0.019050
  78 H :    0.015298
  79 H :    0.012011
  80 H :    0.024200
  81 H :    0.023405
  82 H :    0.026612
  83 H :    0.027507
  84 H :    0.014739
  85 H :    0.011906
  86 H :    0.022793
  87 H :    0.025759
  88 H :    0.033388
  89 H :    0.039517
  90 H :    0.091942
  91 H :    0.043589
  92 H :    0.024515
  93 H :    0.033725
  94 H :    0.033461
  95 H :    0.030161
  96 H :    0.029285
  97 H :    0.032196
  98 H :    0.030625
  99 H :    0.027294

  Mayer bond orders larger than 0.100000
B(  0-C ,  1-C ) :   1.8754 B(  0-C , 66-H ) :   0.9470 B(  0-C , 67-H ) :   0.9357
B(  1-C ,  2-C ) :   1.0754 B(  1-C ,  5-S ) :   1.0031 B(  2-C ,  3-C ) :   1.6678
B(  2-C , 68-H ) :   0.9901 B(  3-C ,  4-C ) :   1.1410 B(  3-C , 69-H ) :   0.9870
B(  4-C ,  5-S ) :   1.0552 B(  4-C ,  6-C ) :   1.5722 B(  6-C ,  7-C ) :   1.1658
B(  6-C , 10-S ) :   1.0192 B(  7-C ,  8-C ) :   1.6021 B(  7-C , 70-H ) :   0.9904
B(  8-C ,  9-C ) :   1.1225 B(  8-C , 71-H ) :   1.0051 B(  9-C , 10-S ) :   1.0530
B(  9-C , 11-C ) :   1.5440 B( 11-C , 12-C ) :   1.2066 B( 11-C , 72-H ) :   0.9604
B( 12-C , 13-O ) :   1.1293 B( 12-C , 14-C ) :   1.3869 B( 13-O , 21-C ) :   1.1259
B( 14-C , 15-C ) :   0.8931 B( 14-C , 20-C ) :   1.2644 B( 15-C , 16-O ) :   2.2536
B( 15-C , 17-N ) :   1.0741 B( 17-N , 18-C ) :   1.0797 B( 17-N , 73-H ) :   0.9146
B( 18-C , 19-O ) :   2.2647 B( 18-C , 20-C ) :   0.8816 B( 20-C , 21-C ) :   1.4003
B( 21-C , 22-C ) :   1.1721 B( 22-C , 23-C ) :   1.6796 B( 22-C , 74-H ) :   0.9633
B( 23-C , 24-C ) :   1.0253 B( 23-C , 75-H ) :   0.9684 B( 24-C , 25-C ) :   1.5906
B( 24-C , 28-C ) :   1.1396 B( 25-C , 26-S ) :   1.1304 B( 25-C , 76-H ) :   0.9598
B( 26-S , 27-C ) :   1.0775 B( 27-C , 28-C ) :   1.3779 B( 27-C , 39-C ) :   1.3769
B( 28-C , 29-C ) :   1.2529 B( 29-C , 30-C ) :   1.0578 B( 29-C , 32-C ) :   1.5255
B( 30-C , 31-C ) :   1.1117 B( 30-C , 77-H ) :   0.9212 B( 30-C , 78-H ) :   0.9012
B( 31-C , 79-H ) :   0.9563 B( 31-C , 80-H ) :   0.9600 B( 31-C , 81-H ) :   0.9544
B( 32-C , 33-C ) :   1.0578 B( 32-C , 35-C ) :   1.2621 B( 33-C , 34-C ) :   1.1084
B( 33-C , 82-H ) :   0.9081 B( 33-C , 83-H ) :   0.9221 B( 34-C , 84-H ) :   0.9500
B( 34-C , 85-H ) :   0.9590 B( 34-C , 86-H ) :   0.9482 B( 35-C , 36-C ) :   1.1373
B( 35-C , 39-C ) :   1.3819 B( 36-C , 37-C ) :   1.5833 B( 36-C , 40-C ) :   1.0329
B( 37-C , 38-S ) :   1.1343 B( 37-C , 87-H ) :   0.9598 B( 38-S , 39-C ) :   1.0740
B( 40-C , 41-C ) :   1.6935 B( 40-C , 88-H ) :   0.9623 B( 41-C , 42-C ) :   1.1624
B( 41-C , 89-H ) :   0.9674 B( 42-C , 43-O ) :   1.1304 B( 42-C , 44-C ) :   1.4024
B( 43-O , 51-C ) :   1.1331 B( 44-C , 45-C ) :   0.8835 B( 44-C , 50-C ) :   1.2552
B( 45-C , 46-O ) :   2.2702 B( 45-C , 47-N ) :   1.0763 B( 47-N , 48-C ) :   1.0730
B( 47-N , 90-H ) :   0.9149 B( 48-C , 49-O ) :   2.2643 B( 48-C , 50-C ) :   0.8886
B( 50-C , 51-C ) :   1.3883 B( 51-C , 52-C ) :   1.1817 B( 52-C , 53-C ) :   1.5884
B( 52-C , 91-H ) :   0.9721 B( 53-C , 54-C ) :   1.1517 B( 53-C , 92-H ) :   0.9745
B( 54-C , 55-C ) :   1.5539 B( 54-C , 93-H ) :   0.9840 B( 55-C , 56-C ) :   1.1344
B( 55-C , 59-S ) :   1.0359 B( 56-C , 57-C ) :   1.5952 B( 56-C , 94-H ) :   1.0018
B( 57-C , 58-C ) :   1.1659 B( 57-C , 95-H ) :   0.9942 B( 58-C , 59-S ) :   1.0402
B( 58-C , 60-C ) :   1.5645 B( 60-C , 61-C ) :   1.1392 B( 60-C , 64-S ) :   1.0572
B( 61-C , 62-C ) :   1.6634 B( 61-C , 96-H ) :   0.9910 B( 62-C , 63-C ) :   1.0773
B( 62-C , 97-H ) :   0.9894 B( 63-C , 64-S ) :   1.0024 B( 63-C , 65-C ) :   1.8738
B( 65-C , 98-H ) :   0.9459 B( 65-C , 99-H ) :   0.9351

-----------------------------------------------------------------------------
         ABSORPTION SPECTRUM VIA TRANSITION ELECTRIC DIPOLE MOMENTS
-----------------------------------------------------------------------------
State   Energy  Wavelength   fosc         T2         TX        TY        TZ
        (cm-1)    (nm)                  (au**2)     (au)      (au)      (au)
-----------------------------------------------------------------------------
   0   13353.4    748.9   0.116692093   2.87690   0.92742  -0.03985  -1.41958
   1   14788.1    676.2   0.232847043   5.18362   1.01587  -0.61912   1.94122
   2   16736.4    597.5   0.790689826  15.55318  -0.60771   0.94967  -3.77915
   3   18670.1    535.6   0.489016703   8.62286  -2.82752   0.64087   0.46613
   4   22730.5    439.9   0.085148528   1.23323   1.08760  -0.21776   0.05419
   5   23562.5    424.4   0.015451427   0.21589  -0.07675  -0.24211   0.38907
   6   24741.5    404.2   0.167645985   2.23071   1.03535   0.21714  -1.05433
   7   25119.3    398.1   1.302801438  17.07446   1.80584  -0.47250   3.68648
   8   26403.3    378.7   0.032171891   0.40114  -0.33998  -0.31677  -0.43035
   9   26665.2    375.0   0.271416220   3.35094  -0.83146   0.19637  -1.61896
  10   27220.6    367.4   0.074135145   0.89661   0.82019  -0.00585  -0.47314
  11   27620.2    362.1   0.116248231   1.38559   0.54577   0.00296  -1.04294
  12   27953.3    357.7   0.006504641   0.07661  -0.02058   0.05801   0.26985
  13   28731.2    348.1   0.004647898   0.05326   0.15778   0.01522   0.16772
  14   28957.1    345.3   0.161092338   1.83145  -1.22395   0.39967   0.41673
  15   29849.2    335.0   0.066041187   0.72838  -0.12832   0.23002  -0.81179
  16   30120.6    332.0   0.051423275   0.56205  -0.36824  -0.09036  -0.64674
  17   30598.4    326.8   0.087307962   0.93936   0.41138  -0.01557  -0.87743
  18   31209.5    320.4   0.344593731   3.63494  -1.38292  -0.16873  -1.30153
  19   31553.4    316.9   0.218284115   2.27746   0.85545   0.13501  -1.23590
  20   31931.1    313.2   0.076918757   0.79304  -0.84310   0.24005  -0.15682
  21   32341.9    309.2   0.153159704   1.55903  -0.25283   0.13770   1.21497
  22   32749.8    305.3   0.009379485   0.09429  -0.17357  -0.12504   0.22028
  23   33218.1    301.0   0.038675160   0.38329  -0.50764   0.11291  -0.33593
  24   33542.3    298.1   0.103792696   1.01871   0.88976  -0.23878   0.41233
  25   33972.7    294.4   0.019866408   0.19252  -0.10681   0.10854  -0.41149
  26   34093.7    293.3   0.250647750   2.42028   0.13335  -0.33697   1.51293
  27   34232.1    292.1   0.028953046   0.27844  -0.26622   0.07583  -0.44925
  28   34377.5    290.9   0.122930105   1.17723   0.16181   0.04348  -1.07199
  29   34831.1    287.1   0.219459006   2.07425  -0.62518   0.01513  -1.29737
  30   34992.4    285.8   0.051352795   0.48313  -0.23095   0.19670  -0.62538
  31   35432.9    282.2   0.000595241   0.00553   0.07256   0.01246   0.01051
  32   36246.1    275.9   0.061119198   0.55513   0.46703  -0.24340   0.52703
  33   36646.2    272.9   0.039350314   0.35350  -0.37902   0.19298  -0.41546
  34   37013.7    270.2   0.081850854   0.72801   0.22484   0.07806   0.81937
  35   37156.6    269.1   0.035745397   0.31671   0.44216  -0.19774  -0.28653
  36   37643.3    265.7   0.012022465   0.10514   0.04710  -0.18953  -0.25885
  37   37702.2    265.2   0.015969368   0.13944   0.08822   0.01195   0.36265
  38   38146.2    262.1   0.014843653   0.12810  -0.13339  -0.11053   0.31320
  39   38341.2    260.8   0.048919533   0.42004   0.27889   0.30026  -0.50210
  40   38624.0    258.9   0.028206561   0.24042  -0.38467   0.19926   0.22966
  41   38727.3    258.2   0.074558692   0.63381   0.29918   0.07002   0.73444
  42   38824.5    257.6   0.154939013   1.31380  -0.66191   0.03540  -0.93511
  43   39231.8    254.9   0.075906855   0.63697   0.09145  -0.03734  -0.79197
  44   39303.8    254.4   0.013696524   0.11472   0.09081   0.18910  -0.26593
  45   39474.0    253.3   0.018874257   0.15741   0.31406   0.01245  -0.24212
  46   39817.0    251.1   0.005721394   0.04731  -0.17919   0.00853  -0.12297
  47   39941.1    250.4   0.026440709   0.21794  -0.06361  -0.10951  -0.44933
  48   40137.6    249.1   0.131486588   1.07846   0.19682  -0.02874  -1.01926

FINAL SINGLE POINT ENERGY     -4948.006462483584

DIPOLE MOMENT
-------------
                                X             Y             Z
Electronic contribution:     30.24901      -1.03438      -6.65248
Nuclear contribution   :    -33.05789       1.82334       8.09613
                        -----------------------------------------
Total Dipole Moment    :     -2.80888       0.78896       1.44365
                        -----------------------------------------
Magnitude (a.u.)       :      3.25521
Magnitude (Debye)      :      8.27409

Rotational constants in cm-1:     0.001456     0.000657     0.000478
Rotational constants in MHz :    43.664339    19.687911    14.323063

                             ****ORCA TERMINATED NORMALLY****
TOTAL RUN TIME: 0 days 0 hours 11 minutes 17 seconds 896 msec
