                         Program Version 4.2.0 -  RELEASE  -
|  1> # ORCA input file
|  2> # SCF done       -125.935053053783          0.000545054391
|  3> ! CAM-B3LYP def2-SVP def2/J RIJCOSX Grid4 TightSCF
|  4> %maxcore 5000
|  5> %tddft
|  6>     Mode sTDDFT
|  7>     Ethresh 5.0
|  8>     maxcore 5000
|  9> end
| 10>
| 11> %pal
| 12>   nprocs 6
| 13>   end
| 14> * xyz 0 1
| 15>    C       -0.06522         0.22731        14.37083
| 16>    C        0.26459        -0.32196        13.14703
| 17>    C       -0.72982        -0.94005        12.37947
| 18>    C       -2.01947        -0.95573        12.93165
| 19>    N       -2.33705        -0.43341        14.09726
| 20>    C       -1.38113         0.14729        14.80471
| 21>    C       -0.50660        -1.54872        11.09121
| 22>    C        0.65507        -1.57049        10.40737
| 23>    C        0.82847        -2.19610         9.14105
| 24>    S       -0.48467        -3.05496         8.38933
| 25>    C        0.52308        -3.49941         7.07249
| 26>    C        1.79867        -3.04743         7.18432
| 27>    C        2.81430        -3.28408         6.11524
| 28>    C        1.99673        -2.28374         8.38127
| 29>    C        3.20685        -1.61847         8.76552
| 30>    C        4.47345        -1.97477         8.43440
| 31>    C        5.61308        -1.22850         8.81089
| 32>    C        6.88880        -1.60683         8.50182
| 33>    C        8.03358        -0.86069         8.81020
| 34>    C        9.31403        -1.23741         8.48149
| 35>    C       10.50521        -0.50721         8.70228
| 36>    C       11.63282        -1.11726         8.23956
| 37>    C       11.39973        -2.37350         7.63933
| 38>    S        9.69204        -2.75385         7.67602
| 39>    C       12.32398        -3.23602         7.08153
| 40>    C       13.71144        -3.03487         6.91351
| 41>    C       14.34890        -4.07464         6.30902
| 42>    C       13.50684        -5.16685         5.97830
| 43>    S       11.85755        -4.80536         6.45594
| 44>    C       13.91135        -6.32490         5.36414
| 45>    C       13.14601        -7.47090         5.09378
| 46>    S       11.57041        -7.71721         5.80761
| 47>    C       11.51468        -9.32985         5.21158
| 48>    C       12.61721        -9.68098         4.49995
| 49>    C       12.80143       -11.02218         3.86965
| 50>    C       13.55659        -8.61217         4.38964
| 51>    C       14.73745        -8.72658         3.58708
| 52>    C       15.36174        -7.72788         2.92403
| 53>    C       16.50917        -7.94069         2.10421
| 54>    C       17.10174        -6.96122         1.39224
| 55>    C       18.24109        -7.10196         0.51643
| 56>    C       18.86675        -8.31709         0.22876
| 57>    C       19.94855        -8.36523        -0.64597
| 58>    C       20.38005        -7.15042        -1.19013
| 59>    N       19.80549        -5.99135        -0.93044
| 60>    C       18.77095        -5.96723        -0.11484
| 61>    C       20.57598        -9.64577        -0.94885
| 62>    C       21.42829        -9.88362        -1.93756
| 63>    H        0.68436         0.70761        14.98112
| 64>    H        1.28418        -0.27626        12.79320
| 65>    H       -2.83568        -1.41905        12.39038
| 66>    H       -1.68676         0.56110        15.75650
| 67>    H       -1.37260        -2.02820        10.65086
| 68>    H        1.53538        -1.10097        10.82232
| 69>    H        0.10395        -4.07319         6.26889
| 70>    H        2.31643        -3.56154         5.18859
| 71>    H        3.48634        -4.09662         6.39062
| 72>    H        3.40636        -2.38729         5.94457
| 73>    H        3.08445        -0.74719         9.39746
| 74>    H        4.65687        -2.88077         7.87794
| 75>    H        5.45605        -0.30501         9.35445
| 76>    H        7.04097        -2.53759         7.96844
| 77>    H        7.91090         0.08515         9.32224
| 78>    H       10.48989         0.45186         9.19007
| 79>    H       12.62150        -0.70197         8.32000
| 80>    H       14.19740        -2.12977         7.23120
| 81>    H       15.40260        -4.09949         6.09212
| 82>    H       14.95760        -6.37982         5.09220
| 83>    H       10.65325        -9.93249         5.42356
| 84>    H       11.94053       -11.65414         4.07143
| 85>    H       13.69096       -11.51119         4.26638
| 86>    H       12.91882       -10.92384         2.79118
| 87>    H       15.11109        -9.73481         3.45421
| 88>    H       14.96356        -6.72314         2.95256
| 89>    H       16.89300        -8.95158         2.07040
| 90>    H       16.69848        -5.95781         1.46119
| 91>    H       18.50799        -9.23501         0.67264
| 92>    H       21.23057        -7.10436        -1.85565
| 93>    H       18.33432        -4.99106         0.05636
| 94>    H       20.27919       -10.45941        -0.29683
| 95>    H       21.74028        -9.12053        -2.63001
| 96>    H       21.84081       -10.86527        -2.09697
| 97> *
| 98>
| 99>                          ****END OF INPUT****

CARTESIAN COORDINATES (ANGSTROEM)
---------------------------------
  C     -0.065220    0.227310   14.370830
  C      0.264590   -0.321960   13.147030
  C     -0.729820   -0.940050   12.379470
  C     -2.019470   -0.955730   12.931650
  N     -2.337050   -0.433410   14.097260
  C     -1.381130    0.147290   14.804710
  C     -0.506600   -1.548720   11.091210
  C      0.655070   -1.570490   10.407370
  C      0.828470   -2.196100    9.141050
  S     -0.484670   -3.054960    8.389330
  C      0.523080   -3.499410    7.072490
  C      1.798670   -3.047430    7.184320
  C      2.814300   -3.284080    6.115240
  C      1.996730   -2.283740    8.381270
  C      3.206850   -1.618470    8.765520
  C      4.473450   -1.974770    8.434400
  C      5.613080   -1.228500    8.810890
  C      6.888800   -1.606830    8.501820
  C      8.033580   -0.860690    8.810200
  C      9.314030   -1.237410    8.481490
  C     10.505210   -0.507210    8.702280
  C     11.632820   -1.117260    8.239560
  C     11.399730   -2.373500    7.639330
  S      9.692040   -2.753850    7.676020
  C     12.323980   -3.236020    7.081530
  C     13.711440   -3.034870    6.913510
  C     14.348900   -4.074640    6.309020
  C     13.506840   -5.166850    5.978300
  S     11.857550   -4.805360    6.455940
  C     13.911350   -6.324900    5.364140
  C     13.146010   -7.470900    5.093780
  S     11.570410   -7.717210    5.807610
  C     11.514680   -9.329850    5.211580
  C     12.617210   -9.680980    4.499950
  C     12.801430  -11.022180    3.869650
  C     13.556590   -8.612170    4.389640
  C     14.737450   -8.726580    3.587080
  C     15.361740   -7.727880    2.924030
  C     16.509170   -7.940690    2.104210
  C     17.101740   -6.961220    1.392240
  C     18.241090   -7.101960    0.516430
  C     18.866750   -8.317090    0.228760
  C     19.948550   -8.365230   -0.645970
  C     20.380050   -7.150420   -1.190130
  N     19.805490   -5.991350   -0.930440
  C     18.770950   -5.967230   -0.114840
  C     20.575980   -9.645770   -0.948850
  C     21.428290   -9.883620   -1.937560
  H      0.684360    0.707610   14.981120
  H      1.284180   -0.276260   12.793200
  H     -2.835680   -1.419050   12.390380
  H     -1.686760    0.561100   15.756500
  H     -1.372600   -2.028200   10.650860
  H      1.535380   -1.100970   10.822320
  H      0.103950   -4.073190    6.268890
  H      2.316430   -3.561540    5.188590
  H      3.486340   -4.096620    6.390620
  H      3.406360   -2.387290    5.944570
  H      3.084450   -0.747190    9.397460
  H      4.656870   -2.880770    7.877940
  H      5.456050   -0.305010    9.354450
  H      7.040970   -2.537590    7.968440
  H      7.910900    0.085150    9.322240
  H     10.489890    0.451860    9.190070
  H     12.621500   -0.701970    8.320000
  H     14.197400   -2.129770    7.231200
  H     15.402600   -4.099490    6.092120
  H     14.957600   -6.379820    5.092200
  H     10.653250   -9.932490    5.423560
  H     11.940530  -11.654140    4.071430
  H     13.690960  -11.511190    4.266380
  H     12.918820  -10.923840    2.791180
  H     15.111090   -9.734810    3.454210
  H     14.963560   -6.723140    2.952560
  H     16.893000   -8.951580    2.070400
  H     16.698480   -5.957810    1.461190
  H     18.507990   -9.235010    0.672640
  H     21.230570   -7.104360   -1.855650
  H     18.334320   -4.991060    0.056360
  H     20.279190  -10.459410   -0.296830
  H     21.740280   -9.120530   -2.630010
  H     21.840810  -10.865270   -2.096970

 Total Charge           Charge          ....    0
 Multiplicity           Mult            ....    1
 Number of Electrons    NEL             ....  364
 Basis Dimension        Dim             ....  858

ORBITAL ENERGIES
----------------

  NO   OCC          E(Eh)            E(eV)
   0   2.0000     -88.943943     -2420.2877
   1   2.0000     -88.943356     -2420.2718
   2   2.0000     -88.939819     -2420.1755
   3   2.0000     -88.938019     -2420.1265
   4   2.0000     -14.393768      -391.6743
   5   2.0000     -14.390951      -391.5977
   6   2.0000     -10.304791      -280.4076
   7   2.0000     -10.303701      -280.3780
   8   2.0000     -10.301149      -280.3085
   9   2.0000     -10.300774      -280.2983
  10   2.0000     -10.295421      -280.1527
  11   2.0000     -10.294373      -280.1241
  12   2.0000     -10.293851      -280.1099
  13   2.0000     -10.292554      -280.0746
  14   2.0000     -10.292247      -280.0663
  15   2.0000     -10.291814      -280.0545
  16   2.0000     -10.282866      -279.8110
  17   2.0000     -10.280941      -279.7586
  18   2.0000     -10.280841      -279.7559
  19   2.0000     -10.280804      -279.7549
  20   2.0000     -10.280685      -279.7516
  21   2.0000     -10.280183      -279.7380
  22   2.0000     -10.279636      -279.7231
  23   2.0000     -10.279547      -279.7207
  24   2.0000     -10.279274      -279.7133
  25   2.0000     -10.279152      -279.7099
  26   2.0000     -10.278444      -279.6907
  27   2.0000     -10.278098      -279.6813
  28   2.0000     -10.277990      -279.6783
  29   2.0000     -10.274608      -279.5863
  30   2.0000     -10.274370      -279.5798
  31   2.0000     -10.273503      -279.5562
  32   2.0000     -10.273460      -279.5550
  33   2.0000     -10.272804      -279.5372
  34   2.0000     -10.272719      -279.5349
  35   2.0000     -10.271933      -279.5135
  36   2.0000     -10.271625      -279.5051
  37   2.0000     -10.271409      -279.4992
  38   2.0000     -10.271358      -279.4979
  39   2.0000     -10.271104      -279.4909
  40   2.0000     -10.270897      -279.4853
  41   2.0000     -10.270612      -279.4776
  42   2.0000     -10.270210      -279.4666
  43   2.0000     -10.269522      -279.4479
  44   2.0000     -10.268045      -279.4077
  45   2.0000     -10.265305      -279.3332
  46   2.0000     -10.265075      -279.3269
  47   2.0000     -10.261535      -279.2306
  48   2.0000      -8.039684      -218.7709
  49   2.0000      -8.039373      -218.7625
  50   2.0000      -8.035834      -218.6662
  51   2.0000      -8.034370      -218.6263
  52   2.0000      -6.009042      -163.5144
  53   2.0000      -6.008573      -163.5016
  54   2.0000      -6.005607      -163.4209
  55   2.0000      -6.004666      -163.3953
  56   2.0000      -6.004457      -163.3896
  57   2.0000      -6.004095      -163.3797
  58   2.0000      -6.001850      -163.3186
  59   2.0000      -6.001621      -163.3124
  60   2.0000      -6.001495      -163.3090
  61   2.0000      -6.000135      -163.2720
  62   2.0000      -5.996755      -163.1800
  63   2.0000      -5.995220      -163.1382
  64   2.0000      -1.028367       -27.9833
  65   2.0000      -1.025516       -27.9057
  66   2.0000      -0.990183       -26.9442
  67   2.0000      -0.977504       -26.5992
  68   2.0000      -0.976514       -26.5723
  69   2.0000      -0.964648       -26.2494
  70   2.0000      -0.918418       -24.9914
  71   2.0000      -0.911869       -24.8132
  72   2.0000      -0.909608       -24.7517
  73   2.0000      -0.903424       -24.5834
  74   2.0000      -0.889744       -24.2112
  75   2.0000      -0.883656       -24.0455
  76   2.0000      -0.876510       -23.8511
  77   2.0000      -0.873194       -23.7608
  78   2.0000      -0.855059       -23.2673
  79   2.0000      -0.851576       -23.1726
  80   2.0000      -0.845229       -22.9999
  81   2.0000      -0.838704       -22.8223
  82   2.0000      -0.831280       -22.6203
  83   2.0000      -0.821198       -22.3459
  84   2.0000      -0.818904       -22.2835
  85   2.0000      -0.814035       -22.1510
  86   2.0000      -0.800982       -21.7958
  87   2.0000      -0.784384       -21.3442
  88   2.0000      -0.768783       -20.9197
  89   2.0000      -0.752970       -20.4894
  90   2.0000      -0.746668       -20.3179
  91   2.0000      -0.731988       -19.9184
  92   2.0000      -0.723597       -19.6901
  93   2.0000      -0.718267       -19.5450
  94   2.0000      -0.713294       -19.4097
  95   2.0000      -0.704552       -19.1718
  96   2.0000      -0.693547       -18.8724
  97   2.0000      -0.680618       -18.5206
  98   2.0000      -0.671862       -18.2823
  99   2.0000      -0.667672       -18.1683
 100   2.0000      -0.658870       -17.9288
 101   2.0000      -0.642498       -17.4833
 102   2.0000      -0.640514       -17.4293
 103   2.0000      -0.632739       -17.2177
 104   2.0000      -0.623891       -16.9769
 105   2.0000      -0.617745       -16.8097
 106   2.0000      -0.613665       -16.6987
 107   2.0000      -0.606459       -16.5026
 108   2.0000      -0.602173       -16.3860
 109   2.0000      -0.599582       -16.3155
 110   2.0000      -0.592969       -16.1355
 111   2.0000      -0.592589       -16.1252
 112   2.0000      -0.585081       -15.9209
 113   2.0000      -0.579408       -15.7665
 114   2.0000      -0.576943       -15.6994
 115   2.0000      -0.566488       -15.4149
 116   2.0000      -0.555408       -15.1134
 117   2.0000      -0.545926       -14.8554
 118   2.0000      -0.540504       -14.7079
 119   2.0000      -0.537562       -14.6278
 120   2.0000      -0.533354       -14.5133
 121   2.0000      -0.526832       -14.3358
 122   2.0000      -0.521541       -14.1919
 123   2.0000      -0.516282       -14.0488
 124   2.0000      -0.508730       -13.8433
 125   2.0000      -0.507687       -13.8149
 126   2.0000      -0.505861       -13.7652
 127   2.0000      -0.502725       -13.6798
 128   2.0000      -0.500112       -13.6087
 129   2.0000      -0.493628       -13.4323
 130   2.0000      -0.491933       -13.3862
 131   2.0000      -0.490094       -13.3361
 132   2.0000      -0.488677       -13.2976
 133   2.0000      -0.487011       -13.2523
 134   2.0000      -0.485226       -13.2037
 135   2.0000      -0.482739       -13.1360
 136   2.0000      -0.480597       -13.0777
 137   2.0000      -0.477260       -12.9869
 138   2.0000      -0.476451       -12.9649
 139   2.0000      -0.474625       -12.9152
 140   2.0000      -0.470925       -12.8145
 141   2.0000      -0.468793       -12.7565
 142   2.0000      -0.466449       -12.6927
 143   2.0000      -0.457326       -12.4445
 144   2.0000      -0.456429       -12.4201
 145   2.0000      -0.452047       -12.3008
 146   2.0000      -0.448823       -12.2131
 147   2.0000      -0.445879       -12.1330
 148   2.0000      -0.445566       -12.1245
 149   2.0000      -0.440050       -11.9744
 150   2.0000      -0.437686       -11.9101
 151   2.0000      -0.434487       -11.8230
 152   2.0000      -0.433503       -11.7962
 153   2.0000      -0.432053       -11.7568
 154   2.0000      -0.431416       -11.7394
 155   2.0000      -0.425031       -11.5657
 156   2.0000      -0.418129       -11.3779
 157   2.0000      -0.416487       -11.3332
 158   2.0000      -0.414997       -11.2926
 159   2.0000      -0.411252       -11.1907
 160   2.0000      -0.401723       -10.9314
 161   2.0000      -0.399729       -10.8772
 162   2.0000      -0.393537       -10.7087
 163   2.0000      -0.389914       -10.6101
 164   2.0000      -0.385617       -10.4932
 165   2.0000      -0.382095       -10.3973
 166   2.0000      -0.368157       -10.0181
 167   2.0000      -0.356853        -9.7105
 168   2.0000      -0.346792        -9.4367
 169   2.0000      -0.333529        -9.0758
 170   2.0000      -0.328528        -8.9397
 171   2.0000      -0.322957        -8.7881
 172   2.0000      -0.320274        -8.7151
 173   2.0000      -0.317451        -8.6383
 174   2.0000      -0.315932        -8.5969
 175   2.0000      -0.312078        -8.4921
 176   2.0000      -0.297896        -8.1062
 177   2.0000      -0.292415        -7.9570
 178   2.0000      -0.271157        -7.3785
 179   2.0000      -0.257484        -7.0065
 180   2.0000      -0.242013        -6.5855
 181   2.0000      -0.197144        -5.3646
 182   0.0000      -0.079384        -2.1601
 183   0.0000      -0.040511        -1.1024
 184   0.0000      -0.026245        -0.7142
 185   0.0000      -0.004590        -0.1249
 186   0.0000       0.000817         0.0222

MULLIKEN ATOMIC CHARGES
-----------------------
   0 C :    0.015680
   1 C :    0.016855
   2 C :    0.056536
   3 C :   -0.021617
   4 N :   -0.061381
   5 C :    0.018569
   6 C :   -0.011131
   7 C :    0.028881
   8 C :   -0.119660
   9 S :    0.099641
  10 C :   -0.116977
  11 C :   -0.080376
  12 C :    0.108386
  13 C :    0.130794
  14 C :   -0.063500
  15 C :    0.019442
  16 C :    0.011864
  17 C :    0.007948
  18 C :   -0.011178
  19 C :   -0.020724
  20 C :    0.038959
  21 C :    0.019910
  22 C :   -0.046405
  23 S :    0.069961
  24 C :   -0.040920
  25 C :    0.024758
  26 C :    0.031211
  27 C :   -0.043480
  28 S :    0.073210
  29 C :   -0.023587
  30 C :   -0.133840
  31 S :    0.099227
  32 C :   -0.116960
  33 C :   -0.076479
  34 C :    0.117849
  35 C :    0.130446
  36 C :   -0.050713
  37 C :    0.008217
  38 C :    0.020643
  39 C :    0.000540
  40 C :    0.081201
  41 C :   -0.024223
  42 C :    0.064454
  43 C :   -0.022094
  44 N :   -0.052005
  45 C :   -0.026286
  46 C :   -0.006286
  47 C :   -0.009612
  48 H :   -0.009267
  49 H :   -0.015792
  50 H :   -0.007688
  51 H :    0.000272
  52 H :   -0.012884
  53 H :   -0.022923
  54 H :    0.011581
  55 H :    0.006203
  56 H :    0.036298
  57 H :    0.031192
  58 H :   -0.010656
  59 H :   -0.020540
  60 H :   -0.020813
  61 H :   -0.003322
  62 H :   -0.020791
  63 H :   -0.015880
  64 H :   -0.015282
  65 H :   -0.017188
  66 H :   -0.013833
  67 H :   -0.003676
  68 H :    0.012248
  69 H :    0.007640
  70 H :    0.027337
  71 H :    0.029363
  72 H :   -0.019314
  73 H :   -0.000127
  74 H :   -0.016195
  75 H :   -0.022251
  76 H :   -0.026049
  77 H :   -0.007769
  78 H :   -0.008974
  79 H :   -0.011931
  80 H :    0.021161
  81 H :    0.024106
Sum of atomic charges:   -0.0000000

LOEWDIN ATOMIC CHARGES
----------------------
   0 C :   -0.043164
   1 C :    0.008319
   2 C :   -0.046449
   3 C :    0.017195
   4 N :   -0.069552
   5 C :    0.013545
   6 C :   -0.029766
   7 C :   -0.032053
   8 C :   -0.167869
   9 S :    0.428395
  10 C :   -0.189316
  11 C :   -0.055761
  12 C :   -0.045650
  13 C :   -0.058698
  14 C :   -0.025050
  15 C :   -0.025821
  16 C :   -0.021784
  17 C :   -0.034192
  18 C :   -0.058066
  19 C :   -0.145069
  20 C :   -0.035660
  21 C :   -0.033707
  22 C :   -0.178664
  23 S :    0.366889
  24 C :   -0.179883
  25 C :   -0.039063
  26 C :   -0.033390
  27 C :   -0.156258
  28 S :    0.366844
  29 C :   -0.073184
  30 C :   -0.165864
  31 S :    0.423667
  32 C :   -0.195241
  33 C :   -0.057455
  34 C :   -0.044999
  35 C :   -0.064657
  36 C :   -0.020127
  37 C :   -0.025349
  38 C :   -0.018653
  39 C :   -0.025811
  40 C :   -0.046476
  41 C :    0.012422
  42 C :   -0.045916
  43 C :    0.023011
  44 N :   -0.064690
  45 C :    0.015160
  46 C :   -0.021833
  47 C :   -0.035967
  48 H :    0.031095
  49 H :    0.027642
  50 H :    0.018744
  51 H :    0.019665
  52 H :    0.021274
  53 H :    0.027872
  54 H :    0.020529
  55 H :    0.031811
  56 H :    0.033744
  57 H :    0.035534
  58 H :    0.025536
  59 H :    0.027814
  60 H :    0.025251
  61 H :    0.022064
  62 H :    0.031203
  63 H :    0.032426
  64 H :    0.031069
  65 H :    0.030586
  66 H :    0.032643
  67 H :    0.039586
  68 H :    0.020299
  69 H :    0.032690
  70 H :    0.033620
  71 H :    0.035654
  72 H :    0.026298
  73 H :    0.029437
  74 H :    0.024062
  75 H :    0.027792
  76 H :    0.025328
  77 H :    0.018345
  78 H :    0.018162
  79 H :    0.028128
  80 H :    0.022895
  81 H :    0.026867

  Mayer bond orders larger than 0.100000
B(  0-C ,  1-C ) :   1.4409 B(  0-C ,  5-C ) :   1.3677 B(  0-C , 48-H ) :   0.9724
B(  1-C ,  2-C ) :   1.3694 B(  1-C , 49-H ) :   0.9837 B(  2-C ,  3-C ) :   1.3171
B(  2-C ,  6-C ) :   1.0730 B(  3-C ,  4-N ) :   1.5754 B(  3-C , 50-H ) :   0.9873
B(  4-N ,  5-C ) :   1.5433 B(  5-C , 51-H ) :   0.9817 B(  6-C ,  7-C ) :   1.6931
B(  6-C , 52-H ) :   0.9799 B(  7-C ,  8-C ) :   1.1635 B(  7-C , 53-H ) :   0.9604
B(  8-C ,  9-S ) :   1.1278 B(  8-C , 13-C ) :   1.4189 B(  9-S , 10-C ) :   1.1340
B( 10-C , 11-C ) :   1.6114 B( 10-C , 54-H ) :   0.9664 B( 11-C , 12-C ) :   1.0910
B( 11-C , 13-C ) :   1.2234 B( 12-C , 55-H ) :   0.9469 B( 12-C , 56-H ) :   0.9418
B( 12-C , 57-H ) :   0.9463 B( 13-C , 14-C ) :   1.0878 B( 14-C , 15-C ) :   1.6494
B( 14-C , 58-H ) :   0.9640 B( 15-C , 16-C ) :   1.1415 B( 15-C , 59-H ) :   0.9845
B( 16-C , 17-C ) :   1.6009 B( 16-C , 60-H ) :   0.9920 B( 17-C , 18-C ) :   1.1596
B( 17-C , 61-H ) :   0.9735 B( 18-C , 19-C ) :   1.5535 B( 18-C , 62-H ) :   0.9809
B( 19-C , 20-C ) :   1.1520 B( 19-C , 23-S ) :   1.0314 B( 20-C , 21-C ) :   1.5784
B( 20-C , 63-H ) :   0.9987 B( 21-C , 22-C ) :   1.1966 B( 21-C , 64-H ) :   0.9943
B( 22-C , 23-S ) :   1.0444 B( 22-C , 24-C ) :   1.5033 B( 24-C , 25-C ) :   1.1896
B( 24-C , 28-S ) :   1.0414 B( 25-C , 26-C ) :   1.5874 B( 25-C , 65-H ) :   0.9928
B( 26-C , 27-C ) :   1.1452 B( 26-C , 66-H ) :   0.9998 B( 27-C , 28-S ) :   1.0337
B( 27-C , 29-C ) :   1.5713 B( 29-C , 30-C ) :   1.1943 B( 29-C , 67-H ) :   0.9589
B( 30-C , 31-S ) :   1.1175 B( 30-C , 35-C ) :   1.4035 B( 31-S , 32-C ) :   1.1304
B( 32-C , 33-C ) :   1.5940 B( 32-C , 68-H ) :   0.9651 B( 33-C , 34-C ) :   1.0953
B( 33-C , 35-C ) :   1.2414 B( 34-C , 69-H ) :   0.9508 B( 34-C , 70-H ) :   0.9418
B( 34-C , 71-H ) :   0.9438 B( 35-C , 36-C ) :   1.0918 B( 36-C , 37-C ) :   1.6679
B( 36-C , 72-H ) :   0.9585 B( 37-C , 38-C ) :   1.1234 B( 37-C , 73-H ) :   0.9891
B( 38-C , 39-C ) :   1.6811 B( 38-C , 74-H ) :   0.9782 B( 39-C , 40-C ) :   1.0513
B( 39-C , 75-H ) :   0.9838 B( 40-C , 41-C ) :   1.3543 B( 40-C , 45-C ) :   1.3197
B( 41-C , 42-C ) :   1.3958 B( 41-C , 76-H ) :   0.9871 B( 42-C , 43-C ) :   1.3209
B( 42-C , 46-C ) :   1.0451 B( 43-C , 44-N ) :   1.5726 B( 43-C , 77-H ) :   0.9855
B( 44-N , 45-C ) :   1.5595 B( 45-C , 78-H ) :   0.9883 B( 46-C , 47-C ) :   1.9639
B( 46-C , 79-H ) :   0.9681 B( 47-C , 80-H ) :   0.9517 B( 47-C , 81-H ) :   0.9490

-----------------------------------------------------------------------------
         ABSORPTION SPECTRUM VIA TRANSITION ELECTRIC DIPOLE MOMENTS
-----------------------------------------------------------------------------
State   Energy  Wavelength   fosc         T2         TX        TY        TZ
        (cm-1)    (nm)                  (au**2)     (au)      (au)      (au)
-----------------------------------------------------------------------------
   0   13011.7    768.5   1.891314119  47.85241   5.39971  -3.21540  -2.89080
   1   20609.1    485.2   0.010710316   0.17109   0.35605   0.12474   0.16958
   2   22943.5    435.9   0.347796163   4.99046   1.95739   0.96267   0.48204
   3   24508.2    408.0   0.023362582   0.31382   0.33816   0.42626  -0.13332
   4   26574.3    376.3   0.485795351   6.01820   1.52256   0.43253  -1.87428
   5   27233.8    367.2   0.012294041   0.14861   0.29256   0.16848   0.18612
   6   30252.1    330.6   0.602268862   6.55405   1.82742   1.66725   0.65944
   7   31197.1    320.5   0.043081123   0.45462   0.45567   0.42382   0.25954
   8   31879.3    313.7   0.295311383   3.04963   0.91314  -0.34886  -1.44710
   9   31992.0    312.6   0.316946774   3.26152   1.33637  -0.04247  -1.21402
  10   32462.9    308.0   0.017918708   0.18172  -0.41794  -0.06802  -0.04915
  11   32884.4    304.1   0.018554284   0.18575   0.42037   0.04109   0.08576
  12   34089.0    293.3   0.342566817   3.30831  -1.22048  -1.31036  -0.31890
  13   34981.8    285.9   0.197451370   1.85820   1.29054   0.25935  -0.35417
  14   36351.8    275.1   0.146954607   1.33086   0.63676  -0.00865  -0.96194
  15   36470.0    274.2   0.120507660   1.08781   0.59348   0.29100  -0.80679
  16   36649.2    272.9   0.175054656   1.57248   0.65537  -0.27729  -1.03251
  17   37026.8    270.1   0.064911537   0.57714  -0.27421  -0.10226  -0.70106
  18   37718.3    265.1   0.039084753   0.34114   0.48082   0.28997  -0.16083
  19   38364.5    260.7   0.040428937   0.34693  -0.11486  -0.52821  -0.23394
  20   38807.3    257.7   0.013357915   0.11332  -0.28737  -0.05958   0.16488
  21   39162.2    255.3   0.090823559   0.76350   0.25779   0.29546  -0.78086
  22   40098.3    249.4   0.062894487   0.51637   0.53371   0.24887  -0.41181

FINAL SINGLE POINT ENERGY     -3320.349052267962

DIPOLE MOMENT
-------------
                                X             Y             Z
Electronic contribution:    -15.40682      11.22923      15.97012
Nuclear contribution   :     16.69122     -11.83055     -16.17310
                        -----------------------------------------
Total Dipole Moment    :      1.28439      -0.60131      -0.20298
                        -----------------------------------------
Magnitude (a.u.)       :      1.43264
Magnitude (Debye)      :      3.64147

Rotational constants in cm-1:     0.003856     0.000332     0.000319
Rotational constants in MHz :   115.607117     9.940465     9.570584

                             ****ORCA TERMINATED NORMALLY****
TOTAL RUN TIME: 0 days 0 hours 6 minutes 28 seconds 278 msec
