                         Program Version 4.2.0 -  RELEASE  -
|  1> # ORCA input file
|  2> # SCF done       -201.267363056447          0.000719106093
|  3> ! CAM-B3LYP def2-SVP def2/J RIJCOSX Grid4 TightSCF
|  4> %maxcore 5000
|  5> %tddft
|  6>     Mode sTDDFT
|  7>     Ethresh 5.0
|  8>     maxcore 5000
|  9> end
| 10>
| 11> %pal
| 12>   nprocs 6
| 13>   end
| 14> * xyz 0 1
| 15>    C       -4.89254         3.34015        -2.71367
| 16>    C       -6.23220         3.20481        -2.94802
| 17>    F       -6.85875         4.04671        -3.77660
| 18>    C       -6.97105         2.17920        -2.32159
| 19>    F       -8.28100         2.07140        -2.57004
| 20>    C       -6.35914         1.30389        -1.46874
| 21>    C       -4.98010         1.41878        -1.20492
| 22>    C       -4.23126         2.45364        -1.83939
| 23>    C       -2.84669         2.58644        -1.59178
| 24>    C       -2.22918         1.71264        -0.73412
| 25>    C       -2.98667         0.68922        -0.09686
| 26>    C       -4.32599         0.53512        -0.31978
| 27>    C       -2.11847        -0.09421         0.79490
| 28>    O       -2.45011        -1.00497         1.51949
| 29>    C       -0.77057         0.54802         0.69871
| 30>    C       -0.84216         1.60560        -0.30306
| 31>    C        0.22011         2.29733        -0.81127
| 32>    C        0.10803         3.29223        -1.80791
| 33>    N        0.06948         4.10938        -2.61158
| 34>    C        1.56601         2.07563        -0.44213
| 35>    N        2.67709         1.92248        -0.20174
| 36>    C        0.24840         0.31319         1.55419
| 37>    C        0.29602        -0.80051         2.47090
| 38>    C        0.70234        -0.68456         3.78823
| 39>    C        1.07933         0.49868         4.42372
| 40>    N        1.38753         1.48579         4.92188
| 41>    S        0.61241        -2.19220         4.65749
| 42>    C        0.08048        -3.00717         3.22456
| 43>    C       -0.03913        -2.14161         2.14456
| 44>    C       -0.39050        -2.59497         0.86421
| 45>    N       -0.64734        -3.01599        -0.17216
| 46>    N       -0.18493        -4.33789         3.14622
| 47>    C       -0.17320        -5.28386         4.12479
| 48>    S        0.15737        -4.89567         5.77709
| 49>    C       -0.07379        -6.56439         6.19413
| 50>    N        0.07676        -6.90048         7.54686
| 51>    O       -0.07632        -8.06197         7.86482
| 52>    O        0.35514        -5.98276         8.29934
| 53>    C       -0.37994        -7.36078         5.12853
| 54>    C       -0.44182        -6.64773         3.91040
| 55>    C       -0.71873        -7.21952         2.62976
| 56>    C       -0.98099        -8.53543         2.40726
| 57>    C       -1.22552        -9.07410         1.13139
| 58>    C       -1.48258       -10.40118         0.89738
| 59>    C       -1.71921       -11.01803        -0.35723
| 60>    C       -1.93804       -12.35940        -0.28714
| 61>    C       -1.89126       -12.87887         1.02786
| 62>    S       -1.55657       -11.60700         2.17365
| 63>    C       -2.07558       -14.19060         1.42823
| 64>    C       -2.32590       -15.31790         0.61522
| 65>    C       -2.45941       -16.47918         1.31644
| 66>    C       -2.32349       -16.32779         2.71606
| 67>    S       -2.02292       -14.65418         3.11391
| 68>    C       -2.43509       -17.32590         3.66357
| 69>    C       -2.28366       -17.10676         5.02927
| 70>    C       -2.44220       -18.00394         6.06221
| 71>    C       -1.82880       -17.69728         7.37597
| 72>    O       -1.35155       -16.64045         7.72636
| 73>    C       -1.87946       -18.96321         8.13732
| 74>    C       -1.36744       -19.24435         9.36994
| 75>    C       -1.51045       -20.55037         9.89144
| 76>    C       -2.17828       -21.54152         9.11619
| 77>    C       -2.31125       -22.84374         9.63754
| 78>    C       -1.80828       -23.14647        10.87191
| 79>    C       -1.14999       -22.16499        11.63836
| 80>    C       -1.00317       -20.89318        11.15950
| 81>    F       -0.66578       -22.49008        12.84590
| 82>    F       -1.93733       -24.38602        11.36613
| 83>    C       -2.70477       -21.21705         7.84367
| 84>    C       -2.56417       -19.94323         7.36399
| 85>    C       -3.02809       -19.31465         6.12471
| 86>    C       -4.00629       -19.83041         5.30591
| 87>    C       -4.66448       -19.10699         4.29225
| 88>    N       -5.26964       -18.55486         3.48678
| 89>    C       -4.55257       -21.12037         5.45339
| 90>    N       -5.01564       -22.17013         5.50704
| 91>    H       -4.34257         4.12914        -3.20244
| 92>    H       -6.93806         0.52552        -0.99687
| 93>    H       -2.30827         3.38232        -2.08065
| 94>    H       -4.87594        -0.25115         0.17449
| 95>    H        1.08059         1.00374         1.61342
| 96>    H       -0.47661        -4.65496         2.22586
| 97>    H       -0.54871        -8.41605         5.23601
| 98>    H       -0.70763        -6.55903         1.77145
| 99>    H       -1.00422        -9.22860         3.23605
|100>    H       -1.20497        -8.41065         0.27674
|101>    H       -1.71765       -10.44789        -1.26929
|102>    H       -2.13379       -12.98602        -1.13827
|103>    H       -2.39746       -15.24628        -0.45499
|104>    H       -2.66082       -17.43903         0.87581
|105>    H       -2.62914       -18.32214         3.29439
|106>    H       -1.91834       -16.13036         5.33621
|107>    H       -0.85998       -18.48143         9.94046
|108>    H       -2.81565       -23.60660         9.06523
|109>    H       -0.49651       -20.15261        11.75834
|110>    H       -3.20040       -21.99019         7.27880
|111> *
|112>
|113>                          ****END OF INPUT****

CARTESIAN COORDINATES (ANGSTROEM)
---------------------------------
  C     -4.892540    3.340150   -2.713670
  C     -6.232200    3.204810   -2.948020
  F     -6.858750    4.046710   -3.776600
  C     -6.971050    2.179200   -2.321590
  F     -8.281000    2.071400   -2.570040
  C     -6.359140    1.303890   -1.468740
  C     -4.980100    1.418780   -1.204920
  C     -4.231260    2.453640   -1.839390
  C     -2.846690    2.586440   -1.591780
  C     -2.229180    1.712640   -0.734120
  C     -2.986670    0.689220   -0.096860
  C     -4.325990    0.535120   -0.319780
  C     -2.118470   -0.094210    0.794900
  O     -2.450110   -1.004970    1.519490
  C     -0.770570    0.548020    0.698710
  C     -0.842160    1.605600   -0.303060
  C      0.220110    2.297330   -0.811270
  C      0.108030    3.292230   -1.807910
  N      0.069480    4.109380   -2.611580
  C      1.566010    2.075630   -0.442130
  N      2.677090    1.922480   -0.201740
  C      0.248400    0.313190    1.554190
  C      0.296020   -0.800510    2.470900
  C      0.702340   -0.684560    3.788230
  C      1.079330    0.498680    4.423720
  N      1.387530    1.485790    4.921880
  S      0.612410   -2.192200    4.657490
  C      0.080480   -3.007170    3.224560
  C     -0.039130   -2.141610    2.144560
  C     -0.390500   -2.594970    0.864210
  N     -0.647340   -3.015990   -0.172160
  N     -0.184930   -4.337890    3.146220
  C     -0.173200   -5.283860    4.124790
  S      0.157370   -4.895670    5.777090
  C     -0.073790   -6.564390    6.194130
  N      0.076760   -6.900480    7.546860
  O     -0.076320   -8.061970    7.864820
  O      0.355140   -5.982760    8.299340
  C     -0.379940   -7.360780    5.128530
  C     -0.441820   -6.647730    3.910400
  C     -0.718730   -7.219520    2.629760
  C     -0.980990   -8.535430    2.407260
  C     -1.225520   -9.074100    1.131390
  C     -1.482580  -10.401180    0.897380
  C     -1.719210  -11.018030   -0.357230
  C     -1.938040  -12.359400   -0.287140
  C     -1.891260  -12.878870    1.027860
  S     -1.556570  -11.607000    2.173650
  C     -2.075580  -14.190600    1.428230
  C     -2.325900  -15.317900    0.615220
  C     -2.459410  -16.479180    1.316440
  C     -2.323490  -16.327790    2.716060
  S     -2.022920  -14.654180    3.113910
  C     -2.435090  -17.325900    3.663570
  C     -2.283660  -17.106760    5.029270
  C     -2.442200  -18.003940    6.062210
  C     -1.828800  -17.697280    7.375970
  O     -1.351550  -16.640450    7.726360
  C     -1.879460  -18.963210    8.137320
  C     -1.367440  -19.244350    9.369940
  C     -1.510450  -20.550370    9.891440
  C     -2.178280  -21.541520    9.116190
  C     -2.311250  -22.843740    9.637540
  C     -1.808280  -23.146470   10.871910
  C     -1.149990  -22.164990   11.638360
  C     -1.003170  -20.893180   11.159500
  F     -0.665780  -22.490080   12.845900
  F     -1.937330  -24.386020   11.366130
  C     -2.704770  -21.217050    7.843670
  C     -2.564170  -19.943230    7.363990
  C     -3.028090  -19.314650    6.124710
  C     -4.006290  -19.830410    5.305910
  C     -4.664480  -19.106990    4.292250
  N     -5.269640  -18.554860    3.486780
  C     -4.552570  -21.120370    5.453390
  N     -5.015640  -22.170130    5.507040
  H     -4.342570    4.129140   -3.202440
  H     -6.938060    0.525520   -0.996870
  H     -2.308270    3.382320   -2.080650
  H     -4.875940   -0.251150    0.174490
  H      1.080590    1.003740    1.613420
  H     -0.476610   -4.654960    2.225860
  H     -0.548710   -8.416050    5.236010
  H     -0.707630   -6.559030    1.771450
  H     -1.004220   -9.228600    3.236050
  H     -1.204970   -8.410650    0.276740
  H     -1.717650  -10.447890   -1.269290
  H     -2.133790  -12.986020   -1.138270
  H     -2.397460  -15.246280   -0.454990
  H     -2.660820  -17.439030    0.875810
  H     -2.629140  -18.322140    3.294390
  H     -1.918340  -16.130360    5.336210
  H     -0.859980  -18.481430    9.940460
  H     -2.815650  -23.606600    9.065230
  H     -0.496510  -20.152610   11.758340
  H     -3.200400  -21.990190    7.278800

 Total Charge           Charge          ....    0
 Multiplicity           Mult            ....    1
 Number of Electrons    NEL             ....  544
 Basis Dimension        Dim             .... 1180

ORBITAL ENERGIES
----------------

  NO   OCC          E(Eh)            E(eV)
   0   2.0000     -89.023422     -2422.4505
   1   2.0000     -89.010333     -2422.0943
   2   2.0000     -88.972279     -2421.0588
   3   2.0000     -88.967554     -2420.9302
   4   2.0000     -24.811659      -675.1596
   5   2.0000     -24.810849      -675.1375
   6   2.0000     -24.790528      -674.5846
   7   2.0000     -24.789900      -674.5675
   8   2.0000     -19.252404      -523.8845
   9   2.0000     -19.252011      -523.8738
  10   2.0000     -19.243278      -523.6362
  11   2.0000     -19.202766      -522.5338
  12   2.0000     -14.664231      -399.0340
  13   2.0000     -14.525789      -395.2668
  14   2.0000     -14.436864      -392.8470
  15   2.0000     -14.436231      -392.8298
  16   2.0000     -14.435526      -392.8106
  17   2.0000     -14.433555      -392.7570
  18   2.0000     -14.406019      -392.0077
  19   2.0000     -14.404508      -391.9666
  20   2.0000     -10.410179      -283.2754
  21   2.0000     -10.396546      -282.9044
  22   2.0000     -10.396266      -282.8968
  23   2.0000     -10.395698      -282.8813
  24   2.0000     -10.394740      -282.8553
  25   2.0000     -10.372780      -282.2577
  26   2.0000     -10.372252      -282.2433
  27   2.0000     -10.368646      -282.1452
  28   2.0000     -10.366191      -282.0784
  29   2.0000     -10.363150      -281.9957
  30   2.0000     -10.361854      -281.9604
  31   2.0000     -10.353740      -281.7396
  32   2.0000     -10.351450      -281.6773
  33   2.0000     -10.347323      -281.5650
  34   2.0000     -10.345066      -281.5036
  35   2.0000     -10.343359      -281.4571
  36   2.0000     -10.338448      -281.3235
  37   2.0000     -10.337422      -281.2956
  38   2.0000     -10.336622      -281.2738
  39   2.0000     -10.335093      -281.2322
  40   2.0000     -10.335005      -281.2298
  41   2.0000     -10.334021      -281.2030
  42   2.0000     -10.333615      -281.1919
  43   2.0000     -10.331582      -281.1366
  44   2.0000     -10.331513      -281.1348
  45   2.0000     -10.330938      -281.1191
  46   2.0000     -10.328924      -281.0643
  47   2.0000     -10.327214      -281.0178
  48   2.0000     -10.326899      -281.0092
  49   2.0000     -10.326637      -281.0021
  50   2.0000     -10.324284      -280.9380
  51   2.0000     -10.320902      -280.8460
  52   2.0000     -10.320181      -280.8264
  53   2.0000     -10.319960      -280.8204
  54   2.0000     -10.315680      -280.7039
  55   2.0000     -10.314701      -280.6773
  56   2.0000     -10.313853      -280.6542
  57   2.0000     -10.312967      -280.6301
  58   2.0000     -10.312555      -280.6189
  59   2.0000     -10.312251      -280.6106
  60   2.0000     -10.312052      -280.6052
  61   2.0000     -10.309540      -280.5369
  62   2.0000     -10.309538      -280.5368
  63   2.0000     -10.307893      -280.4920
  64   2.0000     -10.306129      -280.4440
  65   2.0000     -10.301129      -280.3080
  66   2.0000     -10.300806      -280.2992
  67   2.0000     -10.300575      -280.2929
  68   2.0000     -10.297604      -280.2121
  69   2.0000     -10.292864      -280.0831
  70   2.0000     -10.292383      -280.0700
  71   2.0000     -10.292052      -280.0610
  72   2.0000     -10.291835      -280.0551
  73   2.0000     -10.288935      -279.9762
  74   2.0000     -10.283694      -279.8335
  75   2.0000     -10.282906      -279.8121
  76   2.0000      -8.118361      -220.9118
  77   2.0000      -8.105582      -220.5641
  78   2.0000      -8.068599      -219.5577
  79   2.0000      -8.063920      -219.4304
  80   2.0000      -6.088005      -165.6630
  81   2.0000      -6.083594      -165.5430
  82   2.0000      -6.079856      -165.4413
  83   2.0000      -6.075330      -165.3181
  84   2.0000      -6.070791      -165.1946
  85   2.0000      -6.066980      -165.0909
  86   2.0000      -6.038275      -164.3098
  87   2.0000      -6.034293      -164.2015
  88   2.0000      -6.033516      -164.1803
  89   2.0000      -6.029543      -164.0722
  90   2.0000      -6.029530      -164.0718
  91   2.0000      -6.024992      -163.9484
  92   2.0000      -1.334962       -36.3262
  93   2.0000      -1.334361       -36.3098
  94   2.0000      -1.319996       -35.9189
  95   2.0000      -1.312711       -35.7207
  96   2.0000      -1.297926       -35.3184
  97   2.0000      -1.159864       -31.5615
  98   2.0000      -1.154137       -31.4057
  99   2.0000      -1.135135       -30.8886
 100   2.0000      -1.117704       -30.4143
 101   2.0000      -1.050373       -28.5821
 102   2.0000      -1.040191       -28.3050
 103   2.0000      -1.026261       -27.9260
 104   2.0000      -1.022447       -27.8222
 105   2.0000      -1.021125       -27.7862
 106   2.0000      -1.020266       -27.7628
 107   2.0000      -1.014035       -27.5933
 108   2.0000      -1.009248       -27.4630
 109   2.0000      -1.007902       -27.4264
 110   2.0000      -1.000090       -27.2138
 111   2.0000      -0.998363       -27.1668
 112   2.0000      -0.994384       -27.0586
 113   2.0000      -0.984125       -26.7794
 114   2.0000      -0.971211       -26.4280
 115   2.0000      -0.954818       -25.9819
 116   2.0000      -0.948531       -25.8108
 117   2.0000      -0.937179       -25.5019
 118   2.0000      -0.927470       -25.2377
 119   2.0000      -0.923382       -25.1265
 120   2.0000      -0.915118       -24.9016
 121   2.0000      -0.911752       -24.8100
 122   2.0000      -0.907787       -24.7021
 123   2.0000      -0.901400       -24.5283
 124   2.0000      -0.890902       -24.2427
 125   2.0000      -0.886744       -24.1295
 126   2.0000      -0.881596       -23.9894
 127   2.0000      -0.874850       -23.8059
 128   2.0000      -0.870927       -23.6991
 129   2.0000      -0.860378       -23.4121
 130   2.0000      -0.857511       -23.3341
 131   2.0000      -0.848956       -23.1013
 132   2.0000      -0.839255       -22.8373
 133   2.0000      -0.831040       -22.6138
 134   2.0000      -0.822253       -22.3746
 135   2.0000      -0.818091       -22.2614
 136   2.0000      -0.808589       -22.0028
 137   2.0000      -0.787477       -21.4283
 138   2.0000      -0.785171       -21.3656
 139   2.0000      -0.773389       -21.0450
 140   2.0000      -0.759738       -20.6735
 141   2.0000      -0.754737       -20.5374
 142   2.0000      -0.749754       -20.4019
 143   2.0000      -0.739089       -20.1116
 144   2.0000      -0.735537       -20.0150
 145   2.0000      -0.732660       -19.9367
 146   2.0000      -0.724815       -19.7232
 147   2.0000      -0.720946       -19.6180
 148   2.0000      -0.711552       -19.3623
 149   2.0000      -0.707709       -19.2577
 150   2.0000      -0.705076       -19.1861
 151   2.0000      -0.688076       -18.7235
 152   2.0000      -0.682916       -18.5831
 153   2.0000      -0.678895       -18.4737
 154   2.0000      -0.675332       -18.3767
 155   2.0000      -0.672639       -18.3035
 156   2.0000      -0.669486       -18.2176
 157   2.0000      -0.660663       -17.9776
 158   2.0000      -0.657629       -17.8950
 159   2.0000      -0.652640       -17.7592
 160   2.0000      -0.651105       -17.7175
 161   2.0000      -0.646591       -17.5946
 162   2.0000      -0.645724       -17.5710
 163   2.0000      -0.642217       -17.4756
 164   2.0000      -0.634284       -17.2597
 165   2.0000      -0.633738       -17.2449
 166   2.0000      -0.630602       -17.1596
 167   2.0000      -0.626662       -17.0524
 168   2.0000      -0.620299       -16.8792
 169   2.0000      -0.619716       -16.8633
 170   2.0000      -0.614829       -16.7303
 171   2.0000      -0.609363       -16.5816
 172   2.0000      -0.603922       -16.4335
 173   2.0000      -0.601110       -16.3570
 174   2.0000      -0.599152       -16.3038
 175   2.0000      -0.591700       -16.1010
 176   2.0000      -0.588820       -16.0226
 177   2.0000      -0.584729       -15.9113
 178   2.0000      -0.583573       -15.8798
 179   2.0000      -0.582486       -15.8503
 180   2.0000      -0.577447       -15.7131
 181   2.0000      -0.575931       -15.6719
 182   2.0000      -0.571746       -15.5580
 183   2.0000      -0.569529       -15.4977
 184   2.0000      -0.567805       -15.4508
 185   2.0000      -0.560952       -15.2643
 186   2.0000      -0.560543       -15.2531
 187   2.0000      -0.560398       -15.2492
 188   2.0000      -0.557412       -15.1680
 189   2.0000      -0.547730       -14.9045
 190   2.0000      -0.545516       -14.8442
 191   2.0000      -0.541931       -14.7467
 192   2.0000      -0.539422       -14.6784
 193   2.0000      -0.539314       -14.6755
 194   2.0000      -0.537694       -14.6314
 195   2.0000      -0.533456       -14.5161
 196   2.0000      -0.531316       -14.4579
 197   2.0000      -0.530341       -14.4313
 198   2.0000      -0.526838       -14.3360
 199   2.0000      -0.525882       -14.3100
 200   2.0000      -0.523998       -14.2587
 201   2.0000      -0.521382       -14.1875
 202   2.0000      -0.520658       -14.1678
 203   2.0000      -0.518936       -14.1210
 204   2.0000      -0.517126       -14.0717
 205   2.0000      -0.515726       -14.0336
 206   2.0000      -0.509956       -13.8766
 207   2.0000      -0.506995       -13.7960
 208   2.0000      -0.505261       -13.7489
 209   2.0000      -0.500358       -13.6154
 210   2.0000      -0.495744       -13.4899
 211   2.0000      -0.493547       -13.4301
 212   2.0000      -0.492549       -13.4029
 213   2.0000      -0.489431       -13.3181
 214   2.0000      -0.487959       -13.2780
 215   2.0000      -0.487677       -13.2704
 216   2.0000      -0.486649       -13.2424
 217   2.0000      -0.482997       -13.1430
 218   2.0000      -0.479642       -13.0517
 219   2.0000      -0.476283       -12.9603
 220   2.0000      -0.472517       -12.8578
 221   2.0000      -0.471965       -12.8428
 222   2.0000      -0.467974       -12.7342
 223   2.0000      -0.467557       -12.7229
 224   2.0000      -0.463563       -12.6142
 225   2.0000      -0.462583       -12.5875
 226   2.0000      -0.461811       -12.5665
 227   2.0000      -0.459866       -12.5136
 228   2.0000      -0.459330       -12.4990
 229   2.0000      -0.456306       -12.4167
 230   2.0000      -0.455064       -12.3829
 231   2.0000      -0.450672       -12.2634
 232   2.0000      -0.446683       -12.1548
 233   2.0000      -0.446425       -12.1479
 234   2.0000      -0.444880       -12.1058
 235   2.0000      -0.443410       -12.0658
 236   2.0000      -0.442360       -12.0372
 237   2.0000      -0.441142       -12.0041
 238   2.0000      -0.437413       -11.9026
 239   2.0000      -0.436222       -11.8702
 240   2.0000      -0.434121       -11.8130
 241   2.0000      -0.432641       -11.7728
 242   2.0000      -0.430511       -11.7148
 243   2.0000      -0.424712       -11.5570
 244   2.0000      -0.421439       -11.4679
 245   2.0000      -0.420492       -11.4422
 246   2.0000      -0.417781       -11.3684
 247   2.0000      -0.414919       -11.2905
 248   2.0000      -0.409988       -11.1564
 249   2.0000      -0.402680       -10.9575
 250   2.0000      -0.399580       -10.8731
 251   2.0000      -0.398688       -10.8488
 252   2.0000      -0.393191       -10.6993
 253   2.0000      -0.389068       -10.5871
 254   2.0000      -0.384369       -10.4592
 255   2.0000      -0.381023       -10.3682
 256   2.0000      -0.377564       -10.2740
 257   2.0000      -0.370165       -10.0727
 258   2.0000      -0.366424        -9.9709
 259   2.0000      -0.361286        -9.8311
 260   2.0000      -0.359892        -9.7932
 261   2.0000      -0.345919        -9.4129
 262   2.0000      -0.340289        -9.2597
 263   2.0000      -0.338711        -9.2168
 264   2.0000      -0.333705        -9.0806
 265   2.0000      -0.326592        -8.8870
 266   2.0000      -0.316067        -8.6006
 267   2.0000      -0.311801        -8.4845
 268   2.0000      -0.306907        -8.3514
 269   2.0000      -0.292834        -7.9684
 270   2.0000      -0.283969        -7.7272
 271   2.0000      -0.234397        -6.3783
 272   0.0000      -0.118438        -3.2229
 273   0.0000      -0.116758        -3.1771
 274   0.0000      -0.081296        -2.2122
 275   0.0000      -0.077050        -2.0966
 276   0.0000      -0.068397        -1.8612

MULLIKEN ATOMIC CHARGES
-----------------------
   0 C :   -0.106524
   1 C :    0.244933
   2 F :   -0.165157
   3 C :    0.240082
   4 F :   -0.166621
   5 C :   -0.101813
   6 C :    0.117111
   7 C :    0.115867
   8 C :   -0.081697
   9 C :    0.059767
  10 C :   -0.006707
  11 C :   -0.070914
  12 C :    0.160739
  13 O :   -0.139256
  14 C :   -0.069309
  15 C :    0.285567
  16 C :   -0.316543
  17 C :   -0.181920
  18 N :    0.165040
  19 C :   -0.198319
  20 N :    0.179637
  21 C :   -0.060975
  22 C :    0.248000
  23 C :   -0.300918
  24 C :   -0.189966
  25 N :    0.161135
  26 S :    0.207764
  27 C :   -0.057156
  28 C :   -0.030098
  29 C :   -0.301950
  30 N :    0.174933
  31 N :   -0.000018
  32 C :   -0.099050
  33 S :    0.155754
  34 C :    0.013389
  35 N :    0.277156
  36 O :   -0.236511
  37 O :   -0.259948
  38 C :    0.012568
  39 C :    0.140770
  40 C :   -0.043067
  41 C :    0.002124
  42 C :    0.000417
  43 C :   -0.026265
  44 C :    0.049604
  45 C :    0.028214
  46 C :   -0.030601
  47 S :    0.091659
  48 C :   -0.056084
  49 C :    0.036819
  50 C :    0.041750
  51 C :   -0.017102
  52 S :    0.112148
  53 C :    0.000133
  54 C :    0.020123
  55 C :   -0.127672
  56 C :    0.139109
  57 O :   -0.149225
  58 C :    0.006770
  59 C :   -0.088487
  60 C :    0.115129
  61 C :    0.114226
  62 C :   -0.111233
  63 C :    0.241125
  64 C :    0.236593
  65 C :   -0.106182
  66 F :   -0.174803
  67 F :   -0.174443
  68 C :   -0.088766
  69 C :    0.042224
  70 C :    0.293590
  71 C :   -0.344959
  72 C :   -0.218876
  73 N :    0.156647
  74 C :   -0.177319
  75 N :    0.136787
  76 H :    0.011854
  77 H :    0.003269
  78 H :   -0.000889
  79 H :   -0.005123
  80 H :    0.061943
  81 H :    0.167755
  82 H :    0.018374
  83 H :   -0.020460
  84 H :    0.008206
  85 H :   -0.003210
  86 H :   -0.000447
  87 H :   -0.002861
  88 H :   -0.001196
  89 H :    0.004509
  90 H :    0.010711
  91 H :    0.017077
  92 H :   -0.012473
  93 H :    0.004634
  94 H :   -0.002807
  95 H :   -0.007815
Sum of atomic charges:   -0.0000000

LOEWDIN ATOMIC CHARGES
----------------------
   0 C :   -0.028020
   1 C :    0.070627
   2 F :   -0.043312
   3 C :    0.070818
   4 F :   -0.044302
   5 C :   -0.030982
   6 C :   -0.006877
   7 C :   -0.003154
   8 C :    0.021545
   9 C :   -0.022443
  10 C :   -0.053747
  11 C :    0.038515
  12 C :    0.091199
  13 O :   -0.125657
  14 C :   -0.056569
  15 C :    0.070758
  16 C :   -0.115563
  17 C :   -0.016718
  18 N :   -0.035515
  19 C :   -0.024265
  20 N :   -0.031052
  21 C :    0.067111
  22 C :    0.002401
  23 C :   -0.218823
  24 C :   -0.061637
  25 N :   -0.028183
  26 S :    0.489716
  27 C :   -0.083733
  28 C :   -0.131187
  29 C :   -0.042199
  30 N :   -0.055398
  31 N :    0.042387
  32 C :   -0.107879
  33 S :    0.463426
  34 C :   -0.202684
  35 N :    0.273392
  36 O :   -0.203464
  37 O :   -0.226135
  38 C :    0.009465
  39 C :   -0.097687
  40 C :   -0.020835
  41 C :   -0.024807
  42 C :   -0.035553
  43 C :   -0.146226
  44 C :   -0.015386
  45 C :   -0.029868
  46 C :   -0.152351
  47 S :    0.388530
  48 C :   -0.186932
  49 C :   -0.008044
  50 C :   -0.030991
  51 C :   -0.100799
  52 S :    0.405044
  53 C :   -0.064566
  54 C :    0.052204
  55 C :   -0.103116
  56 C :    0.077486
  57 O :   -0.152610
  58 C :   -0.051459
  59 C :    0.025889
  60 C :   -0.010632
  61 C :   -0.007117
  62 C :   -0.031169
  63 C :    0.064597
  64 C :    0.064661
  65 C :   -0.034153
  66 F :   -0.052548
  67 F :   -0.052064
  68 C :    0.010021
  69 C :   -0.018122
  70 C :    0.068125
  71 C :   -0.150592
  72 C :   -0.023952
  73 N :   -0.061575
  74 C :   -0.019288
  75 N :   -0.062632
  76 H :    0.049327
  77 H :    0.046441
  78 H :    0.041481
  79 H :    0.042501
  80 H :    0.056578
  81 H :    0.107430
  82 H :    0.048435
  83 H :    0.026617
  84 H :    0.024646
  85 H :    0.037837
  86 H :    0.038803
  87 H :    0.036329
  88 H :    0.036641
  89 H :    0.041425
  90 H :    0.038837
  91 H :    0.035217
  92 H :    0.039255
  93 H :    0.046489
  94 H :    0.043811
  95 H :    0.038556

  Mayer bond orders larger than 0.100000
B(  0-C ,  1-C ) :   1.4432 B(  0-C ,  5-C ) :   0.1074 B(  0-C ,  7-C ) :   1.1865
B(  0-C , 76-H ) :   1.0069 B(  1-C ,  2-F ) :   1.1407 B(  1-C ,  3-C ) :   1.1872
B(  3-C ,  4-F ) :   1.1382 B(  3-C ,  5-C ) :   1.4461 B(  5-C ,  6-C ) :   1.1892
B(  5-C , 77-H ) :   1.0069 B(  6-C ,  7-C ) :   1.2496 B(  6-C , 11-C ) :   1.1969
B(  7-C ,  8-C ) :   1.2240 B(  8-C ,  9-C ) :   1.4414 B(  8-C , 78-H ) :   0.9906
B(  9-C , 10-C ) :   1.2160 B(  9-C , 15-C ) :   1.0035 B( 10-C , 11-C ) :   1.4651
B( 10-C , 12-C ) :   0.9570 B( 11-C , 79-H ) :   1.0164 B( 12-C , 13-O ) :   2.2135
B( 12-C , 14-C ) :   0.9120 B( 14-C , 15-C ) :   1.0203 B( 14-C , 21-C ) :   1.7264
B( 15-C , 16-C ) :   1.6873 B( 16-C , 17-C ) :   1.1388 B( 16-C , 19-C ) :   1.1376
B( 17-C , 18-N ) :   2.9722 B( 19-C , 20-N ) :   2.9947 B( 21-C , 22-C ) :   1.0680
B( 21-C , 80-H ) :   0.9267 B( 22-C , 23-C ) :   1.4773 B( 22-C , 28-C ) :   1.2999
B( 23-C , 24-C ) :   1.2224 B( 23-C , 26-S ) :   1.0959 B( 24-C , 25-N ) :   2.9929
B( 26-S , 27-C ) :   1.1279 B( 27-C , 28-C ) :   1.4423 B( 27-C , 31-N ) :   1.2187
B( 28-C , 29-C ) :   1.0944 B( 29-C , 30-N ) :   3.0226 B( 31-N , 32-C ) :   1.1879
B( 31-N , 81-H ) :   0.8783 B( 32-C , 33-S ) :   1.1341 B( 32-C , 39-C ) :   1.3593
B( 33-S , 34-C ) :   1.0780 B( 34-C , 35-N ) :   0.9644 B( 34-C , 38-C ) :   1.5155
B( 35-N , 36-O ) :   1.5399 B( 35-N , 37-O ) :   1.5105 B( 36-O , 37-O ) :   0.2627
B( 38-C , 39-C ) :   1.2235 B( 38-C , 82-H ) :   0.9971 B( 39-C , 40-C ) :   1.0654
B( 40-C , 41-C ) :   1.6760 B( 40-C , 83-H ) :   0.9769 B( 41-C , 42-C ) :   1.1461
B( 41-C , 84-H ) :   0.9717 B( 42-C , 43-C ) :   1.5627 B( 42-C , 85-H ) :   0.9864
B( 43-C , 44-C ) :   1.1403 B( 43-C , 47-S ) :   1.0293 B( 44-C , 45-C ) :   1.5878
B( 44-C , 86-H ) :   1.0003 B( 45-C , 46-C ) :   1.1914 B( 45-C , 87-H ) :   0.9943
B( 46-C , 47-S ) :   1.0707 B( 46-C , 48-C ) :   1.4817 B( 48-C , 49-C ) :   1.2070
B( 48-C , 52-S ) :   1.0442 B( 49-C , 50-C ) :   1.5566 B( 49-C , 88-H ) :   0.9946
B( 50-C , 51-C ) :   1.1734 B( 50-C , 89-H ) :   1.0008 B( 51-C , 52-S ) :   1.0830
B( 51-C , 53-C ) :   1.5075 B( 53-C , 54-C ) :   1.2136 B( 53-C , 90-H ) :   0.9625
B( 54-C , 55-C ) :   1.5379 B( 54-C , 91-H ) :   0.9369 B( 55-C , 56-C ) :   0.9605
B( 55-C , 70-C ) :   1.0842 B( 56-C , 57-O ) :   2.2541 B( 56-C , 58-C ) :   0.9162
B( 58-C , 59-C ) :   1.4821 B( 58-C , 69-C ) :   1.2204 B( 59-C , 60-C ) :   1.1858
B( 59-C , 92-H ) :   1.0162 B( 60-C , 61-C ) :   1.2604 B( 60-C , 65-C ) :   1.1941
B( 61-C , 62-C ) :   1.1931 B( 61-C , 68-C ) :   1.2075 B( 62-C , 63-C ) :   1.4384
B( 62-C , 65-C ) :   0.1093 B( 62-C , 93-H ) :   1.0067 B( 63-C , 64-C ) :   1.1949
B( 63-C , 67-F ) :   1.1310 B( 64-C , 65-C ) :   1.4412 B( 64-C , 66-F ) :   1.1300
B( 65-C , 94-H ) :   1.0067 B( 68-C , 69-C ) :   1.4625 B( 68-C , 95-H ) :   0.9916
B( 69-C , 70-C ) :   0.9889 B( 70-C , 71-C ) :   1.6015 B( 71-C , 72-C ) :   1.1677
B( 71-C , 74-C ) :   1.1344 B( 72-C , 73-N ) :   3.0088 B( 74-C , 75-N ) :   2.9707

-----------------------------------------------------------------------------
         ABSORPTION SPECTRUM VIA TRANSITION ELECTRIC DIPOLE MOMENTS
-----------------------------------------------------------------------------
State   Energy  Wavelength   fosc         T2         TX        TY        TZ
        (cm-1)    (nm)                  (au**2)     (au)      (au)      (au)
-----------------------------------------------------------------------------
   0   12146.7    823.3   1.734450558  47.00885  -1.11816  -6.44372   2.05840
   1   16742.3    597.3   0.011594777   0.22799   0.10410  -0.07341   0.46018
   2   21250.5    470.6   0.087936522   1.36231   0.00267   1.16633  -0.04435
   3   21809.5    458.5   0.100696252   1.52000  -0.02082   0.75142  -0.97721
   4   22941.9    435.9   0.397163867   5.69923   0.03145  -1.64853  -1.72644
   5   23475.4    426.0   0.014340833   0.20111  -0.39272   0.14683  -0.15912
   6   24409.8    409.7   0.021676306   0.29235  -0.10712   0.52997  -0.00203
   7   24903.0    401.6   0.000360577   0.00477   0.01604   0.02872  -0.06070
   8   25952.1    385.3   0.140189755   1.77836  -0.79743  -0.90162  -0.57407
   9   26130.8    382.7   0.208004764   2.62057  -0.01725  -0.28189  -1.59399
  10   26496.7    377.4   0.009891779   0.12290   0.13391   0.24832   0.20811
  11   27089.9    369.1   0.170270114   2.06922   0.63466  -0.57292   1.15680
  12   27878.6    358.7   0.021519841   0.25412   0.31124  -0.17675   0.35498
  13   28380.1    352.4   0.077118349   0.89458  -0.79830   0.21659  -0.45867
  14   28870.8    346.4   0.182493637   2.08096  -0.16034   0.39045  -1.37942
  15   29558.8    338.3   0.380264210   4.23520  -0.20967   1.48553  -1.40870
  16   30325.1    329.8   0.239819421   2.60350   0.23268  -0.92793   1.29935
  17   30731.5    325.4   0.045381725   0.48615   0.11315   0.39327  -0.56452
  18   30984.4    322.7   0.086915724   0.92349   0.17052   0.11604   0.93859
  19   31636.7    316.1   0.016400129   0.17066   0.35669   0.17526   0.11278
  20   32014.9    312.4   0.076316128   0.78477   0.09642  -0.39099   0.78905
  21   32623.8    306.5   0.188785277   1.90506  -0.91681  -0.78374   0.67102
  22   33108.5    302.0   0.526312104   5.23334   0.93023  -0.42973   2.04532
  23   33214.0    301.1   0.048021466   0.47598   0.68343   0.03977   0.08554
  24   33392.1    299.5   1.002882271   9.88739  -2.87579   0.57915  -1.13216
  25   33588.1    297.7   0.050621494   0.49616  -0.53182   0.35281  -0.29809
  26   33705.0    296.7   0.080842280   0.78962  -0.72539  -0.49485   0.13622
  27   33787.0    296.0   0.057643908   0.56167  -0.38166   0.29877  -0.57161
  28   34304.5    291.5   0.178148761   1.70965   0.76505   0.71434   0.78362
  29   34749.1    287.8   0.013951934   0.13218   0.04389   0.28507   0.22134
  30   34919.0    286.4   0.114331336   1.07790   0.37767  -0.57488   0.77768
  31   35204.2    284.1   0.015200253   0.14215   0.04391  -0.14855   0.34373
  32   35393.0    282.5   0.008240511   0.07665  -0.07442   0.21617  -0.15616
  33   35611.0    280.8   0.044257860   0.40915   0.10860  -0.53423  -0.33460
  34   36140.2    276.7   0.120696077   1.09946  -0.25198   0.61531  -0.81077
  35   36602.5    273.2   0.002779582   0.02500  -0.00730   0.10896   0.11435
  36   36847.1    271.4   0.036910689   0.32978   0.23448   0.33613  -0.40226
  37   37660.1    265.5   0.082374939   0.72009   0.29798  -0.29957   0.73591
  38   37866.4    264.1   0.140055768   1.21765  -0.61450  -0.84124   0.36381
  39   37919.5    263.7   0.074175749   0.64398  -0.19557   0.44529  -0.63832
  40   38023.1    263.0   0.012131397   0.10504   0.03307   0.17113  -0.27323
  41   38396.2    260.4   0.027850491   0.23879  -0.46363   0.14166  -0.06143
  42   38461.4    260.0   0.003446284   0.02950   0.02474   0.09898   0.13817
  43   38938.5    256.8   0.546852805   4.62346  -1.12543  -0.76257  -1.66594
  44   39459.8    253.4   0.010453340   0.08721   0.15053   0.07248   0.24351
  45   39567.8    252.7   0.000743049   0.00618   0.02490   0.07368  -0.01153
  46   39700.9    251.9   0.041192989   0.34159   0.40294  -0.31611   0.28160
  47   39778.6    251.4   0.012170833   0.10073   0.19285  -0.12135   0.22093
  48   39955.4    250.3   0.003919261   0.03229  -0.15586   0.00752  -0.08912
  49   40104.2    249.4   0.004551135   0.03736   0.02581  -0.01747   0.19076
  50   40165.4    249.0   0.008742828   0.07166  -0.10135  -0.24110   0.05709

FINAL SINGLE POINT ENERGY     -4872.254749835957

DIPOLE MOMENT
-------------
                                X             Y             Z
Electronic contribution:     -4.44303      25.30046      15.22414
Nuclear contribution   :      4.10952     -23.54506     -18.42818
                        -----------------------------------------
Total Dipole Moment    :     -0.33351       1.75540      -3.20404
                        -----------------------------------------
Magnitude (a.u.)       :      3.66859
Magnitude (Debye)      :      9.32481

Rotational constants in cm-1:     0.001410     0.000166     0.000156
Rotational constants in MHz :    42.275604     4.981006     4.662868

                             ****ORCA TERMINATED NORMALLY****
TOTAL RUN TIME: 0 days 0 hours 10 minutes 24 seconds 588 msec
