                         Program Version 4.2.0 -  RELEASE  -
|  1> # ORCA input file
|  2> # SCF done       -139.002707429828          0.000413828818
|  3> ! CAM-B3LYP def2-SVP def2/J RIJCOSX Grid4 TightSCF
|  4> %maxcore 5000
|  5> %tddft
|  6>     Mode sTDDFT
|  7>     Ethresh 5.0
|  8>     maxcore 5000
|  9> end
| 10>
| 11> %pal
| 12>   nprocs 6
| 13>   end
| 14> * xyz 0 1
| 15>    C        0.03576        -7.05655        -6.98442
| 16>    C        1.31756        -6.80681        -6.68207
| 17>    C        2.29204        -6.12161        -7.48202
| 18>    C        3.51317        -6.02302        -6.91072
| 19>    C        3.60610        -6.61748        -5.62201
| 20>    S        2.06461        -7.30788        -5.15870
| 21>    C        4.70783        -6.67843        -4.80131
| 22>    C        6.00026        -6.14382        -5.02153
| 23>    C        6.86855        -6.36230        -3.99777
| 24>    C        6.31793        -7.08551        -2.90930
| 25>    S        4.64579        -7.48468        -3.24558
| 26>    C        6.94831        -7.41269        -1.73604
| 27>    C        6.36439        -8.13571        -0.68281
| 28>    O        5.13123        -8.68834        -0.83410
| 29>    C        4.79593        -9.29011         0.33671
| 30>    C        5.83338        -9.12123         1.26128
| 31>    C        6.83655        -8.39529         0.60770
| 32>    C        8.14155        -7.97570         1.18768
| 33>    C        5.87298        -9.62494         2.65845
| 34>    C        3.55757        -9.95170         0.47456
| 35>    S        2.98236       -10.43281         2.03555
| 36>    C        1.47185       -11.03804         1.41914
| 37>    C        1.44437       -10.92104         0.01684
| 38>    C        2.61965       -10.30310        -0.51637
| 39>    C        2.77338       -10.15792        -1.90580
| 40>    C        1.78763       -10.61146        -2.73450
| 41>    F        1.92468       -10.50660        -4.06803
| 42>    C        0.63205       -11.22767        -2.21428
| 43>    F       -0.30941       -11.68351        -3.06449
| 44>    C        0.45687       -11.38888        -0.86948
| 45>    C        0.55526       -11.51907         2.37198
| 46>    C       -0.77021       -11.80273         2.22070
| 47>    C       -1.55314       -12.26485         3.30150
| 48>    O       -0.96238       -12.48236         4.50240
| 49>    C       -1.91150       -12.90201         5.37429
| 50>    C       -3.14723       -12.96045         4.72205
| 51>    C       -2.91615       -12.55630         3.39913
| 52>    C       -3.94632       -12.45487         2.33099
| 53>    C       -4.45769       -13.36900         5.29353
| 54>    C       -1.53133       -13.18535         6.69599
| 55>    C       -0.24242       -13.07478         7.15272
| 56>    C        0.22018       -13.33251         8.46732
| 57>    C        1.55642       -13.14936         8.63759
| 58>    C        2.23379       -12.73862         7.46260
| 59>    S        1.09932       -12.58223         6.13439
| 60>    C        3.57837       -12.49524         7.31064
| 61>    C        4.58974       -12.58840         8.30479
| 62>    C        5.83732       -12.31231         7.86329
| 63>    C        5.91305       -11.98041         6.47031
| 64>    S        4.28496       -12.02533         5.77314
| 65>    C        7.01150       -11.68727         5.76007
| 66>    H       -0.38131        -6.73395        -7.92206
| 67>    H       -0.60971        -7.58673        -6.30881
| 68>    H        2.03253        -5.73613        -8.45220
| 69>    H        4.36144        -5.54585        -7.36935
| 70>    H        6.24883        -5.61033        -5.92162
| 71>    H        7.89111        -6.02732        -3.98313
| 72>    H        7.96405        -7.07557        -1.59562
| 73>    H        7.98699        -7.46813         2.13841
| 74>    H        8.66509        -7.30169         0.51676
| 75>    H        8.77461        -8.84482         1.36743
| 76>    H        5.60926       -10.68151         2.69333
| 77>    H        5.15603        -9.09149         3.28243
| 78>    H        6.86664        -9.48870         3.07628
| 79>    H        3.65847        -9.70869        -2.31874
| 80>    H       -0.41936       -11.90225        -0.51521
| 81>    H        0.96224       -11.63130         3.36961
| 82>    H       -1.28671       -11.64873         1.28867
| 83>    H       -4.50606       -13.38638         2.25849
| 84>    H       -3.49286       -12.24252         1.36747
| 85>    H       -4.65428       -11.65925         2.56415
| 86>    H       -4.37203       -13.57954         6.35549
| 87>    H       -4.82738       -14.26227         4.78929
| 88>    H       -5.19417       -12.57887         5.14965
| 89>    H       -2.29773       -13.50649         7.38429
| 90>    H       -0.45602       -13.64667         9.24338
| 91>    H        2.07221       -13.30191         9.56879
| 92>    H        4.35311       -12.85998         9.31842
| 93>    H        6.72474       -12.33464         8.47086
| 94>    H        7.97914       -11.67532         6.22968
| 95>    H        6.96361       -11.46236         4.71151
| 96> *
| 97>
| 98>                          ****END OF INPUT****

CARTESIAN COORDINATES (ANGSTROEM)
---------------------------------
  C      0.035760   -7.056550   -6.984420
  C      1.317560   -6.806810   -6.682070
  C      2.292040   -6.121610   -7.482020
  C      3.513170   -6.023020   -6.910720
  C      3.606100   -6.617480   -5.622010
  S      2.064610   -7.307880   -5.158700
  C      4.707830   -6.678430   -4.801310
  C      6.000260   -6.143820   -5.021530
  C      6.868550   -6.362300   -3.997770
  C      6.317930   -7.085510   -2.909300
  S      4.645790   -7.484680   -3.245580
  C      6.948310   -7.412690   -1.736040
  C      6.364390   -8.135710   -0.682810
  O      5.131230   -8.688340   -0.834100
  C      4.795930   -9.290110    0.336710
  C      5.833380   -9.121230    1.261280
  C      6.836550   -8.395290    0.607700
  C      8.141550   -7.975700    1.187680
  C      5.872980   -9.624940    2.658450
  C      3.557570   -9.951700    0.474560
  S      2.982360  -10.432810    2.035550
  C      1.471850  -11.038040    1.419140
  C      1.444370  -10.921040    0.016840
  C      2.619650  -10.303100   -0.516370
  C      2.773380  -10.157920   -1.905800
  C      1.787630  -10.611460   -2.734500
  F      1.924680  -10.506600   -4.068030
  C      0.632050  -11.227670   -2.214280
  F     -0.309410  -11.683510   -3.064490
  C      0.456870  -11.388880   -0.869480
  C      0.555260  -11.519070    2.371980
  C     -0.770210  -11.802730    2.220700
  C     -1.553140  -12.264850    3.301500
  O     -0.962380  -12.482360    4.502400
  C     -1.911500  -12.902010    5.374290
  C     -3.147230  -12.960450    4.722050
  C     -2.916150  -12.556300    3.399130
  C     -3.946320  -12.454870    2.330990
  C     -4.457690  -13.369000    5.293530
  C     -1.531330  -13.185350    6.695990
  C     -0.242420  -13.074780    7.152720
  C      0.220180  -13.332510    8.467320
  C      1.556420  -13.149360    8.637590
  C      2.233790  -12.738620    7.462600
  S      1.099320  -12.582230    6.134390
  C      3.578370  -12.495240    7.310640
  C      4.589740  -12.588400    8.304790
  C      5.837320  -12.312310    7.863290
  C      5.913050  -11.980410    6.470310
  S      4.284960  -12.025330    5.773140
  C      7.011500  -11.687270    5.760070
  H     -0.381310   -6.733950   -7.922060
  H     -0.609710   -7.586730   -6.308810
  H      2.032530   -5.736130   -8.452200
  H      4.361440   -5.545850   -7.369350
  H      6.248830   -5.610330   -5.921620
  H      7.891110   -6.027320   -3.983130
  H      7.964050   -7.075570   -1.595620
  H      7.986990   -7.468130    2.138410
  H      8.665090   -7.301690    0.516760
  H      8.774610   -8.844820    1.367430
  H      5.609260  -10.681510    2.693330
  H      5.156030   -9.091490    3.282430
  H      6.866640   -9.488700    3.076280
  H      3.658470   -9.708690   -2.318740
  H     -0.419360  -11.902250   -0.515210
  H      0.962240  -11.631300    3.369610
  H     -1.286710  -11.648730    1.288670
  H     -4.506060  -13.386380    2.258490
  H     -3.492860  -12.242520    1.367470
  H     -4.654280  -11.659250    2.564150
  H     -4.372030  -13.579540    6.355490
  H     -4.827380  -14.262270    4.789290
  H     -5.194170  -12.578870    5.149650
  H     -2.297730  -13.506490    7.384290
  H     -0.456020  -13.646670    9.243380
  H      2.072210  -13.301910    9.568790
  H      4.353110  -12.859980    9.318420
  H      6.724740  -12.334640    8.470860
  H      7.979140  -11.675320    6.229680
  H      6.963610  -11.462360    4.711510

 Total Charge           Charge          ....    0
 Multiplicity           Mult            ....    1
 Number of Electrons    NEL             ....  396
 Basis Dimension        Dim             ....  884

ORBITAL ENERGIES
----------------

  NO   OCC          E(Eh)            E(eV)
   0   2.0000     -88.955715     -2420.6081
   1   2.0000     -88.930585     -2419.9242
   2   2.0000     -88.930214     -2419.9141
   3   2.0000     -88.928948     -2419.8797
   4   2.0000     -88.925276     -2419.7798
   5   2.0000     -24.771118      -674.0564
   6   2.0000     -24.765505      -673.9036
   7   2.0000     -19.280003      -524.6356
   8   2.0000     -19.271984      -524.4173
   9   2.0000     -10.350799      -281.6596
  10   2.0000     -10.346548      -281.5439
  11   2.0000     -10.324749      -280.9507
  12   2.0000     -10.318363      -280.7769
  13   2.0000     -10.315169      -280.6900
  14   2.0000     -10.314540      -280.6729
  15   2.0000     -10.300341      -280.2865
  16   2.0000     -10.297499      -280.2092
  17   2.0000     -10.297018      -280.1961
  18   2.0000     -10.296905      -280.1930
  19   2.0000     -10.295925      -280.1664
  20   2.0000     -10.294958      -280.1400
  21   2.0000     -10.294281      -280.1216
  22   2.0000     -10.294182      -280.1189
  23   2.0000     -10.293190      -280.0919
  24   2.0000     -10.291220      -280.0383
  25   2.0000     -10.279732      -279.7257
  26   2.0000     -10.278331      -279.6876
  27   2.0000     -10.277952      -279.6773
  28   2.0000     -10.277640      -279.6688
  29   2.0000     -10.275699      -279.6160
  30   2.0000     -10.274768      -279.5906
  31   2.0000     -10.274029      -279.5705
  32   2.0000     -10.273982      -279.5693
  33   2.0000     -10.273415      -279.5538
  34   2.0000     -10.273395      -279.5533
  35   2.0000     -10.273359      -279.5523
  36   2.0000     -10.273306      -279.5509
  37   2.0000     -10.272234      -279.5217
  38   2.0000     -10.269658      -279.4516
  39   2.0000     -10.268442      -279.4185
  40   2.0000     -10.268235      -279.4129
  41   2.0000     -10.267991      -279.4063
  42   2.0000     -10.267379      -279.3896
  43   2.0000     -10.267329      -279.3882
  44   2.0000     -10.266119      -279.3553
  45   2.0000     -10.265578      -279.3406
  46   2.0000     -10.265511      -279.3388
  47   2.0000     -10.265078      -279.3270
  48   2.0000     -10.263866      -279.2940
  49   2.0000     -10.259531      -279.1760
  50   2.0000     -10.257988      -279.1340
  51   2.0000      -8.050115      -219.0548
  52   2.0000      -8.025809      -218.3934
  53   2.0000      -8.025709      -218.3906
  54   2.0000      -8.025411      -218.3825
  55   2.0000      -8.021889      -218.2867
  56   2.0000      -6.019336      -163.7945
  57   2.0000      -6.015009      -163.6767
  58   2.0000      -6.012771      -163.6158
  59   2.0000      -5.995683      -163.1508
  60   2.0000      -5.995680      -163.1508
  61   2.0000      -5.995224      -163.1383
  62   2.0000      -5.991704      -163.0426
  63   2.0000      -5.991439      -163.0354
  64   2.0000      -5.991394      -163.0341
  65   2.0000      -5.991331      -163.0324
  66   2.0000      -5.987766      -162.9354
  67   2.0000      -5.986652      -162.9051
  68   2.0000      -5.986540      -162.9020
  69   2.0000      -5.985954      -162.8861
  70   2.0000      -5.982445      -162.7906
  71   2.0000      -1.289347       -35.0849
  72   2.0000      -1.273826       -34.6626
  73   2.0000      -1.196118       -32.5480
  74   2.0000      -1.192435       -32.4478
  75   2.0000      -0.988121       -26.8881
  76   2.0000      -0.980206       -26.6728
  77   2.0000      -0.980043       -26.6683
  78   2.0000      -0.958256       -26.0755
  79   2.0000      -0.957594       -26.0575
  80   2.0000      -0.928833       -25.2748
  81   2.0000      -0.912910       -24.8415
  82   2.0000      -0.909506       -24.7489
  83   2.0000      -0.907094       -24.6833
  84   2.0000      -0.895113       -24.3573
  85   2.0000      -0.878877       -23.9155
  86   2.0000      -0.865545       -23.5527
  87   2.0000      -0.855462       -23.2783
  88   2.0000      -0.844436       -22.9783
  89   2.0000      -0.833380       -22.6774
  90   2.0000      -0.833258       -22.6741
  91   2.0000      -0.831231       -22.6190
  92   2.0000      -0.825228       -22.4556
  93   2.0000      -0.817926       -22.2569
  94   2.0000      -0.808071       -21.9887
  95   2.0000      -0.807451       -21.9719
  96   2.0000      -0.804908       -21.9027
  97   2.0000      -0.793147       -21.5826
  98   2.0000      -0.786353       -21.3977
  99   2.0000      -0.779448       -21.2099
 100   2.0000      -0.775172       -21.0935
 101   2.0000      -0.765083       -20.8190
 102   2.0000      -0.743743       -20.2383
 103   2.0000      -0.724641       -19.7185
 104   2.0000      -0.717744       -19.5308
 105   2.0000      -0.709386       -19.3034
 106   2.0000      -0.692755       -18.8508
 107   2.0000      -0.680560       -18.5190
 108   2.0000      -0.668633       -18.1944
 109   2.0000      -0.661788       -18.0082
 110   2.0000      -0.659143       -17.9362
 111   2.0000      -0.654870       -17.8199
 112   2.0000      -0.645518       -17.5654
 113   2.0000      -0.637792       -17.3552
 114   2.0000      -0.627450       -17.0738
 115   2.0000      -0.619317       -16.8525
 116   2.0000      -0.615711       -16.7543
 117   2.0000      -0.613173       -16.6853
 118   2.0000      -0.610878       -16.6228
 119   2.0000      -0.602216       -16.3871
 120   2.0000      -0.591510       -16.0958
 121   2.0000      -0.588590       -16.0164
 122   2.0000      -0.586910       -15.9706
 123   2.0000      -0.584706       -15.9107
 124   2.0000      -0.582605       -15.8535
 125   2.0000      -0.578095       -15.7308
 126   2.0000      -0.575658       -15.6644
 127   2.0000      -0.559443       -15.2232
 128   2.0000      -0.555817       -15.1246
 129   2.0000      -0.552785       -15.0420
 130   2.0000      -0.548737       -14.9319
 131   2.0000      -0.545511       -14.8441
 132   2.0000      -0.541046       -14.7226
 133   2.0000      -0.533077       -14.5058
 134   2.0000      -0.527119       -14.3436
 135   2.0000      -0.523947       -14.2573
 136   2.0000      -0.518406       -14.1065
 137   2.0000      -0.517307       -14.0766
 138   2.0000      -0.515336       -14.0230
 139   2.0000      -0.509837       -13.8734
 140   2.0000      -0.501614       -13.6496
 141   2.0000      -0.498657       -13.5691
 142   2.0000      -0.496610       -13.5134
 143   2.0000      -0.496152       -13.5010
 144   2.0000      -0.495374       -13.4798
 145   2.0000      -0.494362       -13.4523
 146   2.0000      -0.489486       -13.3196
 147   2.0000      -0.484252       -13.1772
 148   2.0000      -0.483073       -13.1451
 149   2.0000      -0.482379       -13.1262
 150   2.0000      -0.481035       -13.0896
 151   2.0000      -0.480358       -13.0712
 152   2.0000      -0.479648       -13.0519
 153   2.0000      -0.476749       -12.9730
 154   2.0000      -0.476022       -12.9532
 155   2.0000      -0.472567       -12.8592
 156   2.0000      -0.471499       -12.8301
 157   2.0000      -0.470266       -12.7966
 158   2.0000      -0.469916       -12.7871
 159   2.0000      -0.465976       -12.6798
 160   2.0000      -0.462588       -12.5877
 161   2.0000      -0.457758       -12.4562
 162   2.0000      -0.449638       -12.2353
 163   2.0000      -0.449025       -12.2186
 164   2.0000      -0.448030       -12.1915
 165   2.0000      -0.445526       -12.1234
 166   2.0000      -0.440220       -11.9790
 167   2.0000      -0.438733       -11.9385
 168   2.0000      -0.436317       -11.8728
 169   2.0000      -0.428273       -11.6539
 170   2.0000      -0.421071       -11.4579
 171   2.0000      -0.417514       -11.3611
 172   2.0000      -0.417079       -11.3493
 173   2.0000      -0.413403       -11.2493
 174   2.0000      -0.406121       -11.0511
 175   2.0000      -0.404210       -10.9991
 176   2.0000      -0.403424       -10.9777
 177   2.0000      -0.398244       -10.8368
 178   2.0000      -0.394985       -10.7481
 179   2.0000      -0.386293       -10.5116
 180   2.0000      -0.380087       -10.3427
 181   2.0000      -0.378611       -10.3025
 182   2.0000      -0.377146       -10.2627
 183   2.0000      -0.351174        -9.5559
 184   2.0000      -0.339206        -9.2303
 185   2.0000      -0.336504        -9.1567
 186   2.0000      -0.328181        -8.9302
 187   2.0000      -0.325849        -8.8668
 188   2.0000      -0.323999        -8.8165
 189   2.0000      -0.319991        -8.7074
 190   2.0000      -0.309977        -8.4349
 191   2.0000      -0.304797        -8.2940
 192   2.0000      -0.297885        -8.1059
 193   2.0000      -0.287171        -7.8143
 194   2.0000      -0.267989        -7.2923
 195   2.0000      -0.233637        -6.3576
 196   2.0000      -0.206074        -5.6076
 197   2.0000      -0.183724        -4.9994
 198   0.0000      -0.070388        -1.9154
 199   0.0000      -0.052509        -1.4289
 200   0.0000      -0.030408        -0.8274
 201   0.0000       0.012157         0.3308
 202   0.0000       0.019344         0.5264

MULLIKEN ATOMIC CHARGES
-----------------------
   0 C :   -0.029313
   1 C :   -0.065362
   2 C :    0.050341
   3 C :    0.028490
   4 C :   -0.070359
   5 S :    0.090477
   6 C :   -0.046180
   7 C :    0.026981
   8 C :    0.026235
   9 C :   -0.017939
  10 S :    0.092002
  11 C :   -0.079815
  12 C :    0.150874
  13 O :   -0.240317
  14 C :    0.168487
  15 C :   -0.177025
  16 C :   -0.144807
  17 C :    0.116163
  18 C :    0.107761
  19 C :   -0.182049
  20 S :    0.137455
  21 C :   -0.098916
  22 C :    0.114039
  23 C :    0.138958
  24 C :   -0.117778
  25 C :    0.228234
  26 F :   -0.180904
  27 C :    0.228267
  28 F :   -0.187188
  29 C :   -0.125179
  30 C :    0.047713
  31 C :   -0.076182
  32 C :    0.142064
  33 O :   -0.240445
  34 C :    0.138734
  35 C :   -0.139796
  36 C :   -0.138336
  37 C :    0.123807
  38 C :    0.126853
  39 C :   -0.064911
  40 C :   -0.017540
  41 C :    0.027350
  42 C :    0.021310
  43 C :   -0.034776
  44 S :    0.084262
  45 C :   -0.071020
  46 C :    0.031319
  47 C :    0.042542
  48 C :   -0.056025
  49 S :    0.068694
  50 C :   -0.041793
  51 H :    0.015565
  52 H :    0.022472
  53 H :   -0.016073
  54 H :   -0.015465
  55 H :   -0.019923
  56 H :   -0.018997
  57 H :   -0.020793
  58 H :    0.027678
  59 H :    0.006271
  60 H :    0.031270
  61 H :    0.037398
  62 H :    0.040093
  63 H :    0.013157
  64 H :   -0.007867
  65 H :   -0.025437
  66 H :   -0.004427
  67 H :   -0.021351
  68 H :    0.019415
  69 H :    0.007614
  70 H :    0.027527
  71 H :    0.005870
  72 H :    0.025754
  73 H :    0.022754
  74 H :   -0.021237
  75 H :   -0.018362
  76 H :   -0.021563
  77 H :   -0.015025
  78 H :   -0.016125
  79 H :    0.014274
  80 H :    0.010075
Sum of atomic charges:    0.0000000

LOEWDIN ATOMIC CHARGES
----------------------
   0 C :   -0.079214
   1 C :   -0.140153
   2 C :   -0.033971
   3 C :   -0.028291
   4 C :   -0.178142
   5 S :    0.360667
   6 C :   -0.186710
   7 C :   -0.035755
   8 C :   -0.039412
   9 C :   -0.147838
  10 S :    0.398412
  11 C :   -0.083580
  12 C :    0.021482
  13 O :   -0.002048
  14 C :    0.012054
  15 C :   -0.062208
  16 C :   -0.060976
  17 C :   -0.045201
  18 C :   -0.059747
  19 C :   -0.190361
  20 S :    0.498927
  21 C :   -0.181506
  22 C :   -0.043148
  23 C :   -0.044003
  24 C :   -0.034485
  25 C :    0.053708
  26 F :   -0.059095
  27 C :    0.063284
  28 F :   -0.065350
  29 C :   -0.047926
  30 C :   -0.042344
  31 C :   -0.059819
  32 C :    0.031972
  33 O :   -0.003650
  34 C :    0.019288
  35 C :   -0.060985
  36 C :   -0.065641
  37 C :   -0.044296
  38 C :   -0.044420
  39 C :   -0.076500
  40 C :   -0.149434
  41 C :   -0.035885
  42 C :   -0.040246
  43 C :   -0.182614
  44 S :    0.387796
  45 C :   -0.183527
  46 C :   -0.025511
  47 C :   -0.040450
  48 C :   -0.135949
  49 S :    0.342604
  50 C :   -0.091966
  51 H :    0.026774
  52 H :    0.026464
  53 H :    0.031539
  54 H :    0.030829
  55 H :    0.029050
  56 H :    0.030474
  57 H :    0.036688
  58 H :    0.036725
  59 H :    0.031311
  60 H :    0.037679
  61 H :    0.029284
  62 H :    0.036741
  63 H :    0.031798
  64 H :    0.024341
  65 H :    0.035480
  66 H :    0.025845
  67 H :    0.028002
  68 H :    0.035251
  69 H :    0.031297
  70 H :    0.037328
  71 H :    0.030632
  72 H :    0.036934
  73 H :    0.036397
  74 H :    0.036417
  75 H :    0.030839
  76 H :    0.027999
  77 H :    0.031155
  78 H :    0.031252
  79 H :    0.026458
  80 H :    0.021178

  Mayer bond orders larger than 0.100000
B(  0-C ,  1-C ) :   1.8600 B(  0-C , 51-H ) :   0.9506 B(  0-C , 52-H ) :   0.9407
B(  1-C ,  2-C ) :   1.0815 B(  1-C ,  5-S ) :   1.0144 B(  2-C ,  3-C ) :   1.6570
B(  2-C , 53-H ) :   0.9923 B(  3-C ,  4-C ) :   1.1577 B(  3-C , 54-H ) :   0.9913
B(  4-C ,  5-S ) :   1.0515 B(  4-C ,  6-C ) :   1.5446 B(  6-C ,  7-C ) :   1.1794
B(  6-C , 10-S ) :   1.0275 B(  7-C ,  8-C ) :   1.5973 B(  7-C , 55-H ) :   0.9923
B(  8-C ,  9-C ) :   1.1436 B(  8-C , 56-H ) :   0.9973 B(  9-C , 10-S ) :   1.0442
B(  9-C , 11-C ) :   1.5603 B( 11-C , 12-C ) :   1.1983 B( 11-C , 57-H ) :   0.9596
B( 12-C , 13-O ) :   1.0974 B( 12-C , 16-C ) :   1.3742 B( 13-O , 14-C ) :   1.1299
B( 14-C , 15-C ) :   1.4080 B( 14-C , 19-C ) :   1.1711 B( 15-C , 16-C ) :   1.3383
B( 15-C , 18-C ) :   1.1150 B( 16-C , 17-C ) :   1.1120 B( 17-C , 58-H ) :   0.9440
B( 17-C , 59-H ) :   0.9408 B( 17-C , 60-H ) :   0.9440 B( 18-C , 61-H ) :   0.9335
B( 18-C , 62-H ) :   0.9314 B( 18-C , 63-H ) :   0.9345 B( 19-C , 20-S ) :   1.1593
B( 19-C , 21-C ) :   0.1170 B( 19-C , 23-C ) :   1.3087 B( 20-S , 21-C ) :   1.1260
B( 21-C , 22-C ) :   1.3251 B( 21-C , 30-C ) :   1.1781 B( 22-C , 23-C ) :   1.2055
B( 22-C , 29-C ) :   1.1688 B( 23-C , 24-C ) :   1.1849 B( 24-C , 25-C ) :   1.4776
B( 24-C , 29-C ) :   0.1145 B( 24-C , 64-H ) :   0.9948 B( 25-C , 26-F ) :   1.1157
B( 25-C , 27-C ) :   1.1652 B( 27-C , 28-F ) :   1.1233 B( 27-C , 29-C ) :   1.4898
B( 29-C , 65-H ) :   0.9973 B( 30-C , 31-C ) :   1.5932 B( 30-C , 66-H ) :   0.9480
B( 31-C , 32-C ) :   1.2151 B( 31-C , 67-H ) :   0.9537 B( 32-C , 33-O ) :   1.1250
B( 32-C , 36-C ) :   1.3753 B( 33-O , 34-C ) :   1.1021 B( 34-C , 35-C ) :   1.3728
B( 34-C , 39-C ) :   1.2087 B( 35-C , 36-C ) :   1.3318 B( 35-C , 38-C ) :   1.1207
B( 36-C , 37-C ) :   1.1172 B( 37-C , 68-H ) :   0.9427 B( 37-C , 69-H ) :   0.9441
B( 37-C , 70-H ) :   0.9444 B( 38-C , 71-H ) :   0.9427 B( 38-C , 72-H ) :   0.9429
B( 38-C , 73-H ) :   0.9423 B( 39-C , 40-C ) :   1.5576 B( 39-C , 74-H ) :   0.9607
B( 40-C , 41-C ) :   1.1443 B( 40-C , 44-S ) :   1.0418 B( 41-C , 42-C ) :   1.5994
B( 41-C , 75-H ) :   0.9978 B( 42-C , 43-C ) :   1.1786 B( 42-C , 76-H ) :   0.9931
B( 43-C , 44-S ) :   1.0225 B( 43-C , 45-C ) :   1.5472 B( 45-C , 46-C ) :   1.1609
B( 45-C , 49-S ) :   1.0350 B( 46-C , 47-C ) :   1.6514 B( 46-C , 77-H ) :   0.9911
B( 47-C , 48-C ) :   1.0823 B( 47-C , 78-H ) :   0.9941 B( 48-C , 49-S ) :   1.0097
B( 48-C , 50-C ) :   1.8593 B( 50-C , 79-H ) :   0.9500 B( 50-C , 80-H ) :   0.9365

-----------------------------------------------------------------------------
         ABSORPTION SPECTRUM VIA TRANSITION ELECTRIC DIPOLE MOMENTS
-----------------------------------------------------------------------------
State   Energy  Wavelength   fosc         T2         TX        TY        TZ
        (cm-1)    (nm)                  (au**2)     (au)      (au)      (au)
-----------------------------------------------------------------------------
   0   10924.8    915.3   0.805808504  24.28253   0.04859   2.15076  -4.43333
   1   15732.9    635.6   0.107009039   2.23917  -1.14412  -0.78161   0.56500
   2   16241.3    615.7   0.074718900   1.51456   0.82530   0.68163  -0.60730
   3   18745.8    533.5   0.106553141   1.87128   1.12742  -0.06807   0.77173
   4   22217.6    450.1   0.530747445   7.86441  -2.75352  -0.30091  -0.43818
   5   23211.8    430.8   1.502699874  21.31274  -4.51567  -0.76547  -0.57926
   6   25445.1    393.0   0.080700893   1.04412  -0.24798  -0.20224   0.97042
   7   26403.8    378.7   0.093081730   1.16058   0.63461   0.08728   0.86615
   8   27756.8    360.3   0.198507564   2.35441  -1.11462  -0.37842   0.98429
   9   28458.7    351.4   0.172684668   1.99762   1.33578   0.37898  -0.26401
  10   30088.5    332.4   0.292879231   3.20453   0.04602  -0.06949   1.78818
  11   30537.5    327.5   0.128840756   1.38898  -0.98225  -0.32297   0.56556
  12   31235.7    320.1   0.099195716   1.04548  -0.93233  -0.38238  -0.17331
  13   32240.8    310.2   0.151395764   1.54591  -0.86897  -0.53875   0.70750
  14   33071.8    302.4   0.009959029   0.09914   0.19511   0.10592  -0.22327
  15   33328.9    300.0   0.002189923   0.02163   0.07701  -0.09699  -0.07933
  16   33720.8    296.6   0.003030561   0.02959   0.10134   0.00323  -0.13895
  17   34066.4    293.5   0.026401650   0.25514  -0.33423  -0.10484  -0.36393
  18   34468.0    290.1   0.065574903   0.62632   0.67430   0.28343   0.30217
  19   34699.4    288.2   0.028111391   0.26671   0.43489   0.24553  -0.13151
  20   34896.9    286.6   0.054915533   0.51806   0.47609   0.31657  -0.43724
  21   35373.0    282.7   0.214862319   1.99970   0.55079   0.04857   1.30153
  22   35945.0    278.2   0.007661673   0.07017  -0.09984  -0.15670   0.18881
  23   37262.3    268.4   0.061136896   0.54014  -0.09966  -0.18921   0.70314
  24   37516.2    266.6   0.003695253   0.03243  -0.02216  -0.04973   0.17165
  25   37696.0    265.3   0.014245323   0.12441   0.28950   0.14675  -0.13806
  26   38656.1    258.7   0.055398117   0.47179  -0.65630  -0.18901   0.07311
  27   38970.0    256.6   0.266301050   2.24967  -1.48434  -0.19932  -0.08174
  28   39238.4    254.9   0.037761787   0.31682   0.30845   0.05457   0.46766
  29   39455.4    253.5   0.017689462   0.14760  -0.37131  -0.08612  -0.04811
  30   39571.3    252.7   0.021049345   0.17512   0.35826   0.00560   0.21618
  31   40036.4    249.8   0.026483644   0.21777  -0.39275   0.02667  -0.25060

FINAL SINGLE POINT ENERGY     -3956.441194547015

DIPOLE MOMENT
-------------
                                X             Y             Z
Electronic contribution:      0.52947      -0.19134     -27.15948
Nuclear contribution   :     -0.12773       0.58426      28.36060
                        -----------------------------------------
Total Dipole Moment    :      0.40174       0.39293       1.20112
                        -----------------------------------------
Magnitude (a.u.)       :      1.32608
Magnitude (Debye)      :      3.37063

Rotational constants in cm-1:     0.002318     0.000799     0.000609
Rotational constants in MHz :    69.485536    23.967413    18.269323

                             ****ORCA TERMINATED NORMALLY****
TOTAL RUN TIME: 0 days 0 hours 6 minutes 6 seconds 667 msec
