                         Program Version 4.2.0 -  RELEASE  -
|  1> # ORCA input file
|  2> # SCF done       -182.612078848299          0.000674866456
|  3> ! CAM-B3LYP def2-SVP def2/J RIJCOSX Grid4 TightSCF
|  4> %maxcore 5000
|  5> %tddft
|  6>     Mode sTDDFT
|  7>     Ethresh 5.0
|  8>     maxcore 5000
|  9> end
| 10>
| 11> %pal
| 12>   nprocs 6
| 13>   end
| 14> * xyz 0 1
| 15>    C       -3.52375        -0.18749         4.11089
| 16>    O       -4.27738         0.12105         3.01856
| 17>    C       -3.84022        -0.31481         1.80610
| 18>    C       -4.52500        -0.06361         0.65294
| 19>    F       -5.66404         0.62226         0.55255
| 20>    S       -3.78280        -0.71599        -0.77205
| 21>    C       -2.38360        -0.86238         4.14269
| 22>    S       -1.51491        -1.55344         2.74496
| 23>    C       -2.65865        -1.05908         1.55035
| 24>    C       -2.48572        -1.35628         0.20395
| 25>    C       -1.34720        -2.05858        -0.22842
| 26>    N       -0.47174        -2.40200         0.71983
| 27>    C        0.55377        -2.99469         0.08293
| 28>    C        0.32581        -3.01924        -1.36374
| 29>    C        1.46198        -3.65613        -2.04859
| 30>    O        1.64086        -3.80434        -3.24074
| 31>    C        2.33865        -4.04388        -0.92987
| 32>    C        1.75539        -3.61354         0.35173
| 33>    N        2.55017        -3.97136         1.38685
| 34>    C        3.56829        -4.59419         0.83565
| 35>    C        3.49814        -4.67764        -0.60434
| 36>    C       -0.90964        -2.44776        -1.57702
| 37>    C       -1.67389        -2.27935        -2.76395
| 38>    C       -1.18347        -2.51313        -4.00182
| 39>    C       -1.92387        -2.38664        -5.22820
| 40>    C       -1.22902        -2.22014        -6.41091
| 41>    C       -1.92113        -2.04772        -7.62088
| 42>    C       -1.46646        -1.79020        -8.91270
| 43>    C       -0.04269        -1.64787        -9.32516
| 44>    C        0.36774        -2.74126       -10.32584
| 45>    N        0.16491        -4.05170        -9.73066
| 46>    C        0.26227        -0.24791        -9.88960
| 47>    N        1.69526        -0.09608       -10.07290
| 48>    C       -2.63281        -1.67968        -9.75061
| 49>    C       -2.78760        -1.39805       -11.05987
| 50>    C       -4.14248        -1.21783       -11.65493
| 51>    C       -5.27487        -1.66934       -10.79230
| 52>    C       -5.11022        -1.95367        -9.48507
| 53>    C       -3.81966        -1.92354        -8.90906
| 54>    C       -3.37349        -2.12259        -7.61683
| 55>    C       -4.06066        -2.34278        -6.40218
| 56>    C       -3.35558        -2.44361        -5.24646
| 57>    C       -4.27793         0.28250       -11.83876
| 58>    C       -4.42686         1.12304       -10.80400
| 59>    C       -4.55862         2.53389       -10.96899
| 60>    N       -4.46082         3.12038       -12.15456
| 61>    C       -4.61701         4.43861       -11.92683
| 62>    C       -4.81438         4.71666       -10.49742
| 63>    C       -4.99280         6.15785       -10.27404
| 64>    O       -5.15290         6.74724        -9.22315
| 65>    C       -4.92097         6.70884       -11.63822
| 66>    C       -4.68134         5.62976       -12.61498
| 67>    N       -4.62848         6.12580       -13.87376
| 68>    C       -4.82386         7.41785       -13.74072
| 69>    C       -5.01816         7.84800       -12.37455
| 70>    C       -4.79755         3.49437        -9.86843
| 71>    C       -4.99471         3.15168        -8.50155
| 72>    C       -5.14650         4.07418        -7.52450
| 73>    C       -5.37347         3.73373        -6.14796
| 74>    O       -5.53271         2.38534        -5.92504
| 75>    C       -5.83942         1.94995        -4.67730
| 76>    C       -6.12131         0.64254        -4.41907
| 77>    F       -6.16163        -0.34401        -5.31738
| 78>    S       -6.46477         0.32210        -2.75295
| 79>    C       -5.41606         4.68834        -5.19701
| 80>    S       -5.65169         4.46389        -3.48362
| 81>    C       -5.91740         2.72416        -3.48266
| 82>    C       -6.23583         1.98974        -2.38733
| 83>    H       -3.99379         0.20738         5.00015
| 84>    H       -1.87990        -1.04148         5.07451
| 85>    H        4.36051        -4.98579         1.44974
| 86>    H        4.22373        -5.14637        -1.23949
| 87>    H       -2.69078        -1.93454        -2.63196
| 88>    H       -0.14223        -2.79318        -4.09966
| 89>    H       -0.14921        -2.19533        -6.38972
| 90>    H        0.58076        -1.77832        -8.43352
| 91>    H        1.40773        -2.53972       -10.62690
| 92>    H       -0.26224        -2.68763       -11.21641
| 93>    H        0.74407        -4.15736        -8.90395
| 94>    H        0.42747        -4.77992       -10.38515
| 95>    H       -0.17567         0.50370        -9.20983
| 96>    H       -0.20780        -0.12514       -10.86732
| 97>    H        2.16995        -0.11522        -9.17589
| 98>    H        1.90479         0.79201       -10.51446
| 99>    H       -1.95223        -1.20482       -11.71593
|100>    H       -4.19215        -1.69542       -12.63817
|101>    H       -6.24998        -1.67758       -11.25341
|102>    H       -5.95198        -2.22836        -8.86653
|103>    H       -5.13706        -2.41266        -6.40340
|104>    H       -3.87490        -2.60898        -4.31528
|105>    H       -4.25315         0.68286       -12.84122
|106>    H       -4.45572         0.73745        -9.79422
|107>    H       -4.82864         8.05724       -14.60646
|108>    H       -5.19651         8.85621       -12.05638
|109>    H       -5.03262         2.10204        -8.24606
|110>    H       -5.09915         5.12819        -7.75601
|111>    H       -5.28128         5.72058        -5.46628
|112>    H       -6.35576         2.33330        -1.38063
|113> *
|114>
|115>                          ****END OF INPUT****

CARTESIAN COORDINATES (ANGSTROEM)
---------------------------------
  C     -3.523750   -0.187490    4.110890
  O     -4.277380    0.121050    3.018560
  C     -3.840220   -0.314810    1.806100
  C     -4.525000   -0.063610    0.652940
  F     -5.664040    0.622260    0.552550
  S     -3.782800   -0.715990   -0.772050
  C     -2.383600   -0.862380    4.142690
  S     -1.514910   -1.553440    2.744960
  C     -2.658650   -1.059080    1.550350
  C     -2.485720   -1.356280    0.203950
  C     -1.347200   -2.058580   -0.228420
  N     -0.471740   -2.402000    0.719830
  C      0.553770   -2.994690    0.082930
  C      0.325810   -3.019240   -1.363740
  C      1.461980   -3.656130   -2.048590
  O      1.640860   -3.804340   -3.240740
  C      2.338650   -4.043880   -0.929870
  C      1.755390   -3.613540    0.351730
  N      2.550170   -3.971360    1.386850
  C      3.568290   -4.594190    0.835650
  C      3.498140   -4.677640   -0.604340
  C     -0.909640   -2.447760   -1.577020
  C     -1.673890   -2.279350   -2.763950
  C     -1.183470   -2.513130   -4.001820
  C     -1.923870   -2.386640   -5.228200
  C     -1.229020   -2.220140   -6.410910
  C     -1.921130   -2.047720   -7.620880
  C     -1.466460   -1.790200   -8.912700
  C     -0.042690   -1.647870   -9.325160
  C      0.367740   -2.741260  -10.325840
  N      0.164910   -4.051700   -9.730660
  C      0.262270   -0.247910   -9.889600
  N      1.695260   -0.096080  -10.072900
  C     -2.632810   -1.679680   -9.750610
  C     -2.787600   -1.398050  -11.059870
  C     -4.142480   -1.217830  -11.654930
  C     -5.274870   -1.669340  -10.792300
  C     -5.110220   -1.953670   -9.485070
  C     -3.819660   -1.923540   -8.909060
  C     -3.373490   -2.122590   -7.616830
  C     -4.060660   -2.342780   -6.402180
  C     -3.355580   -2.443610   -5.246460
  C     -4.277930    0.282500  -11.838760
  C     -4.426860    1.123040  -10.804000
  C     -4.558620    2.533890  -10.968990
  N     -4.460820    3.120380  -12.154560
  C     -4.617010    4.438610  -11.926830
  C     -4.814380    4.716660  -10.497420
  C     -4.992800    6.157850  -10.274040
  O     -5.152900    6.747240   -9.223150
  C     -4.920970    6.708840  -11.638220
  C     -4.681340    5.629760  -12.614980
  N     -4.628480    6.125800  -13.873760
  C     -4.823860    7.417850  -13.740720
  C     -5.018160    7.848000  -12.374550
  C     -4.797550    3.494370   -9.868430
  C     -4.994710    3.151680   -8.501550
  C     -5.146500    4.074180   -7.524500
  C     -5.373470    3.733730   -6.147960
  O     -5.532710    2.385340   -5.925040
  C     -5.839420    1.949950   -4.677300
  C     -6.121310    0.642540   -4.419070
  F     -6.161630   -0.344010   -5.317380
  S     -6.464770    0.322100   -2.752950
  C     -5.416060    4.688340   -5.197010
  S     -5.651690    4.463890   -3.483620
  C     -5.917400    2.724160   -3.482660
  C     -6.235830    1.989740   -2.387330
  H     -3.993790    0.207380    5.000150
  H     -1.879900   -1.041480    5.074510
  H      4.360510   -4.985790    1.449740
  H      4.223730   -5.146370   -1.239490
  H     -2.690780   -1.934540   -2.631960
  H     -0.142230   -2.793180   -4.099660
  H     -0.149210   -2.195330   -6.389720
  H      0.580760   -1.778320   -8.433520
  H      1.407730   -2.539720  -10.626900
  H     -0.262240   -2.687630  -11.216410
  H      0.744070   -4.157360   -8.903950
  H      0.427470   -4.779920  -10.385150
  H     -0.175670    0.503700   -9.209830
  H     -0.207800   -0.125140  -10.867320
  H      2.169950   -0.115220   -9.175890
  H      1.904790    0.792010  -10.514460
  H     -1.952230   -1.204820  -11.715930
  H     -4.192150   -1.695420  -12.638170
  H     -6.249980   -1.677580  -11.253410
  H     -5.951980   -2.228360   -8.866530
  H     -5.137060   -2.412660   -6.403400
  H     -3.874900   -2.608980   -4.315280
  H     -4.253150    0.682860  -12.841220
  H     -4.455720    0.737450   -9.794220
  H     -4.828640    8.057240  -14.606460
  H     -5.196510    8.856210  -12.056380
  H     -5.032620    2.102040   -8.246060
  H     -5.099150    5.128190   -7.756010
  H     -5.281280    5.720580   -5.466280
  H     -6.355760    2.333300   -1.380630

 Total Charge           Charge          ....    0
 Multiplicity           Mult            ....    1
 Number of Electrons    NEL             ....  498
 Basis Dimension        Dim             .... 1118

ORBITAL ENERGIES
----------------

  NO   OCC          E(Eh)            E(eV)
   0   2.0000     -88.983524     -2421.3648
   1   2.0000     -88.974588     -2421.1216
   2   2.0000     -88.957199     -2420.6484
   3   2.0000     -88.954369     -2420.5715
   4   2.0000     -24.822561      -675.4562
   5   2.0000     -24.803696      -674.9429
   6   2.0000     -19.283097      -524.7198
   7   2.0000     -19.278275      -524.5885
   8   2.0000     -19.205489      -522.6079
   9   2.0000     -19.202551      -522.5280
  10   2.0000     -14.406839      -392.0300
  11   2.0000     -14.401895      -391.8955
  12   2.0000     -14.396831      -391.7577
  13   2.0000     -14.393363      -391.6633
  14   2.0000     -14.380242      -391.3063
  15   2.0000     -14.368176      -390.9780
  16   2.0000     -10.398332      -282.9530
  17   2.0000     -10.379680      -282.4455
  18   2.0000     -10.365150      -282.0501
  19   2.0000     -10.362681      -281.9829
  20   2.0000     -10.362255      -281.9713
  21   2.0000     -10.351305      -281.6733
  22   2.0000     -10.347567      -281.5716
  23   2.0000     -10.344815      -281.4967
  24   2.0000     -10.341591      -281.4090
  25   2.0000     -10.337205      -281.2897
  26   2.0000     -10.336929      -281.2822
  27   2.0000     -10.327799      -281.0337
  28   2.0000     -10.325947      -280.9833
  29   2.0000     -10.321487      -280.8619
  30   2.0000     -10.318955      -280.7930
  31   2.0000     -10.314757      -280.6788
  32   2.0000     -10.312572      -280.6194
  33   2.0000     -10.309544      -280.5370
  34   2.0000     -10.308668      -280.5131
  35   2.0000     -10.307845      -280.4907
  36   2.0000     -10.307349      -280.4772
  37   2.0000     -10.306529      -280.4549
  38   2.0000     -10.305992      -280.4403
  39   2.0000     -10.301586      -280.3204
  40   2.0000     -10.301301      -280.3127
  41   2.0000     -10.298204      -280.2284
  42   2.0000     -10.287353      -279.9331
  43   2.0000     -10.284411      -279.8530
  44   2.0000     -10.284094      -279.8444
  45   2.0000     -10.282064      -279.7892
  46   2.0000     -10.281339      -279.7695
  47   2.0000     -10.280233      -279.7394
  48   2.0000     -10.279720      -279.7254
  49   2.0000     -10.279403      -279.7168
  50   2.0000     -10.278573      -279.6942
  51   2.0000     -10.277262      -279.6585
  52   2.0000     -10.276307      -279.6325
  53   2.0000     -10.275613      -279.6136
  54   2.0000     -10.275380      -279.6073
  55   2.0000     -10.274914      -279.5946
  56   2.0000     -10.273912      -279.5674
  57   2.0000     -10.271910      -279.5129
  58   2.0000     -10.271644      -279.5056
  59   2.0000     -10.271155      -279.4923
  60   2.0000     -10.269860      -279.4571
  61   2.0000     -10.265565      -279.3402
  62   2.0000     -10.264946      -279.3234
  63   2.0000     -10.264038      -279.2987
  64   2.0000     -10.262804      -279.2651
  65   2.0000     -10.260902      -279.2133
  66   2.0000     -10.260796      -279.2105
  67   2.0000     -10.260456      -279.2012
  68   2.0000      -8.078267      -219.8208
  69   2.0000      -8.070526      -219.6102
  70   2.0000      -8.049974      -219.0509
  71   2.0000      -8.049724      -219.0441
  72   2.0000      -6.047925      -164.5724
  73   2.0000      -6.044108      -164.4685
  74   2.0000      -6.039969      -164.3559
  75   2.0000      -6.039253      -164.3364
  76   2.0000      -6.036048      -164.2492
  77   2.0000      -6.031981      -164.1386
  78   2.0000      -6.020307      -163.8209
  79   2.0000      -6.020052      -163.8139
  80   2.0000      -6.016125      -163.7071
  81   2.0000      -6.015488      -163.6898
  82   2.0000      -6.010035      -163.5414
  83   2.0000      -6.009859      -163.5366
  84   2.0000      -1.335834       -36.3499
  85   2.0000      -1.317353       -35.8470
  86   2.0000      -1.193200       -32.4686
  87   2.0000      -1.187364       -32.3098
  88   2.0000      -1.118755       -30.4429
  89   2.0000      -1.116081       -30.3701
  90   2.0000      -1.076413       -29.2907
  91   2.0000      -1.070207       -29.1218
  92   2.0000      -1.050341       -28.5812
  93   2.0000      -1.048997       -28.5447
  94   2.0000      -1.010388       -27.4941
  95   2.0000      -1.001022       -27.2392
  96   2.0000      -0.984303       -26.7843
  97   2.0000      -0.965320       -26.2677
  98   2.0000      -0.951682       -25.8966
  99   2.0000      -0.945531       -25.7292
 100   2.0000      -0.935959       -25.4687
 101   2.0000      -0.934936       -25.4409
 102   2.0000      -0.929995       -25.3064
 103   2.0000      -0.921275       -25.0692
 104   2.0000      -0.920732       -25.0544
 105   2.0000      -0.912929       -24.8421
 106   2.0000      -0.900018       -24.4907
 107   2.0000      -0.883700       -24.0467
 108   2.0000      -0.879110       -23.9218
 109   2.0000      -0.875988       -23.8369
 110   2.0000      -0.866237       -23.5715
 111   2.0000      -0.861482       -23.4421
 112   2.0000      -0.848884       -23.0993
 113   2.0000      -0.839580       -22.8461
 114   2.0000      -0.837836       -22.7987
 115   2.0000      -0.833318       -22.6757
 116   2.0000      -0.828920       -22.5561
 117   2.0000      -0.825951       -22.4753
 118   2.0000      -0.824469       -22.4349
 119   2.0000      -0.801303       -21.8046
 120   2.0000      -0.788409       -21.4537
 121   2.0000      -0.785293       -21.3689
 122   2.0000      -0.774437       -21.0735
 123   2.0000      -0.762694       -20.7540
 124   2.0000      -0.755053       -20.5460
 125   2.0000      -0.751679       -20.4542
 126   2.0000      -0.744285       -20.2530
 127   2.0000      -0.732880       -19.9427
 128   2.0000      -0.725741       -19.7484
 129   2.0000      -0.724664       -19.7191
 130   2.0000      -0.717708       -19.5298
 131   2.0000      -0.712630       -19.3916
 132   2.0000      -0.703668       -19.1478
 133   2.0000      -0.697536       -18.9809
 134   2.0000      -0.691822       -18.8254
 135   2.0000      -0.684878       -18.6365
 136   2.0000      -0.679728       -18.4964
 137   2.0000      -0.667332       -18.1590
 138   2.0000      -0.662598       -18.0302
 139   2.0000      -0.658653       -17.9229
 140   2.0000      -0.652510       -17.7557
 141   2.0000      -0.651445       -17.7267
 142   2.0000      -0.644032       -17.5250
 143   2.0000      -0.641068       -17.4444
 144   2.0000      -0.634313       -17.2605
 145   2.0000      -0.628875       -17.1126
 146   2.0000      -0.619689       -16.8626
 147   2.0000      -0.613607       -16.6971
 148   2.0000      -0.608204       -16.5501
 149   2.0000      -0.603932       -16.4338
 150   2.0000      -0.601005       -16.3542
 151   2.0000      -0.598708       -16.2917
 152   2.0000      -0.595874       -16.2146
 153   2.0000      -0.594407       -16.1746
 154   2.0000      -0.593417       -16.1477
 155   2.0000      -0.588344       -16.0096
 156   2.0000      -0.581172       -15.8145
 157   2.0000      -0.578222       -15.7342
 158   2.0000      -0.574590       -15.6354
 159   2.0000      -0.571021       -15.5383
 160   2.0000      -0.568585       -15.4720
 161   2.0000      -0.566939       -15.4272
 162   2.0000      -0.563624       -15.3370
 163   2.0000      -0.559381       -15.2215
 164   2.0000      -0.554902       -15.0996
 165   2.0000      -0.550019       -14.9668
 166   2.0000      -0.546234       -14.8638
 167   2.0000      -0.543749       -14.7962
 168   2.0000      -0.540124       -14.6975
 169   2.0000      -0.539469       -14.6797
 170   2.0000      -0.537236       -14.6189
 171   2.0000      -0.536874       -14.6091
 172   2.0000      -0.534006       -14.5310
 173   2.0000      -0.532072       -14.4784
 174   2.0000      -0.530917       -14.4470
 175   2.0000      -0.525926       -14.3112
 176   2.0000      -0.522568       -14.2198
 177   2.0000      -0.520321       -14.1587
 178   2.0000      -0.518842       -14.1184
 179   2.0000      -0.513164       -13.9639
 180   2.0000      -0.510621       -13.8947
 181   2.0000      -0.508641       -13.8408
 182   2.0000      -0.506774       -13.7900
 183   2.0000      -0.506395       -13.7797
 184   2.0000      -0.503506       -13.7011
 185   2.0000      -0.498117       -13.5544
 186   2.0000      -0.497669       -13.5422
 187   2.0000      -0.493167       -13.4198
 188   2.0000      -0.491608       -13.3773
 189   2.0000      -0.485512       -13.2114
 190   2.0000      -0.483290       -13.1510
 191   2.0000      -0.480571       -13.0770
 192   2.0000      -0.476742       -12.9728
 193   2.0000      -0.474261       -12.9053
 194   2.0000      -0.473060       -12.8726
 195   2.0000      -0.471844       -12.8395
 196   2.0000      -0.470296       -12.7974
 197   2.0000      -0.467097       -12.7104
 198   2.0000      -0.465734       -12.6733
 199   2.0000      -0.464778       -12.6473
 200   2.0000      -0.463296       -12.6069
 201   2.0000      -0.459699       -12.5090
 202   2.0000      -0.456396       -12.4192
 203   2.0000      -0.455934       -12.4066
 204   2.0000      -0.454357       -12.3637
 205   2.0000      -0.452005       -12.2997
 206   2.0000      -0.450182       -12.2501
 207   2.0000      -0.448725       -12.2104
 208   2.0000      -0.443969       -12.0810
 209   2.0000      -0.437967       -11.9177
 210   2.0000      -0.434173       -11.8145
 211   2.0000      -0.430584       -11.7168
 212   2.0000      -0.429834       -11.6964
 213   2.0000      -0.427328       -11.6282
 214   2.0000      -0.424705       -11.5568
 215   2.0000      -0.420901       -11.4533
 216   2.0000      -0.417500       -11.3607
 217   2.0000      -0.412551       -11.2261
 218   2.0000      -0.409807       -11.1514
 219   2.0000      -0.407836       -11.0978
 220   2.0000      -0.397605       -10.8194
 221   2.0000      -0.395068       -10.7503
 222   2.0000      -0.392043       -10.6680
 223   2.0000      -0.384538       -10.4638
 224   2.0000      -0.380196       -10.3457
 225   2.0000      -0.361699        -9.8423
 226   2.0000      -0.360260        -9.8032
 227   2.0000      -0.356156        -9.6915
 228   2.0000      -0.353324        -9.6144
 229   2.0000      -0.351736        -9.5712
 230   2.0000      -0.345933        -9.4133
 231   2.0000      -0.344563        -9.3760
 232   2.0000      -0.335658        -9.1337
 233   2.0000      -0.333719        -9.0810
 234   2.0000      -0.326743        -8.8911
 235   2.0000      -0.324213        -8.8223
 236   2.0000      -0.323588        -8.8053
 237   2.0000      -0.319165        -8.6849
 238   2.0000      -0.318715        -8.6727
 239   2.0000      -0.310935        -8.4610
 240   2.0000      -0.304525        -8.2865
 241   2.0000      -0.297926        -8.1070
 242   2.0000      -0.291001        -7.9185
 243   2.0000      -0.287763        -7.8304
 244   2.0000      -0.283230        -7.7071
 245   2.0000      -0.271366        -7.3842
 246   2.0000      -0.259004        -7.0479
 247   2.0000      -0.248033        -6.7493
 248   2.0000      -0.218145        -5.9360
 249   0.0000      -0.109066        -2.9678
 250   0.0000      -0.105218        -2.8631
 251   0.0000      -0.069893        -1.9019
 252   0.0000      -0.046325        -1.2606
 253   0.0000      -0.038185        -1.0391

MULLIKEN ATOMIC CHARGES
-----------------------
   0 C :    0.177180
   1 O :   -0.242335
   2 C :    0.195015
   3 C :    0.084554
   4 F :   -0.153284
   5 S :    0.115995
   6 C :   -0.111962
   7 S :    0.203267
   8 C :   -0.001761
   9 C :   -0.197939
  10 C :    0.089229
  11 N :   -0.119091
  12 C :    0.084031
  13 C :   -0.180647
  14 C :    0.214949
  15 O :   -0.150686
  16 C :   -0.015815
  17 C :   -0.054047
  18 N :   -0.064636
  19 C :    0.081324
  20 C :   -0.097866
  21 C :    0.048168
  22 C :   -0.051476
  23 C :    0.004880
  24 C :    0.109841
  25 C :   -0.101010
  26 C :    0.058782
  27 C :    0.055399
  28 C :   -0.089703
  29 C :    0.152004
  30 N :   -0.217138
  31 C :    0.148187
  32 N :   -0.215120
  33 C :    0.097404
  34 C :   -0.125837
  35 C :    0.140052
  36 C :   -0.034421
  37 C :    0.014834
  38 C :   -0.002814
  39 C :    0.035794
  40 C :    0.007959
  41 C :   -0.014554
  42 C :   -0.023839
  43 C :    0.016551
  44 C :    0.023173
  45 N :   -0.043249
  46 C :    0.066433
  47 C :   -0.168555
  48 C :    0.218061
  49 O :   -0.155221
  50 C :   -0.013928
  51 C :   -0.037759
  52 N :   -0.057289
  53 C :    0.083246
  54 C :   -0.098140
  55 C :    0.070577
  56 C :   -0.040315
  57 C :   -0.027209
  58 C :    0.239696
  59 O :   -0.258333
  60 C :    0.229554
  61 C :    0.029324
  62 F :   -0.156465
  63 S :    0.095677
  64 C :   -0.137862
  65 S :    0.115028
  66 C :   -0.030493
  67 C :   -0.147139
  68 H :    0.024394
  69 H :    0.044412
  70 H :    0.000971
  71 H :   -0.012180
  72 H :   -0.022242
  73 H :    0.009052
  74 H :   -0.031863
  75 H :   -0.033470
  76 H :   -0.000851
  77 H :   -0.028497
  78 H :    0.087082
  79 H :    0.089173
  80 H :   -0.002830
  81 H :   -0.023028
  82 H :    0.091484
  83 H :    0.092783
  84 H :    0.007231
  85 H :    0.016563
  86 H :   -0.008286
  87 H :   -0.030793
  88 H :   -0.037840
  89 H :   -0.031179
  90 H :    0.031477
  91 H :    0.011647
  92 H :    0.005021
  93 H :   -0.010311
  94 H :   -0.002641
  95 H :    0.011344
  96 H :    0.052723
  97 H :    0.032427
Sum of atomic charges:   -0.0000000

LOEWDIN ATOMIC CHARGES
----------------------
   0 C :    0.039507
   1 O :   -0.052628
   2 C :   -0.031371
   3 C :   -0.085229
   4 F :   -0.043595
   5 S :    0.434639
   6 C :   -0.235904
   7 S :    0.462911
   8 C :   -0.150533
   9 C :   -0.226555
  10 C :    0.057348
  11 N :   -0.136634
  12 C :    0.055858
  13 C :   -0.058153
  14 C :    0.069886
  15 O :   -0.150667
  16 C :   -0.045264
  17 C :    0.002959
  18 N :   -0.101579
  19 C :    0.058808
  20 C :   -0.041858
  21 C :   -0.019010
  22 C :   -0.065467
  23 C :    0.036777
  24 C :   -0.033249
  25 C :    0.005788
  26 C :   -0.020019
  27 C :   -0.006403
  28 C :   -0.041050
  29 C :    0.024803
  30 N :   -0.119879
  31 C :    0.027422
  32 N :   -0.116375
  33 C :   -0.013289
  34 C :    0.070228
  35 C :   -0.030873
  36 C :   -0.033309
  37 C :   -0.018268
  38 C :   -0.043255
  39 C :   -0.023325
  40 C :   -0.004898
  41 C :   -0.026056
  42 C :    0.082609
  43 C :   -0.042794
  44 C :    0.075252
  45 N :   -0.110696
  46 C :    0.050997
  47 C :   -0.056027
  48 C :    0.069668
  49 O :   -0.153149
  50 C :   -0.042012
  51 C :    0.011969
  52 N :   -0.099177
  53 C :    0.064682
  54 C :   -0.040434
  55 C :   -0.021280
  56 C :   -0.041087
  57 C :    0.007613
  58 C :    0.027464
  59 O :   -0.050358
  60 C :   -0.033221
  61 C :   -0.106152
  62 F :   -0.047125
  63 S :    0.424569
  64 C :   -0.199039
  65 S :    0.370129
  66 C :   -0.205611
  67 C :   -0.210600
  68 H :    0.032758
  69 H :    0.035363
  70 H :    0.020096
  71 H :    0.031381
  72 H :    0.009303
  73 H :    0.034388
  74 H :    0.026852
  75 H :    0.020830
  76 H :    0.001481
  77 H :    0.009258
  78 H :    0.051112
  79 H :    0.053840
  80 H :    0.003836
  81 H :    0.013008
  82 H :    0.052801
  83 H :    0.056146
  84 H :    0.028652
  85 H :    0.049433
  86 H :    0.025679
  87 H :    0.031643
  88 H :    0.024368
  89 H :    0.023082
  90 H :    0.038356
  91 H :    0.038159
  92 H :    0.021458
  93 H :    0.032234
  94 H :    0.030421
  95 H :    0.037092
  96 H :    0.042435
  97 H :    0.026103

  Mayer bond orders larger than 0.100000
B(  0-C ,  1-O ) :   1.0453 B(  0-C ,  6-C ) :   1.8508 B(  0-C , 68-H ) :   0.9780
B(  1-O ,  2-C ) :   1.0930 B(  2-C ,  3-C ) :   1.4931 B(  2-C ,  8-C ) :   1.2172
B(  3-C ,  4-F ) :   1.1331 B(  3-C ,  5-S ) :   1.1150 B(  5-S ,  9-C ) :   1.0586
B(  6-C ,  7-S ) :   0.9379 B(  6-C , 69-H ) :   0.9440 B(  7-S ,  8-C ) :   1.1034
B(  7-S , 11-N ) :   0.1087 B(  8-C ,  9-C ) :   1.4843 B(  9-C , 10-C ) :   1.2328
B( 10-C , 11-N ) :   1.4768 B( 10-C , 12-C ) :   0.1079 B( 10-C , 21-C ) :   1.0198
B( 11-N , 12-C ) :   1.3850 B( 12-C , 13-C ) :   1.0641 B( 12-C , 17-C ) :   1.3964
B( 13-C , 14-C ) :   0.8995 B( 13-C , 21-C ) :   1.5387 B( 14-C , 15-O ) :   2.1819
B( 14-C , 16-C ) :   0.9347 B( 15-O , 73-H ) :   0.1001 B( 16-C , 17-C ) :   1.0809
B( 16-C , 20-C ) :   1.5821 B( 17-C , 18-N ) :   1.3232 B( 18-N , 19-C ) :   1.6418
B( 19-C , 20-C ) :   1.0909 B( 19-C , 70-H ) :   0.9895 B( 20-C , 71-H ) :   1.0108
B( 21-C , 22-C ) :   1.1290 B( 22-C , 23-C ) :   1.6551 B( 22-C , 72-H ) :   0.9487
B( 23-C , 24-C ) :   1.0655 B( 23-C , 73-H ) :   0.9672 B( 24-C , 25-C ) :   1.4952
B( 24-C , 41-C ) :   1.1240 B( 25-C , 26-C ) :   1.1216 B( 25-C , 74-H ) :   1.0048
B( 26-C , 27-C ) :   1.4796 B( 26-C , 39-C ) :   1.1193 B( 27-C , 28-C ) :   1.0078
B( 27-C , 33-C ) :   1.0961 B( 28-C , 29-C ) :   1.0392 B( 28-C , 31-C ) :   1.0437
B( 28-C , 75-H ) :   0.8917 B( 29-C , 30-N ) :   1.0774 B( 29-C , 76-H ) :   0.9350
B( 29-C , 77-H ) :   0.9337 B( 30-N , 78-H ) :   0.9716 B( 30-N , 79-H ) :   0.9699
B( 31-C , 32-N ) :   1.0850 B( 31-C , 80-H ) :   0.9467 B( 31-C , 81-H ) :   0.9276
B( 32-N , 82-H ) :   0.9704 B( 32-N , 83-H ) :   0.9677 B( 33-C , 34-C ) :   1.6518
B( 33-C , 38-C ) :   1.0460 B( 34-C , 35-C ) :   0.9931 B( 34-C , 84-H ) :   0.9629
B( 35-C , 36-C ) :   0.9970 B( 35-C , 42-C ) :   0.9488 B( 35-C , 85-H ) :   0.8835
B( 36-C , 37-C ) :   1.7083 B( 36-C , 86-H ) :   0.9763 B( 37-C , 38-C ) :   1.1347
B( 37-C , 87-H ) :   0.9894 B( 38-C , 39-C ) :   1.4422 B( 39-C , 40-C ) :   1.1437
B( 40-C , 41-C ) :   1.6124 B( 40-C , 88-H ) :   0.9872 B( 41-C , 89-H ) :   0.9810
B( 42-C , 43-C ) :   1.7372 B( 42-C , 90-H ) :   0.9761 B( 43-C , 44-C ) :   1.1517
B( 43-C , 91-H ) :   0.9483 B( 44-C , 45-N ) :   1.5978 B( 44-C , 46-C ) :   0.1091
B( 44-C , 55-C ) :   1.0021 B( 45-N , 46-C ) :   1.3561 B( 46-C , 47-C ) :   1.0551
B( 46-C , 51-C ) :   1.4063 B( 47-C , 48-C ) :   0.9039 B( 47-C , 55-C ) :   1.5483
B( 48-C , 49-O ) :   2.1679 B( 48-C , 50-C ) :   0.9370 B( 49-O , 95-H ) :   0.1100
B( 50-C , 51-C ) :   1.0766 B( 50-C , 54-C ) :   1.5870 B( 51-C , 52-N ) :   1.3192
B( 52-N , 53-C ) :   1.6477 B( 53-C , 54-C ) :   1.0828 B( 53-C , 92-H ) :   0.9897
B( 54-C , 93-H ) :   1.0120 B( 55-C , 56-C ) :   1.1117 B( 56-C , 57-C ) :   1.6593
B( 56-C , 94-H ) :   0.9652 B( 57-C , 58-C ) :   1.1132 B( 57-C , 95-H ) :   0.9523
B( 58-C , 59-O ) :   1.0524 B( 58-C , 64-C ) :   1.6938 B( 59-O , 60-C ) :   1.0745
B( 60-C , 61-C ) :   1.4933 B( 60-C , 66-C ) :   1.2052 B( 61-C , 62-F ) :   1.1228
B( 61-C , 63-S ) :   1.1334 B( 63-S , 67-C ) :   1.1303 B( 64-C , 65-S ) :   1.0274
B( 64-C , 96-H ) :   0.9303 B( 65-S , 66-C ) :   0.9759 B( 66-C , 67-C ) :   1.5963
B( 67-C , 97-H ) :   0.9697

-----------------------------------------------------------------------------
         ABSORPTION SPECTRUM VIA TRANSITION ELECTRIC DIPOLE MOMENTS
-----------------------------------------------------------------------------
State   Energy  Wavelength   fosc         T2         TX        TY        TZ
        (cm-1)    (nm)                  (au**2)     (au)      (au)      (au)
-----------------------------------------------------------------------------
   0    9399.8   1063.9   0.102996792   3.60728   0.32126  -1.42812   1.21019
   1   11827.9    845.5   0.064365120   1.79151  -0.47425  -0.06750  -1.24982
   2   14442.6    692.4   0.090802108   2.06979  -1.33686   0.51571  -0.12898
   3   14932.6    669.7   0.152098416   3.35325  -0.13635   0.81824  -1.63252
   4   16614.4    601.9   0.089639100   1.77619  -0.48403   0.40345   1.17436
   5   19424.5    514.8   0.037809147   0.64080   0.19055  -0.15195   0.76250
   6   20340.6    491.6   0.002045894   0.03311   0.05211  -0.02188  -0.17297
   7   22053.4    453.4   0.001573489   0.02349  -0.08222  -0.08284   0.09934
   8   22123.6    452.0   0.007086559   0.10545  -0.16799   0.13948  -0.24037
   9   22582.1    442.8   0.366445066   5.34220   1.82909  -1.14128  -0.83314
  10   22816.1    438.3   0.289510779   4.17734  -0.29789   1.00778  -1.75299
  11   23077.8    433.3   0.031255897   0.44588   0.55086  -0.27323  -0.26034
  12   23743.5    421.2   0.575084350   7.97376   1.88433  -1.75755   1.15502
  13   23950.5    417.5   0.286870253   3.94317   1.51054  -0.58508   1.14853
  14   24470.2    408.7   0.003933378   0.05292  -0.21806   0.01260  -0.07218
  15   24781.6    403.5   0.094344008   1.25332   0.18576   0.99034   0.48789
  16   25246.4    396.1   0.008788519   0.11460   0.23857  -0.24013   0.00485
  17   25482.2    392.4   0.035029347   0.45255  -0.08245  -0.40266   0.53256
  18   25628.3    390.2   0.050382224   0.64719  -0.52095   0.18456   0.58458
  19   25791.9    387.7   0.169220388   2.15995  -0.27393   1.09044  -0.94650
  20   25921.5    385.8   0.042184352   0.53576   0.04625  -0.45514   0.57137
  21   26226.0    381.3   0.183412616   2.30235   0.10230  -1.04387   1.09646
  22   26482.2    377.6   0.194973162   2.42380  -0.34538  -0.62133  -1.38509
  23   26792.4    373.2   0.101519663   1.24742   0.26784   0.19344   1.06690
  24   27198.7    367.7   0.544851002   6.59485  -0.17913  -1.24550   2.23864
  25   27645.3    361.7   0.009476063   0.11284   0.10046  -0.23641   0.21647
  26   27860.4    358.9   0.011990335   0.14168   0.14960  -0.24120   0.24724
  27   28882.0    346.2   0.034151706   0.38928  -0.10155   0.46688  -0.40124
  28   29107.5    343.6   0.000230937   0.00261  -0.02402  -0.03944   0.02190
  29   29328.3    341.0   0.002534183   0.02845   0.10518  -0.09849  -0.08765
  30   29575.6    338.1   0.003928057   0.04372  -0.02662  -0.20733  -0.00546
  31   30307.1    330.0   0.012473195   0.13549  -0.28515  -0.23138  -0.02532
  32   30377.0    329.2   0.005429757   0.05885  -0.00753  -0.16027   0.18194
  33   30496.8    327.9   0.025613860   0.27650  -0.52189  -0.04851   0.04212
  34   30870.5    323.9   0.012711592   0.13556  -0.11865   0.06354   0.34270
  35   30981.2    322.8   0.226088185   2.40245   0.31659   0.00852   1.51728
  36   31170.9    320.8   0.060795453   0.64209   0.16147  -0.00829   0.78483
  37   31433.7    318.1   0.000234475   0.00246   0.01673   0.03516  -0.03065
  38   31804.9    314.4   0.040962589   0.42400   0.16322  -0.04244  -0.62894
  39   32265.0    309.9   0.015532467   0.15848   0.28680  -0.26213   0.08671
  40   32550.7    307.2   0.044853623   0.45364   0.04761  -0.20160  -0.64088
  41   32762.3    305.2   0.007380875   0.07417   0.08514  -0.08651   0.24379
  42   32893.1    304.0   0.062117283   0.62170   0.32985  -0.30786   0.64662
  43   33536.0    298.2   0.009137423   0.08970  -0.28235   0.08810   0.04709
  44   33675.2    297.0   0.016860606   0.16483   0.15058  -0.25471  -0.27799
  45   34191.1    292.5   0.155034646   1.49276  -0.87191   0.71925  -0.46391
  46   34318.3    291.4   0.035785177   0.34328   0.45779  -0.34120  -0.13150
  47   34516.5    289.7   0.035348710   0.33715   0.11660  -0.20588   0.53025
  48   34776.9    287.5   0.161800575   1.53167  -1.17644   0.36976   0.10455
  49   35575.1    281.1   0.044564161   0.41240  -0.05527   0.18673   0.61194
  50   35617.3    280.8   0.046188466   0.42692   0.17453  -0.17868  -0.60376
  51   35699.1    280.1   0.033334300   0.30740  -0.29947   0.31528   0.34398
  52   35934.3    278.3   0.078092556   0.71544   0.48715  -0.55175   0.41678
  53   36119.9    276.9   0.067650231   0.61659  -0.05434   0.77298   0.12702
  54   36243.7    275.9   0.015345267   0.13939  -0.13467  -0.33357  -0.09991
  55   36867.3    271.2   0.040273025   0.35962  -0.53195  -0.24815  -0.12276
  56   36923.4    270.8   0.371189971   3.30956  -0.05518   0.58064  -1.72319
  57   37054.3    269.9   0.101914233   0.90547   0.54392   0.12118   0.77132
  58   37165.9    269.1   0.024108393   0.21355  -0.16964   0.41287  -0.11964
  59   37378.3    267.5   0.147158771   1.29611  -0.06516   0.27111   1.10380
  60   37429.4    267.2   0.005836839   0.05134   0.00859   0.01900  -0.22562
  61   37459.6    267.0   0.068883251   0.60538  -0.08659  -0.10201  -0.76647
  62   37839.9    264.3   0.002843719   0.02474  -0.02058  -0.07029   0.13920
  63   38257.9    261.4   0.021129276   0.18182  -0.28314   0.28930   0.13400
  64   38470.1    259.9   0.065832178   0.56337  -0.64046  -0.14905   0.36188
  65   38677.3    258.5   0.188103665   1.60110  -0.28909  -1.14922   0.44364
  66   39013.9    256.3   0.050612662   0.42709  -0.18894   0.62508  -0.02569
  67   39130.8    255.6   0.261652614   2.20131   0.26757  -1.45716  -0.08011
  68   39385.2    253.9   0.026280527   0.21967  -0.22816   0.27276  -0.30532
  69   39593.8    252.6   0.039656215   0.32973   0.12188  -0.22466  -0.51420
  70   39631.7    252.3   0.037361765   0.31036  -0.23678   0.29661   0.40782
  71   39831.6    251.1   0.014023335   0.11590  -0.04826   0.01043   0.33685
  72   39923.1    250.5   0.011069020   0.09128   0.03207   0.17321  -0.24545
  73   40143.5    249.1   0.011083472   0.09089   0.06293  -0.12189  -0.26847

FINAL SINGLE POINT ENERGY     -4417.127653251571

DIPOLE MOMENT
-------------
                                X             Y             Z
Electronic contribution:    -32.67349      15.83909      66.63538
Nuclear contribution   :     32.48766     -15.68870     -66.39614
                        -----------------------------------------
Total Dipole Moment    :     -0.18583       0.15040       0.23925
                        -----------------------------------------
Magnitude (a.u.)       :      0.33822
Magnitude (Debye)      :      0.85968

Rotational constants in cm-1:     0.001339     0.000538     0.000429
Rotational constants in MHz :    40.149170    16.127836    12.851510

                             ****ORCA TERMINATED NORMALLY****
TOTAL RUN TIME: 0 days 0 hours 10 minutes 45 seconds 170 msec
