                         Program Version 4.2.0 -  RELEASE  -
|  1> # ORCA input file
|  2> # SCF done       -182.870454188844          0.000454920297
|  3> ! CAM-B3LYP def2-SVP def2/J RIJCOSX Grid4 TightSCF
|  4> %maxcore 5000
|  5> %tddft
|  6>     Mode sTDDFT
|  7>     Ethresh 5.0
|  8>     maxcore 5000
|  9> end
| 10>
| 11> %pal
| 12>   nprocs 6
| 13>   end
| 14> * xyz 0 1
| 15>    C       10.68477         7.07303         4.43740
| 16>    C       11.89131         7.81137         4.93704
| 17>    O       12.12543         8.07324         6.09434
| 18>    C       12.69321         8.09851         3.73856
| 19>    C       11.99885         7.67543         2.60491
| 20>    C       10.67485         7.20603         2.99785
| 21>    C        9.59130         7.13041         2.16027
| 22>    C        8.26439         6.95611         2.59960
| 23>    N        7.15489         6.85321         2.87820
| 24>    C        9.62768         7.23568         0.75402
| 25>    N        9.54298         7.25936        -0.39123
| 26>    C       12.57492         7.77740         1.33327
| 27>    C       13.81305         8.35205         1.21670
| 28>    C       14.51261         8.85498         2.33625
| 29>    C       13.96180         8.70262         3.64221
| 30>    C       14.68511         9.16708         4.76020
| 31>    C       15.88692         9.79809         4.58739
| 32>    C       16.41070         9.99471         3.29976
| 33>    C       15.74673         9.52276         2.19950
| 34>    C        9.94437         6.37393         5.33481
| 35>    C        8.92930         5.39711         5.15337
| 36>    C        7.88438         5.12786         6.15026
| 37>    N        6.96350         4.30320         5.75168
| 38>    C        7.32189         3.92865         4.49303
| 39>    C        8.62072         4.53134         4.12664
| 40>    C        8.97665         4.17245         2.78159
| 41>    S       10.45581         4.34417         2.08336
| 42>    C        7.75565         3.61854         2.25197
| 43>    C        6.79367         3.38313         3.35679
| 44>    N        5.58951         2.98066         2.86205
| 45>    C        5.68595         3.10540         1.57299
| 46>    C        6.99887         3.56731         1.10583
| 47>    C        7.28576         4.04052        -0.21567
| 48>    C        6.44966         4.87411        -0.93916
| 49>    C        5.08235         5.37460        -0.64974
| 50>    N        7.13771         5.28070        -2.04060
| 51>    C        8.39096         4.76139        -2.06479
| 52>    C        9.32140         5.06856        -3.17584
| 53>    C        8.53194         3.95991        -0.93655
| 54>    C        9.63600         3.15867        -0.53463
| 55>    C       10.92323         3.33777        -0.93037
| 56>    C       12.00253         2.67265        -0.30732
| 57>    C       11.98329         1.41844         0.46168
| 58>    N       13.08473         1.16023         1.09742
| 59>    C       13.91382         2.21894         0.83936
| 60>    C       13.28669         3.14197        -0.11647
| 61>    C       14.09806         4.30681        -0.29021
| 62>    S       13.80694         5.63603        -1.21273
| 63>    C       15.21870         4.08753         0.59770
| 64>    C       15.07230         2.79799         1.28766
| 65>    N       16.05189         2.64476         2.22455
| 66>    C       16.73056         3.75196         2.20752
| 67>    C       16.26133         4.73063         1.21796
| 68>    C       16.84281         6.00480         0.96644
| 69>    C       17.40260         6.81861         1.89254
| 70>    C       18.35590         7.89548         1.50232
| 71>    O       18.52494         8.32841         0.38438
| 72>    C       19.05082         8.25687         2.75034
| 73>    C       18.46609         7.58340         3.82463
| 74>    C       17.34531         6.78674         3.34002
| 75>    C       16.30688         6.30683         4.09081
| 76>    C       15.11563         5.78415         3.54521
| 77>    N       14.09478         5.42027         3.16624
| 78>    C       16.25188         6.38195         5.49891
| 79>    N       16.17335         6.40884         6.64310
| 80>    C       18.95218         7.76031         5.12636
| 81>    C       20.00735         8.61207         5.32499
| 82>    C       20.61352         9.31774         4.26244
| 83>    C       20.13169         9.14135         2.93235
| 84>    C       20.73816         9.84915         1.87461
| 85>    C       21.78023        10.69893         2.12493
| 86>    C       22.25945        10.87591         3.43294
| 87>    C       21.69039        10.20144         4.47837
| 88>    H       12.06418         7.39721         0.46324
| 89>    H       14.27441         8.43543         0.24351
| 90>    H       14.26788         9.02098         5.74415
| 91>    H       16.43860        10.15710         5.44341
| 92>    H       17.34642        10.52254         3.18419
| 93>    H       16.15050         9.66824         1.20813
| 94>    H       10.18628         6.59052         6.37325
| 95>    H        7.84277         5.57214         7.12942
| 96>    H        4.86243         2.84385         0.93176
| 97>    H        4.90534         5.39655         0.42260
| 98>    H        4.32618         4.73691        -1.11081
| 99>    H        4.95985         6.38273        -1.04154
|100>    H        6.78199         5.93150        -2.72399
|101>    H        8.77551         5.47196        -4.02662
|102>    H        9.85926         4.17700        -3.49101
|103>    H       10.04922         5.81426        -2.85309
|104>    H        9.41421         2.40106         0.20562
|105>    H       11.18402         4.15642        -1.58246
|106>    H       11.16067         0.72467         0.49782
|107>    H       17.59185         3.88152         2.84062
|108>    H       16.91017         6.32144        -0.06953
|109>    H       18.51252         7.23078         5.95548
|110>    H       20.39693         8.75752         6.32213
|111>    H       20.36296         9.70459         0.87378
|112>    H       22.24366        11.24140         1.31459
|113>    H       23.08417        11.55091         3.60726
|114>    H       22.05732        10.33618         5.48558
|115> *
|116>
|117>                          ****END OF INPUT****

CARTESIAN COORDINATES (ANGSTROEM)
---------------------------------
  C     10.684770    7.073030    4.437400
  C     11.891310    7.811370    4.937040
  O     12.125430    8.073240    6.094340
  C     12.693210    8.098510    3.738560
  C     11.998850    7.675430    2.604910
  C     10.674850    7.206030    2.997850
  C      9.591300    7.130410    2.160270
  C      8.264390    6.956110    2.599600
  N      7.154890    6.853210    2.878200
  C      9.627680    7.235680    0.754020
  N      9.542980    7.259360   -0.391230
  C     12.574920    7.777400    1.333270
  C     13.813050    8.352050    1.216700
  C     14.512610    8.854980    2.336250
  C     13.961800    8.702620    3.642210
  C     14.685110    9.167080    4.760200
  C     15.886920    9.798090    4.587390
  C     16.410700    9.994710    3.299760
  C     15.746730    9.522760    2.199500
  C      9.944370    6.373930    5.334810
  C      8.929300    5.397110    5.153370
  C      7.884380    5.127860    6.150260
  N      6.963500    4.303200    5.751680
  C      7.321890    3.928650    4.493030
  C      8.620720    4.531340    4.126640
  C      8.976650    4.172450    2.781590
  S     10.455810    4.344170    2.083360
  C      7.755650    3.618540    2.251970
  C      6.793670    3.383130    3.356790
  N      5.589510    2.980660    2.862050
  C      5.685950    3.105400    1.572990
  C      6.998870    3.567310    1.105830
  C      7.285760    4.040520   -0.215670
  C      6.449660    4.874110   -0.939160
  C      5.082350    5.374600   -0.649740
  N      7.137710    5.280700   -2.040600
  C      8.390960    4.761390   -2.064790
  C      9.321400    5.068560   -3.175840
  C      8.531940    3.959910   -0.936550
  C      9.636000    3.158670   -0.534630
  C     10.923230    3.337770   -0.930370
  C     12.002530    2.672650   -0.307320
  C     11.983290    1.418440    0.461680
  N     13.084730    1.160230    1.097420
  C     13.913820    2.218940    0.839360
  C     13.286690    3.141970   -0.116470
  C     14.098060    4.306810   -0.290210
  S     13.806940    5.636030   -1.212730
  C     15.218700    4.087530    0.597700
  C     15.072300    2.797990    1.287660
  N     16.051890    2.644760    2.224550
  C     16.730560    3.751960    2.207520
  C     16.261330    4.730630    1.217960
  C     16.842810    6.004800    0.966440
  C     17.402600    6.818610    1.892540
  C     18.355900    7.895480    1.502320
  O     18.524940    8.328410    0.384380
  C     19.050820    8.256870    2.750340
  C     18.466090    7.583400    3.824630
  C     17.345310    6.786740    3.340020
  C     16.306880    6.306830    4.090810
  C     15.115630    5.784150    3.545210
  N     14.094780    5.420270    3.166240
  C     16.251880    6.381950    5.498910
  N     16.173350    6.408840    6.643100
  C     18.952180    7.760310    5.126360
  C     20.007350    8.612070    5.324990
  C     20.613520    9.317740    4.262440
  C     20.131690    9.141350    2.932350
  C     20.738160    9.849150    1.874610
  C     21.780230   10.698930    2.124930
  C     22.259450   10.875910    3.432940
  C     21.690390   10.201440    4.478370
  H     12.064180    7.397210    0.463240
  H     14.274410    8.435430    0.243510
  H     14.267880    9.020980    5.744150
  H     16.438600   10.157100    5.443410
  H     17.346420   10.522540    3.184190
  H     16.150500    9.668240    1.208130
  H     10.186280    6.590520    6.373250
  H      7.842770    5.572140    7.129420
  H      4.862430    2.843850    0.931760
  H      4.905340    5.396550    0.422600
  H      4.326180    4.736910   -1.110810
  H      4.959850    6.382730   -1.041540
  H      6.781990    5.931500   -2.723990
  H      8.775510    5.471960   -4.026620
  H      9.859260    4.177000   -3.491010
  H     10.049220    5.814260   -2.853090
  H      9.414210    2.401060    0.205620
  H     11.184020    4.156420   -1.582460
  H     11.160670    0.724670    0.497820
  H     17.591850    3.881520    2.840620
  H     16.910170    6.321440   -0.069530
  H     18.512520    7.230780    5.955480
  H     20.396930    8.757520    6.322130
  H     20.362960    9.704590    0.873780
  H     22.243660   11.241400    1.314590
  H     23.084170   11.550910    3.607260
  H     22.057320   10.336180    5.485580

 Total Charge           Charge          ....    0
 Multiplicity           Mult            ....    1
 Number of Electrons    NEL             ....  498
 Basis Dimension        Dim             .... 1165

ORBITAL ENERGIES
----------------

  NO   OCC          E(Eh)            E(eV)
   0   2.0000     -88.904910     -2419.2256
   1   2.0000     -88.895658     -2418.9738
   2   2.0000     -19.224261      -523.1187
   3   2.0000     -19.214915      -522.8644
   4   2.0000     -14.469703      -393.7406
   5   2.0000     -14.418319      -392.3424
   6   2.0000     -14.418196      -392.3391
   7   2.0000     -14.418102      -392.3365
   8   2.0000     -14.416440      -392.2913
   9   2.0000     -14.415359      -392.2619
  10   2.0000     -14.413087      -392.2000
  11   2.0000     -14.411193      -392.1485
  12   2.0000     -14.408299      -392.0698
  13   2.0000     -10.374144      -282.2948
  14   2.0000     -10.363774      -282.0126
  15   2.0000     -10.350370      -281.6479
  16   2.0000     -10.344423      -281.4860
  17   2.0000     -10.342772      -281.4411
  18   2.0000     -10.340499      -281.3793
  19   2.0000     -10.337948      -281.3099
  20   2.0000     -10.334451      -281.2147
  21   2.0000     -10.332972      -281.1745
  22   2.0000     -10.331848      -281.1439
  23   2.0000     -10.330797      -281.1153
  24   2.0000     -10.329295      -281.0744
  25   2.0000     -10.327851      -281.0351
  26   2.0000     -10.326015      -280.9852
  27   2.0000     -10.325145      -280.9615
  28   2.0000     -10.320466      -280.8342
  29   2.0000     -10.320456      -280.8339
  30   2.0000     -10.320156      -280.8257
  31   2.0000     -10.320049      -280.8228
  32   2.0000     -10.317379      -280.7502
  33   2.0000     -10.316496      -280.7261
  34   2.0000     -10.313496      -280.6445
  35   2.0000     -10.311676      -280.5950
  36   2.0000     -10.310556      -280.5645
  37   2.0000     -10.309747      -280.5425
  38   2.0000     -10.305858      -280.4367
  39   2.0000     -10.304491      -280.3994
  40   2.0000     -10.303935      -280.3843
  41   2.0000     -10.302543      -280.3464
  42   2.0000     -10.301851      -280.3276
  43   2.0000     -10.301698      -280.3234
  44   2.0000     -10.300696      -280.2962
  45   2.0000     -10.300571      -280.2928
  46   2.0000     -10.300264      -280.2844
  47   2.0000     -10.299665      -280.2681
  48   2.0000     -10.298599      -280.2391
  49   2.0000     -10.297574      -280.2112
  50   2.0000     -10.295837      -280.1640
  51   2.0000     -10.294616      -280.1307
  52   2.0000     -10.292780      -280.0808
  53   2.0000     -10.291199      -280.0378
  54   2.0000     -10.289559      -279.9931
  55   2.0000     -10.288608      -279.9673
  56   2.0000     -10.288084      -279.9530
  57   2.0000     -10.288057      -279.9523
  58   2.0000     -10.287973      -279.9500
  59   2.0000     -10.286546      -279.9111
  60   2.0000     -10.286361      -279.9061
  61   2.0000     -10.282732      -279.8074
  62   2.0000     -10.282583      -279.8033
  63   2.0000     -10.282510      -279.8013
  64   2.0000     -10.280621      -279.7499
  65   2.0000     -10.279214      -279.7116
  66   2.0000     -10.278046      -279.6799
  67   2.0000     -10.277003      -279.6515
  68   2.0000     -10.274478      -279.5828
  69   2.0000     -10.273240      -279.5491
  70   2.0000     -10.270665      -279.4790
  71   2.0000     -10.264482      -279.3107
  72   2.0000     -10.264293      -279.3056
  73   2.0000      -7.999782      -217.6851
  74   2.0000      -7.990899      -217.4434
  75   2.0000      -5.968702      -162.4166
  76   2.0000      -5.968407      -162.4086
  77   2.0000      -5.959721      -162.1723
  78   2.0000      -5.959131      -162.1562
  79   2.0000      -5.958817      -162.1477
  80   2.0000      -5.950590      -161.9238
  81   2.0000      -1.138953       -30.9925
  82   2.0000      -1.129907       -30.7463
  83   2.0000      -1.088141       -29.6098
  84   2.0000      -1.082637       -29.4601
  85   2.0000      -1.077607       -29.3232
  86   2.0000      -1.062377       -28.9087
  87   2.0000      -1.058640       -28.8071
  88   2.0000      -1.023081       -27.8395
  89   2.0000      -1.018441       -27.7132
  90   2.0000      -1.003536       -27.3076
  91   2.0000      -0.997969       -27.1561
  92   2.0000      -0.995516       -27.0894
  93   2.0000      -0.994005       -27.0482
  94   2.0000      -0.973899       -26.5011
  95   2.0000      -0.965693       -26.2778
  96   2.0000      -0.962426       -26.1890
  97   2.0000      -0.956721       -26.0337
  98   2.0000      -0.929631       -25.2966
  99   2.0000      -0.921249       -25.0685
 100   2.0000      -0.920425       -25.0460
 101   2.0000      -0.911877       -24.8134
 102   2.0000      -0.908779       -24.7291
 103   2.0000      -0.903500       -24.5855
 104   2.0000      -0.900165       -24.4947
 105   2.0000      -0.892259       -24.2796
 106   2.0000      -0.880991       -23.9730
 107   2.0000      -0.867998       -23.6194
 108   2.0000      -0.863893       -23.5077
 109   2.0000      -0.857147       -23.3242
 110   2.0000      -0.852556       -23.1992
 111   2.0000      -0.849306       -23.1108
 112   2.0000      -0.844526       -22.9807
 113   2.0000      -0.840439       -22.8695
 114   2.0000      -0.829508       -22.5720
 115   2.0000      -0.823739       -22.4151
 116   2.0000      -0.822406       -22.3788
 117   2.0000      -0.816035       -22.2054
 118   2.0000      -0.785842       -21.3839
 119   2.0000      -0.784004       -21.3338
 120   2.0000      -0.775142       -21.0927
 121   2.0000      -0.772420       -21.0186
 122   2.0000      -0.762877       -20.7589
 123   2.0000      -0.759390       -20.6641
 124   2.0000      -0.745235       -20.2789
 125   2.0000      -0.740437       -20.1483
 126   2.0000      -0.728155       -19.8141
 127   2.0000      -0.718823       -19.5602
 128   2.0000      -0.713909       -19.4265
 129   2.0000      -0.710576       -19.3358
 130   2.0000      -0.710327       -19.3290
 131   2.0000      -0.705806       -19.2060
 132   2.0000      -0.699795       -19.0424
 133   2.0000      -0.696795       -18.9608
 134   2.0000      -0.690941       -18.8015
 135   2.0000      -0.687949       -18.7200
 136   2.0000      -0.682635       -18.5754
 137   2.0000      -0.679499       -18.4901
 138   2.0000      -0.672129       -18.2896
 139   2.0000      -0.648120       -17.6363
 140   2.0000      -0.645721       -17.5710
 141   2.0000      -0.642002       -17.4698
 142   2.0000      -0.634375       -17.2622
 143   2.0000      -0.633088       -17.2272
 144   2.0000      -0.631057       -17.1719
 145   2.0000      -0.625114       -17.0102
 146   2.0000      -0.610336       -16.6081
 147   2.0000      -0.602155       -16.3855
 148   2.0000      -0.599601       -16.3160
 149   2.0000      -0.593824       -16.1588
 150   2.0000      -0.592810       -16.1312
 151   2.0000      -0.590265       -16.0619
 152   2.0000      -0.583887       -15.8884
 153   2.0000      -0.582913       -15.8619
 154   2.0000      -0.578832       -15.7508
 155   2.0000      -0.573773       -15.6132
 156   2.0000      -0.571890       -15.5619
 157   2.0000      -0.570417       -15.5218
 158   2.0000      -0.564704       -15.3664
 159   2.0000      -0.557203       -15.1623
 160   2.0000      -0.551545       -15.0083
 161   2.0000      -0.549432       -14.9508
 162   2.0000      -0.548972       -14.9383
 163   2.0000      -0.545766       -14.8511
 164   2.0000      -0.543510       -14.7897
 165   2.0000      -0.540925       -14.7193
 166   2.0000      -0.540800       -14.7159
 167   2.0000      -0.536932       -14.6107
 168   2.0000      -0.533686       -14.5223
 169   2.0000      -0.529654       -14.4126
 170   2.0000      -0.528780       -14.3888
 171   2.0000      -0.519926       -14.1479
 172   2.0000      -0.519171       -14.1274
 173   2.0000      -0.517789       -14.0897
 174   2.0000      -0.512324       -13.9411
 175   2.0000      -0.512163       -13.9367
 176   2.0000      -0.511421       -13.9165
 177   2.0000      -0.509832       -13.8732
 178   2.0000      -0.506689       -13.7877
 179   2.0000      -0.505353       -13.7514
 180   2.0000      -0.502037       -13.6611
 181   2.0000      -0.499947       -13.6042
 182   2.0000      -0.498854       -13.5745
 183   2.0000      -0.496702       -13.5160
 184   2.0000      -0.493441       -13.4272
 185   2.0000      -0.492027       -13.3887
 186   2.0000      -0.490184       -13.3386
 187   2.0000      -0.488101       -13.2819
 188   2.0000      -0.485178       -13.2024
 189   2.0000      -0.482051       -13.1173
 190   2.0000      -0.479667       -13.0524
 191   2.0000      -0.479623       -13.0512
 192   2.0000      -0.476042       -12.9538
 193   2.0000      -0.474448       -12.9104
 194   2.0000      -0.471066       -12.8184
 195   2.0000      -0.470432       -12.8011
 196   2.0000      -0.468020       -12.7355
 197   2.0000      -0.465286       -12.6611
 198   2.0000      -0.460283       -12.5249
 199   2.0000      -0.459316       -12.4986
 200   2.0000      -0.454776       -12.3751
 201   2.0000      -0.453039       -12.3278
 202   2.0000      -0.449059       -12.2195
 203   2.0000      -0.448037       -12.1917
 204   2.0000      -0.445224       -12.1152
 205   2.0000      -0.443605       -12.0711
 206   2.0000      -0.442964       -12.0537
 207   2.0000      -0.440911       -11.9978
 208   2.0000      -0.437742       -11.9116
 209   2.0000      -0.437443       -11.9034
 210   2.0000      -0.435089       -11.8394
 211   2.0000      -0.434814       -11.8319
 212   2.0000      -0.432036       -11.7563
 213   2.0000      -0.429080       -11.6759
 214   2.0000      -0.426881       -11.6160
 215   2.0000      -0.424144       -11.5415
 216   2.0000      -0.423928       -11.5357
 217   2.0000      -0.422068       -11.4851
 218   2.0000      -0.417779       -11.3683
 219   2.0000      -0.415479       -11.3057
 220   2.0000      -0.412137       -11.2148
 221   2.0000      -0.408905       -11.1269
 222   2.0000      -0.404018       -10.9939
 223   2.0000      -0.402324       -10.9478
 224   2.0000      -0.395683       -10.7671
 225   2.0000      -0.380010       -10.3406
 226   2.0000      -0.372266       -10.1299
 227   2.0000      -0.363436        -9.8896
 228   2.0000      -0.360594        -9.8123
 229   2.0000      -0.357025        -9.7151
 230   2.0000      -0.352825        -9.6008
 231   2.0000      -0.350054        -9.5254
 232   2.0000      -0.349538        -9.5114
 233   2.0000      -0.346727        -9.4349
 234   2.0000      -0.339036        -9.2256
 235   2.0000      -0.332102        -9.0369
 236   2.0000      -0.329314        -8.9611
 237   2.0000      -0.325936        -8.8692
 238   2.0000      -0.320066        -8.7094
 239   2.0000      -0.311793        -8.4843
 240   2.0000      -0.307547        -8.3688
 241   2.0000      -0.301442        -8.2026
 242   2.0000      -0.298039        -8.1101
 243   2.0000      -0.294940        -8.0257
 244   2.0000      -0.286906        -7.8071
 245   2.0000      -0.282999        -7.7008
 246   2.0000      -0.278839        -7.5876
 247   2.0000      -0.270955        -7.3731
 248   2.0000      -0.246851        -6.7171
 249   0.0000      -0.109476        -2.9790
 250   0.0000      -0.104951        -2.8559
 251   0.0000      -0.088653        -2.4124
 252   0.0000      -0.083983        -2.2853
 253   0.0000      -0.078538        -2.1371

MULLIKEN ATOMIC CHARGES
-----------------------
   0 C :   -0.073719
   1 C :    0.104415
   2 O :   -0.142438
   3 C :    0.013497
   4 C :    0.033918
   5 C :    0.304657
   6 C :   -0.410739
   7 C :   -0.194208
   8 N :    0.182473
   9 C :   -0.150880
  10 N :    0.157398
  11 C :   -0.021592
  12 C :    0.011967
  13 C :    0.082271
  14 C :    0.019762
  15 C :   -0.026827
  16 C :    0.029640
  17 C :    0.040412
  18 C :   -0.037495
  19 C :    0.004599
  20 C :   -0.000649
  21 C :    0.074381
  22 N :   -0.035718
  23 C :    0.056557
  24 C :   -0.001372
  25 C :   -0.062073
  26 S :   -0.066290
  27 C :    0.003378
  28 C :    0.005108
  29 N :   -0.036429
  30 C :    0.045716
  31 C :   -0.077312
  32 C :    0.059070
  33 C :   -0.155630
  34 C :    0.116009
  35 N :   -0.022009
  36 C :   -0.141874
  37 C :    0.138266
  38 C :    0.042916
  39 C :    0.011892
  40 C :   -0.036749
  41 C :    0.007991
  42 C :    0.058525
  43 N :   -0.028062
  44 C :    0.021617
  45 C :   -0.011196
  46 C :    0.008519
  47 S :   -0.151594
  48 C :    0.049368
  49 C :    0.012518
  50 N :   -0.017648
  51 C :    0.054688
  52 C :   -0.084438
  53 C :    0.022692
  54 C :   -0.104123
  55 C :    0.108448
  56 O :   -0.145653
  57 C :   -0.006838
  58 C :    0.009564
  59 C :    0.271756
  60 C :   -0.347504
  61 C :   -0.166012
  62 N :    0.179235
  63 C :   -0.193111
  64 N :    0.175498
  65 C :   -0.025258
  66 C :    0.003000
  67 C :    0.078385
  68 C :    0.031561
  69 C :   -0.025184
  70 C :    0.037668
  71 C :    0.037568
  72 C :   -0.020353
  73 H :   -0.004337
  74 H :   -0.013835
  75 H :    0.005867
  76 H :   -0.008739
  77 H :   -0.003617
  78 H :   -0.007582
  79 H :    0.021857
  80 H :    0.010067
  81 H :    0.008568
  82 H :    0.049844
  83 H :    0.035587
  84 H :    0.017022
  85 H :    0.120793
  86 H :   -0.004440
  87 H :    0.034506
  88 H :    0.062182
  89 H :   -0.010208
  90 H :   -0.016967
  91 H :    0.015789
  92 H :    0.010264
  93 H :    0.031438
  94 H :    0.000533
  95 H :   -0.012070
  96 H :    0.000096
  97 H :   -0.004675
  98 H :   -0.003999
  99 H :   -0.019876
Sum of atomic charges:    0.0000000

LOEWDIN ATOMIC CHARGES
----------------------
   0 C :   -0.056747
   1 C :    0.091606
   2 O :   -0.133276
   3 C :   -0.031589
   4 C :    0.009307
   5 C :    0.069012
   6 C :   -0.144799
   7 C :   -0.010940
   8 N :   -0.053854
   9 C :   -0.014495
  10 N :   -0.061834
  11 C :   -0.010272
  12 C :    0.023169
  13 C :   -0.012438
  14 C :   -0.007459
  15 C :    0.000171
  16 C :   -0.017749
  17 C :   -0.018825
  18 C :   -0.016779
  19 C :    0.050073
  20 C :   -0.058659
  21 C :    0.088785
  22 N :   -0.074140
  23 C :    0.032466
  24 C :    0.000296
  25 C :   -0.150873
  26 S :    0.157528
  27 C :   -0.045071
  28 C :    0.051237
  29 N :   -0.072428
  30 C :    0.084309
  31 C :   -0.021528
  32 C :   -0.083131
  33 C :   -0.000494
  34 C :   -0.054127
  35 N :    0.108609
  36 C :    0.025165
  37 C :   -0.053392
  38 C :   -0.081240
  39 C :    0.029767
  40 C :   -0.061306
  41 C :   -0.016217
  42 C :    0.096299
  43 N :   -0.073504
  44 C :    0.062540
  45 C :   -0.069011
  46 C :   -0.132780
  47 S :    0.035148
  48 C :   -0.000348
  49 C :    0.017624
  50 N :   -0.071670
  51 C :    0.068249
  52 C :   -0.064203
  53 C :    0.068817
  54 C :   -0.073815
  55 C :    0.087621
  56 O :   -0.139259
  57 C :   -0.034754
  58 C :   -0.001537
  59 C :    0.067565
  60 C :   -0.123626
  61 C :   -0.012625
  62 N :   -0.040926
  63 C :   -0.018139
  64 N :   -0.043186
  65 C :   -0.015977
  66 C :    0.018055
  67 C :   -0.010823
  68 C :   -0.005786
  69 C :   -0.004369
  70 C :   -0.010833
  71 C :   -0.011875
  72 C :   -0.011802
  73 H :    0.031499
  74 H :    0.032100
  75 H :    0.037546
  76 H :    0.032044
  77 H :    0.031894
  78 H :    0.032291
  79 H :    0.048777
  80 H :    0.027230
  81 H :    0.025486
  82 H :    0.046840
  83 H :    0.037980
  84 H :    0.036684
  85 H :    0.092069
  86 H :    0.029698
  87 H :    0.042193
  88 H :    0.047539
  89 H :    0.024767
  90 H :    0.026384
  91 H :    0.025887
  92 H :    0.022596
  93 H :    0.050643
  94 H :    0.040095
  95 H :    0.036174
  96 H :    0.035427
  97 H :    0.033425
  98 H :    0.032895
  99 H :    0.030932

  Mayer bond orders larger than 0.100000
B(  0-C ,  1-C ) :   0.9415 B(  0-C ,  5-C ) :   1.0224 B(  0-C , 19-C ) :   1.7188
B(  1-C ,  2-O ) :   2.1991 B(  1-C ,  3-C ) :   0.9443 B(  3-C ,  4-C ) :   1.4137
B(  3-C , 14-C ) :   1.2280 B(  4-C ,  5-C ) :   1.0180 B(  4-C , 11-C ) :   1.2582
B(  5-C ,  6-C ) :   1.5937 B(  6-C ,  7-C ) :   1.1912 B(  6-C ,  9-C ) :   1.1329
B(  7-C ,  8-N ) :   2.9915 B(  9-C , 10-N ) :   2.9626 B( 11-C , 12-C ) :   1.4597
B( 11-C , 73-H ) :   0.9784 B( 12-C , 13-C ) :   1.2178 B( 12-C , 74-H ) :   0.9923
B( 13-C , 14-C ) :   1.2462 B( 13-C , 18-C ) :   1.2311 B( 14-C , 15-C ) :   1.2764
B( 15-C , 16-C ) :   1.4569 B( 15-C , 75-H ) :   0.9876 B( 16-C , 17-C ) :   1.2455
B( 16-C , 76-H ) :   0.9919 B( 17-C , 18-C ) :   1.4953 B( 17-C , 77-H ) :   0.9774
B( 18-C , 78-H ) :   0.9878 B( 19-C , 20-C ) :   1.0806 B( 19-C , 79-H ) :   0.9319
B( 20-C , 21-C ) :   1.0386 B( 20-C , 24-C ) :   1.5213 B( 21-C , 22-N ) :   1.7364
B( 21-C , 80-H ) :   0.9937 B( 22-N , 23-C ) :   1.2907 B( 23-C , 24-C ) :   1.0362
B( 23-C , 28-C ) :   1.5051 B( 24-C , 25-C ) :   1.0326 B( 25-C , 26-S ) :   1.7192
B( 25-C , 27-C ) :   1.0002 B( 27-C , 28-C ) :   1.0192 B( 27-C , 31-C ) :   1.6170
B( 28-C , 29-N ) :   1.2839 B( 29-N , 30-C ) :   1.7449 B( 30-C , 31-C ) :   1.0408
B( 30-C , 81-H ) :   0.9957 B( 31-C , 32-C ) :   1.0066 B( 32-C , 33-C ) :   1.4731
B( 32-C , 38-C ) :   1.2197 B( 33-C , 34-C ) :   1.1055 B( 33-C , 35-N ) :   1.2264
B( 34-C , 82-H ) :   0.9382 B( 34-C , 83-H ) :   0.9420 B( 34-C , 84-H ) :   0.9369
B( 35-N , 36-C ) :   1.2477 B( 35-N , 85-H ) :   0.9325 B( 36-C , 37-C ) :   1.1242
B( 36-C , 38-C ) :   1.4075 B( 37-C , 86-H ) :   0.9300 B( 37-C , 87-H ) :   0.9346
B( 37-C , 88-H ) :   0.9225 B( 38-C , 39-C ) :   1.1605 B( 39-C , 40-C ) :   1.5910
B( 39-C , 89-H ) :   0.9553 B( 40-C , 41-C ) :   1.1499 B( 40-C , 90-H ) :   0.9662
B( 41-C , 42-C ) :   1.0025 B( 41-C , 45-C ) :   1.4876 B( 42-C , 43-N ) :   1.7455
B( 42-C , 91-H ) :   0.9876 B( 43-N , 44-C ) :   1.2558 B( 44-C , 45-C ) :   1.0596
B( 44-C , 49-C ) :   1.5077 B( 45-C , 46-C ) :   1.0679 B( 46-C , 47-S ) :   1.6584
B( 46-C , 48-C ) :   1.0160 B( 48-C , 49-C ) :   1.0751 B( 48-C , 52-C ) :   1.5557
B( 49-C , 50-N ) :   1.2698 B( 50-N , 51-C ) :   1.7446 B( 51-C , 52-C ) :   1.0296
B( 51-C , 92-H ) :   0.9909 B( 52-C , 53-C ) :   1.0262 B( 53-C , 54-C ) :   1.7059
B( 53-C , 93-H ) :   0.9562 B( 54-C , 55-C ) :   0.9430 B( 54-C , 59-C ) :   1.0136
B( 55-C , 56-O ) :   2.1943 B( 55-C , 57-C ) :   0.9371 B( 57-C , 58-C ) :   1.4078
B( 57-C , 68-C ) :   1.2328 B( 58-C , 59-C ) :   1.0013 B( 58-C , 65-C ) :   1.2641
B( 59-C , 60-C ) :   1.6683 B( 60-C , 61-C ) :   1.1572 B( 60-C , 63-C ) :   1.1385
B( 61-C , 62-N ) :   2.9669 B( 63-C , 64-N ) :   2.9851 B( 65-C , 66-C ) :   1.4612
B( 65-C , 94-H ) :   0.9884 B( 66-C , 67-C ) :   1.2209 B( 66-C , 95-H ) :   0.9950
B( 67-C , 68-C ) :   1.2407 B( 67-C , 72-C ) :   1.2394 B( 68-C , 69-C ) :   1.2720
B( 69-C , 70-C ) :   1.4719 B( 69-C , 96-H ) :   0.9883 B( 70-C , 71-C ) :   1.2554
B( 70-C , 97-H ) :   0.9874 B( 71-C , 72-C ) :   1.4931 B( 71-C , 98-H ) :   0.9898
B( 72-C , 99-H ) :   0.9979

-----------------------------------------------------------------------------
         ABSORPTION SPECTRUM VIA TRANSITION ELECTRIC DIPOLE MOMENTS
-----------------------------------------------------------------------------
State   Energy  Wavelength   fosc         T2         TX        TY        TZ
        (cm-1)    (nm)                  (au**2)     (au)      (au)      (au)
-----------------------------------------------------------------------------
   0   11904.2    840.0   0.054205270   1.49905   1.17413  -0.08287   0.33704
   1   12781.8    782.4   0.015733524   0.40524   0.58514   0.16519   0.18858
   2   15626.9    639.9   0.014498731   0.30545   0.32402   0.13059   0.42826
   3   16147.8    619.3   0.017282569   0.35235   0.47262  -0.00739  -0.35905
   4   16300.0    613.5   0.015287467   0.30876  -0.19799  -0.15522  -0.49545
   5   17231.0    580.3   0.000525322   0.01004   0.02635   0.09635  -0.00769
   6   18048.4    554.1   0.144786795   2.64099  -1.61469   0.04913  -0.17705
   7   19543.6    511.7   0.003298943   0.05557  -0.09916   0.14720   0.15514
   8   19805.9    504.9   0.063917768   1.06243  -0.97408  -0.16817  -0.29211
   9   20252.0    493.8   0.015837969   0.25746   0.30370   0.06913   0.40056
  10   20809.8    480.5   0.005501140   0.08703   0.28112  -0.08112   0.03764
  11   21088.7    474.2   0.028313620   0.44200   0.63016   0.02455   0.21046
  12   21405.8    467.2   0.031444471   0.48360  -0.67296  -0.09888  -0.14476
  13   21896.4    456.7   0.006769709   0.10178  -0.21497   0.08984  -0.21794
  14   22339.6    447.6   0.051893351   0.76474  -0.02921  -0.03552   0.87328
  15   22593.6    442.6   0.020735155   0.30213   0.18116  -0.51495   0.06437
  16   22901.3    436.7   0.043342004   0.62305   0.14635  -0.60689  -0.48303
  17   23217.7    430.7   0.116287166   1.64888  -0.86783  -0.77783  -0.53921
  18   24061.1    415.6   0.064627026   0.88425   0.93474   0.03211  -0.09735
  19   24338.5    410.9   0.040128806   0.54280  -0.62334  -0.38125  -0.09431
  20   25021.3    399.7   0.008467438   0.11141   0.18410  -0.02889   0.27692
  21   25149.9    397.6   0.039366985   0.51531  -0.53457  -0.44690  -0.17271
  22   25357.2    394.4   0.421915234   5.47771   1.84005   1.26193   0.70672
  23   25620.1    390.3   0.037778762   0.48545   0.16049   0.56312   0.37760
  24   25700.4    389.1   0.049444325   0.63336   0.53758   0.28153   0.51489
  25   25789.5    387.8   0.032679615   0.41717  -0.57765   0.08486   0.27619
  26   25949.2    385.4   0.008198787   0.10402   0.08470   0.29089  -0.11055
  27   26108.0    383.0   0.009517050   0.12001   0.23322   0.04219   0.25266
  28   26474.7    377.7   0.044120424   0.54864  -0.26508  -0.69021  -0.04450
  29   26729.3    374.1   0.037047366   0.45629   0.23035   0.19287  -0.60501
  30   26800.3    373.1   0.015762999   0.19363  -0.41988   0.07594  -0.10755
  31   26963.7    370.9   0.294856663   3.60004  -1.52556  -0.58727  -0.96323
  32   27076.2    369.3   0.055742436   0.67776  -0.01614  -0.80790   0.15745
  33   27265.7    366.8   0.001867995   0.02255   0.07758  -0.12841   0.00686
  34   27495.9    363.7   0.032000647   0.38315   0.20408   0.01958   0.58405
  35   27545.0    363.0   0.013883875   0.16594  -0.20667   0.08003   0.34179
  36   27662.8    361.5   0.009483724   0.11286  -0.25368  -0.09177  -0.20022
  37   27800.2    359.7   0.085324059   1.01041   0.82017   0.34743   0.46586
  38   27941.7    357.9   0.013424996   0.15817  -0.12400  -0.30321  -0.22553
  39   28127.6    355.5   0.002162970   0.02532   0.12349   0.01290  -0.09950
  40   28332.0    353.0   0.049475808   0.57490  -0.31977  -0.34889  -0.59239
  41   28696.7    348.5   0.003827691   0.04391   0.05844  -0.13837  -0.14612
  42   28897.9    346.0   0.003949527   0.04499  -0.04719   0.15414  -0.13787
  43   29018.7    344.6   0.026459117   0.30017   0.27522   0.13346  -0.45455
  44   29101.5    343.6   0.006568414   0.07431  -0.25773  -0.07704  -0.04409
  45   29334.7    340.9   0.038721077   0.43455  -0.48211  -0.33387   0.30109
  46   29401.4    340.1   0.027941032   0.31286  -0.10829   0.28834  -0.46690
  47   29524.8    338.7   0.019633315   0.21892   0.38006   0.10237  -0.25297
  48   29828.4    335.3   0.001772012   0.01956   0.04682  -0.09523  -0.09108
  49   30151.1    331.7   0.044476309   0.48563   0.57926   0.36126   0.13990
  50   30582.2    327.0   0.005841812   0.06289   0.22741  -0.00903   0.10531
  51   30683.0    325.9   0.063180321   0.67789  -0.59964  -0.47361  -0.30662
  52   30756.9    325.1   0.023827900   0.25505   0.15242   0.45648   0.15309
  53   30919.5    323.4   0.013619822   0.14502  -0.36144   0.11971  -0.00668
  54   31137.8    321.2   0.008367195   0.08846   0.10992  -0.15753  -0.22708
  55   31203.5    320.5   0.063428625   0.66920   0.57268   0.03597   0.58305
  56   31297.6    319.5   0.092499984   0.97299   0.89753   0.33342   0.23718
  57   31407.6    318.4   0.130453322   1.36740  -1.03972  -0.43580  -0.31057
  58   31520.0    317.3   0.010631831   0.11104  -0.11151   0.31400   0.00410
  59   31622.6    316.2   0.025689842   0.26745   0.45205   0.24030  -0.07318
  60   31912.4    313.4   0.145633591   1.50237   1.02545   0.47759   0.47194
  61   31972.2    312.8   0.010134589   0.10435   0.14355  -0.26918   0.10624
  62   32055.5    312.0   0.242894636   2.49454  -1.41099  -0.69961   0.11908
  63   32172.2    310.8   0.040228616   0.41165   0.45638   0.40798  -0.19215
  64   32321.1    309.4   0.018399410   0.18741  -0.18279  -0.26927  -0.28547
  65   32668.6    306.1   0.108172896   1.09009   0.84377   0.57960  -0.20543
  66   32784.3    305.0   0.095677036   0.96077  -0.15299  -0.15756  -0.95527
  67   32915.3    303.8   0.425421840   4.25498  -1.77392  -0.94842  -0.45682
  68   33072.9    302.4   0.036839886   0.36671   0.41476   0.43285   0.08559
  69   33304.3    300.3   0.025169828   0.24880   0.12124   0.09981  -0.47344
  70   33433.7    299.1   0.245052979   2.41297   1.10743   1.01407   0.39779
  71   33702.4    296.7   0.100813578   0.98477  -0.73410  -0.51730   0.42220
  72   34001.2    294.1   0.045622200   0.44173   0.48389   0.07112   0.45002
  73   34121.7    293.1   0.063846366   0.61600   0.61090   0.43275   0.23566
  74   34190.8    292.5   0.028668850   0.27604   0.24150  -0.45481   0.10428
  75   34315.0    291.4   0.086849221   0.83322  -0.86198  -0.28316   0.10011
  76   34415.0    290.6   0.023511944   0.22491   0.41496   0.21456   0.08178
  77   34745.8    287.8   0.002108928   0.01998  -0.06208   0.12071   0.03947
  78   34828.9    287.1   0.110903054   1.04828  -0.82307   0.00302   0.60896
  79   34990.0    285.8   0.182798294   1.71990   0.87001   0.95941  -0.20617
  80   35161.2    284.4   0.339576431   3.17943  -1.62462  -0.69383  -0.24219
  81   35317.9    283.1   0.020077018   0.18715  -0.30881   0.06314  -0.29631
  82   35360.3    282.8   0.041883048   0.38994   0.51490   0.27676   0.21960
  83   35486.8    281.8   0.039183221   0.36350   0.41696  -0.18133  -0.39594
  84   35527.3    281.5   0.037672146   0.34909   0.42883   0.36069  -0.18732
  85   35802.2    279.3   0.088455672   0.81338   0.56077   0.38354  -0.59313
  86   36041.5    277.5   0.009440911   0.08624  -0.18404  -0.09274  -0.20920
  87   36285.1    275.6   0.078519541   0.71240  -0.35630  -0.39645  -0.65443
  88   36337.1    275.2   0.028455107   0.25780   0.06236   0.26588  -0.42804
  89   36407.0    274.7   0.026337912   0.23816  -0.41999  -0.11598   0.21981
  90   36447.9    274.4   0.013549969   0.12239   0.12881   0.31592  -0.07742
  91   36595.0    273.3   0.017627974   0.15858   0.36250  -0.15574   0.05405
  92   37011.4    270.2   0.309656374   2.75436  -1.23578  -1.10571   0.06778
  93   37049.9    269.9   0.015428482   0.13709  -0.16034  -0.32691  -0.06720
  94   37137.2    269.3   0.035069662   0.31088   0.30753   0.46217  -0.05204
  95   37279.6    268.2   0.027474427   0.24262  -0.42950  -0.21227  -0.11443
  96   37428.1    267.2   0.005601745   0.04927   0.08044   0.11283   0.17341
  97   37599.4    266.0   0.014734458   0.12901  -0.05686  -0.31224  -0.16818
  98   37860.2    264.1   0.045459908   0.39529   0.06973   0.53652  -0.32029
  99   37947.3    263.5   0.007478430   0.06488   0.24315  -0.01126   0.07505
 100   38068.7    262.7   0.058312281   0.50427   0.08678   0.57760  -0.40389
 101   38220.9    261.6   0.018935478   0.16310   0.39393  -0.03962   0.07967
 102   38266.7    261.3   0.098083761   0.84382  -0.89855  -0.17553  -0.07500
 103   38509.1    259.7   0.095190269   0.81378  -0.70341  -0.51129  -0.23994
 104   38647.4    258.7   0.030364769   0.25866   0.12246  -0.23747  -0.43274
 105   38846.6    257.4   0.017419827   0.14763   0.31286  -0.14699   0.16775
 106   38987.5    256.5   0.024749289   0.20898  -0.37635  -0.10642   0.23668
 107   39137.1    255.5   0.024405375   0.20529  -0.03066  -0.08743   0.44352
 108   39323.1    254.3   0.076425875   0.63984  -0.74044  -0.24759   0.17405
 109   39338.6    254.2   0.066406978   0.55574  -0.49028  -0.19517   0.52657
 110   39790.2    251.3   0.103011825   0.85229  -0.89011   0.16703   0.17916
 111   39799.8    251.3   0.011446246   0.09468   0.15768   0.02640   0.26291
 112   39829.7    251.1   0.116401429   0.96211  -0.01244   0.32422   0.92566
 113   40118.1    249.3   0.121708187   0.99875   0.57895  -0.29387   0.75974
 114   40307.2    248.1   0.006208758   0.05071  -0.20999  -0.02047  -0.07870

FINAL SINGLE POINT ENERGY     -3737.993285866841

DIPOLE MOMENT
-------------
                                X             Y             Z
Electronic contribution:     -5.33769     -17.59695      14.73400
Nuclear contribution   :      6.37310      19.44620     -16.78207
                        -----------------------------------------
Total Dipole Moment    :      1.03541       1.84924      -2.04806
                        -----------------------------------------
Magnitude (a.u.)       :      2.94726
Magnitude (Debye)      :      7.49134

Rotational constants in cm-1:     0.002178     0.000672     0.000616
Rotational constants in MHz :    65.285861    20.139060    18.460197

                             ****ORCA TERMINATED NORMALLY****
TOTAL RUN TIME: 0 days 0 hours 13 minutes 27 seconds 399 msec
