                         Program Version 4.2.0 -  RELEASE  -
|  1> # ORCA input file
|  2> # SCF done       -198.935768386608          0.000784529175
|  3> ! CAM-B3LYP def2-SVP def2/J RIJCOSX Grid4 TightSCF
|  4> %maxcore 5000
|  5> %tddft
|  6>     Mode sTDDFT
|  7>     Ethresh 5.0
|  8>     maxcore 5000
|  9> end
| 10>
| 11> %pal
| 12>   nprocs 6
| 13>   end
| 14> * xyz 0 1
| 15>    C      -10.57738        -5.11900         5.60708
| 16>    C       -9.63962        -5.64986         4.76012
| 17>    C       -9.15172        -6.97133         4.84688
| 18>    N       -8.71624        -8.03316         4.86363
| 19>    C       -9.03953        -4.97395         3.67671
| 20>    N       -8.51059        -4.49097         2.77867
| 21>    C      -11.23112        -5.82622         6.69903
| 22>    C      -12.19421        -4.96873         7.28805
| 23>    C      -12.98233        -5.35510         8.34570
| 24>    C      -12.81638        -6.64971         8.84518
| 25>    C      -11.84968        -7.49895         8.25315
| 26>    C      -11.05071        -7.10795         7.18591
| 27>    S      -11.81511        -9.04952         9.03131
| 28>    C      -13.06915        -8.55972        10.11678
| 29>    C      -13.49911        -7.29505         9.91412
| 30>    C      -12.19776        -3.67174         6.59052
| 31>    O      -12.89285        -2.71480         6.85398
| 32>    C      -11.14020        -3.77775         5.54737
| 33>    C      -10.67036        -2.75112         4.79005
| 34>    C      -11.28027        -1.47610         4.59625
| 35>    C      -12.62511        -1.25360         4.47924
| 36>    C      -12.83358         0.09846         4.02176
| 37>    C      -14.08216         0.67097         3.74435
| 38>    N      -15.09623         1.15935         3.51856
| 39>    C      -11.61812         0.71424         3.88793
| 40>    C      -10.58801        -0.20611         4.29230
| 41>    C       -9.25523         0.08292         4.46775
| 42>    C       -8.58414         1.38102         4.16561
| 43>    C       -7.23580         1.14873         4.16378
| 44>    C       -7.00250        -0.21106         4.57035
| 45>    C       -8.20697        -0.83541         4.78863
| 46>    C       -5.73044        -0.77214         4.75097
| 47>    N       -4.68342        -1.21507         4.90800
| 48>    C       -9.21669         2.64468         4.02184
| 49>    C       -8.70415         3.68989         3.31890
| 50>    C       -9.35166         4.93829         3.17503
| 51>    N       -8.87254         5.89690         2.30699
| 52>    C       -9.72670         6.95302         2.30852
| 53>    C       -9.99253         8.18408         1.73344
| 54>    C      -11.19267         8.63604         2.31461
| 55>    N      -11.63411         7.70611         3.23375
| 56>    C      -10.76829         6.66023         3.23722
| 57>    C      -10.53613         5.40668         3.77588
| 58>    C      -11.90868         9.80153         1.96623
| 59>    C      -13.03868        10.25356         2.58094
| 60>    C      -13.80139        11.37874         2.17558
| 61>    C      -14.43370        12.21942         3.05451
| 62>    C      -14.87235        13.38297         2.33988
| 63>    C      -15.49015        14.49155         2.93599
| 64>    N      -15.99355        15.39416         3.43517
| 65>    C      -14.56802        13.24108         1.00493
| 66>    C      -13.99127        11.94948         0.80927
| 67>    C      -13.86808        11.26906        -0.38056
| 68>    C      -14.03250        11.79529        -1.75341
| 69>    C      -13.55981        10.83988        -2.61797
| 70>    C      -13.19887         9.66730        -1.86340
| 71>    C      -13.42599         9.90756        -0.53394
| 72>    C      -12.70606         8.46948        -2.39849
| 73>    N      -12.26834         7.48922        -2.80494
| 74>    C      -14.68685        12.99028        -2.16792
| 75>    C      -14.51796        13.57464        -3.38360
| 76>    C      -15.33367        14.64729        -3.80459
| 77>    C      -15.41206        15.24735        -5.02634
| 78>    C      -14.83927        14.95133        -6.32204
| 79>    C      -14.44886        13.72924        -6.80809
| 80>    C      -13.95102        13.52352        -8.11269
| 81>    N      -13.52253        13.28881        -9.15151
| 82>    C      -14.57489        12.49714        -6.13738
| 83>    N      -14.67379        11.44676        -5.68260
| 84>    C      -14.94996        16.16407        -7.12984
| 85>    C      -15.75953        17.10300        -6.43990
| 86>    C      -16.13147        16.54777        -5.12825
| 87>    O      -16.83888        17.04481        -4.28059
| 88>    C      -16.09160        18.32534        -6.97230
| 89>    C      -15.59461        18.64281        -8.23980
| 90>    C      -14.77065        17.70830        -8.91191
| 91>    C      -14.43924        16.46896        -8.37681
| 92>    S      -14.26131        18.31583       -10.45555
| 93>    C      -15.14293        19.78133       -10.19684
| 94>    C      -15.78828        19.82350        -9.01091
| 95>    H      -13.70698        -4.67760         8.77022
| 96>    H      -10.32680        -7.79048         6.77331
| 97>    H      -13.41266        -9.26104        10.85221
| 98>    H      -14.27165        -6.82139        10.49235
| 99>    H       -9.76684        -2.91625         4.21863
|100>    H      -13.41286        -1.96733         4.62081
|101>    H      -11.47005         1.70563         3.51024
|102>    H       -6.45561         1.86559         3.99108
|103>    H       -8.31971        -1.84334         5.13186
|104>    H      -10.15441         2.78459         4.53681
|105>    H       -7.77957         3.55704         2.77301
|106>    H       -8.05364         5.78829         1.73317
|107>    H       -9.43244         8.71033         0.98725
|108>    H      -12.48965         7.77238         3.75678
|109>    H      -11.12377         4.88366         4.50233
|110>    H      -11.50673        10.35704         1.13013
|111>    H      -13.34356         9.80963         3.52153
|112>    H      -14.50912        12.09582         4.11873
|113>    H      -14.76453        13.97565         0.25150
|114>    H      -13.56508        10.88634        -3.69118
|115>    H      -13.32446         9.18528         0.24993
|116>    H      -15.45104        13.39140        -1.51651
|117>    H      -13.73848        13.22005        -4.03931
|118>    H      -15.97042        15.10026        -3.04937
|119>    H      -16.71799        19.01387        -6.42671
|120>    H      -13.80322        15.79521        -8.92640
|121>    H      -15.12244        20.53287       -10.96198
|122>    H      -16.38522        20.65357        -8.67900
|123> *
|124>
|125>                          ****END OF INPUT****

CARTESIAN COORDINATES (ANGSTROEM)
---------------------------------
  C    -10.577380   -5.119000    5.607080
  C     -9.639620   -5.649860    4.760120
  C     -9.151720   -6.971330    4.846880
  N     -8.716240   -8.033160    4.863630
  C     -9.039530   -4.973950    3.676710
  N     -8.510590   -4.490970    2.778670
  C    -11.231120   -5.826220    6.699030
  C    -12.194210   -4.968730    7.288050
  C    -12.982330   -5.355100    8.345700
  C    -12.816380   -6.649710    8.845180
  C    -11.849680   -7.498950    8.253150
  C    -11.050710   -7.107950    7.185910
  S    -11.815110   -9.049520    9.031310
  C    -13.069150   -8.559720   10.116780
  C    -13.499110   -7.295050    9.914120
  C    -12.197760   -3.671740    6.590520
  O    -12.892850   -2.714800    6.853980
  C    -11.140200   -3.777750    5.547370
  C    -10.670360   -2.751120    4.790050
  C    -11.280270   -1.476100    4.596250
  C    -12.625110   -1.253600    4.479240
  C    -12.833580    0.098460    4.021760
  C    -14.082160    0.670970    3.744350
  N    -15.096230    1.159350    3.518560
  C    -11.618120    0.714240    3.887930
  C    -10.588010   -0.206110    4.292300
  C     -9.255230    0.082920    4.467750
  C     -8.584140    1.381020    4.165610
  C     -7.235800    1.148730    4.163780
  C     -7.002500   -0.211060    4.570350
  C     -8.206970   -0.835410    4.788630
  C     -5.730440   -0.772140    4.750970
  N     -4.683420   -1.215070    4.908000
  C     -9.216690    2.644680    4.021840
  C     -8.704150    3.689890    3.318900
  C     -9.351660    4.938290    3.175030
  N     -8.872540    5.896900    2.306990
  C     -9.726700    6.953020    2.308520
  C     -9.992530    8.184080    1.733440
  C    -11.192670    8.636040    2.314610
  N    -11.634110    7.706110    3.233750
  C    -10.768290    6.660230    3.237220
  C    -10.536130    5.406680    3.775880
  C    -11.908680    9.801530    1.966230
  C    -13.038680   10.253560    2.580940
  C    -13.801390   11.378740    2.175580
  C    -14.433700   12.219420    3.054510
  C    -14.872350   13.382970    2.339880
  C    -15.490150   14.491550    2.935990
  N    -15.993550   15.394160    3.435170
  C    -14.568020   13.241080    1.004930
  C    -13.991270   11.949480    0.809270
  C    -13.868080   11.269060   -0.380560
  C    -14.032500   11.795290   -1.753410
  C    -13.559810   10.839880   -2.617970
  C    -13.198870    9.667300   -1.863400
  C    -13.425990    9.907560   -0.533940
  C    -12.706060    8.469480   -2.398490
  N    -12.268340    7.489220   -2.804940
  C    -14.686850   12.990280   -2.167920
  C    -14.517960   13.574640   -3.383600
  C    -15.333670   14.647290   -3.804590
  C    -15.412060   15.247350   -5.026340
  C    -14.839270   14.951330   -6.322040
  C    -14.448860   13.729240   -6.808090
  C    -13.951020   13.523520   -8.112690
  N    -13.522530   13.288810   -9.151510
  C    -14.574890   12.497140   -6.137380
  N    -14.673790   11.446760   -5.682600
  C    -14.949960   16.164070   -7.129840
  C    -15.759530   17.103000   -6.439900
  C    -16.131470   16.547770   -5.128250
  O    -16.838880   17.044810   -4.280590
  C    -16.091600   18.325340   -6.972300
  C    -15.594610   18.642810   -8.239800
  C    -14.770650   17.708300   -8.911910
  C    -14.439240   16.468960   -8.376810
  S    -14.261310   18.315830  -10.455550
  C    -15.142930   19.781330  -10.196840
  C    -15.788280   19.823500   -9.010910
  H    -13.706980   -4.677600    8.770220
  H    -10.326800   -7.790480    6.773310
  H    -13.412660   -9.261040   10.852210
  H    -14.271650   -6.821390   10.492350
  H     -9.766840   -2.916250    4.218630
  H    -13.412860   -1.967330    4.620810
  H    -11.470050    1.705630    3.510240
  H     -6.455610    1.865590    3.991080
  H     -8.319710   -1.843340    5.131860
  H    -10.154410    2.784590    4.536810
  H     -7.779570    3.557040    2.773010
  H     -8.053640    5.788290    1.733170
  H     -9.432440    8.710330    0.987250
  H    -12.489650    7.772380    3.756780
  H    -11.123770    4.883660    4.502330
  H    -11.506730   10.357040    1.130130
  H    -13.343560    9.809630    3.521530
  H    -14.509120   12.095820    4.118730
  H    -14.764530   13.975650    0.251500
  H    -13.565080   10.886340   -3.691180
  H    -13.324460    9.185280    0.249930
  H    -15.451040   13.391400   -1.516510
  H    -13.738480   13.220050   -4.039310
  H    -15.970420   15.100260   -3.049370
  H    -16.717990   19.013870   -6.426710
  H    -13.803220   15.795210   -8.926400
  H    -15.122440   20.532870  -10.961980
  H    -16.385220   20.653570   -8.679000

 Total Charge           Charge          ....    0
 Multiplicity           Mult            ....    1
 Number of Electrons    NEL             ....  542
 Basis Dimension        Dim             .... 1268

ORBITAL ENERGIES
----------------

  NO   OCC          E(Eh)            E(eV)
   0   2.0000     -88.971277     -2421.0315
   1   2.0000     -88.967159     -2420.9195
   2   2.0000     -19.223026      -523.0851
   3   2.0000     -19.213406      -522.8234
   4   2.0000     -14.477938      -393.9647
   5   2.0000     -14.475426      -393.8964
   6   2.0000     -14.422082      -392.4448
   7   2.0000     -14.421170      -392.4200
   8   2.0000     -14.419544      -392.3757
   9   2.0000     -14.418012      -392.3340
  10   2.0000     -14.416912      -392.3041
  11   2.0000     -14.416750      -392.2997
  12   2.0000     -14.416577      -392.2950
  13   2.0000     -14.410419      -392.1274
  14   2.0000     -10.374956      -282.3169
  15   2.0000     -10.363751      -282.0120
  16   2.0000     -10.348734      -281.6034
  17   2.0000     -10.347405      -281.5672
  18   2.0000     -10.345643      -281.5193
  19   2.0000     -10.345065      -281.5035
  20   2.0000     -10.334338      -281.2116
  21   2.0000     -10.331950      -281.1467
  22   2.0000     -10.331468      -281.1335
  23   2.0000     -10.330140      -281.0974
  24   2.0000     -10.330069      -281.0955
  25   2.0000     -10.329506      -281.0802
  26   2.0000     -10.328759      -281.0598
  27   2.0000     -10.327932      -281.0373
  28   2.0000     -10.326712      -281.0041
  29   2.0000     -10.325929      -280.9828
  30   2.0000     -10.325529      -280.9719
  31   2.0000     -10.325215      -280.9634
  32   2.0000     -10.324532      -280.9448
  33   2.0000     -10.322113      -280.8790
  34   2.0000     -10.321598      -280.8650
  35   2.0000     -10.321176      -280.8535
  36   2.0000     -10.319542      -280.8090
  37   2.0000     -10.318992      -280.7941
  38   2.0000     -10.316704      -280.7318
  39   2.0000     -10.315864      -280.7089
  40   2.0000     -10.315375      -280.6956
  41   2.0000     -10.314817      -280.6805
  42   2.0000     -10.314478      -280.6712
  43   2.0000     -10.314185      -280.6632
  44   2.0000     -10.313912      -280.6558
  45   2.0000     -10.313369      -280.6410
  46   2.0000     -10.313060      -280.6326
  47   2.0000     -10.312669      -280.6220
  48   2.0000     -10.312208      -280.6095
  49   2.0000     -10.309565      -280.5375
  50   2.0000     -10.308622      -280.5119
  51   2.0000     -10.307814      -280.4899
  52   2.0000     -10.307734      -280.4877
  53   2.0000     -10.307691      -280.4865
  54   2.0000     -10.307348      -280.4772
  55   2.0000     -10.307100      -280.4704
  56   2.0000     -10.306461      -280.4531
  57   2.0000     -10.305978      -280.4399
  58   2.0000     -10.305667      -280.4315
  59   2.0000     -10.304587      -280.4021
  60   2.0000     -10.304492      -280.3995
  61   2.0000     -10.304069      -280.3880
  62   2.0000     -10.303436      -280.3708
  63   2.0000     -10.302172      -280.3364
  64   2.0000     -10.301388      -280.3150
  65   2.0000     -10.300619      -280.2941
  66   2.0000     -10.299424      -280.2616
  67   2.0000     -10.299128      -280.2535
  68   2.0000     -10.297365      -280.2056
  69   2.0000     -10.297241      -280.2022
  70   2.0000     -10.296276      -280.1759
  71   2.0000     -10.296182      -280.1733
  72   2.0000     -10.295231      -280.1475
  73   2.0000     -10.294386      -280.1245
  74   2.0000     -10.293704      -280.1059
  75   2.0000     -10.291081      -280.0346
  76   2.0000     -10.290927      -280.0304
  77   2.0000     -10.289575      -279.9936
  78   2.0000     -10.286871      -279.9200
  79   2.0000     -10.283682      -279.8332
  80   2.0000      -8.067602      -219.5306
  81   2.0000      -8.063433      -219.4172
  82   2.0000      -6.037110      -164.2781
  83   2.0000      -6.032937      -164.1646
  84   2.0000      -6.032789      -164.1605
  85   2.0000      -6.029264      -164.0646
  86   2.0000      -6.028647      -164.0478
  87   2.0000      -6.025108      -163.9515
  88   2.0000      -1.138572       -30.9821
  89   2.0000      -1.128250       -30.7012
  90   2.0000      -1.109241       -30.1840
  91   2.0000      -1.072901       -29.1951
  92   2.0000      -1.026274       -27.9263
  93   2.0000      -1.022547       -27.8249
  94   2.0000      -1.021985       -27.8096
  95   2.0000      -1.018318       -27.7099
  96   2.0000      -1.013672       -27.5834
  97   2.0000      -1.010328       -27.4924
  98   2.0000      -1.008323       -27.4379
  99   2.0000      -1.005226       -27.3536
 100   2.0000      -0.999222       -27.1902
 101   2.0000      -0.997518       -27.1438
 102   2.0000      -0.995532       -27.0898
 103   2.0000      -0.991712       -26.9858
 104   2.0000      -0.990520       -26.9534
 105   2.0000      -0.985951       -26.8291
 106   2.0000      -0.984938       -26.8015
 107   2.0000      -0.981711       -26.7137
 108   2.0000      -0.937198       -25.5024
 109   2.0000      -0.936932       -25.4952
 110   2.0000      -0.923878       -25.1400
 111   2.0000      -0.922451       -25.1012
 112   2.0000      -0.920492       -25.0479
 113   2.0000      -0.911992       -24.8166
 114   2.0000      -0.895685       -24.3728
 115   2.0000      -0.889767       -24.2118
 116   2.0000      -0.888364       -24.1736
 117   2.0000      -0.886556       -24.1244
 118   2.0000      -0.883926       -24.0528
 119   2.0000      -0.882184       -24.0054
 120   2.0000      -0.881008       -23.9734
 121   2.0000      -0.879835       -23.9415
 122   2.0000      -0.863295       -23.4915
 123   2.0000      -0.853303       -23.2196
 124   2.0000      -0.834686       -22.7130
 125   2.0000      -0.830222       -22.5915
 126   2.0000      -0.828218       -22.5370
 127   2.0000      -0.824042       -22.4233
 128   2.0000      -0.820127       -22.3168
 129   2.0000      -0.807740       -21.9797
 130   2.0000      -0.803359       -21.8605
 131   2.0000      -0.789249       -21.4766
 132   2.0000      -0.784162       -21.3381
 133   2.0000      -0.779240       -21.2042
 134   2.0000      -0.763676       -20.7807
 135   2.0000      -0.758874       -20.6500
 136   2.0000      -0.757164       -20.6035
 137   2.0000      -0.732722       -19.9384
 138   2.0000      -0.731156       -19.8958
 139   2.0000      -0.726789       -19.7769
 140   2.0000      -0.725722       -19.7479
 141   2.0000      -0.713317       -19.4103
 142   2.0000      -0.711266       -19.3545
 143   2.0000      -0.708521       -19.2798
 144   2.0000      -0.704572       -19.1724
 145   2.0000      -0.695931       -18.9372
 146   2.0000      -0.693265       -18.8647
 147   2.0000      -0.689987       -18.7755
 148   2.0000      -0.684298       -18.6207
 149   2.0000      -0.677951       -18.4480
 150   2.0000      -0.667493       -18.1634
 151   2.0000      -0.667306       -18.1583
 152   2.0000      -0.664408       -18.0795
 153   2.0000      -0.657692       -17.8967
 154   2.0000      -0.654991       -17.8232
 155   2.0000      -0.646877       -17.6024
 156   2.0000      -0.644466       -17.5368
 157   2.0000      -0.641387       -17.4530
 158   2.0000      -0.638131       -17.3644
 159   2.0000      -0.633974       -17.2513
 160   2.0000      -0.624785       -17.0013
 161   2.0000      -0.620072       -16.8730
 162   2.0000      -0.614359       -16.7175
 163   2.0000      -0.609807       -16.5937
 164   2.0000      -0.604449       -16.4479
 165   2.0000      -0.602728       -16.4011
 166   2.0000      -0.599305       -16.3079
 167   2.0000      -0.597987       -16.2720
 168   2.0000      -0.597244       -16.2518
 169   2.0000      -0.580035       -15.7835
 170   2.0000      -0.577583       -15.7168
 171   2.0000      -0.577429       -15.7126
 172   2.0000      -0.567764       -15.4496
 173   2.0000      -0.555943       -15.1280
 174   2.0000      -0.554028       -15.0759
 175   2.0000      -0.553536       -15.0625
 176   2.0000      -0.551425       -15.0050
 177   2.0000      -0.548283       -14.9195
 178   2.0000      -0.545517       -14.8443
 179   2.0000      -0.545301       -14.8384
 180   2.0000      -0.542669       -14.7668
 181   2.0000      -0.540851       -14.7173
 182   2.0000      -0.539017       -14.6674
 183   2.0000      -0.537231       -14.6188
 184   2.0000      -0.536967       -14.6116
 185   2.0000      -0.531437       -14.4611
 186   2.0000      -0.528570       -14.3831
 187   2.0000      -0.525681       -14.3045
 188   2.0000      -0.523666       -14.2497
 189   2.0000      -0.519717       -14.1422
 190   2.0000      -0.518576       -14.1112
 191   2.0000      -0.517423       -14.0798
 192   2.0000      -0.514317       -13.9953
 193   2.0000      -0.512498       -13.9458
 194   2.0000      -0.510979       -13.9045
 195   2.0000      -0.509842       -13.8735
 196   2.0000      -0.508709       -13.8427
 197   2.0000      -0.506526       -13.7833
 198   2.0000      -0.504966       -13.7408
 199   2.0000      -0.502663       -13.6782
 200   2.0000      -0.501219       -13.6389
 201   2.0000      -0.501160       -13.6372
 202   2.0000      -0.498375       -13.5615
 203   2.0000      -0.495977       -13.4962
 204   2.0000      -0.494188       -13.4475
 205   2.0000      -0.493849       -13.4383
 206   2.0000      -0.493421       -13.4267
 207   2.0000      -0.492547       -13.4029
 208   2.0000      -0.491647       -13.3784
 209   2.0000      -0.489463       -13.3190
 210   2.0000      -0.487974       -13.2784
 211   2.0000      -0.482529       -13.1303
 212   2.0000      -0.476545       -12.9674
 213   2.0000      -0.475892       -12.9497
 214   2.0000      -0.468791       -12.7564
 215   2.0000      -0.462983       -12.5984
 216   2.0000      -0.460173       -12.5219
 217   2.0000      -0.458413       -12.4740
 218   2.0000      -0.457838       -12.4584
 219   2.0000      -0.457224       -12.4417
 220   2.0000      -0.453928       -12.3520
 221   2.0000      -0.453297       -12.3348
 222   2.0000      -0.450721       -12.2647
 223   2.0000      -0.449026       -12.2186
 224   2.0000      -0.447528       -12.1779
 225   2.0000      -0.445685       -12.1277
 226   2.0000      -0.445458       -12.1215
 227   2.0000      -0.444658       -12.0998
 228   2.0000      -0.444032       -12.0827
 229   2.0000      -0.443136       -12.0583
 230   2.0000      -0.440383       -11.9834
 231   2.0000      -0.440088       -11.9754
 232   2.0000      -0.437641       -11.9088
 233   2.0000      -0.437586       -11.9073
 234   2.0000      -0.434890       -11.8339
 235   2.0000      -0.432058       -11.7569
 236   2.0000      -0.431854       -11.7514
 237   2.0000      -0.428025       -11.6471
 238   2.0000      -0.427344       -11.6286
 239   2.0000      -0.426827       -11.6145
 240   2.0000      -0.423864       -11.5339
 241   2.0000      -0.419231       -11.4078
 242   2.0000      -0.418826       -11.3968
 243   2.0000      -0.415533       -11.3072
 244   2.0000      -0.414876       -11.2894
 245   2.0000      -0.413105       -11.2412
 246   2.0000      -0.410479       -11.1697
 247   2.0000      -0.409950       -11.1553
 248   2.0000      -0.408660       -11.1202
 249   2.0000      -0.399313       -10.8659
 250   2.0000      -0.397435       -10.8148
 251   2.0000      -0.385888       -10.5005
 252   2.0000      -0.382810       -10.4168
 253   2.0000      -0.372893       -10.1469
 254   2.0000      -0.362550        -9.8655
 255   2.0000      -0.358142        -9.7455
 256   2.0000      -0.347346        -9.4518
 257   2.0000      -0.343099        -9.3362
 258   2.0000      -0.337936        -9.1957
 259   2.0000      -0.334635        -9.1059
 260   2.0000      -0.331847        -9.0300
 261   2.0000      -0.319454        -8.6928
 262   2.0000      -0.318979        -8.6799
 263   2.0000      -0.314510        -8.5583
 264   2.0000      -0.308316        -8.3897
 265   2.0000      -0.303168        -8.2496
 266   2.0000      -0.296761        -8.0753
 267   2.0000      -0.294121        -8.0034
 268   2.0000      -0.290431        -7.9030
 269   2.0000      -0.278911        -7.5896
 270   2.0000      -0.234902        -6.3920
 271   0.0000      -0.135582        -3.6894
 272   0.0000      -0.126394        -3.4394
 273   0.0000      -0.090846        -2.4721
 274   0.0000      -0.089194        -2.4271
 275   0.0000      -0.062308        -1.6955

MULLIKEN ATOMIC CHARGES
-----------------------
   0 C :    0.309395
   1 C :   -0.344185
   2 C :   -0.185647
   3 N :    0.156435
   4 C :   -0.193887
   5 N :    0.161198
   6 C :    0.018638
   7 C :   -0.021135
   8 C :   -0.065748
   9 C :    0.114059
  10 C :   -0.093217
  11 C :   -0.021747
  12 S :    0.145635
  13 C :   -0.048926
  14 C :    0.026953
  15 C :    0.133785
  16 O :   -0.145539
  17 C :   -0.081619
  18 C :   -0.058976
  19 C :    0.050277
  20 C :    0.065339
  21 C :   -0.116246
  22 C :   -0.130235
  23 N :    0.145162
  24 C :   -0.022400
  25 C :    0.059500
  26 C :    0.072127
  27 C :    0.081979
  28 C :   -0.031299
  29 C :   -0.081601
  30 C :   -0.038310
  31 C :   -0.129930
  32 N :    0.148315
  33 C :   -0.050960
  34 C :    0.012020
  35 C :    0.106799
  36 N :   -0.026885
  37 C :    0.126885
  38 C :   -0.154819
  39 C :    0.069225
  40 N :   -0.033773
  41 C :    0.128622
  42 C :   -0.177540
  43 C :    0.013613
  44 C :   -0.042999
  45 C :    0.066613
  46 C :   -0.022550
  47 C :   -0.084461
  48 C :   -0.131344
  49 N :    0.143804
  50 C :   -0.050717
  51 C :    0.054743
  52 C :    0.070528
  53 C :    0.048642
  54 C :    0.029478
  55 C :   -0.111043
  56 C :   -0.040217
  57 C :   -0.126229
  58 N :    0.142168
  59 C :   -0.016520
  60 C :    0.016170
  61 C :    0.009792
  62 C :   -0.101488
  63 C :    0.299931
  64 C :   -0.346635
  65 C :   -0.185665
  66 N :    0.156160
  67 C :   -0.178881
  68 N :    0.150589
  69 C :   -0.000274
  70 C :   -0.000463
  71 C :    0.136196
  72 O :   -0.146611
  73 C :   -0.069541
  74 C :    0.112510
  75 C :   -0.093294
  76 C :   -0.024011
  77 S :    0.141532
  78 C :   -0.049676
  79 C :    0.024798
  80 H :   -0.010082
  81 H :   -0.005966
  82 H :    0.041527
  83 H :   -0.004614
  84 H :    0.041270
  85 H :    0.008387
  86 H :    0.008103
  87 H :   -0.010370
  88 H :   -0.008556
  89 H :    0.007445
  90 H :   -0.018630
  91 H :    0.127928
  92 H :   -0.023386
  93 H :    0.129268
  94 H :   -0.025421
  95 H :    0.015341
  96 H :   -0.023192
  97 H :   -0.012487
  98 H :   -0.011363
  99 H :   -0.003496
 100 H :    0.024605
 101 H :    0.022230
 102 H :    0.019714
 103 H :    0.017656
 104 H :   -0.009628
 105 H :   -0.003304
 106 H :    0.040509
 107 H :   -0.005861
Sum of atomic charges:   -0.0000000

LOEWDIN ATOMIC CHARGES
----------------------
   0 C :    0.074976
   1 C :   -0.136852
   2 C :   -0.018348
   3 N :   -0.047488
   4 C :   -0.023906
   5 N :   -0.045920
   6 C :   -0.023443
   7 C :   -0.054701
   8 C :    0.024845
   9 C :   -0.033338
  10 C :   -0.144043
  11 C :   -0.006943
  12 S :    0.433452
  13 C :   -0.146705
  14 C :   -0.057332
  15 C :    0.082267
  16 O :   -0.139462
  17 C :   -0.086498
  18 C :    0.066442
  19 C :   -0.049575
  20 C :    0.076652
  21 C :   -0.062458
  22 C :   -0.031295
  23 N :   -0.040033
  24 C :    0.023781
  25 C :    0.027313
  26 C :    0.050565
  27 C :   -0.017691
  28 C :   -0.012209
  29 C :   -0.032962
  30 C :   -0.020139
  31 C :   -0.028275
  32 N :   -0.032684
  33 C :   -0.031149
  34 C :   -0.011979
  35 C :    0.005196
  36 N :    0.076762
  37 C :   -0.017220
  38 C :   -0.070565
  39 C :   -0.005914
  40 N :    0.069919
  41 C :   -0.003893
  42 C :   -0.088886
  43 C :   -0.011603
  44 C :   -0.045308
  45 C :   -0.011305
  46 C :   -0.024297
  47 C :   -0.037462
  48 C :   -0.029165
  49 N :   -0.036768
  50 C :   -0.029223
  51 C :    0.041858
  52 C :    0.029292
  53 C :   -0.052256
  54 C :    0.055329
  55 C :   -0.069254
  56 C :    0.019431
  57 C :   -0.030904
  58 N :   -0.044759
  59 C :    0.032171
  60 C :   -0.028414
  61 C :    0.067487
  62 C :   -0.097116
  63 C :    0.075943
  64 C :   -0.144150
  65 C :   -0.019776
  66 N :   -0.050385
  67 C :   -0.009129
  68 N :   -0.055821
  69 C :   -0.020831
  70 C :   -0.054348
  71 C :    0.082508
  72 O :   -0.145223
  73 C :    0.024121
  74 C :   -0.034917
  75 C :   -0.145003
  76 C :   -0.010660
  77 S :    0.429988
  78 C :   -0.148917
  79 C :   -0.057429
  80 H :    0.041058
  81 H :    0.041361
  82 H :    0.030626
  83 H :    0.036130
  84 H :    0.043467
  85 H :    0.039043
  86 H :    0.037387
  87 H :    0.030440
  88 H :    0.032429
  89 H :    0.029287
  90 H :    0.031034
  91 H :    0.093656
  92 H :    0.030519
  93 H :    0.090008
  94 H :    0.026173
  95 H :    0.040792
  96 H :    0.027013
  97 H :    0.031074
  98 H :    0.030512
  99 H :    0.034117
 100 H :    0.038942
 101 H :    0.035367
 102 H :    0.033407
 103 H :    0.044944
 104 H :    0.041216
 105 H :    0.040569
 106 H :    0.029774
 107 H :    0.035689

  Mayer bond orders larger than 0.100000
B(  0-C ,  1-C ) :   1.6455 B(  0-C ,  6-C ) :   1.0143 B(  0-C , 17-C ) :   1.0381
B(  1-C ,  2-C ) :   1.1391 B(  1-C ,  4-C ) :   1.1446 B(  2-C ,  3-N ) :   2.9718
B(  4-C ,  5-N ) :   2.9662 B(  6-C ,  7-C ) :   1.2632 B(  6-C , 11-C ) :   1.4032
B(  7-C ,  8-C ) :   1.4207 B(  7-C , 15-C ) :   0.9470 B(  8-C ,  9-C ) :   1.2470
B(  8-C , 80-H ) :   1.0172 B(  9-C , 10-C ) :   1.2972 B(  9-C , 14-C ) :   1.1726
B( 10-C , 11-C ) :   1.3282 B( 10-C , 12-S ) :   1.1009 B( 11-C , 81-H ) :   0.9830
B( 12-S , 13-C ) :   1.1275 B( 13-C , 14-C ) :   1.6261 B( 13-C , 82-H ) :   0.9690
B( 14-C , 83-H ) :   1.0003 B( 15-C , 16-O ) :   2.2294 B( 15-C , 17-C ) :   0.9274
B( 17-C , 18-C ) :   1.6609 B( 18-C , 19-C ) :   1.0804 B( 18-C , 84-H ) :   0.9238
B( 19-C , 20-C ) :   1.5904 B( 19-C , 25-C ) :   1.0560 B( 20-C , 21-C ) :   1.1131
B( 20-C , 85-H ) :   1.0090 B( 21-C , 22-C ) :   1.0535 B( 21-C , 24-C ) :   1.6235
B( 22-C , 23-N ) :   3.0437 B( 24-C , 25-C ) :   1.0725 B( 24-C , 86-H ) :   1.0116
B( 25-C , 26-C ) :   1.5136 B( 26-C , 27-C ) :   1.0211 B( 26-C , 30-C ) :   1.0871
B( 27-C , 28-C ) :   1.6072 B( 27-C , 33-C ) :   1.0929 B( 28-C , 29-C ) :   1.1094
B( 28-C , 87-H ) :   1.0147 B( 29-C , 30-C ) :   1.6130 B( 29-C , 31-C ) :   1.0584
B( 30-C , 88-H ) :   1.0116 B( 31-C , 32-N ) :   3.0384 B( 33-C , 34-C ) :   1.6580
B( 33-C , 89-H ) :   0.9586 B( 34-C , 35-C ) :   1.1224 B( 34-C , 90-H ) :   0.9715
B( 35-C , 36-N ) :   1.1803 B( 35-C , 42-C ) :   1.3674 B( 36-N , 37-C ) :   1.1681
B( 36-N , 91-H ) :   0.9353 B( 37-C , 38-C ) :   1.2655 B( 37-C , 41-C ) :   1.2849
B( 38-C , 39-C ) :   1.3362 B( 38-C , 92-H ) :   1.0430 B( 39-C , 40-N ) :   1.1915
B( 39-C , 43-C ) :   1.1917 B( 40-N , 41-C ) :   1.1736 B( 40-N , 93-H ) :   0.9296
B( 41-C , 42-C ) :   1.2853 B( 42-C , 94-H ) :   1.0311 B( 43-C , 44-C ) :   1.5682
B( 43-C , 95-H ) :   0.9523 B( 44-C , 45-C ) :   1.1604 B( 44-C , 96-H ) :   0.9597
B( 45-C , 46-C ) :   1.5628 B( 45-C , 51-C ) :   1.0116 B( 46-C , 47-C ) :   1.1346
B( 46-C , 97-H ) :   1.0210 B( 47-C , 48-C ) :   1.0607 B( 47-C , 50-C ) :   1.5783
B( 48-C , 49-N ) :   3.0409 B( 50-C , 51-C ) :   1.1068 B( 50-C , 98-H ) :   1.0152
B( 51-C , 52-C ) :   1.5136 B( 52-C , 53-C ) :   1.0515 B( 52-C , 56-C ) :   1.0716
B( 53-C , 54-C ) :   1.5857 B( 53-C , 59-C ) :   1.0638 B( 54-C , 55-C ) :   1.1132
B( 54-C , 99-H ) :   0.9939 B( 55-C , 56-C ) :   1.6160 B( 55-C , 57-C ) :   1.0575
B( 56-C ,100-H ) :   1.0061 B( 57-C , 58-N ) :   3.0432 B( 59-C , 60-C ) :   1.6511
B( 59-C ,101-H ) :   0.9716 B( 60-C , 61-C ) :   1.1315 B( 60-C ,102-H ) :   0.9650
B( 61-C , 62-C ) :   1.6054 B( 61-C ,103-H ) :   0.9494 B( 62-C , 63-C ) :   1.0368
B( 62-C , 71-C ) :   0.9423 B( 63-C , 64-C ) :   1.6252 B( 63-C , 69-C ) :   1.0139
B( 64-C , 65-C ) :   1.1270 B( 64-C , 67-C ) :   1.1777 B( 65-C , 66-N ) :   2.9855
B( 67-C , 68-N ) :   2.9345 B( 69-C , 70-C ) :   1.2673 B( 69-C , 76-C ) :   1.4140
B( 70-C , 71-C ) :   0.9288 B( 70-C , 73-C ) :   1.4283 B( 71-C , 72-O ) :   2.2550
B( 73-C , 74-C ) :   1.2500 B( 73-C ,104-H ) :   1.0163 B( 74-C , 75-C ) :   1.3017
B( 74-C , 79-C ) :   1.1718 B( 75-C , 76-C ) :   1.3219 B( 75-C , 77-S ) :   1.0992
B( 76-C ,105-H ) :   0.9829 B( 77-S , 78-C ) :   1.1264 B( 78-C , 79-C ) :   1.6311
B( 78-C ,106-H ) :   0.9678 B( 79-C ,107-H ) :   0.9991

-----------------------------------------------------------------------------
         ABSORPTION SPECTRUM VIA TRANSITION ELECTRIC DIPOLE MOMENTS
-----------------------------------------------------------------------------
State   Energy  Wavelength   fosc         T2         TX        TY        TZ
        (cm-1)    (nm)                  (au**2)     (au)      (au)      (au)
-----------------------------------------------------------------------------
   0    6598.4   1515.5   0.366900328  18.30557   1.02854  -3.81842   1.63321
   1    8415.0   1188.4   0.054963008   2.15027   1.01106  -0.19652   1.04375
   2   14876.0    672.2   0.036640412   0.81087   0.02888   0.22165  -0.87230
   3   16299.2    613.5   0.035177778   0.71052  -0.11149  -0.81235   0.19539
   4   18077.9    553.2   0.040151893   0.73120  -0.64076   0.51924  -0.22586
   5   19275.7    518.8   0.236545009   4.03997   0.95176  -1.76077   0.18385
   6   20392.4    490.4   0.086392992   1.39472   0.55733  -1.03589  -0.10505
   7   20721.9    482.6   0.024377526   0.38729   0.06415   0.21199  -0.58158
   8   22680.8    440.9   0.039328080   0.57085   0.21783   0.46597  -0.55341
   9   23012.1    434.6   0.012830998   0.18356   0.11584   0.40637  -0.07077
  10   23087.4    433.1   1.015550004  14.48109   0.67000  -2.36132   2.90798
  11   23961.4    417.3   0.028948238   0.39773  -0.00973   0.24964  -0.57906
  12   24377.2    410.2   0.061161561   0.82598   0.09682  -0.88440   0.18560
  13   24541.6    407.5   0.046202043   0.61977   0.10597  -0.78005  -0.00852
  14   24761.1    403.9   0.244403053   3.24947  -0.45962   1.74228  -0.05180
  15   24926.9    401.2   0.409682667   5.41072   0.33881  -2.30074   0.05012
  16   26114.6    382.9   0.085144735   1.07337  -0.99943   0.27212   0.02146
  17   26298.8    380.2   0.121186196   1.51702   1.20083   0.27390   0.00441
  18   26821.6    372.8   0.110552220   1.35693   0.16189   1.15308   0.03360
  19   27064.7    369.5   0.038214779   0.46484  -0.17813   0.53207  -0.38732
  20   27362.4    365.5   0.023359057   0.28105  -0.32979   0.33879  -0.23980
  21   28181.0    354.8   0.033934108   0.39642  -0.41166   0.23480   0.41452
  22   28407.7    352.0   0.083218821   0.96441   0.12240  -0.82266  -0.52217
  23   28656.8    349.0   0.005977893   0.06867  -0.03566  -0.20863   0.15452
  24   28693.6    348.5   0.002678771   0.03073  -0.06820   0.14507   0.07098
  25   29036.7    344.4   0.110730837   1.25544   0.82969  -0.49811   0.56475
  26   29195.2    342.5   0.149827891   1.68950  -0.02484  -1.00552   0.82330
  27   29445.7    339.6   0.335964159   3.75618  -1.82193  -0.23404   0.61805
  28   29526.1    338.7   0.114044203   1.27158   0.12438   0.86873  -0.70810
  29   30288.6    330.2   0.404857564   4.40046   0.17078  -0.55912   2.01462
  30   30529.8    327.5   0.109733975   1.18330   0.57698  -0.92192  -0.02111
  31   30610.1    326.7   0.007364780   0.07921   0.04040  -0.27833  -0.01037
  32   31113.5    321.4   0.190544261   2.01615  -0.71430  -1.08023   0.58225
  33   31212.2    320.4   0.124023444   1.30814   0.80097  -0.77197  -0.26578
  34   31444.7    318.0   0.200316481   2.09722   1.12098  -0.91405   0.07176
  35   31884.8    313.6   0.055810009   0.57624  -0.06296   0.63025   0.41840
  36   32201.5    310.5   0.111432262   1.13923  -0.81499  -0.16864   0.66826
  37   32344.2    309.2   0.100137574   1.01924   0.26400  -0.97063   0.08618
  38   32626.4    306.5   0.353101823   3.56292   1.41917  -1.24308  -0.06028
  39   32895.0    304.0   0.313352759   3.13603   0.95100  -1.49298   0.05134
  40   33596.6    297.6   0.054243751   0.53153  -0.52325   0.46528   0.20311
  41   33689.2    296.8   0.127464363   1.24559  -0.19434  -1.08586   0.16947
  42   34052.9    293.7   0.120008979   1.16021   0.79358  -0.71749   0.12507
  43   34134.1    293.0   0.087584373   0.84472   0.49880   0.39783  -0.66156
  44   34220.1    292.2   0.288480906   2.77531   0.60229   0.96239  -1.21916
  45   34303.8    291.5   0.304517093   2.92244  -0.73385  -0.19488   1.53164
  46   34656.5    288.5   0.238274766   2.26344   0.05235  -1.26351   0.81500
  47   34776.5    287.6   0.200426011   1.89733  -0.69103   1.18894  -0.07891
  48   34929.3    286.3   0.248641672   2.34347  -0.75603   1.30568  -0.25901
  49   35247.2    283.7   0.067958843   0.63474  -0.35100  -0.46190  -0.54607
  50   35851.7    278.9   0.017447163   0.16021   0.39761  -0.00502   0.04573
  51   36121.0    276.8   0.005459178   0.04976   0.07166  -0.00695  -0.21112
  52   36258.1    275.8   0.029935547   0.27181  -0.16296   0.35530   0.34498
  53   36605.8    273.2   0.043890206   0.39472  -0.34161  -0.28497   0.44365
  54   36851.8    271.4   0.009762397   0.08721  -0.01404  -0.28719  -0.06735
  55   37002.7    270.3   0.000816599   0.00727  -0.01238   0.07882   0.02998
  56   37383.6    267.5   0.034101562   0.30031  -0.39933  -0.37377  -0.03380
  57   37574.3    266.1   0.138677637   1.21504  -0.62384   0.68128   0.60142
  58   37768.3    264.8   0.035945590   0.31332   0.36986   0.20723   0.36548
  59   38144.9    262.2   0.007977979   0.06885   0.18797   0.16363   0.08213
  60   38218.7    261.7   0.041954033   0.36139  -0.43210   0.04977  -0.41497
  61   38349.9    260.8   0.003415521   0.02932   0.16379  -0.04346   0.02457
  62   38592.5    259.1   0.023476491   0.20027   0.19012   0.37105   0.16261
  63   38876.6    257.2   0.228803645   1.93754  -0.72121   1.18591   0.10487
  64   39042.8    256.1   0.015427735   0.13009  -0.02593   0.30892  -0.18435
  65   39238.8    254.9   0.029099459   0.24414   0.15271  -0.04527  -0.46773
  66   39292.2    254.5   0.136779214   1.14601  -0.41966   0.03346   0.98427
  67   39514.5    253.1   0.034256519   0.28541  -0.33777  -0.41371   0.01267
  68   39671.8    252.1   0.074986469   0.62227  -0.01599  -0.41998  -0.66755
  69   40070.1    249.6   0.284264379   2.33549   0.85714  -0.64990  -1.08555
  70   40177.4    248.9   0.015733865   0.12892  -0.15812  -0.11430  -0.30142

FINAL SINGLE POINT ENERGY     -4021.540013633540

DIPOLE MOMENT
-------------
                                X             Y             Z
Electronic contribution:      1.08396     -21.25100      -8.62553
Nuclear contribution   :     -1.40088      23.11280      10.98710
                        -----------------------------------------
Total Dipole Moment    :     -0.31692       1.86179       2.36158
                        -----------------------------------------
Magnitude (a.u.)       :      3.02387
Magnitude (Debye)      :      7.68606

Rotational constants in cm-1:     0.001701     0.000143     0.000141
Rotational constants in MHz :    50.992201     4.297386     4.226061

                             ****ORCA TERMINATED NORMALLY****
TOTAL RUN TIME: 0 days 0 hours 13 minutes 44 seconds 403 msec
