                         Program Version 4.2.0 -  RELEASE  -
|  1> # ORCA input file
|  2> # SCF done       -181.305289680390          0.000867389993
|  3> ! CAM-B3LYP def2-SVP def2/J RIJCOSX Grid4 TightSCF
|  4> %maxcore 5000
|  5> %tddft
|  6>     Mode sTDDFT
|  7>     Ethresh 5.0
|  8>     maxcore 5000
|  9> end
| 10>
| 11> %pal
| 12>   nprocs 6
| 13>   end
| 14> * xyz 0 1
| 15>    C      -16.61627        -7.30780         0.45751
| 16>    C      -16.77363        -8.39401         1.30491
| 17>    C      -15.71433        -9.24759         1.58132
| 18>    C      -14.46674        -9.04346         1.01186
| 19>    C      -14.29687        -7.96145         0.16334
| 20>    C      -15.37249        -7.08525        -0.11347
| 21>    C      -14.91050        -6.03216        -1.00724
| 22>    C      -15.68213        -5.06617        -1.58962
| 23>    C      -17.07863        -4.95542        -1.40835
| 24>    N      -18.21171        -4.80819        -1.30489
| 25>    C      -15.21827        -4.06663        -2.47410
| 26>    N      -14.92436        -3.22506        -3.19663
| 27>    C      -13.46558        -6.20591        -1.14117
| 28>    C      -13.13688        -7.51777        -0.59111
| 29>    C      -12.04679        -8.27429        -0.92463
| 30>    C      -11.10902        -7.91539        -1.91793
| 31>    N      -10.37493        -7.71052        -2.77576
| 32>    C      -11.79700        -9.55974        -0.39787
| 33>    N      -11.54747       -10.60035         0.01509
| 34>    C      -12.59301        -5.25765        -1.57977
| 35>    C      -11.19086        -5.23888        -1.36064
| 36>    C      -10.45476        -5.75299        -0.19341
| 37>    N       -9.18081        -5.50405        -0.21936
| 38>    C       -8.95343        -4.84273        -1.39082
| 39>    C      -10.20890        -4.63721        -2.11370
| 40>    C       -9.96363        -3.94041        -3.35500
| 41>    S      -11.09241        -3.53690        -4.48862
| 42>    C       -8.55060        -3.70218        -3.35035
| 43>    C       -7.95166        -4.27097        -2.13878
| 44>    N       -6.60176        -4.05012        -2.11568
| 45>    C       -6.33519        -3.39325        -3.20164
| 46>    C       -7.50419        -3.12133        -4.04984
| 47>    C       -7.49494        -2.41532        -5.26553
| 48>    N       -8.63896        -2.24145        -6.00604
| 49>    C       -8.32608        -1.51206        -7.10228
| 50>    C       -8.83589        -0.95989        -8.26213
| 51>    C       -7.75428        -0.29652        -8.88320
| 52>    N       -6.61423        -0.44530        -8.12521
| 53>    C       -6.92485        -1.20408        -7.04525
| 54>    C       -6.40474        -1.77683        -5.90159
| 55>    C       -7.78089         0.42406       -10.09712
| 56>    C       -6.79402         1.28906       -10.46625
| 57>    C       -6.61256         1.86763       -11.73671
| 58>    C       -7.32034         1.61157       -12.99966
| 59>    N       -6.70433         2.05148       -14.05478
| 60>    C       -5.55075         2.63048       -13.60273
| 61>    C       -5.52497         2.62541       -12.13423
| 62>    C       -4.28984         3.15324       -11.65108
| 63>    S       -3.91587         3.63263       -10.11677
| 64>    C       -3.47447         3.23688       -12.83970
| 65>    C       -4.30981         3.02169       -14.03956
| 66>    N       -3.54592         3.08123       -15.16232
| 67>    C       -2.32355         3.24815       -14.75915
| 68>    C       -2.17743         3.28596       -13.29585
| 69>    C       -0.92909         3.37722       -12.62061
| 70>    C       -0.60921         2.93438       -11.37457
| 71>    C        0.55461         3.40702       -10.61894
| 72>    C        1.71426         3.91661       -11.12843
| 73>    C        2.01576         4.01336       -12.50523
| 74>    N        2.32324         4.10325       -13.60714
| 75>    C        2.79477         4.36282       -10.33537
| 76>    N        3.70365         4.73895        -9.74531
| 77>    C        0.23765         3.21081        -9.21248
| 78>    C       -0.95779         2.46167        -9.11268
| 79>    C       -1.48631         2.13768        -7.87371
| 80>    C       -0.82372         2.57360        -6.73742
| 81>    C        0.34960         3.31001        -6.83339
| 82>    C        0.89385         3.63365        -8.06686
| 83>    C       -1.41297         2.13497       -10.45223
| 84>    C       -2.27015         1.11668       -10.78414
| 85>    C       -3.12845         0.47842        -9.87369
| 86>    N       -3.92551        -0.02084        -9.21122
| 87>    C       -2.45561         0.64955       -12.10141
| 88>    N       -2.61191         0.20395       -13.14738
| 89>    H      -17.44875        -6.65315         0.25875
| 90>    H      -17.73624        -8.57381         1.75841
| 91>    H      -15.86078       -10.08202         2.24972
| 92>    H      -13.64919        -9.70859         1.23832
| 93>    H      -12.98548        -4.39008        -2.09564
| 94>    H      -10.89977        -6.23692         0.65884
| 95>    H       -5.32644        -3.09488        -3.42545
| 96>    H       -9.55242        -2.60409        -5.72680
| 97>    H       -9.84194        -0.98479        -8.62898
| 98>    H       -5.67711        -0.20151        -8.43172
| 99>    H       -5.39607        -1.75301        -5.54328
|100>    H       -8.63786         0.26602       -10.73587
|101>    H       -6.01706         1.52919        -9.75120
|102>    H       -8.26624         1.10786       -13.09480
|103>    H       -1.51011         3.32531       -15.45829
|104>    H       -0.16701         3.91279       -13.17388
|105>    H       -2.40392         1.57858        -7.79032
|106>    H       -1.22893         2.34052        -5.76465
|107>    H        0.84662         3.64048        -5.93428
|108>    H        1.80257         4.21023        -8.12289
|109> *
|110>
|111>                          ****END OF INPUT****

CARTESIAN COORDINATES (ANGSTROEM)
---------------------------------
  C    -16.616270   -7.307800    0.457510
  C    -16.773630   -8.394010    1.304910
  C    -15.714330   -9.247590    1.581320
  C    -14.466740   -9.043460    1.011860
  C    -14.296870   -7.961450    0.163340
  C    -15.372490   -7.085250   -0.113470
  C    -14.910500   -6.032160   -1.007240
  C    -15.682130   -5.066170   -1.589620
  C    -17.078630   -4.955420   -1.408350
  N    -18.211710   -4.808190   -1.304890
  C    -15.218270   -4.066630   -2.474100
  N    -14.924360   -3.225060   -3.196630
  C    -13.465580   -6.205910   -1.141170
  C    -13.136880   -7.517770   -0.591110
  C    -12.046790   -8.274290   -0.924630
  C    -11.109020   -7.915390   -1.917930
  N    -10.374930   -7.710520   -2.775760
  C    -11.797000   -9.559740   -0.397870
  N    -11.547470  -10.600350    0.015090
  C    -12.593010   -5.257650   -1.579770
  C    -11.190860   -5.238880   -1.360640
  C    -10.454760   -5.752990   -0.193410
  N     -9.180810   -5.504050   -0.219360
  C     -8.953430   -4.842730   -1.390820
  C    -10.208900   -4.637210   -2.113700
  C     -9.963630   -3.940410   -3.355000
  S    -11.092410   -3.536900   -4.488620
  C     -8.550600   -3.702180   -3.350350
  C     -7.951660   -4.270970   -2.138780
  N     -6.601760   -4.050120   -2.115680
  C     -6.335190   -3.393250   -3.201640
  C     -7.504190   -3.121330   -4.049840
  C     -7.494940   -2.415320   -5.265530
  N     -8.638960   -2.241450   -6.006040
  C     -8.326080   -1.512060   -7.102280
  C     -8.835890   -0.959890   -8.262130
  C     -7.754280   -0.296520   -8.883200
  N     -6.614230   -0.445300   -8.125210
  C     -6.924850   -1.204080   -7.045250
  C     -6.404740   -1.776830   -5.901590
  C     -7.780890    0.424060  -10.097120
  C     -6.794020    1.289060  -10.466250
  C     -6.612560    1.867630  -11.736710
  C     -7.320340    1.611570  -12.999660
  N     -6.704330    2.051480  -14.054780
  C     -5.550750    2.630480  -13.602730
  C     -5.524970    2.625410  -12.134230
  C     -4.289840    3.153240  -11.651080
  S     -3.915870    3.632630  -10.116770
  C     -3.474470    3.236880  -12.839700
  C     -4.309810    3.021690  -14.039560
  N     -3.545920    3.081230  -15.162320
  C     -2.323550    3.248150  -14.759150
  C     -2.177430    3.285960  -13.295850
  C     -0.929090    3.377220  -12.620610
  C     -0.609210    2.934380  -11.374570
  C      0.554610    3.407020  -10.618940
  C      1.714260    3.916610  -11.128430
  C      2.015760    4.013360  -12.505230
  N      2.323240    4.103250  -13.607140
  C      2.794770    4.362820  -10.335370
  N      3.703650    4.738950   -9.745310
  C      0.237650    3.210810   -9.212480
  C     -0.957790    2.461670   -9.112680
  C     -1.486310    2.137680   -7.873710
  C     -0.823720    2.573600   -6.737420
  C      0.349600    3.310010   -6.833390
  C      0.893850    3.633650   -8.066860
  C     -1.412970    2.134970  -10.452230
  C     -2.270150    1.116680  -10.784140
  C     -3.128450    0.478420   -9.873690
  N     -3.925510   -0.020840   -9.211220
  C     -2.455610    0.649550  -12.101410
  N     -2.611910    0.203950  -13.147380
  H    -17.448750   -6.653150    0.258750
  H    -17.736240   -8.573810    1.758410
  H    -15.860780  -10.082020    2.249720
  H    -13.649190   -9.708590    1.238320
  H    -12.985480   -4.390080   -2.095640
  H    -10.899770   -6.236920    0.658840
  H     -5.326440   -3.094880   -3.425450
  H     -9.552420   -2.604090   -5.726800
  H     -9.841940   -0.984790   -8.628980
  H     -5.677110   -0.201510   -8.431720
  H     -5.396070   -1.753010   -5.543280
  H     -8.637860    0.266020  -10.735870
  H     -6.017060    1.529190   -9.751200
  H     -8.266240    1.107860  -13.094800
  H     -1.510110    3.325310  -15.458290
  H     -0.167010    3.912790  -13.173880
  H     -2.403920    1.578580   -7.790320
  H     -1.228930    2.340520   -5.764650
  H      0.846620    3.640480   -5.934280
  H      1.802570    4.210230   -8.122890

 Total Charge           Charge          ....    0
 Multiplicity           Mult            ....    1
 Number of Electrons    NEL             ....  498
 Basis Dimension        Dim             .... 1144

ORBITAL ENERGIES
----------------

  NO   OCC          E(Eh)            E(eV)
   0   2.0000     -88.922242     -2419.6972
   1   2.0000     -88.914837     -2419.4957
   2   2.0000     -14.459511      -393.4633
   3   2.0000     -14.459133      -393.4530
   4   2.0000     -14.453010      -393.2864
   5   2.0000     -14.435032      -392.7972
   6   2.0000     -14.434148      -392.7731
   7   2.0000     -14.433151      -392.7460
   8   2.0000     -14.432761      -392.7354
   9   2.0000     -14.429613      -392.6497
  10   2.0000     -14.428424      -392.6174
  11   2.0000     -14.428405      -392.6169
  12   2.0000     -14.428164      -392.6103
  13   2.0000     -14.426950      -392.5773
  14   2.0000     -14.425567      -392.5396
  15   2.0000     -14.420678      -392.4066
  16   2.0000     -10.367403      -282.1114
  17   2.0000     -10.366068      -282.0751
  18   2.0000     -10.365629      -282.0631
  19   2.0000     -10.362955      -281.9904
  20   2.0000     -10.362745      -281.9846
  21   2.0000     -10.360912      -281.9347
  22   2.0000     -10.360426      -281.9215
  23   2.0000     -10.358779      -281.8767
  24   2.0000     -10.356430      -281.8128
  25   2.0000     -10.356033      -281.8020
  26   2.0000     -10.352422      -281.7037
  27   2.0000     -10.352397      -281.7030
  28   2.0000     -10.349690      -281.6294
  29   2.0000     -10.348468      -281.5961
  30   2.0000     -10.342347      -281.4296
  31   2.0000     -10.342194      -281.4254
  32   2.0000     -10.341606      -281.4094
  33   2.0000     -10.340268      -281.3730
  34   2.0000     -10.338661      -281.3293
  35   2.0000     -10.336465      -281.2695
  36   2.0000     -10.336429      -281.2685
  37   2.0000     -10.336052      -281.2583
  38   2.0000     -10.334525      -281.2167
  39   2.0000     -10.333361      -281.1850
  40   2.0000     -10.330933      -281.1190
  41   2.0000     -10.330457      -281.1060
  42   2.0000     -10.330056      -281.0951
  43   2.0000     -10.329231      -281.0727
  44   2.0000     -10.329200      -281.0718
  45   2.0000     -10.328604      -281.0556
  46   2.0000     -10.328298      -281.0473
  47   2.0000     -10.328030      -281.0400
  48   2.0000     -10.327539      -281.0266
  49   2.0000     -10.325969      -280.9839
  50   2.0000     -10.323872      -280.9269
  51   2.0000     -10.322319      -280.8846
  52   2.0000     -10.321668      -280.8669
  53   2.0000     -10.321361      -280.8585
  54   2.0000     -10.320534      -280.8360
  55   2.0000     -10.319899      -280.8187
  56   2.0000     -10.316028      -280.7134
  57   2.0000     -10.315372      -280.6955
  58   2.0000     -10.314220      -280.6642
  59   2.0000     -10.314054      -280.6597
  60   2.0000     -10.312990      -280.6307
  61   2.0000     -10.312823      -280.6262
  62   2.0000     -10.312194      -280.6091
  63   2.0000     -10.310268      -280.5567
  64   2.0000     -10.308900      -280.5194
  65   2.0000     -10.308584      -280.5108
  66   2.0000     -10.308213      -280.5007
  67   2.0000     -10.307542      -280.4825
  68   2.0000     -10.306779      -280.4617
  69   2.0000     -10.302147      -280.3357
  70   2.0000     -10.298293      -280.2308
  71   2.0000     -10.293248      -280.0935
  72   2.0000     -10.288249      -279.9575
  73   2.0000     -10.282629      -279.8045
  74   2.0000      -8.017225      -218.1598
  75   2.0000      -8.010586      -217.9791
  76   2.0000      -5.986050      -162.8887
  77   2.0000      -5.985378      -162.8704
  78   2.0000      -5.979312      -162.7053
  79   2.0000      -5.978356      -162.6793
  80   2.0000      -5.976998      -162.6424
  81   2.0000      -5.970656      -162.4698
  82   2.0000      -1.103020       -30.0147
  83   2.0000      -1.098545       -29.8929
  84   2.0000      -1.091666       -29.7057
  85   2.0000      -1.078320       -29.3426
  86   2.0000      -1.073043       -29.1990
  87   2.0000      -1.063821       -28.9480
  88   2.0000      -1.053119       -28.6568
  89   2.0000      -1.044591       -28.4248
  90   2.0000      -1.039323       -28.2814
  91   2.0000      -1.025408       -27.9028
  92   2.0000      -1.024999       -27.8916
  93   2.0000      -1.017436       -27.6859
  94   2.0000      -1.014992       -27.6193
  95   2.0000      -1.011916       -27.5356
  96   2.0000      -1.006421       -27.3861
  97   2.0000      -1.006053       -27.3761
  98   2.0000      -0.981601       -26.7107
  99   2.0000      -0.973869       -26.5003
 100   2.0000      -0.971999       -26.4494
 101   2.0000      -0.968367       -26.3506
 102   2.0000      -0.956938       -26.0396
 103   2.0000      -0.949210       -25.8293
 104   2.0000      -0.931931       -25.3591
 105   2.0000      -0.929298       -25.2875
 106   2.0000      -0.921934       -25.0871
 107   2.0000      -0.910314       -24.7709
 108   2.0000      -0.907776       -24.7018
 109   2.0000      -0.902434       -24.5565
 110   2.0000      -0.889877       -24.2148
 111   2.0000      -0.881122       -23.9765
 112   2.0000      -0.874999       -23.8099
 113   2.0000      -0.874386       -23.7933
 114   2.0000      -0.872352       -23.7379
 115   2.0000      -0.868687       -23.6382
 116   2.0000      -0.863527       -23.4978
 117   2.0000      -0.856940       -23.3185
 118   2.0000      -0.850383       -23.1401
 119   2.0000      -0.813202       -22.1283
 120   2.0000      -0.807380       -21.9699
 121   2.0000      -0.805898       -21.9296
 122   2.0000      -0.800055       -21.7706
 123   2.0000      -0.798186       -21.7197
 124   2.0000      -0.785611       -21.3776
 125   2.0000      -0.775971       -21.1153
 126   2.0000      -0.761835       -20.7306
 127   2.0000      -0.748513       -20.3681
 128   2.0000      -0.733529       -19.9603
 129   2.0000      -0.730957       -19.8903
 130   2.0000      -0.729822       -19.8595
 131   2.0000      -0.725471       -19.7411
 132   2.0000      -0.724620       -19.7179
 133   2.0000      -0.722340       -19.6559
 134   2.0000      -0.712351       -19.3841
 135   2.0000      -0.708665       -19.2838
 136   2.0000      -0.707810       -19.2605
 137   2.0000      -0.700683       -19.0665
 138   2.0000      -0.697795       -18.9880
 139   2.0000      -0.685760       -18.6605
 140   2.0000      -0.681048       -18.5323
 141   2.0000      -0.676086       -18.3972
 142   2.0000      -0.675479       -18.3807
 143   2.0000      -0.674256       -18.3474
 144   2.0000      -0.666483       -18.1359
 145   2.0000      -0.658179       -17.9100
 146   2.0000      -0.652887       -17.7660
 147   2.0000      -0.650564       -17.7028
 148   2.0000      -0.643563       -17.5122
 149   2.0000      -0.626833       -17.0570
 150   2.0000      -0.619896       -16.8682
 151   2.0000      -0.613554       -16.6956
 152   2.0000      -0.606671       -16.5084
 153   2.0000      -0.603568       -16.4239
 154   2.0000      -0.602586       -16.3972
 155   2.0000      -0.596219       -16.2239
 156   2.0000      -0.594905       -16.1882
 157   2.0000      -0.588174       -16.0050
 158   2.0000      -0.579976       -15.7819
 159   2.0000      -0.576888       -15.6979
 160   2.0000      -0.572715       -15.5844
 161   2.0000      -0.566111       -15.4047
 162   2.0000      -0.564346       -15.3566
 163   2.0000      -0.562679       -15.3113
 164   2.0000      -0.560395       -15.2491
 165   2.0000      -0.557962       -15.1829
 166   2.0000      -0.556578       -15.1452
 167   2.0000      -0.552869       -15.0443
 168   2.0000      -0.551720       -15.0131
 169   2.0000      -0.549695       -14.9580
 170   2.0000      -0.547875       -14.9084
 171   2.0000      -0.545871       -14.8539
 172   2.0000      -0.542838       -14.7714
 173   2.0000      -0.540010       -14.6944
 174   2.0000      -0.533524       -14.5179
 175   2.0000      -0.529948       -14.4206
 176   2.0000      -0.527600       -14.3567
 177   2.0000      -0.524505       -14.2725
 178   2.0000      -0.523205       -14.2371
 179   2.0000      -0.517402       -14.0792
 180   2.0000      -0.515142       -14.0177
 181   2.0000      -0.510924       -13.9029
 182   2.0000      -0.508615       -13.8401
 183   2.0000      -0.507122       -13.7995
 184   2.0000      -0.503705       -13.7065
 185   2.0000      -0.502820       -13.6824
 186   2.0000      -0.500198       -13.6111
 187   2.0000      -0.497246       -13.5308
 188   2.0000      -0.494060       -13.4441
 189   2.0000      -0.491374       -13.3710
 190   2.0000      -0.488473       -13.2920
 191   2.0000      -0.484403       -13.1813
 192   2.0000      -0.482759       -13.1366
 193   2.0000      -0.480964       -13.0877
 194   2.0000      -0.477942       -13.0055
 195   2.0000      -0.476359       -12.9624
 196   2.0000      -0.471883       -12.8406
 197   2.0000      -0.470324       -12.7982
 198   2.0000      -0.466701       -12.6996
 199   2.0000      -0.465049       -12.6546
 200   2.0000      -0.463317       -12.6075
 201   2.0000      -0.460789       -12.5387
 202   2.0000      -0.460627       -12.5343
 203   2.0000      -0.459771       -12.5110
 204   2.0000      -0.459384       -12.5005
 205   2.0000      -0.456702       -12.4275
 206   2.0000      -0.455037       -12.3822
 207   2.0000      -0.454499       -12.3675
 208   2.0000      -0.453263       -12.3339
 209   2.0000      -0.452923       -12.3247
 210   2.0000      -0.451464       -12.2850
 211   2.0000      -0.449102       -12.2207
 212   2.0000      -0.449038       -12.2189
 213   2.0000      -0.443778       -12.0758
 214   2.0000      -0.440720       -11.9926
 215   2.0000      -0.440133       -11.9766
 216   2.0000      -0.437266       -11.8986
 217   2.0000      -0.436894       -11.8885
 218   2.0000      -0.435854       -11.8602
 219   2.0000      -0.435197       -11.8423
 220   2.0000      -0.433383       -11.7930
 221   2.0000      -0.431260       -11.7352
 222   2.0000      -0.426241       -11.5986
 223   2.0000      -0.422348       -11.4927
 224   2.0000      -0.419532       -11.4161
 225   2.0000      -0.414246       -11.2722
 226   2.0000      -0.401600       -10.9281
 227   2.0000      -0.394097       -10.7239
 228   2.0000      -0.390600       -10.6288
 229   2.0000      -0.385068       -10.4782
 230   2.0000      -0.381246       -10.3742
 231   2.0000      -0.368153       -10.0179
 232   2.0000      -0.366439        -9.9713
 233   2.0000      -0.362069        -9.8524
 234   2.0000      -0.357660        -9.7324
 235   2.0000      -0.353555        -9.6207
 236   2.0000      -0.350282        -9.5317
 237   2.0000      -0.342385        -9.3168
 238   2.0000      -0.340345        -9.2613
 239   2.0000      -0.333413        -9.0726
 240   2.0000      -0.326158        -8.8752
 241   2.0000      -0.323019        -8.7898
 242   2.0000      -0.312716        -8.5094
 243   2.0000      -0.309376        -8.4185
 244   2.0000      -0.307843        -8.3768
 245   2.0000      -0.304563        -8.2876
 246   2.0000      -0.301590        -8.2067
 247   2.0000      -0.298704        -8.1282
 248   2.0000      -0.239658        -6.5214
 249   0.0000      -0.132751        -3.6123
 250   0.0000      -0.128145        -3.4870
 251   0.0000      -0.116397        -3.1673
 252   0.0000      -0.101746        -2.7687
 253   0.0000      -0.097035        -2.6405

MULLIKEN ATOMIC CHARGES
-----------------------
   0 C :   -0.034578
   1 C :    0.050885
   2 C :    0.048173
   3 C :   -0.033168
   4 C :    0.008511
   5 C :    0.017370
   6 C :    0.293123
   7 C :   -0.332614
   8 C :   -0.190428
   9 N :    0.167153
  10 C :   -0.186678
  11 N :    0.174190
  12 C :   -0.066777
  13 C :    0.229982
  14 C :   -0.333566
  15 C :   -0.181890
  16 N :    0.182735
  17 C :   -0.184189
  18 N :    0.174610
  19 C :    0.020358
  20 C :   -0.092724
  21 C :    0.057321
  22 N :   -0.009660
  23 C :    0.006297
  24 C :    0.046333
  25 C :    0.003883
  26 S :   -0.116602
  27 C :   -0.064936
  28 C :    0.017850
  29 N :   -0.018304
  30 C :    0.072116
  31 C :    0.060460
  32 C :    0.026771
  33 N :   -0.024189
  34 C :    0.144987
  35 C :   -0.161721
  36 C :    0.096626
  37 N :   -0.034126
  38 C :    0.142006
  39 C :   -0.170924
  40 C :    0.028951
  41 C :   -0.037306
  42 C :    0.012855
  43 C :    0.076350
  44 N :   -0.032162
  45 C :    0.041201
  46 C :    0.000128
  47 C :   -0.034877
  48 S :   -0.127210
  49 C :    0.013146
  50 C :    0.021808
  51 N :   -0.017545
  52 C :    0.076378
  53 C :   -0.056571
  54 C :    0.030802
  55 C :   -0.030093
  56 C :    0.271491
  57 C :   -0.331250
  58 C :   -0.184449
  59 N :    0.169026
  60 C :   -0.188085
  61 N :    0.170961
  62 C :    0.013484
  63 C :    0.047011
  64 C :   -0.036049
  65 C :    0.048348
  66 C :    0.050678
  67 C :   -0.029259
  68 C :    0.216788
  69 C :   -0.337160
  70 C :   -0.116202
  71 N :    0.126211
  72 C :   -0.206974
  73 N :    0.199766
  74 H :    0.008316
  75 H :    0.006636
  76 H :    0.008589
  77 H :    0.008737
  78 H :    0.035554
  79 H :    0.014882
  80 H :    0.009419
  81 H :    0.107869
  82 H :   -0.021619
  83 H :    0.118417
  84 H :   -0.028177
  85 H :   -0.002846
  86 H :   -0.010114
  87 H :    0.019855
  88 H :    0.020252
  89 H :    0.025977
  90 H :   -0.002007
  91 H :    0.005672
  92 H :    0.009064
  93 H :    0.010670
Sum of atomic charges:    0.0000000

LOEWDIN ATOMIC CHARGES
----------------------
   0 C :    0.006207
   1 C :    0.004852
   2 C :    0.006894
   3 C :    0.003200
   4 C :   -0.011558
   5 C :   -0.012885
   6 C :    0.074707
   7 C :   -0.120537
   8 C :   -0.018499
   9 N :   -0.039351
  10 C :   -0.025171
  11 N :   -0.029468
  12 C :   -0.042044
  13 C :    0.064643
  14 C :   -0.119730
  15 C :   -0.021285
  16 N :   -0.031286
  17 C :   -0.019382
  18 N :   -0.034892
  19 C :    0.067844
  20 C :   -0.061147
  21 C :    0.065810
  22 N :   -0.066822
  23 C :    0.013727
  24 C :    0.002746
  25 C :   -0.127602
  26 S :    0.089444
  27 C :   -0.085767
  28 C :    0.063827
  29 N :   -0.068943
  30 C :    0.102918
  31 C :   -0.027477
  32 C :    0.007122
  33 N :    0.077257
  34 C :    0.004867
  35 C :   -0.075595
  36 C :    0.014805
  37 N :    0.072404
  38 C :   -0.000909
  39 C :   -0.073566
  40 C :    0.004818
  41 C :   -0.034219
  42 C :   -0.023524
  43 C :    0.102224
  44 N :   -0.065434
  45 C :    0.061160
  46 C :   -0.057811
  47 C :   -0.141997
  48 S :    0.072529
  49 C :   -0.000936
  50 C :    0.025288
  51 N :   -0.062592
  52 C :    0.087669
  53 C :   -0.059730
  54 C :    0.060050
  55 C :   -0.032276
  56 C :    0.079485
  57 C :   -0.123568
  58 C :   -0.023359
  59 N :   -0.035446
  60 C :   -0.019458
  61 N :   -0.036346
  62 C :   -0.008865
  63 C :   -0.007165
  64 C :   -0.000093
  65 C :    0.006663
  66 C :    0.007445
  67 C :    0.007793
  68 C :    0.075791
  69 C :   -0.144489
  70 C :    0.027389
  71 N :   -0.062285
  72 C :   -0.025168
  73 N :   -0.034083
  74 H :    0.042310
  75 H :    0.038923
  76 H :    0.039215
  77 H :    0.042024
  78 H :    0.051099
  79 H :    0.023411
  80 H :    0.027153
  81 H :    0.032448
  82 H :    0.030820
  83 H :    0.062271
  84 H :    0.027123
  85 H :    0.037182
  86 H :    0.027499
  87 H :    0.028388
  88 H :    0.031125
  89 H :    0.051873
  90 H :    0.036956
  91 H :    0.038382
  92 H :    0.039866
  93 H :    0.043115

  Mayer bond orders larger than 0.100000
B(  0-C ,  1-C ) :   1.3738 B(  0-C ,  5-C ) :   1.3799 B(  0-C , 74-H ) :   0.9832
B(  1-C ,  2-C ) :   1.3739 B(  1-C , 75-H ) :   0.9858 B(  2-C ,  3-C ) :   1.3676
B(  2-C , 76-H ) :   0.9865 B(  3-C ,  4-C ) :   1.3791 B(  3-C , 77-H ) :   0.9872
B(  4-C ,  5-C ) :   1.3072 B(  4-C , 13-C ) :   1.0166 B(  5-C ,  6-C ) :   1.0021
B(  6-C ,  7-C ) :   1.6613 B(  6-C , 12-C ) :   1.0293 B(  7-C ,  8-C ) :   1.1450
B(  7-C , 10-C ) :   1.1311 B(  8-C ,  9-N ) :   2.9795 B( 10-C , 11-N ) :   2.9829
B( 12-C , 13-C ) :   1.0089 B( 12-C , 19-C ) :   1.6592 B( 13-C , 14-C ) :   1.6540
B( 14-C , 15-C ) :   1.1441 B( 14-C , 17-C ) :   1.1447 B( 15-C , 16-N ) :   3.0044
B( 17-C , 18-N ) :   2.9943 B( 19-C , 20-C ) :   1.0774 B( 19-C , 78-H ) :   0.9346
B( 20-C , 21-C ) :   1.0086 B( 20-C , 24-C ) :   1.5207 B( 21-C , 22-N ) :   1.7460
B( 21-C , 79-H ) :   0.9876 B( 22-N , 23-C ) :   1.2623 B( 23-C , 24-C ) :   1.1043
B( 23-C , 28-C ) :   1.4894 B( 24-C , 25-C ) :   1.0304 B( 25-C , 26-S ) :   1.6325
B( 25-C , 27-C ) :   1.0834 B( 26-S , 81-H ) :   0.1807 B( 27-C , 28-C ) :   1.0884
B( 27-C , 31-C ) :   1.4189 B( 28-C , 29-N ) :   1.2490 B( 29-N , 30-C ) :   1.7465
B( 30-C , 31-C ) :   1.0265 B( 30-C , 80-H ) :   0.9867 B( 31-C , 32-C ) :   1.1144
B( 32-C , 33-N ) :   1.2517 B( 32-C , 39-C ) :   1.2998 B( 33-N , 34-C ) :   1.1933
B( 33-N , 81-H ) :   0.8539 B( 34-C , 35-C ) :   1.2830 B( 34-C , 38-C ) :   1.2328
B( 35-C , 36-C ) :   1.3036 B( 35-C , 82-H ) :   1.0435 B( 36-C , 37-N ) :   1.2150
B( 36-C , 40-C ) :   1.1832 B( 37-N , 38-C ) :   1.1881 B( 37-N , 83-H ) :   0.8778
B( 38-C , 39-C ) :   1.3183 B( 39-C , 84-H ) :   1.0269 B( 40-C , 41-C ) :   1.5630
B( 40-C , 85-H ) :   0.9631 B( 41-C , 42-C ) :   1.1975 B( 41-C , 86-H ) :   0.9605
B( 42-C , 43-C ) :   1.0053 B( 42-C , 46-C ) :   1.4646 B( 43-C , 44-N ) :   1.7551
B( 43-C , 87-H ) :   0.9883 B( 44-N , 45-C ) :   1.2661 B( 45-C , 46-C ) :   1.0546
B( 45-C , 50-C ) :   1.4845 B( 46-C , 47-C ) :   1.0643 B( 47-C , 48-S ) :   1.6271
B( 47-C , 49-C ) :   1.0138 B( 49-C , 50-C ) :   1.0574 B( 49-C , 53-C ) :   1.5253
B( 50-C , 51-N ) :   1.2968 B( 51-N , 52-C ) :   1.7318 B( 52-C , 53-C ) :   1.0287
B( 52-C , 88-H ) :   0.9956 B( 53-C , 54-C ) :   1.1019 B( 54-C , 55-C ) :   1.6848
B( 54-C , 89-H ) :   0.9252 B( 55-C , 56-C ) :   1.0221 B( 55-C , 68-C ) :   1.0064
B( 56-C , 57-C ) :   1.6679 B( 56-C , 62-C ) :   1.0114 B( 57-C , 58-C ) :   1.1295
B( 57-C , 60-C ) :   1.1413 B( 58-C , 59-N ) :   2.9936 B( 60-C , 61-N ) :   2.9860
B( 62-C , 63-C ) :   1.3067 B( 62-C , 67-C ) :   1.3779 B( 63-C , 64-C ) :   1.3733
B( 63-C , 68-C ) :   1.0370 B( 64-C , 65-C ) :   1.3699 B( 64-C , 90-H ) :   0.9864
B( 65-C , 66-C ) :   1.3722 B( 65-C , 91-H ) :   0.9867 B( 66-C , 67-C ) :   1.3734
B( 66-C , 92-H ) :   0.9864 B( 67-C , 93-H ) :   0.9845 B( 68-C , 69-C ) :   1.6286
B( 69-C , 70-C ) :   1.1502 B( 69-C , 72-C ) :   1.1622 B( 70-C , 71-N ) :   2.8888
B( 71-N , 83-H ) :   0.1400 B( 72-C , 73-N ) :   3.0098

-----------------------------------------------------------------------------
         ABSORPTION SPECTRUM VIA TRANSITION ELECTRIC DIPOLE MOMENTS
-----------------------------------------------------------------------------
State   Energy  Wavelength   fosc         T2         TX        TY        TZ
        (cm-1)    (nm)                  (au**2)     (au)      (au)      (au)
-----------------------------------------------------------------------------
   0    8713.4   1147.7   0.221729330   8.37741   1.45478   1.46348  -2.02960
   1    9180.8   1089.2   0.203529507   7.29833   1.27403   1.49450  -1.85517
   2   12462.3    802.4   0.923755983  24.40249  -2.58563  -2.66339   3.25935
   3   14831.7    674.2   0.015590962   0.34607   0.00517  -0.43541   0.39554
   4   16610.7    602.0   0.120417948   2.38660  -0.42701  -0.81141   1.24334
   5   17581.7    568.8   0.000073539   0.00138   0.00165   0.02959  -0.02233
   6   18580.9    538.2   0.007505671   0.13298   0.22941   0.25412  -0.12561
   7   18766.3    532.9   0.020203019   0.35442   0.35026   0.35839  -0.32139
   8   20186.9    495.4   0.060496227   0.98658   0.58261   0.65309  -0.46970
   9   20422.8    489.6   0.027634868   0.44547   0.66402   0.04851   0.04685
  10   20536.7    486.9   0.004490464   0.07198   0.24375  -0.11075   0.01750
  11   20727.9    482.4   0.001258705   0.01999  -0.12752  -0.05028   0.03467
  12   20972.5    476.8   0.006279353   0.09857   0.30683   0.02905  -0.05984
  13   21112.3    473.7   0.122437894   1.90922   1.34037  -0.13358   0.30788
  14   21560.1    463.8   0.040978814   0.62573  -0.01942   0.67180  -0.41718
  15   22260.0    449.2   0.281744859   4.16683   1.46006   1.05177  -0.96376
  16   23031.5    434.2   0.029847138   0.42664   0.55637   0.25002  -0.23361
  17   23126.6    432.4   0.000726423   0.01034  -0.02414  -0.03024   0.09404
  18   23356.2    428.2   0.017989389   0.25357  -0.22965  -0.34256   0.28892
  19   23914.8    418.2   0.000791193   0.01089  -0.09730   0.02848  -0.02475
  20   24172.8    413.7   0.036604915   0.49853   0.48876   0.50045   0.09585
  21   24495.6    408.2   0.018027880   0.24229   0.45522  -0.03151   0.18457
  22   24934.3    401.1   0.087812103   1.15940   0.40104  -0.61232   0.78970
  23   25292.5    395.4   0.051762628   0.67375   0.38640   0.65081  -0.31763
  24   25409.0    393.6   0.018257132   0.23655   0.26936   0.05878  -0.40067
  25   25914.3    385.9   0.029075300   0.36937   0.58982   0.11475   0.09120
  26   26274.3    380.6   0.022175087   0.27785  -0.30126   0.42346  -0.08815
  27   26526.6    377.0   0.019115817   0.23724  -0.36185   0.19634  -0.26030
  28   26614.9    375.7   0.010526851   0.13021   0.19567  -0.29953  -0.04698
  29   27101.8    369.0   0.105205658   1.27796   0.44674  -1.00026   0.27903
  30   27155.3    368.3   0.057777118   0.70045   0.52898  -0.41914   0.49492
  31   27545.0    363.0   0.182160487   2.17714  -1.35653  -0.55856   0.15809
  32   27754.2    360.3   0.190230008   2.25645   0.76015   0.45197  -1.21423
  33   27983.0    357.4   0.112052537   1.31827  -1.10023  -0.32596   0.03885
  34   28178.7    354.9   0.075375860   0.88062   0.85215   0.35475   0.16911
  35   28872.5    346.3   0.181241760   2.06656   1.39952   0.31877   0.07935
  36   29509.7    338.9   0.124231498   1.38593   1.17390   0.02219   0.08599
  37   29718.3    336.5   0.046889359   0.51943  -0.66635   0.10341   0.25438
  38   29834.2    335.2   0.001008025   0.01112  -0.08961   0.02662  -0.04883
  39   29982.7    333.5   0.050486352   0.55434  -0.67307  -0.31630  -0.03573
  40   30248.5    330.6   0.020691809   0.22520  -0.16109  -0.21346   0.39203
  41   30454.1    328.4   0.031916093   0.34502  -0.28554  -0.51263  -0.02645
  42   30553.7    327.3   0.005681042   0.06121   0.08429   0.23150  -0.02268
  43   30732.3    325.4   0.028900177   0.30959  -0.42095  -0.25403   0.26049
  44   30955.2    323.0   0.086170349   0.91643  -0.89481  -0.29633   0.16714
  45   31152.2    321.0   0.260880872   2.75696   1.31752   0.91582   0.42705
  46   31225.4    320.3   0.038306243   0.40387  -0.57532  -0.21962   0.15699
  47   31467.6    317.8   0.025350519   0.26522   0.49546  -0.13933  -0.01793
  48   31661.8    315.8   0.073640836   0.76570   0.71421   0.50391   0.04096
  49   31749.8    315.0   0.014231846   0.14757  -0.06271  -0.31327   0.21330
  50   32201.5    310.5   0.017436048   0.17826  -0.26258  -0.08575   0.31931
  51   32446.4    308.2   0.210165484   2.13241  -0.75869  -0.95639   0.80132
  52   32558.3    307.1   0.257018303   2.59883   1.09451  -1.17089  -0.17290
  53   32711.5    305.7   0.021582939   0.21721  -0.18872   0.38070  -0.19148
  54   32776.3    305.1   0.023244708   0.23347   0.19210   0.39007  -0.21075
  55   32922.5    303.7   0.109922730   1.09918   0.39692  -0.65886   0.71242
  56   33110.8    302.0   0.132153801   1.31397  -0.52888   0.85019  -0.55806
  57   33212.5    301.1   0.353605163   3.50503   1.37435  -0.82288   0.96905
  58   33274.5    300.5   0.009444143   0.09344   0.12399   0.14236  -0.24041
  59   33395.5    299.4   0.005564905   0.05486  -0.14252   0.07023   0.17209
  60   33744.4    296.3   0.033516923   0.32699  -0.52022  -0.23494  -0.03415
  61   34234.3    292.1   0.035953034   0.34574  -0.01146   0.15066  -0.56825
  62   34442.8    290.3   0.016047503   0.15339  -0.38192   0.08085   0.03146
  63   34638.9    288.7   0.026468525   0.25156  -0.27170  -0.41569   0.07029
  64   34687.2    288.3   0.014526024   0.13786  -0.24853  -0.11525  -0.25063
  65   34815.4    287.2   0.035773483   0.33827   0.08316   0.04357   0.57398
  66   35038.5    285.4   0.150247467   1.41168   0.85785   0.60713  -0.55424
  67   35141.4    284.6   0.097352455   0.91202  -0.80111  -0.45674   0.24825
  68   35246.8    283.7   0.052538874   0.49072   0.58942   0.23890  -0.29366
  69   35312.9    283.2   0.057365679   0.53480   0.62779   0.34846   0.13876
  70   35383.5    282.6   0.052331563   0.48690  -0.56360  -0.28247  -0.29911
  71   35673.0    280.3   0.317841734   2.93323   0.63594   0.47369  -1.51803
  72   36130.9    276.8   0.041790999   0.38078   0.58327  -0.05091  -0.19491
  73   36353.5    275.1   0.031013290   0.28085  -0.27912  -0.09918  -0.43944
  74   36434.6    274.5   0.018340369   0.16572   0.32448  -0.09962   0.22474
  75   36584.1    273.3   0.024896804   0.22404   0.37894  -0.26515   0.10069
  76   36792.8    271.8   0.061150130   0.54715  -0.01959  -0.29240   0.67917
  77   36938.5    270.7   0.039315875   0.35040  -0.17848  -0.27073   0.49523
  78   37316.5    268.0   0.068158464   0.60130  -0.38189  -0.27972  -0.61418
  79   37414.8    267.3   0.300681813   2.64569  -0.79447  -0.43034  -1.35252
  80   37431.4    267.2   0.124542996   1.09537   0.40113   0.32020  -0.91211
  81   37515.2    266.6   0.090741153   0.79629  -0.34491  -0.17204  -0.80482
  82   37569.0    266.2   0.000928037   0.00813  -0.03723  -0.01947  -0.07980
  83   37923.4    263.7   0.000071799   0.00062   0.00646   0.01774   0.01633
  84   38149.8    262.1   0.006916874   0.05969   0.18465   0.13983  -0.07771
  85   38286.5    261.2   0.063736131   0.54804   0.12428  -0.17870   0.70758
  86   38436.2    260.2   0.038730985   0.33174   0.14078  -0.20533  -0.51938
  87   38639.7    258.8   0.018194600   0.15502   0.32928   0.19029   0.10191
  88   38971.0    256.6   0.007747117   0.06544  -0.09045   0.03145  -0.23722
  89   39259.6    254.7   0.153399039   1.28633  -0.39944   0.17396  -1.04715
  90   39530.8    253.0   0.095902607   0.79868   0.37330   0.38524  -0.71478
  91   39606.4    252.5   0.007872570   0.06544   0.08181  -0.06558   0.23333
  92   39692.7    251.9   0.257334115   2.13433  -1.00347  -0.39544   0.98539
  93   39828.2    251.1   0.045788403   0.37848  -0.04379  -0.13765   0.59801
  94   39924.0    250.5   0.038962425   0.32128  -0.37266  -0.24381   0.35066
  95   40024.0    249.9   0.062595930   0.51487   0.02012  -0.17186   0.69637
  96   40213.9    248.7   0.054192753   0.44365  -0.34072  -0.34933   0.45335

FINAL SINGLE POINT ENERGY     -3780.688878794174

DIPOLE MOMENT
-------------
                                X             Y             Z
Electronic contribution:      5.17359       3.02651     -10.56413
Nuclear contribution   :     -5.84263      -2.38564      12.79439
                        -----------------------------------------
Total Dipole Moment    :     -0.66904       0.64087       2.23027
                        -----------------------------------------
Magnitude (a.u.)       :      2.41504
Magnitude (Debye)      :      6.13854

Rotational constants in cm-1:     0.002381     0.000253     0.000237
Rotational constants in MHz :    71.372439     7.589683     7.116304

                             ****ORCA TERMINATED NORMALLY****
TOTAL RUN TIME: 0 days 0 hours 11 minutes 4 seconds 63 msec
