                         Program Version 4.2.0 -  RELEASE  -
|  1> # ORCA input file
|  2> # SCF done       -213.996249174161          0.000647232637
|  3> ! CAM-B3LYP def2-SVP def2/J RIJCOSX Grid4 TightSCF
|  4> %maxcore 5000
|  5> %tddft
|  6>     Mode sTDDFT
|  7>     Ethresh 5.0
|  8>     maxcore 5000
|  9> end
| 10>
| 11> %pal
| 12>   nprocs 6
| 13>   end
| 14> * xyz 0 1
| 15>    C        0.91941         0.60055        -1.58022
| 16>    C        2.24615         0.28043        -1.54431
| 17>    C        2.74289        -1.03307        -1.69520
| 18>    N        3.19833        -2.07984        -1.80707
| 19>    C        3.29496         1.21576        -1.39583
| 20>    N        4.19517         1.92067        -1.30228
| 21>    C       -0.18627        -0.31219        -1.82979
| 22>    C       -1.38851         0.44533        -1.96044
| 23>    C       -2.59145        -0.14855        -2.22585
| 24>    C       -2.64875        -1.55114        -2.37168
| 25>    C       -1.45323        -2.31667        -2.23463
| 26>    C       -0.22336        -1.67551        -1.96207
| 27>    C       -1.52344        -3.71671        -2.38290
| 28>    C       -2.71479        -4.33263        -2.65582
| 29>    C       -3.89035        -3.57847        -2.79151
| 30>    C       -3.85847        -2.21743        -2.65243
| 31>    C       -1.09032         1.86960        -1.80635
| 32>    O       -1.85954         2.80242        -1.93685
| 33>    C        0.35982         1.94224        -1.45960
| 34>    C        0.97750         3.03790        -0.97351
| 35>    C        0.34854         4.33788        -0.85052
| 36>    C        0.42723         5.07760         0.33459
| 37>    C        1.16072         4.59486         1.52100
| 38>    O        1.63576         3.50985         1.68819
| 39>    S        1.22121         5.90402         2.72873
| 40>    C        0.23552         7.02594         1.70684
| 41>    O        0.08581         8.16967         2.00915
| 42>    C       -0.19755         6.31213         0.48907
| 43>    C       -1.05397         6.85125        -0.50036
| 44>    C       -1.08461         6.12970        -1.72296
| 45>    C       -0.37306         4.94494        -1.88704
| 46>    C       -0.43064         4.36648        -3.25112
| 47>    O        0.28411         3.54276        -3.73627
| 48>    S       -1.70980         5.21086        -4.16500
| 49>    C       -1.91512         6.45973        -2.89949
| 50>    O       -2.64157         7.39797        -3.06822
| 51>    C       -1.85419         8.00608        -0.19307
| 52>    N       -2.12467         9.03198        -1.06691
| 53>    C       -2.91856         9.93110        -0.43907
| 54>    C       -3.59132        11.13594        -0.59602
| 55>    C       -4.21930        11.39070         0.63265
| 56>    N       -3.94676        10.36514         1.51309
| 57>    C       -3.15347         9.46308         0.88405
| 58>    C       -2.48310         8.25689         1.03579
| 59>    C       -5.01567        12.52078         0.93932
| 60>    C       -5.57066        12.77367         2.14984
| 61>    C       -6.43838        13.86729         2.45828
| 62>    C       -7.45625        13.71646         3.43049
| 63>    C       -7.65400        12.52249         4.26636
| 64>    O       -7.04664        11.49065         4.26681
| 65>    S       -9.03718        12.80272         5.39214
| 66>    C       -9.34829        14.44256         4.76119
| 67>    O      -10.19696        15.17671         5.17576
| 68>    C       -8.38882        14.71969         3.67944
| 69>    C       -8.40896        15.92735         2.98238
| 70>    C       -7.36227        16.11186         2.07121
| 71>    C       -6.38196        15.15088         1.85297
| 72>    C       -5.22673        15.67073         1.09352
| 73>    O       -4.15919        15.17235         0.90552
| 74>    S       -5.59966        17.33975         0.51386
| 75>    C       -7.19488        17.36543         1.30185
| 76>    O       -7.97716        18.26102         1.18146
| 77>    C       -9.44843        16.91713         3.24156
| 78>    C       -9.19876        18.12174         3.78078
| 79>    C      -10.13596        19.20059         4.07523
| 80>    C      -11.48287        19.18496         3.85231
| 81>    C      -12.34967        20.25533         4.16615
| 82>    N      -13.10294        21.08866         4.39957
| 83>    C      -12.19488        18.11189         3.27190
| 84>    N      -12.83507        17.28907         2.79257
| 85>    C       -9.36465        20.30265         4.63174
| 86>    C       -7.98940        19.92756         4.69381
| 87>    C       -7.82965        18.56292         4.18636
| 88>    O       -6.81059        17.90946         4.10508
| 89>    C       -7.02830        20.78115         5.15867
| 90>    C       -7.40305        22.07164         5.59076
| 91>    C       -8.77569        22.45374         5.53581
| 92>    C       -9.74798        21.55076         5.05052
| 93>    C       -9.13842        23.74549         5.96945
| 94>    C       -8.19288        24.61906         6.43326
| 95>    C       -6.84209        24.24228         6.48580
| 96>    C       -6.45543        22.99584         6.07401
| 97>    H       -3.48640         0.44747        -2.32659
| 98>    H        0.66336        -2.28141        -1.86321
| 99>    H       -0.61611        -4.29320        -2.27965
|100>    H       -2.75777        -5.40528        -2.76959
|101>    H       -4.82090        -4.08143        -3.00718
|102>    H       -4.75976        -1.63150        -2.75653
|103>    H        1.97910         2.95873        -0.57146
|104>    H       -1.87073         9.04550        -2.04039
|105>    H       -3.63363        11.77076        -1.45748
|106>    H       -4.28082        10.31169         2.45999
|107>    H       -2.46629         7.61478         1.89263
|108>    H       -5.19084        13.18496         0.10668
|109>    H       -5.44943        12.05284         2.94423
|110>    H      -10.45778        16.60745         3.00468
|111>    H       -5.99348        20.47388         5.19177
|112>    H      -10.77718        21.87135         5.01876
|113>    H      -10.17902        24.03136         5.92655
|114>    H       -8.48036        25.60637         6.76201
|115>    H       -6.10979        24.94497         6.85395
|116>    H       -5.41727        22.70026         6.11186
|117> *
|118>
|119>                          ****END OF INPUT****

CARTESIAN COORDINATES (ANGSTROEM)
---------------------------------
  C      0.919410    0.600550   -1.580220
  C      2.246150    0.280430   -1.544310
  C      2.742890   -1.033070   -1.695200
  N      3.198330   -2.079840   -1.807070
  C      3.294960    1.215760   -1.395830
  N      4.195170    1.920670   -1.302280
  C     -0.186270   -0.312190   -1.829790
  C     -1.388510    0.445330   -1.960440
  C     -2.591450   -0.148550   -2.225850
  C     -2.648750   -1.551140   -2.371680
  C     -1.453230   -2.316670   -2.234630
  C     -0.223360   -1.675510   -1.962070
  C     -1.523440   -3.716710   -2.382900
  C     -2.714790   -4.332630   -2.655820
  C     -3.890350   -3.578470   -2.791510
  C     -3.858470   -2.217430   -2.652430
  C     -1.090320    1.869600   -1.806350
  O     -1.859540    2.802420   -1.936850
  C      0.359820    1.942240   -1.459600
  C      0.977500    3.037900   -0.973510
  C      0.348540    4.337880   -0.850520
  C      0.427230    5.077600    0.334590
  C      1.160720    4.594860    1.521000
  O      1.635760    3.509850    1.688190
  S      1.221210    5.904020    2.728730
  C      0.235520    7.025940    1.706840
  O      0.085810    8.169670    2.009150
  C     -0.197550    6.312130    0.489070
  C     -1.053970    6.851250   -0.500360
  C     -1.084610    6.129700   -1.722960
  C     -0.373060    4.944940   -1.887040
  C     -0.430640    4.366480   -3.251120
  O      0.284110    3.542760   -3.736270
  S     -1.709800    5.210860   -4.165000
  C     -1.915120    6.459730   -2.899490
  O     -2.641570    7.397970   -3.068220
  C     -1.854190    8.006080   -0.193070
  N     -2.124670    9.031980   -1.066910
  C     -2.918560    9.931100   -0.439070
  C     -3.591320   11.135940   -0.596020
  C     -4.219300   11.390700    0.632650
  N     -3.946760   10.365140    1.513090
  C     -3.153470    9.463080    0.884050
  C     -2.483100    8.256890    1.035790
  C     -5.015670   12.520780    0.939320
  C     -5.570660   12.773670    2.149840
  C     -6.438380   13.867290    2.458280
  C     -7.456250   13.716460    3.430490
  C     -7.654000   12.522490    4.266360
  O     -7.046640   11.490650    4.266810
  S     -9.037180   12.802720    5.392140
  C     -9.348290   14.442560    4.761190
  O    -10.196960   15.176710    5.175760
  C     -8.388820   14.719690    3.679440
  C     -8.408960   15.927350    2.982380
  C     -7.362270   16.111860    2.071210
  C     -6.381960   15.150880    1.852970
  C     -5.226730   15.670730    1.093520
  O     -4.159190   15.172350    0.905520
  S     -5.599660   17.339750    0.513860
  C     -7.194880   17.365430    1.301850
  O     -7.977160   18.261020    1.181460
  C     -9.448430   16.917130    3.241560
  C     -9.198760   18.121740    3.780780
  C    -10.135960   19.200590    4.075230
  C    -11.482870   19.184960    3.852310
  C    -12.349670   20.255330    4.166150
  N    -13.102940   21.088660    4.399570
  C    -12.194880   18.111890    3.271900
  N    -12.835070   17.289070    2.792570
  C     -9.364650   20.302650    4.631740
  C     -7.989400   19.927560    4.693810
  C     -7.829650   18.562920    4.186360
  O     -6.810590   17.909460    4.105080
  C     -7.028300   20.781150    5.158670
  C     -7.403050   22.071640    5.590760
  C     -8.775690   22.453740    5.535810
  C     -9.747980   21.550760    5.050520
  C     -9.138420   23.745490    5.969450
  C     -8.192880   24.619060    6.433260
  C     -6.842090   24.242280    6.485800
  C     -6.455430   22.995840    6.074010
  H     -3.486400    0.447470   -2.326590
  H      0.663360   -2.281410   -1.863210
  H     -0.616110   -4.293200   -2.279650
  H     -2.757770   -5.405280   -2.769590
  H     -4.820900   -4.081430   -3.007180
  H     -4.759760   -1.631500   -2.756530
  H      1.979100    2.958730   -0.571460
  H     -1.870730    9.045500   -2.040390
  H     -3.633630   11.770760   -1.457480
  H     -4.280820   10.311690    2.459990
  H     -2.466290    7.614780    1.892630
  H     -5.190840   13.184960    0.106680
  H     -5.449430   12.052840    2.944230
  H    -10.457780   16.607450    3.004680
  H     -5.993480   20.473880    5.191770
  H    -10.777180   21.871350    5.018760
  H    -10.179020   24.031360    5.926550
  H     -8.480360   25.606370    6.762010
  H     -6.109790   24.944970    6.853950
  H     -5.417270   22.700260    6.111860

 Total Charge           Charge          ....    0
 Multiplicity           Mult            ....    1
 Number of Electrons    NEL             ....  578
 Basis Dimension        Dim             .... 1264

ORBITAL ENERGIES
----------------

  NO   OCC          E(Eh)            E(eV)
   0   2.0000     -88.957024     -2420.6437
   1   2.0000     -88.956756     -2420.6364
   2   2.0000     -88.956248     -2420.6226
   3   2.0000     -88.952825     -2420.5294
   4   2.0000     -19.251879      -523.8703
   5   2.0000     -19.250049      -523.8205
   6   2.0000     -19.249694      -523.8108
   7   2.0000     -19.249598      -523.8082
   8   2.0000     -19.245156      -523.6873
   9   2.0000     -19.244411      -523.6670
  10   2.0000     -19.244405      -523.6669
  11   2.0000     -19.244188      -523.6610
  12   2.0000     -19.234908      -523.4085
  13   2.0000     -19.225679      -523.1573
  14   2.0000     -14.465472      -393.6255
  15   2.0000     -14.463935      -393.5837
  16   2.0000     -14.422206      -392.4482
  17   2.0000     -14.420610      -392.4047
  18   2.0000     -14.419373      -392.3711
  19   2.0000     -14.419258      -392.3680
  20   2.0000     -10.414775      -283.4004
  21   2.0000     -10.412845      -283.3479
  22   2.0000     -10.412319      -283.3336
  23   2.0000     -10.411026      -283.2984
  24   2.0000     -10.410692      -283.2893
  25   2.0000     -10.409858      -283.2666
  26   2.0000     -10.408814      -283.2382
  27   2.0000     -10.407698      -283.2079
  28   2.0000     -10.383419      -282.5472
  29   2.0000     -10.375371      -282.3282
  30   2.0000     -10.352152      -281.6964
  31   2.0000     -10.348473      -281.5963
  32   2.0000     -10.347578      -281.5719
  33   2.0000     -10.347203      -281.5617
  34   2.0000     -10.344478      -281.4876
  35   2.0000     -10.338939      -281.3368
  36   2.0000     -10.338729      -281.3311
  37   2.0000     -10.336399      -281.2677
  38   2.0000     -10.336051      -281.2583
  39   2.0000     -10.334396      -281.2132
  40   2.0000     -10.332952      -281.1739
  41   2.0000     -10.332892      -281.1723
  42   2.0000     -10.330496      -281.1071
  43   2.0000     -10.329245      -281.0730
  44   2.0000     -10.328241      -281.0457
  45   2.0000     -10.327723      -281.0316
  46   2.0000     -10.326489      -280.9980
  47   2.0000     -10.325543      -280.9723
  48   2.0000     -10.324030      -280.9311
  49   2.0000     -10.322367      -280.8859
  50   2.0000     -10.322278      -280.8835
  51   2.0000     -10.321390      -280.8593
  52   2.0000     -10.321264      -280.8559
  53   2.0000     -10.317073      -280.7418
  54   2.0000     -10.313283      -280.6387
  55   2.0000     -10.312322      -280.6126
  56   2.0000     -10.308275      -280.5024
  57   2.0000     -10.307830      -280.4903
  58   2.0000     -10.306574      -280.4561
  59   2.0000     -10.306223      -280.4466
  60   2.0000     -10.305643      -280.4308
  61   2.0000     -10.305026      -280.4140
  62   2.0000     -10.304574      -280.4017
  63   2.0000     -10.303673      -280.3772
  64   2.0000     -10.303014      -280.3593
  65   2.0000     -10.302726      -280.3514
  66   2.0000     -10.302511      -280.3456
  67   2.0000     -10.302413      -280.3429
  68   2.0000     -10.301221      -280.3105
  69   2.0000     -10.299609      -280.2666
  70   2.0000     -10.294447      -280.1262
  71   2.0000     -10.294293      -280.1220
  72   2.0000     -10.293787      -280.1082
  73   2.0000     -10.293493      -280.1002
  74   2.0000     -10.292784      -280.0809
  75   2.0000     -10.290808      -280.0271
  76   2.0000     -10.290413      -280.0164
  77   2.0000     -10.290172      -280.0098
  78   2.0000     -10.289547      -279.9928
  79   2.0000     -10.284002      -279.8419
  80   2.0000     -10.279591      -279.7219
  81   2.0000     -10.278272      -279.6860
  82   2.0000      -8.056196      -219.2202
  83   2.0000      -8.055897      -219.2121
  84   2.0000      -8.055638      -219.2051
  85   2.0000      -8.052174      -219.1108
  86   2.0000      -6.025027      -163.9493
  87   2.0000      -6.024803      -163.9432
  88   2.0000      -6.024504      -163.9351
  89   2.0000      -6.021798      -163.8615
  90   2.0000      -6.021478      -163.8528
  91   2.0000      -6.021261      -163.8468
  92   2.0000      -6.021015      -163.8401
  93   2.0000      -6.017743      -163.7511
  94   2.0000      -6.017280      -163.7385
  95   2.0000      -6.016938      -163.7292
  96   2.0000      -6.016603      -163.7201
  97   2.0000      -6.013255      -163.6290
  98   2.0000      -1.176024       -32.0013
  99   2.0000      -1.175343       -31.9827
 100   2.0000      -1.174293       -31.9541
 101   2.0000      -1.171145       -31.8685
 102   2.0000      -1.171135       -31.8682
 103   2.0000      -1.170241       -31.8439
 104   2.0000      -1.169512       -31.8241
 105   2.0000      -1.167073       -31.7577
 106   2.0000      -1.148001       -31.2387
 107   2.0000      -1.140588       -31.0370
 108   2.0000      -1.100291       -29.9405
 109   2.0000      -1.064030       -28.9537
 110   2.0000      -1.026824       -27.9413
 111   2.0000      -1.024103       -27.8673
 112   2.0000      -1.023684       -27.8559
 113   2.0000      -1.021073       -27.7848
 114   2.0000      -1.006448       -27.3868
 115   2.0000      -1.002827       -27.2883
 116   2.0000      -0.999755       -27.2047
 117   2.0000      -0.997639       -27.1471
 118   2.0000      -0.980221       -26.6732
 119   2.0000      -0.976190       -26.5635
 120   2.0000      -0.972788       -26.4709
 121   2.0000      -0.969635       -26.3851
 122   2.0000      -0.943510       -25.6742
 123   2.0000      -0.942775       -25.6542
 124   2.0000      -0.929925       -25.3046
 125   2.0000      -0.928149       -25.2562
 126   2.0000      -0.923774       -25.1372
 127   2.0000      -0.923559       -25.1313
 128   2.0000      -0.901141       -24.5213
 129   2.0000      -0.899629       -24.4801
 130   2.0000      -0.892990       -24.2995
 131   2.0000      -0.889475       -24.2039
 132   2.0000      -0.885702       -24.1012
 133   2.0000      -0.876592       -23.8533
 134   2.0000      -0.871788       -23.7225
 135   2.0000      -0.863819       -23.5057
 136   2.0000      -0.858019       -23.3479
 137   2.0000      -0.855093       -23.2683
 138   2.0000      -0.852640       -23.2015
 139   2.0000      -0.837007       -22.7761
 140   2.0000      -0.833190       -22.6722
 141   2.0000      -0.817706       -22.2509
 142   2.0000      -0.804818       -21.9002
 143   2.0000      -0.802277       -21.8311
 144   2.0000      -0.799659       -21.7598
 145   2.0000      -0.791235       -21.5306
 146   2.0000      -0.771405       -20.9910
 147   2.0000      -0.770525       -20.9670
 148   2.0000      -0.767093       -20.8737
 149   2.0000      -0.753695       -20.5091
 150   2.0000      -0.738768       -20.1029
 151   2.0000      -0.731498       -19.9051
 152   2.0000      -0.728084       -19.8122
 153   2.0000      -0.715067       -19.4580
 154   2.0000      -0.712462       -19.3871
 155   2.0000      -0.709034       -19.2938
 156   2.0000      -0.706860       -19.2346
 157   2.0000      -0.703479       -19.1426
 158   2.0000      -0.702644       -19.1199
 159   2.0000      -0.699557       -19.0359
 160   2.0000      -0.696110       -18.9421
 161   2.0000      -0.686778       -18.6882
 162   2.0000      -0.680916       -18.5287
 163   2.0000      -0.675772       -18.3887
 164   2.0000      -0.664867       -18.0920
 165   2.0000      -0.664145       -18.0723
 166   2.0000      -0.660231       -17.9658
 167   2.0000      -0.653422       -17.7805
 168   2.0000      -0.647447       -17.6179
 169   2.0000      -0.643243       -17.5035
 170   2.0000      -0.635689       -17.2980
 171   2.0000      -0.633688       -17.2435
 172   2.0000      -0.632211       -17.2033
 173   2.0000      -0.628910       -17.1135
 174   2.0000      -0.624991       -17.0069
 175   2.0000      -0.616537       -16.7768
 176   2.0000      -0.615307       -16.7434
 177   2.0000      -0.612856       -16.6767
 178   2.0000      -0.612118       -16.6566
 179   2.0000      -0.611413       -16.6374
 180   2.0000      -0.603573       -16.4240
 181   2.0000      -0.595100       -16.1935
 182   2.0000      -0.594520       -16.1777
 183   2.0000      -0.584102       -15.8942
 184   2.0000      -0.580144       -15.7865
 185   2.0000      -0.575491       -15.6599
 186   2.0000      -0.570173       -15.5152
 187   2.0000      -0.567941       -15.4545
 188   2.0000      -0.567050       -15.4302
 189   2.0000      -0.560840       -15.2612
 190   2.0000      -0.559780       -15.2324
 191   2.0000      -0.557423       -15.1683
 192   2.0000      -0.556606       -15.1460
 193   2.0000      -0.554539       -15.0898
 194   2.0000      -0.554048       -15.0764
 195   2.0000      -0.552274       -15.0281
 196   2.0000      -0.551686       -15.0121
 197   2.0000      -0.549537       -14.9537
 198   2.0000      -0.547940       -14.9102
 199   2.0000      -0.546398       -14.8682
 200   2.0000      -0.545137       -14.8339
 201   2.0000      -0.542239       -14.7551
 202   2.0000      -0.541628       -14.7384
 203   2.0000      -0.540577       -14.7098
 204   2.0000      -0.539689       -14.6857
 205   2.0000      -0.538962       -14.6659
 206   2.0000      -0.537134       -14.6162
 207   2.0000      -0.535086       -14.5604
 208   2.0000      -0.534325       -14.5397
 209   2.0000      -0.531751       -14.4697
 210   2.0000      -0.529269       -14.4021
 211   2.0000      -0.526135       -14.3168
 212   2.0000      -0.524519       -14.2729
 213   2.0000      -0.523783       -14.2529
 214   2.0000      -0.523156       -14.2358
 215   2.0000      -0.518729       -14.1153
 216   2.0000      -0.518347       -14.1049
 217   2.0000      -0.515405       -14.0249
 218   2.0000      -0.514127       -13.9901
 219   2.0000      -0.512588       -13.9482
 220   2.0000      -0.509769       -13.8715
 221   2.0000      -0.507771       -13.8171
 222   2.0000      -0.507297       -13.8043
 223   2.0000      -0.503636       -13.7046
 224   2.0000      -0.501384       -13.6434
 225   2.0000      -0.501222       -13.6389
 226   2.0000      -0.498920       -13.5763
 227   2.0000      -0.492113       -13.3911
 228   2.0000      -0.489994       -13.3334
 229   2.0000      -0.487900       -13.2764
 230   2.0000      -0.482053       -13.1173
 231   2.0000      -0.480237       -13.0679
 232   2.0000      -0.478547       -13.0219
 233   2.0000      -0.476908       -12.9773
 234   2.0000      -0.474763       -12.9189
 235   2.0000      -0.473686       -12.8896
 236   2.0000      -0.470786       -12.8107
 237   2.0000      -0.469359       -12.7719
 238   2.0000      -0.464997       -12.6532
 239   2.0000      -0.458767       -12.4837
 240   2.0000      -0.454185       -12.3590
 241   2.0000      -0.452065       -12.3013
 242   2.0000      -0.450026       -12.2458
 243   2.0000      -0.449096       -12.2205
 244   2.0000      -0.447866       -12.1871
 245   2.0000      -0.447442       -12.1755
 246   2.0000      -0.444270       -12.0892
 247   2.0000      -0.441021       -12.0008
 248   2.0000      -0.440369       -11.9830
 249   2.0000      -0.438079       -11.9207
 250   2.0000      -0.437048       -11.8927
 251   2.0000      -0.432604       -11.7717
 252   2.0000      -0.430439       -11.7128
 253   2.0000      -0.426651       -11.6098
 254   2.0000      -0.423740       -11.5306
 255   2.0000      -0.418005       -11.3745
 256   2.0000      -0.414902       -11.2900
 257   2.0000      -0.413784       -11.2596
 258   2.0000      -0.411450       -11.1961
 259   2.0000      -0.406016       -11.0483
 260   2.0000      -0.391630       -10.6568
 261   2.0000      -0.386609       -10.5202
 262   2.0000      -0.384458       -10.4616
 263   2.0000      -0.384109       -10.4521
 264   2.0000      -0.380907       -10.3650
 265   2.0000      -0.379228       -10.3193
 266   2.0000      -0.379033       -10.3140
 267   2.0000      -0.371303       -10.1037
 268   2.0000      -0.370021       -10.0688
 269   2.0000      -0.368048       -10.0151
 270   2.0000      -0.362471        -9.8633
 271   2.0000      -0.358137        -9.7454
 272   2.0000      -0.357654        -9.7323
 273   2.0000      -0.356907        -9.7119
 274   2.0000      -0.356127        -9.6907
 275   2.0000      -0.354899        -9.6573
 276   2.0000      -0.349424        -9.5083
 277   2.0000      -0.346602        -9.4315
 278   2.0000      -0.343487        -9.3468
 279   2.0000      -0.339121        -9.2279
 280   2.0000      -0.329070        -8.9544
 281   2.0000      -0.326230        -8.8772
 282   2.0000      -0.323136        -8.7930
 283   2.0000      -0.318396        -8.6640
 284   2.0000      -0.313883        -8.5412
 285   2.0000      -0.300220        -8.1694
 286   2.0000      -0.297063        -8.0835
 287   2.0000      -0.294278        -8.0077
 288   2.0000      -0.246051        -6.6954
 289   0.0000      -0.106441        -2.8964
 290   0.0000      -0.099435        -2.7058
 291   0.0000      -0.098935        -2.6922
 292   0.0000      -0.094794        -2.5795
 293   0.0000      -0.077031        -2.0961

MULLIKEN ATOMIC CHARGES
-----------------------
   0 C :    0.295388
   1 C :   -0.319323
   2 C :   -0.187798
   3 N :    0.156525
   4 C :   -0.189431
   5 N :    0.168199
   6 C :    0.055862
   7 C :   -0.004575
   8 C :   -0.071538
   9 C :    0.095602
  10 C :    0.099011
  11 C :   -0.082812
  12 C :   -0.018130
  13 C :    0.036694
  14 C :    0.038168
  15 C :   -0.013028
  16 C :    0.171131
  17 O :   -0.171471
  18 C :   -0.047177
  19 C :   -0.036021
  20 C :    0.011149
  21 C :    0.031454
  22 C :    0.051308
  23 O :   -0.131283
  24 S :    0.027267
  25 C :    0.018447
  26 O :   -0.107904
  27 C :    0.004288
  28 C :    0.094447
  29 C :    0.047643
  30 C :    0.053627
  31 C :    0.040268
  32 O :   -0.127690
  33 S :    0.042344
  34 C :    0.027929
  35 O :   -0.157227
  36 C :   -0.035573
  37 N :    0.007325
  38 C :    0.118275
  39 C :   -0.148998
  40 C :    0.049519
  41 N :   -0.026929
  42 C :    0.103847
  43 C :   -0.099768
  44 C :    0.116256
  45 C :   -0.082837
  46 C :    0.070218
  47 C :    0.043595
  48 C :    0.032946
  49 O :   -0.141412
  50 S :    0.025986
  51 C :    0.052424
  52 O :   -0.126811
  53 C :    0.034714
  54 C :   -0.008048
  55 C :    0.076181
  56 C :    0.008254
  57 C :    0.024975
  58 O :   -0.118297
  59 S :    0.022991
  60 C :    0.044596
  61 O :   -0.131656
  62 C :   -0.068521
  63 C :   -0.021154
  64 C :    0.334770
  65 C :   -0.338060
  66 C :   -0.186460
  67 N :    0.153495
  68 C :   -0.186751
  69 N :    0.162571
  70 C :    0.052628
  71 C :   -0.005535
  72 C :    0.158473
  73 O :   -0.161945
  74 C :   -0.075924
  75 C :    0.100289
  76 C :    0.100735
  77 C :   -0.087962
  78 C :   -0.021463
  79 C :    0.040777
  80 C :    0.038488
  81 C :   -0.017263
  82 H :   -0.009653
  83 H :   -0.004916
  84 H :   -0.006482
  85 H :    0.000384
  86 H :   -0.002549
  87 H :   -0.014835
  88 H :    0.051422
  89 H :    0.130335
  90 H :   -0.023179
  91 H :    0.136625
  92 H :   -0.026381
  93 H :   -0.011414
  94 H :   -0.007103
  95 H :    0.050335
  96 H :   -0.011710
  97 H :   -0.007058
  98 H :   -0.007046
  99 H :   -0.003321
 100 H :   -0.002455
 101 H :   -0.015299
Sum of atomic charges:    0.0000000

LOEWDIN ATOMIC CHARGES
----------------------
   0 C :    0.076471
   1 C :   -0.119640
   2 C :   -0.015971
   3 N :   -0.044108
   4 C :   -0.019606
   5 N :   -0.038603
   6 C :   -0.021950
   7 C :   -0.056422
   8 C :    0.039593
   9 C :   -0.008455
  10 C :   -0.002720
  11 C :    0.022063
  12 C :   -0.004287
  13 C :   -0.008799
  14 C :   -0.009764
  15 C :   -0.007090
  16 C :    0.097345
  17 O :   -0.141502
  18 C :   -0.061082
  19 C :    0.076273
  20 C :    0.000692
  21 C :   -0.036391
  22 C :   -0.048491
  23 O :   -0.110283
  24 S :    0.308323
  25 C :   -0.043993
  26 O :   -0.100372
  27 C :   -0.068380
  28 C :    0.035077
  29 C :   -0.066933
  30 C :   -0.015796
  31 C :   -0.045601
  32 O :   -0.116869
  33 S :    0.328347
  34 C :   -0.040979
  35 O :   -0.131048
  36 C :   -0.014636
  37 N :    0.092533
  38 C :   -0.009373
  39 C :   -0.066405
  40 C :    0.002357
  41 N :    0.074492
  42 C :   -0.009455
  43 C :   -0.055783
  44 C :    0.033487
  45 C :   -0.069992
  46 C :    0.045390
  47 C :   -0.066645
  48 C :   -0.035388
  49 O :   -0.123034
  50 S :    0.310097
  51 C :   -0.046128
  52 O :   -0.106821
  53 C :   -0.043988
  54 C :    0.013905
  55 C :   -0.025016
  56 C :   -0.061813
  57 C :   -0.040341
  58 O :   -0.107327
  59 S :    0.311510
  60 C :   -0.047523
  61 O :   -0.117436
  62 C :    0.081325
  63 C :   -0.062983
  64 C :    0.079002
  65 C :   -0.122397
  66 C :   -0.015634
  67 N :   -0.046508
  68 C :   -0.015828
  69 N :   -0.042270
  70 C :   -0.022177
  71 C :   -0.056470
  72 C :    0.090847
  73 O :   -0.147557
  74 C :    0.038042
  75 C :   -0.007756
  76 C :   -0.003525
  77 C :    0.021947
  78 C :   -0.004486
  79 C :   -0.010073
  80 C :   -0.010436
  81 C :   -0.007894
  82 H :    0.040436
  83 H :    0.040201
  84 H :    0.035945
  85 H :    0.035046
  86 H :    0.034096
  87 H :    0.032924
  88 H :    0.049341
  89 H :    0.083058
  90 H :    0.030524
  91 H :    0.094869
  92 H :    0.025595
  93 H :    0.035879
  94 H :    0.023587
  95 H :    0.051458
  96 H :    0.040020
  97 H :    0.039811
  98 H :    0.035649
  99 H :    0.034064
 100 H :    0.033889
 101 H :    0.032719

  Mayer bond orders larger than 0.100000
B(  0-C ,  1-C ) :   1.6849 B(  0-C ,  6-C ) :   1.0020 B(  0-C , 18-C ) :   1.0323
B(  1-C ,  2-C ) :   1.1394 B(  1-C ,  4-C ) :   1.1363 B(  2-C ,  3-N ) :   2.9710
B(  4-C ,  5-N ) :   2.9864 B(  6-C ,  7-C ) :   1.2061 B(  6-C , 11-C ) :   1.4470
B(  7-C ,  8-C ) :   1.4567 B(  7-C , 16-C ) :   0.9692 B(  8-C ,  9-C ) :   1.1858
B(  8-C , 82-H ) :   1.0174 B(  9-C , 10-C ) :   1.2512 B(  9-C , 15-C ) :   1.2412
B( 10-C , 11-C ) :   1.2082 B( 10-C , 12-C ) :   1.2395 B( 11-C , 83-H ) :   0.9910
B( 12-C , 13-C ) :   1.4894 B( 12-C , 84-H ) :   0.9982 B( 13-C , 14-C ) :   1.2574
B( 13-C , 85-H ) :   0.9891 B( 14-C , 15-C ) :   1.4905 B( 14-C , 86-H ) :   0.9891
B( 15-C , 87-H ) :   0.9983 B( 16-C , 17-O ) :   2.1448 B( 16-C , 18-C ) :   0.9303
B( 18-C , 19-C ) :   1.7303 B( 19-C , 20-C ) :   1.0411 B( 19-C , 88-H ) :   0.9131
B( 20-C , 21-C ) :   1.3969 B( 20-C , 30-C ) :   1.3726 B( 21-C , 22-C ) :   0.8491
B( 21-C , 27-C ) :   1.3212 B( 22-C , 23-O ) :   2.1416 B( 22-C , 24-S ) :   1.0476
B( 23-O , 24-S ) :   0.1107 B( 24-S , 25-C ) :   1.0053 B( 24-S , 26-O ) :   0.1028
B( 25-C , 26-O ) :   2.1995 B( 25-C , 27-C ) :   0.8449 B( 27-C , 28-C ) :   1.3594
B( 28-C , 29-C ) :   1.3063 B( 28-C , 36-C ) :   1.0493 B( 29-C , 30-C ) :   1.3589
B( 29-C , 34-C ) :   0.8443 B( 30-C , 31-C ) :   0.8152 B( 31-C , 32-O ) :   2.1919
B( 31-C , 33-S ) :   1.0205 B( 32-O , 33-S ) :   0.1042 B( 33-S , 34-C ) :   1.0525
B( 33-S , 35-O ) :   0.1027 B( 34-C , 35-O ) :   2.1334 B( 36-C , 37-N ) :   1.2210
B( 36-C , 43-C ) :   1.3906 B( 37-N , 38-C ) :   1.1927 B( 37-N , 89-H ) :   0.9188
B( 38-C , 39-C ) :   1.2471 B( 38-C , 42-C ) :   1.2849 B( 39-C , 40-C ) :   1.3481
B( 39-C , 90-H ) :   1.0409 B( 40-C , 41-N ) :   1.1955 B( 40-C , 44-C ) :   1.2070
B( 41-N , 42-C ) :   1.1683 B( 41-N , 91-H ) :   0.9283 B( 42-C , 43-C ) :   1.3250
B( 43-C , 92-H ) :   1.0168 B( 44-C , 45-C ) :   1.5942 B( 44-C , 93-H ) :   0.9440
B( 45-C , 46-C ) :   1.1748 B( 45-C , 94-H ) :   0.9405 B( 46-C , 47-C ) :   1.3382
B( 46-C , 56-C ) :   1.2768 B( 47-C , 48-C ) :   0.8630 B( 47-C , 53-C ) :   1.3012
B( 48-C , 49-O ) :   2.1363 B( 48-C , 50-S ) :   1.0287 B( 49-O , 50-S ) :   0.1007
B( 50-S , 51-C ) :   1.0362 B( 50-S , 52-O ) :   0.1084 B( 51-C , 52-O ) :   2.1536
B( 51-C , 53-C ) :   0.8497 B( 53-C , 54-C ) :   1.4353 B( 54-C , 55-C ) :   1.3774
B( 54-C , 62-C ) :   0.9951 B( 55-C , 56-C ) :   1.3613 B( 55-C , 60-C ) :   0.8347
B( 56-C , 57-C ) :   0.8523 B( 57-C , 58-O ) :   2.1924 B( 57-C , 59-S ) :   1.0155
B( 58-O , 59-S ) :   0.1017 B( 59-S , 60-C ) :   1.0393 B( 59-S , 61-O ) :   0.1098
B( 60-C , 61-O ) :   2.1747 B( 62-C , 63-C ) :   1.7747 B( 62-C , 95-H ) :   0.9072
B( 63-C , 64-C ) :   1.0273 B( 63-C , 72-C ) :   0.9207 B( 64-C , 65-C ) :   1.6723
B( 64-C , 70-C ) :   1.0006 B( 65-C , 66-C ) :   1.1389 B( 65-C , 68-C ) :   1.1478
B( 66-C , 67-N ) :   2.9664 B( 68-C , 69-N ) :   2.9678 B( 70-C , 71-C ) :   1.2125
B( 70-C , 77-C ) :   1.4392 B( 71-C , 72-C ) :   0.9541 B( 71-C , 74-C ) :   1.4595
B( 72-C , 73-O ) :   2.1971 B( 74-C , 75-C ) :   1.1830 B( 74-C , 96-H ) :   1.0172
B( 75-C , 76-C ) :   1.2549 B( 75-C , 81-C ) :   1.2396 B( 76-C , 77-C ) :   1.2097
B( 76-C , 78-C ) :   1.2364 B( 77-C , 97-H ) :   0.9906 B( 78-C , 79-C ) :   1.4921
B( 78-C , 98-H ) :   0.9979 B( 79-C , 80-C ) :   1.2587 B( 79-C , 99-H ) :   0.9875
B( 80-C , 81-C ) :   1.4902 B( 80-C ,100-H ) :   0.9882 B( 81-C ,101-H ) :   0.9985

-----------------------------------------------------------------------------
         ABSORPTION SPECTRUM VIA TRANSITION ELECTRIC DIPOLE MOMENTS
-----------------------------------------------------------------------------
State   Energy  Wavelength   fosc         T2         TX        TY        TZ
        (cm-1)    (nm)                  (au**2)     (au)      (au)      (au)
-----------------------------------------------------------------------------
   0   14621.1    683.9   0.036959575   0.83219  -0.62898   0.58171  -0.31336
   1   15806.1    632.7   0.029649997   0.61756  -0.16009  -0.67448   0.37013
   2   16359.3    611.3   1.362513965  27.41908   2.53072  -4.28207  -1.63659
   3   20285.0    493.0   0.328174678   5.32605   1.42594  -1.57467  -0.90175
   4   22705.9    440.4   0.103918144   1.50670   0.75304  -0.84131  -0.48147
   5   23573.5    424.2   0.016875824   0.23568  -0.29207   0.38251   0.06370
   6   24754.0    404.0   0.005619867   0.07474   0.00567   0.21163  -0.17297
   7   24903.5    401.6   0.018576690   0.24557   0.31784  -0.38020   0.00113
   8   25454.9    392.9   0.027147818   0.35111   0.18934  -0.54370   0.14018
   9   25966.0    385.1   0.005333227   0.06762  -0.19340   0.08678  -0.15061
  10   26179.2    382.0   0.027283508   0.34310  -0.24306   0.11638   0.52008
  11   26365.7    379.3   0.020348304   0.25408   0.43487  -0.25385  -0.02288
  12   26931.0    371.3   0.030487780   0.37269  -0.16091  -0.58142  -0.09356
  13   26990.3    370.5   0.032784454   0.39989   0.61964   0.12357  -0.02573
  14   27312.1    366.1   0.019545677   0.23560   0.11250   0.02872   0.47129
  15   27857.2    359.0   0.021259523   0.25124   0.11746   0.48695  -0.01802
  16   28392.8    352.2   0.039876302   0.46236  -0.44526   0.44215   0.26193
  17   28409.0    352.0   0.001501754   0.01740  -0.01950   0.04341   0.12304
  18   28821.8    347.0   0.006123636   0.06995   0.05326   0.25904   0.00235
  19   28831.7    346.8   0.015780603   0.18019  -0.00861  -0.40142  -0.13777
  20   29039.6    344.4   0.021475121   0.24346   0.06203   0.48648  -0.05427
  21   29148.8    343.1   0.139488533   1.57541  -0.05879   1.15048   0.49835
  22   29381.2    340.4   0.001755097   0.01967   0.07877   0.04361  -0.10751
  23   29926.0    334.2   0.020436564   0.22482  -0.45975   0.11414  -0.02062
  24   30537.1    327.5   0.040538452   0.43703  -0.17462   0.50423   0.39025
  25   30712.9    325.6   0.200248800   2.14647  -0.39729   1.40155   0.15582
  26   30982.0    322.8   0.138857176   1.47548   0.21454   1.13660   0.37093
  27   31174.9    320.8   0.057787404   0.61025   0.72525   0.24009   0.16312
  28   31261.5    319.9   0.075887344   0.79916  -0.07862   0.88226   0.12086
  29   31331.3    319.2   0.023727067   0.24931   0.36402   0.34134   0.01695
  30   31966.0    312.8   0.007796894   0.08030   0.00573  -0.21567   0.18371
  31   32313.1    309.5   0.006567343   0.06691  -0.25107   0.02069  -0.05870
  32   32644.7    306.3   0.305080886   3.07665   1.41299   1.03216   0.12142
  33   32803.5    304.8   0.259869548   2.60802  -1.12618  -1.13416  -0.23111
  34   32925.5    303.7   0.046530429   0.46524  -0.62813  -0.17478  -0.20038
  35   33059.4    302.5   0.105367152   1.04927   0.96783   0.30660  -0.13629
  36   33129.9    301.8   0.020474751   0.20346   0.39849   0.13276   0.16444
  37   33459.3    298.9   0.171528860   1.68770  -0.17314  -1.13298  -0.61161
  38   33628.7    297.4   0.447231968   4.37823  -1.36331  -1.38983  -0.76679
  39   33765.3    296.2   0.065926885   0.64279   0.72499   0.21707   0.26469
  40   34038.0    293.8   0.243145826   2.35168   0.81611   1.28931   0.15270
  41   34232.1    292.1   0.021999151   0.21157   0.11431   0.39154   0.21260
  42   34257.1    291.9   0.055843804   0.53666   0.70542   0.18167   0.07770
  43   34474.5    290.1   0.028209954   0.26939   0.42169   0.18040   0.24295
  44   34746.2    287.8   0.473805576   4.48919  -1.02752  -1.64260  -0.85747
  45   34938.1    286.2   0.118171068   1.11349   0.47104  -0.93920   0.09756
  46   35048.8    285.3   0.037395871   0.35126  -0.56935  -0.16452   0.00549
  47   35102.9    284.9   0.100763397   0.94501  -0.10792  -0.94971  -0.17722
  48   35371.9    282.7   0.121737478   1.13303  -0.06498  -0.95745  -0.46055
  49   35454.6    282.1   0.030476271   0.28299  -0.29039  -0.35430  -0.27044
  50   35852.4    278.9   0.055784965   0.51224  -0.28027  -0.20320  -0.62642
  51   35985.7    277.9   0.023465222   0.21467   0.42377  -0.02265   0.18595
  52   36032.6    277.5   0.023471456   0.21445  -0.22591   0.16547  -0.36882
  53   36164.6    276.5   0.041900608   0.38143   0.60811  -0.00786   0.10754
  54   36316.9    275.4   0.048281253   0.43767  -0.08711   0.32553   0.56930
  55   36664.4    272.7   0.012095531   0.10861   0.32134  -0.02502  -0.06872
  56   36855.5    271.3   0.008517435   0.07608  -0.06728  -0.23241   0.13245
  57   37124.5    269.4   0.005058440   0.04486   0.05377   0.11582  -0.16897
  58   37140.5    269.2   0.017528862   0.15537  -0.21047  -0.11885   0.31137
  59   37238.3    268.5   0.031439169   0.27794   0.14048  -0.14031  -0.48839
  60   37279.9    268.2   0.101550878   0.89678  -0.16673   0.90470  -0.22471
  61   37387.3    267.5   0.016485742   0.14516   0.31380   0.05160   0.20983
  62   37500.9    266.7   0.000407601   0.00358   0.05378  -0.01301   0.02273
  63   37650.5    265.6   0.017201178   0.15041   0.35726  -0.05693  -0.13976
  64   37842.8    264.3   0.032156123   0.27974   0.50514  -0.04126   0.15122
  65   37907.4    263.8   0.039571666   0.34367   0.11469  -0.40854   0.40448
  66   37963.3    263.4   0.215689149   1.87042   1.25284  -0.54251   0.08064
  67   38376.5    260.6   0.029967194   0.25707   0.49204   0.11135   0.05072
  68   38448.2    260.1   0.098566591   0.84398   0.83425   0.05410  -0.38088
  69   38753.9    258.0   0.080525564   0.68406   0.77882   0.14473   0.23782
  70   38999.9    256.4   0.012203671   0.10302   0.24390   0.19192  -0.08183
  71   39322.8    254.3   0.262781063   2.20001   0.72418  -1.29361   0.04644
  72   39508.5    253.1   0.009631175   0.08025   0.13473  -0.06891   0.23948
  73   39668.0    252.1   0.075416753   0.62590  -0.43497   0.62554   0.21309
  74   39797.3    251.3   0.002362083   0.01954  -0.01813   0.10402  -0.09160
  75   40186.7    248.8   0.035859966   0.29377  -0.33182   0.34675  -0.25185
  76   40225.0    248.6   0.031820388   0.26043  -0.35584   0.34174   0.13045

FINAL SINGLE POINT ENERGY     -5043.393059797023

DIPOLE MOMENT
-------------
                                X             Y             Z
Electronic contribution:      8.87784      -2.55290      -3.98730
Nuclear contribution   :     -9.27001       2.32769       4.18594
                        -----------------------------------------
Total Dipole Moment    :     -0.39217      -0.22521       0.19864
                        -----------------------------------------
Magnitude (a.u.)       :      0.49394
Magnitude (Debye)      :      1.25549

Rotational constants in cm-1:     0.001970     0.000175     0.000170
Rotational constants in MHz :    59.044373     5.260937     5.104556

                             ****ORCA TERMINATED NORMALLY****
TOTAL RUN TIME: 0 days 0 hours 11 minutes 34 seconds 883 msec
