                         Program Version 4.2.0 -  RELEASE  -
|  1> # ORCA input file
|  2> # SCF done       -195.919009477552          0.000904882579
|  3> ! CAM-B3LYP def2-SVP def2/J RIJCOSX Grid4 TightSCF
|  4> %maxcore 5000
|  5> %tddft
|  6>     Mode sTDDFT
|  7>     Ethresh 5.0
|  8>     maxcore 5000
|  9> end
| 10>
| 11> %pal
| 12>   nprocs 6
| 13>   end
| 14> * xyz 0 1
| 15>    C       11.94656        -1.51196         0.33223
| 16>    C       12.96401        -2.39268         0.13156
| 17>    S       12.63520        -3.90941         0.88600
| 18>    C       11.09441        -3.35409         1.48767
| 19>   Cl       10.08998        -4.35367         2.41120
| 20>    C       10.87304        -2.06038         1.10917
| 21>    C        9.83125        -1.05953         1.30584
| 22>    O        8.78610        -1.17152         1.90802
| 23>    C       10.31940         0.14996         0.55775
| 24>    C       11.63949        -0.13645         0.00131
| 25>    C       12.47293         0.72539        -0.65110
| 26>    C       13.73674         0.30477        -1.12232
| 27>    N       14.76166        -0.02943        -1.51236
| 28>    C       12.20851         2.08933        -0.89976
| 29>    N       12.06356         3.20715        -1.11125
| 30>    C        9.58749         1.26481         0.36399
| 31>    C        8.28431         1.49257         0.95592
| 32>    C        7.98189         1.33218         2.31890
| 33>    C        9.03171         1.10537         3.34313
| 34>    O       10.21685         1.10048         3.19441
| 35>    S        8.25599         0.91841         4.93603
| 36>    C        6.61304         1.26339         4.29333
| 37>    O        5.66204         1.33327         5.01146
| 38>    C        6.68954         1.44784         2.82695
| 39>    C        5.58407         1.79247         2.01154
| 40>    C        5.91992         2.04920         0.67340
| 41>    C        7.20415         1.89302         0.16997
| 42>    C        7.14839         2.15728        -1.28891
| 43>    O        8.01814         2.10349        -2.10143
| 44>    O        5.85131         2.47677        -1.58758
| 45>    C        5.04424         2.40558        -0.46738
| 46>    O        3.86876         2.58106        -0.51367
| 47>    C        4.22104         1.94396         2.44473
| 48>    C        3.56286         1.10252         3.27049
| 49>    C        2.22478         1.34512         3.68505
| 50>    N        1.47714         0.45721         4.41915
| 51>    C        1.87017        -0.87096         4.82294
| 52>    C        1.78535        -1.86339         3.66604
| 53>    C        0.20496         0.96769         4.72483
| 54>    O       -0.63211         0.35206         5.35543
| 55>    C        0.19780         2.28878         4.13363
| 56>    C        1.44844         2.48412         3.49616
| 57>    C        1.46168         3.82030         2.93858
| 58>    O        2.30688         4.43921         2.32754
| 59>    N        0.20154         4.34800         3.27724
| 60>    C       -0.19434         5.66557         2.84118
| 61>    C       -1.12627         5.60596         1.63348
| 62>    C       -0.55729         3.45250         3.99069
| 63>    C       -1.85389         3.74290         4.49529
| 64>    C       -2.56980         2.83514         5.19929
| 65>    C       -3.86520         3.05685         5.77299
| 66>    C       -4.44007         2.08017         6.60704
| 67>    N       -5.59580         2.24178         7.20383
| 68>    C       -6.25604         3.38192         6.97405
| 69>    N       -5.83757         4.34443         6.15009
| 70>    C       -4.66667         4.19500         5.57818
| 71>    C       -7.55206         3.57435         7.58162
| 72>    C       -8.07638         2.93674         8.64849
| 73>    C       -9.56391         2.98836         8.87345
| 74>    O      -10.33868         3.75954         8.36700
| 75>    C       -9.82672         1.86758         9.78149
| 76>    C      -10.91781         1.25597        10.32542
| 77>    S      -10.42737        -0.07250        11.34865
| 78>    C       -8.75446         0.22194        11.04200
| 79>    C       -8.58797         1.27282        10.19546
| 80>    C       -7.48755         2.01759         9.61464
| 81>    C       -6.20085         1.99117        10.06891
| 82>    C       -5.79093         1.07219        11.05870
| 83>    N       -5.44728         0.31841        11.85175
| 84>    C       -5.19749         2.90822         9.69308
| 85>    N       -4.36031         3.66621         9.48984
| 86>   Cl      -12.55090         1.64554        10.10541
| 87>    H       13.88279        -2.25939        -0.40453
| 88>    H        9.92284         2.02532        -0.32982
| 89>    H        3.68927         2.77943         2.00376
| 90>    H        4.03849         0.20174         3.62865
| 91>    H        1.17230        -1.16561         5.61162
| 92>    H        2.88033        -0.84011         5.24012
| 93>    H        0.76589        -1.91089         3.29088
| 94>    H        2.07501        -2.85283         4.00854
| 95>    H        2.44092        -1.56908         2.84917
| 96>    H        0.72969         6.18109         2.56521
| 97>    H       -0.66120         6.20318         3.67128
| 98>    H       -0.62735         5.10953         0.80493
| 99>    H       -1.39251         6.61297         1.32483
|100>    H       -2.03680         5.05812         1.86683
|101>    H       -2.24637         4.73268         4.31432
|102>    H       -2.14352         1.85623         5.37880
|103>    H       -3.92681         1.14587         6.79857
|104>    H       -4.36414         5.00405         4.92594
|105>    H       -8.19744         4.27376         7.06257
|106>    H       -8.01571        -0.40628        11.49877
|107> *
|108>
|109>                          ****END OF INPUT****

CARTESIAN COORDINATES (ANGSTROEM)
---------------------------------
  C     11.946560   -1.511960    0.332230
  C     12.964010   -2.392680    0.131560
  S     12.635200   -3.909410    0.886000
  C     11.094410   -3.354090    1.487670
  Cl    10.089980   -4.353670    2.411200
  C     10.873040   -2.060380    1.109170
  C      9.831250   -1.059530    1.305840
  O      8.786100   -1.171520    1.908020
  C     10.319400    0.149960    0.557750
  C     11.639490   -0.136450    0.001310
  C     12.472930    0.725390   -0.651100
  C     13.736740    0.304770   -1.122320
  N     14.761660   -0.029430   -1.512360
  C     12.208510    2.089330   -0.899760
  N     12.063560    3.207150   -1.111250
  C      9.587490    1.264810    0.363990
  C      8.284310    1.492570    0.955920
  C      7.981890    1.332180    2.318900
  C      9.031710    1.105370    3.343130
  O     10.216850    1.100480    3.194410
  S      8.255990    0.918410    4.936030
  C      6.613040    1.263390    4.293330
  O      5.662040    1.333270    5.011460
  C      6.689540    1.447840    2.826950
  C      5.584070    1.792470    2.011540
  C      5.919920    2.049200    0.673400
  C      7.204150    1.893020    0.169970
  C      7.148390    2.157280   -1.288910
  O      8.018140    2.103490   -2.101430
  O      5.851310    2.476770   -1.587580
  C      5.044240    2.405580   -0.467380
  O      3.868760    2.581060   -0.513670
  C      4.221040    1.943960    2.444730
  C      3.562860    1.102520    3.270490
  C      2.224780    1.345120    3.685050
  N      1.477140    0.457210    4.419150
  C      1.870170   -0.870960    4.822940
  C      1.785350   -1.863390    3.666040
  C      0.204960    0.967690    4.724830
  O     -0.632110    0.352060    5.355430
  C      0.197800    2.288780    4.133630
  C      1.448440    2.484120    3.496160
  C      1.461680    3.820300    2.938580
  O      2.306880    4.439210    2.327540
  N      0.201540    4.348000    3.277240
  C     -0.194340    5.665570    2.841180
  C     -1.126270    5.605960    1.633480
  C     -0.557290    3.452500    3.990690
  C     -1.853890    3.742900    4.495290
  C     -2.569800    2.835140    5.199290
  C     -3.865200    3.056850    5.772990
  C     -4.440070    2.080170    6.607040
  N     -5.595800    2.241780    7.203830
  C     -6.256040    3.381920    6.974050
  N     -5.837570    4.344430    6.150090
  C     -4.666670    4.195000    5.578180
  C     -7.552060    3.574350    7.581620
  C     -8.076380    2.936740    8.648490
  C     -9.563910    2.988360    8.873450
  O    -10.338680    3.759540    8.367000
  C     -9.826720    1.867580    9.781490
  C    -10.917810    1.255970   10.325420
  S    -10.427370   -0.072500   11.348650
  C     -8.754460    0.221940   11.042000
  C     -8.587970    1.272820   10.195460
  C     -7.487550    2.017590    9.614640
  C     -6.200850    1.991170   10.068910
  C     -5.790930    1.072190   11.058700
  N     -5.447280    0.318410   11.851750
  C     -5.197490    2.908220    9.693080
  N     -4.360310    3.666210    9.489840
  Cl   -12.550900    1.645540   10.105410
  H     13.882790   -2.259390   -0.404530
  H      9.922840    2.025320   -0.329820
  H      3.689270    2.779430    2.003760
  H      4.038490    0.201740    3.628650
  H      1.172300   -1.165610    5.611620
  H      2.880330   -0.840110    5.240120
  H      0.765890   -1.910890    3.290880
  H      2.075010   -2.852830    4.008540
  H      2.440920   -1.569080    2.849170
  H      0.729690    6.181090    2.565210
  H     -0.661200    6.203180    3.671280
  H     -0.627350    5.109530    0.804930
  H     -1.392510    6.612970    1.324830
  H     -2.036800    5.058120    1.866830
  H     -2.246370    4.732680    4.314320
  H     -2.143520    1.856230    5.378800
  H     -3.926810    1.145870    6.798570
  H     -4.364140    5.004050    4.925940
  H     -8.197440    4.273760    7.062570
  H     -8.015710   -0.406280   11.498770

 Total Charge           Charge          ....    0
 Multiplicity           Mult            ....    1
 Number of Electrons    NEL             ....  530
 Basis Dimension        Dim             .... 1128

ORBITAL ENERGIES
----------------

  NO   OCC          E(Eh)            E(eV)
   0   2.0000    -101.629569     -2765.4812
   1   2.0000    -101.618236     -2765.1728
   2   2.0000     -89.005868     -2421.9728
   3   2.0000     -88.994293     -2421.6578
   4   2.0000     -88.961510     -2420.7658
   5   2.0000     -19.300527      -525.1940
   6   2.0000     -19.253286      -523.9085
   7   2.0000     -19.251219      -523.8523
   8   2.0000     -19.250470      -523.8319
   9   2.0000     -19.247010      -523.7378
  10   2.0000     -19.239970      -523.5462
  11   2.0000     -19.222521      -523.0714
  12   2.0000     -19.201213      -522.4916
  13   2.0000     -19.197910      -522.4017
  14   2.0000     -14.462436      -393.5429
  15   2.0000     -14.460550      -393.4916
  16   2.0000     -14.430036      -392.6613
  17   2.0000     -14.429501      -392.6467
  18   2.0000     -14.428908      -392.6306
  19   2.0000     -14.428384      -392.6163
  20   2.0000     -14.421833      -392.4380
  21   2.0000     -14.417809      -392.3285
  22   2.0000     -10.443308      -284.1769
  23   2.0000     -10.440244      -284.0935
  24   2.0000     -10.417621      -283.4779
  25   2.0000     -10.416375      -283.4440
  26   2.0000     -10.395671      -282.8806
  27   2.0000     -10.389509      -282.7129
  28   2.0000     -10.383056      -282.5373
  29   2.0000     -10.380900      -282.4786
  30   2.0000     -10.378515      -282.4138
  31   2.0000     -10.377395      -282.3833
  32   2.0000     -10.361405      -281.9482
  33   2.0000     -10.361264      -281.9443
  34   2.0000     -10.358785      -281.8769
  35   2.0000     -10.350197      -281.6432
  36   2.0000     -10.349846      -281.6336
  37   2.0000     -10.348524      -281.5976
  38   2.0000     -10.347387      -281.5667
  39   2.0000     -10.346847      -281.5520
  40   2.0000     -10.344840      -281.4974
  41   2.0000     -10.344328      -281.4835
  42   2.0000     -10.340216      -281.3716
  43   2.0000     -10.339534      -281.3530
  44   2.0000     -10.339394      -281.3492
  45   2.0000     -10.338272      -281.3187
  46   2.0000     -10.335879      -281.2536
  47   2.0000     -10.335428      -281.2413
  48   2.0000     -10.334162      -281.2069
  49   2.0000     -10.331139      -281.1246
  50   2.0000     -10.329810      -281.0884
  51   2.0000     -10.329153      -281.0705
  52   2.0000     -10.325045      -280.9588
  53   2.0000     -10.324693      -280.9492
  54   2.0000     -10.323092      -280.9056
  55   2.0000     -10.320965      -280.8477
  56   2.0000     -10.315588      -280.7014
  57   2.0000     -10.314535      -280.6728
  58   2.0000     -10.313940      -280.6566
  59   2.0000     -10.313500      -280.6446
  60   2.0000     -10.312806      -280.6257
  61   2.0000     -10.311528      -280.5909
  62   2.0000     -10.309783      -280.5435
  63   2.0000     -10.307821      -280.4901
  64   2.0000     -10.304139      -280.3899
  65   2.0000     -10.303471      -280.3717
  66   2.0000     -10.301708      -280.3237
  67   2.0000     -10.299555      -280.2651
  68   2.0000     -10.271068      -279.4900
  69   2.0000     -10.270345      -279.4703
  70   2.0000     -10.269626      -279.4507
  71   2.0000     -10.269253      -279.4406
  72   2.0000      -9.584308      -260.8023
  73   2.0000      -9.573038      -260.4956
  74   2.0000      -8.101525      -220.4537
  75   2.0000      -8.090005      -220.1402
  76   2.0000      -8.060796      -219.3454
  77   2.0000      -7.354908      -200.1372
  78   2.0000      -7.344398      -199.8512
  79   2.0000      -7.343804      -199.8351
  80   2.0000      -7.343678      -199.8316
  81   2.0000      -7.333078      -199.5432
  82   2.0000      -7.332516      -199.5279
  83   2.0000      -6.070878      -165.1970
  84   2.0000      -6.066234      -165.0706
  85   2.0000      -6.063874      -165.0064
  86   2.0000      -6.059355      -164.8834
  87   2.0000      -6.054778      -164.7589
  88   2.0000      -6.052287      -164.6911
  89   2.0000      -6.029617      -164.0742
  90   2.0000      -6.026359      -163.9856
  91   2.0000      -6.021902      -163.8643
  92   2.0000      -1.249365       -33.9970
  93   2.0000      -1.179981       -32.1089
  94   2.0000      -1.176426       -32.0122
  95   2.0000      -1.175865       -31.9969
  96   2.0000      -1.156029       -31.4572
  97   2.0000      -1.142495       -31.0889
  98   2.0000      -1.139897       -31.0182
  99   2.0000      -1.138758       -30.9872
 100   2.0000      -1.135375       -30.8951
 101   2.0000      -1.101698       -29.9787
 102   2.0000      -1.072758       -29.1912
 103   2.0000      -1.064172       -28.9576
 104   2.0000      -1.050578       -28.5877
 105   2.0000      -1.038824       -28.2678
 106   2.0000      -1.030183       -28.0327
 107   2.0000      -1.026656       -27.9367
 108   2.0000      -1.017504       -27.6877
 109   2.0000      -1.007666       -27.4200
 110   2.0000      -1.000420       -27.2228
 111   2.0000      -1.000224       -27.2175
 112   2.0000      -0.993742       -27.0411
 113   2.0000      -0.988795       -26.9065
 114   2.0000      -0.968977       -26.3672
 115   2.0000      -0.963308       -26.2130
 116   2.0000      -0.956162       -26.0185
 117   2.0000      -0.949019       -25.8241
 118   2.0000      -0.943305       -25.6686
 119   2.0000      -0.934522       -25.4296
 120   2.0000      -0.920198       -25.0399
 121   2.0000      -0.911408       -24.8007
 122   2.0000      -0.909513       -24.7491
 123   2.0000      -0.899383       -24.4735
 124   2.0000      -0.887333       -24.1456
 125   2.0000      -0.878892       -23.9159
 126   2.0000      -0.871103       -23.7039
 127   2.0000      -0.865776       -23.5590
 128   2.0000      -0.844672       -22.9847
 129   2.0000      -0.833210       -22.6728
 130   2.0000      -0.827576       -22.5195
 131   2.0000      -0.822973       -22.3942
 132   2.0000      -0.815282       -22.1849
 133   2.0000      -0.809267       -22.0213
 134   2.0000      -0.794133       -21.6095
 135   2.0000      -0.782211       -21.2850
 136   2.0000      -0.774506       -21.0754
 137   2.0000      -0.769334       -20.9346
 138   2.0000      -0.767659       -20.8891
 139   2.0000      -0.765957       -20.8428
 140   2.0000      -0.764823       -20.8119
 141   2.0000      -0.756496       -20.5853
 142   2.0000      -0.737932       -20.0801
 143   2.0000      -0.724797       -19.7227
 144   2.0000      -0.715872       -19.4799
 145   2.0000      -0.712229       -19.3807
 146   2.0000      -0.702887       -19.1265
 147   2.0000      -0.695244       -18.9186
 148   2.0000      -0.693135       -18.8612
 149   2.0000      -0.689095       -18.7512
 150   2.0000      -0.679124       -18.4799
 151   2.0000      -0.676374       -18.4051
 152   2.0000      -0.670224       -18.2377
 153   2.0000      -0.666863       -18.1463
 154   2.0000      -0.657371       -17.8880
 155   2.0000      -0.650874       -17.7112
 156   2.0000      -0.645424       -17.5629
 157   2.0000      -0.639429       -17.3997
 158   2.0000      -0.634692       -17.2709
 159   2.0000      -0.631741       -17.1905
 160   2.0000      -0.623134       -16.9563
 161   2.0000      -0.621750       -16.9187
 162   2.0000      -0.620223       -16.8771
 163   2.0000      -0.616203       -16.7677
 164   2.0000      -0.611084       -16.6284
 165   2.0000      -0.610151       -16.6031
 166   2.0000      -0.596824       -16.2404
 167   2.0000      -0.593384       -16.1468
 168   2.0000      -0.586254       -15.9528
 169   2.0000      -0.585137       -15.9224
 170   2.0000      -0.582406       -15.8481
 171   2.0000      -0.571824       -15.5601
 172   2.0000      -0.568824       -15.4785
 173   2.0000      -0.567977       -15.4554
 174   2.0000      -0.567000       -15.4289
 175   2.0000      -0.565452       -15.3867
 176   2.0000      -0.557985       -15.1835
 177   2.0000      -0.556078       -15.1317
 178   2.0000      -0.554416       -15.0864
 179   2.0000      -0.550637       -14.9836
 180   2.0000      -0.550282       -14.9739
 181   2.0000      -0.548474       -14.9247
 182   2.0000      -0.547833       -14.9073
 183   2.0000      -0.545212       -14.8360
 184   2.0000      -0.540917       -14.7191
 185   2.0000      -0.538841       -14.6626
 186   2.0000      -0.538359       -14.6495
 187   2.0000      -0.534983       -14.5576
 188   2.0000      -0.533462       -14.5162
 189   2.0000      -0.529608       -14.4114
 190   2.0000      -0.528651       -14.3853
 191   2.0000      -0.525411       -14.2972
 192   2.0000      -0.523038       -14.2326
 193   2.0000      -0.522851       -14.2275
 194   2.0000      -0.521035       -14.1781
 195   2.0000      -0.519343       -14.1320
 196   2.0000      -0.515642       -14.0313
 197   2.0000      -0.514863       -14.0101
 198   2.0000      -0.514611       -14.0033
 199   2.0000      -0.511947       -13.9308
 200   2.0000      -0.507733       -13.8161
 201   2.0000      -0.507068       -13.7980
 202   2.0000      -0.502427       -13.6717
 203   2.0000      -0.501114       -13.6360
 204   2.0000      -0.499563       -13.5938
 205   2.0000      -0.497981       -13.5507
 206   2.0000      -0.488532       -13.2936
 207   2.0000      -0.487988       -13.2788
 208   2.0000      -0.483432       -13.1548
 209   2.0000      -0.482801       -13.1377
 210   2.0000      -0.482399       -13.1267
 211   2.0000      -0.479798       -13.0560
 212   2.0000      -0.474746       -12.9185
 213   2.0000      -0.468652       -12.7527
 214   2.0000      -0.466443       -12.6926
 215   2.0000      -0.462734       -12.5916
 216   2.0000      -0.460962       -12.5434
 217   2.0000      -0.457820       -12.4579
 218   2.0000      -0.457491       -12.4490
 219   2.0000      -0.455874       -12.4050
 220   2.0000      -0.455527       -12.3955
 221   2.0000      -0.455354       -12.3908
 222   2.0000      -0.453604       -12.3432
 223   2.0000      -0.451494       -12.2858
 224   2.0000      -0.447091       -12.1660
 225   2.0000      -0.445090       -12.1115
 226   2.0000      -0.443650       -12.0723
 227   2.0000      -0.442948       -12.0532
 228   2.0000      -0.440201       -11.9785
 229   2.0000      -0.437098       -11.8941
 230   2.0000      -0.435807       -11.8589
 231   2.0000      -0.434087       -11.8121
 232   2.0000      -0.431284       -11.7358
 233   2.0000      -0.427446       -11.6314
 234   2.0000      -0.425111       -11.5679
 235   2.0000      -0.423544       -11.5252
 236   2.0000      -0.423141       -11.5143
 237   2.0000      -0.415318       -11.3014
 238   2.0000      -0.413969       -11.2647
 239   2.0000      -0.407012       -11.0754
 240   2.0000      -0.405304       -11.0289
 241   2.0000      -0.404333       -11.0025
 242   2.0000      -0.403335       -10.9753
 243   2.0000      -0.396770       -10.7967
 244   2.0000      -0.393237       -10.7005
 245   2.0000      -0.387913       -10.5557
 246   2.0000      -0.385334       -10.4855
 247   2.0000      -0.380598       -10.3566
 248   2.0000      -0.366915        -9.9843
 249   2.0000      -0.362285        -9.8583
 250   2.0000      -0.359027        -9.7696
 251   2.0000      -0.358281        -9.7493
 252   2.0000      -0.354438        -9.6448
 253   2.0000      -0.350178        -9.5288
 254   2.0000      -0.346847        -9.4382
 255   2.0000      -0.346358        -9.4249
 256   2.0000      -0.341023        -9.2797
 257   2.0000      -0.337448        -9.1824
 258   2.0000      -0.333202        -9.0669
 259   2.0000      -0.328778        -8.9465
 260   2.0000      -0.323670        -8.8075
 261   2.0000      -0.320718        -8.7272
 262   2.0000      -0.314540        -8.5591
 263   2.0000      -0.305783        -8.3208
 264   2.0000      -0.248120        -6.7517
 265   0.0000      -0.117404        -3.1947
 266   0.0000      -0.105981        -2.8839
 267   0.0000      -0.100655        -2.7390
 268   0.0000      -0.084056        -2.2873
 269   0.0000      -0.068614        -1.8671

MULLIKEN ATOMIC CHARGES
-----------------------
   0 C :    0.038780
   1 C :   -0.126342
   2 S :    0.199366
   3 C :   -0.164584
   4 Cl:    0.006902
   5 C :    0.073414
   6 C :    0.160125
   7 O :   -0.148755
   8 C :   -0.041881
   9 C :    0.283623
  10 C :   -0.309716
  11 C :   -0.194916
  12 N :    0.167681
  13 C :   -0.187052
  14 N :    0.176986
  15 C :   -0.062332
  16 C :   -0.000563
  17 C :    0.085914
  18 C :    0.043618
  19 O :   -0.131392
  20 S :    0.034882
  21 C :    0.027345
  22 O :   -0.118804
  23 C :    0.029779
  24 C :    0.047747
  25 C :   -0.062211
  26 C :   -0.057279
  27 C :    0.241355
  28 O :   -0.100722
  29 O :   -0.231147
  30 C :    0.235531
  31 O :   -0.087467
  32 C :   -0.068491
  33 C :    0.063998
  34 C :    0.089842
  35 N :   -0.252050
  36 C :    0.094361
  37 C :    0.005936
  38 C :    0.166769
  39 O :   -0.213821
  40 C :   -0.066119
  41 C :   -0.049057
  42 C :    0.167300
  43 O :   -0.194517
  44 N :   -0.257124
  45 C :    0.097325
  46 C :    0.003029
  47 C :    0.130514
  48 C :    0.005370
  49 C :    0.014974
  50 C :    0.033760
  51 C :    0.052804
  52 N :   -0.074719
  53 C :   -0.075198
  54 N :   -0.041112
  55 C :    0.041755
  56 C :    0.084529
  57 C :   -0.100831
  58 C :    0.130431
  59 O :   -0.118194
  60 C :    0.085170
  61 C :   -0.169118
  62 S :    0.186253
  63 C :   -0.127656
  64 C :    0.019074
  65 C :    0.284682
  66 C :   -0.283159
  67 C :   -0.195236
  68 N :    0.154776
  69 C :   -0.180846
  70 N :    0.161103
  71 Cl:    0.001695
  72 H :    0.057221
  73 H :    0.053910
  74 H :    0.058041
  75 H :   -0.015165
  76 H :    0.045451
  77 H :    0.033238
  78 H :    0.029056
  79 H :    0.024661
  80 H :    0.014431
  81 H :    0.047081
  82 H :    0.026828
  83 H :    0.034711
  84 H :    0.026951
  85 H :    0.012622
  86 H :   -0.024309
  87 H :    0.017634
  88 H :    0.025975
  89 H :    0.009174
  90 H :    0.032468
  91 H :    0.053935
Sum of atomic charges:   -0.0000000

LOEWDIN ATOMIC CHARGES
----------------------
   0 C :   -0.054760
   1 C :   -0.146484
   2 S :    0.488565
   3 C :   -0.268814
   4 Cl:    0.199062
   5 C :   -0.117033
   6 C :    0.090788
   7 O :   -0.135818
   8 C :   -0.051314
   9 C :    0.072906
  10 C :   -0.115695
  11 C :   -0.014157
  12 N :   -0.040554
  13 C :   -0.021920
  14 N :   -0.029426
  15 C :    0.070645
  16 C :    0.010841
  17 C :   -0.020784
  18 C :   -0.045888
  19 O :   -0.117179
  20 S :    0.324314
  21 C :   -0.040122
  22 O :   -0.106540
  23 C :   -0.055107
  24 C :    0.040151
  25 C :   -0.048273
  26 C :   -0.033166
  27 C :    0.104932
  28 O :   -0.094592
  29 O :   -0.055208
  30 C :    0.110508
  31 O :   -0.083205
  32 C :    0.002338
  33 C :    0.003445
  34 C :    0.069611
  35 N :    0.004763
  36 C :    0.037128
  37 C :   -0.060423
  38 C :    0.080384
  39 O :   -0.202455
  40 C :   -0.121460
  41 C :   -0.107519
  42 C :    0.084561
  43 O :   -0.183958
  44 N :    0.001035
  45 C :    0.036630
  46 C :   -0.060485
  47 C :    0.082972
  48 C :   -0.038025
  49 C :    0.034953
  50 C :   -0.060710
  51 C :    0.071158
  52 N :   -0.063435
  53 C :    0.018870
  54 N :   -0.062624
  55 C :    0.063790
  56 C :    0.058398
  57 C :   -0.052963
  58 C :    0.082056
  59 O :   -0.123151
  60 C :   -0.119524
  61 C :   -0.272297
  62 S :    0.476730
  63 C :   -0.153249
  64 C :   -0.054692
  65 C :    0.071008
  66 C :   -0.112906
  67 C :   -0.014887
  68 N :   -0.047204
  69 C :   -0.017663
  70 N :   -0.050470
  71 Cl:    0.193412
  72 H :    0.039540
  73 H :    0.053208
  74 H :    0.045506
  75 H :    0.029632
  76 H :    0.038650
  77 H :    0.026557
  78 H :    0.032280
  79 H :    0.031406
  80 H :    0.021669
  81 H :    0.039416
  82 H :    0.023754
  83 H :    0.034525
  84 H :    0.032155
  85 H :    0.020847
  86 H :    0.028469
  87 H :    0.039844
  88 H :    0.035040
  89 H :    0.025892
  90 H :    0.053863
  91 H :    0.037928

  Mayer bond orders larger than 0.100000
B(  0-C ,  1-C ) :   1.5449 B(  0-C ,  5-C ) :   1.2205 B(  0-C ,  9-C ) :   1.0060
B(  1-C ,  2-S ) :   1.1630 B(  1-C , 72-H ) :   0.9534 B(  2-S ,  3-C ) :   1.1619
B(  3-C ,  4-Cl) :   1.1358 B(  3-C ,  5-C ) :   1.4570 B(  5-C ,  6-C ) :   0.9753
B(  6-C ,  7-O ) :   2.1956 B(  6-C ,  8-C ) :   0.9160 B(  8-C ,  9-C ) :   1.0433
B(  8-C , 15-C ) :   1.7518 B(  9-C , 10-C ) :   1.6955 B( 10-C , 11-C ) :   1.1408
B( 10-C , 13-C ) :   1.1361 B( 11-C , 12-N ) :   2.9957 B( 13-C , 14-N ) :   2.9831
B( 15-C , 16-C ) :   1.0300 B( 15-C , 73-H ) :   0.9232 B( 16-C , 17-C ) :   1.3697
B( 16-C , 26-C ) :   1.3871 B( 17-C , 18-C ) :   0.8222 B( 17-C , 23-C ) :   1.3541
B( 18-C , 19-O ) :   2.1815 B( 18-C , 20-S ) :   1.0400 B( 19-O , 20-S ) :   0.1086
B( 20-S , 21-C ) :   1.0288 B( 20-S , 22-O ) :   0.1037 B( 21-C , 22-O ) :   2.1867
B( 21-C , 23-C ) :   0.8394 B( 23-C , 24-C ) :   1.3309 B( 24-C , 25-C ) :   1.3453
B( 24-C , 32-C ) :   1.0870 B( 25-C , 26-C ) :   1.3408 B( 25-C , 30-C ) :   0.9081
B( 26-C , 27-C ) :   0.8973 B( 27-C , 28-O ) :   2.2408 B( 27-C , 29-O ) :   1.0725
B( 29-O , 30-C ) :   1.0377 B( 30-C , 31-O ) :   2.2558 B( 32-C , 33-C ) :   1.6692
B( 32-C , 74-H ) :   0.9186 B( 33-C , 34-C ) :   1.1757 B( 33-C , 75-H ) :   0.9457
B( 34-C , 35-N ) :   1.1604 B( 34-C , 41-C ) :   1.3593 B( 35-N , 36-C ) :   0.9429
B( 35-N , 38-C ) :   1.0669 B( 36-C , 37-C ) :   1.1200 B( 36-C , 76-H ) :   0.9286
B( 36-C , 77-H ) :   0.9498 B( 37-C , 78-H ) :   0.9637 B( 37-C , 79-H ) :   0.9681
B( 37-C , 80-H ) :   0.9683 B( 38-C , 39-O ) :   2.0153 B( 38-C , 40-C ) :   0.9885
B( 39-O , 87-H ) :   0.1185 B( 40-C , 41-C ) :   1.2549 B( 40-C , 47-C ) :   1.3396
B( 41-C , 42-C ) :   0.9756 B( 42-C , 43-O ) :   2.0561 B( 42-C , 44-N ) :   1.0499
B( 44-N , 45-C ) :   0.9429 B( 44-N , 47-C ) :   1.1703 B( 45-C , 46-C ) :   1.1206
B( 45-C , 81-H ) :   0.9270 B( 45-C , 82-H ) :   0.9499 B( 46-C , 83-H ) :   0.9640
B( 46-C , 84-H ) :   0.9678 B( 46-C , 85-H ) :   0.9681 B( 47-C , 48-C ) :   1.1531
B( 48-C , 49-C ) :   1.6197 B( 48-C , 86-H ) :   0.9579 B( 49-C , 50-C ) :   1.0775
B( 49-C , 87-H ) :   0.9586 B( 50-C , 51-C ) :   1.2959 B( 50-C , 55-C ) :   1.2962
B( 51-C , 52-N ) :   1.5528 B( 51-C , 88-H ) :   0.9869 B( 52-N , 53-C ) :   1.4701
B( 53-C , 54-N ) :   1.5050 B( 53-C , 56-C ) :   1.0136 B( 54-N , 55-C ) :   1.5830
B( 55-C , 89-H ) :   0.9825 B( 56-C , 57-C ) :   1.7160 B( 56-C , 90-H ) :   0.9495
B( 57-C , 58-C ) :   0.9212 B( 57-C , 65-C ) :   1.0078 B( 58-C , 59-O ) :   2.2928
B( 58-C , 60-C ) :   0.9265 B( 60-C , 61-C ) :   1.4777 B( 60-C , 64-C ) :   1.2212
B( 61-C , 62-S ) :   1.1562 B( 61-C , 71-Cl) :   1.1306 B( 62-S , 63-C ) :   1.1577
B( 63-C , 64-C ) :   1.5511 B( 63-C , 91-H ) :   0.9559 B( 64-C , 65-C ) :   1.0131
B( 65-C , 66-C ) :   1.7078 B( 66-C , 67-C ) :   1.1354 B( 66-C , 69-C ) :   1.1522
B( 67-C , 68-N ) :   2.9992 B( 69-C , 70-N ) :   2.9810

-----------------------------------------------------------------------------
         ABSORPTION SPECTRUM VIA TRANSITION ELECTRIC DIPOLE MOMENTS
-----------------------------------------------------------------------------
State   Energy  Wavelength   fosc         T2         TX        TY        TZ
        (cm-1)    (nm)                  (au**2)     (au)      (au)      (au)
-----------------------------------------------------------------------------
   0   14324.4    698.1   0.854266784  19.63325   3.99032  -1.19991  -1.50693
   1   16057.6    622.8   0.016179547   0.33171  -0.50884   0.16728  -0.21168
   2   18568.2    538.6   0.027657462   0.49036   0.38520  -0.01195  -0.58467
   3   22014.5    454.2   0.046364406   0.69335  -0.08292  -0.60531   0.56575
   4   24202.0    413.2   0.073546249   1.00042   0.83908  -0.24807  -0.48459
   5   25089.6    398.6   0.020030888   0.26283   0.00048  -0.09315   0.50414
   6   25973.1    385.0   0.040796123   0.51709   0.65099  -0.26565   0.15078
   7   26081.8    383.4   0.069504876   0.87731  -0.70720  -0.30652   0.53219
   8   26970.1    370.8   0.047950450   0.58531   0.13354   0.58418  -0.47561
   9   27131.1    368.6   0.107044391   1.29889  -0.54284  -0.02603   1.00177
  10   27512.1    363.5   0.042725118   0.51125  -0.70439  -0.02358   0.12054
  11   28146.6    355.3   0.076506203   0.89484   0.86520   0.03312  -0.38103
  12   28415.5    351.9   0.054885050   0.63588   0.68176   0.10817  -0.39923
  13   28780.4    347.5   0.136326774   1.55941   1.16492  -0.36174  -0.26744
  14   28820.9    347.0   0.038069850   0.43486  -0.38869  -0.19142   0.49713
  15   29415.4    340.0   0.314233550   3.51685   1.50038   0.32602  -1.07676
  16   30004.2    333.3   0.017570858   0.19279   0.09044  -0.14363   0.40494
  17   31157.3    321.0   0.057836804   0.61111   0.72435  -0.07845  -0.28334
  18   31579.4    316.7   0.016494321   0.17195  -0.32848  -0.03754   0.25028
  19   31877.0    313.7   0.016120198   0.16648   0.28302  -0.23400  -0.17783
  20   32030.0    312.2   0.135450941   1.39220   0.75840   0.58755  -0.68688
  21   32332.3    309.3   0.104709415   1.06617  -1.01021   0.10532   0.18588
  22   32753.6    305.3   0.390399015   3.92397  -1.79110  -0.55135   0.64181
  23   32872.3    304.2   0.022522197   0.22556  -0.23567   0.19278  -0.36449
  24   33141.5    301.7   0.014686899   0.14589   0.22084   0.12683   0.28467
  25   33281.6    300.5   0.093551027   0.92538  -0.87051   0.14965   0.38106
  26   33353.8    299.8   0.001771576   0.01749  -0.10850   0.03097  -0.06896
  27   34028.5    293.9   0.117620733   1.13793  -0.76986  -0.61042   0.41550
  28   34091.5    293.3   0.008072716   0.07796  -0.26337  -0.07951   0.04763
  29   34338.9    291.2   0.013040248   0.12502  -0.20702  -0.17465   0.22729
  30   34640.0    288.7   0.004920812   0.04677   0.03049  -0.11170   0.18265
  31   34826.5    287.1   0.050208935   0.47462   0.24115  -0.52392   0.37680
  32   34926.4    286.3   0.050084076   0.47209  -0.62736   0.27921   0.02335
  33   35281.3    283.4   0.042982846   0.40108  -0.32437  -0.53824  -0.07848
  34   35302.0    283.3   0.088897063   0.82902  -0.30271   0.35911  -0.78002
  35   35583.2    281.0   0.090582878   0.83806  -0.85018   0.22648   0.25289
  36   35801.8    279.3   0.273510413   2.51504  -0.58888   1.46742  -0.12224
  37   35964.7    278.1   0.104089629   0.95281  -0.90298   0.21752   0.30020
  38   36009.5    277.7   0.018731532   0.17125   0.24908  -0.29675  -0.14544
  39   36216.7    276.1   0.081623303   0.74196  -0.85692  -0.08675  -0.01133
  40   36555.6    273.6   0.115456038   1.03977   0.37386   0.88133  -0.35109
  41   36620.8    273.1   0.047800907   0.42972  -0.05927  -0.65241   0.02392
  42   36748.6    272.1   0.141017535   1.26330   0.93264   0.37592  -0.50216
  43   37063.3    269.8   0.161444000   1.43401   0.58181   0.85036  -0.61025
  44   37245.0    268.5   0.081031415   0.71624  -0.78481  -0.26102   0.17941
  45   37415.5    267.3   0.037465641   0.32965  -0.12737   0.52912  -0.18291
  46   37711.8    265.2   0.048362700   0.42219  -0.39310  -0.38319   0.34761
  47   37914.9    263.7   0.021526706   0.18691   0.41872   0.10255  -0.03273
  48   38193.3    261.8   0.118169374   1.01857   0.83093  -0.42842   0.38024
  49   38251.8    261.4   0.272669363   2.34672  -1.28579  -0.72536   0.40903
  50   38263.5    261.3   0.062773511   0.54009   0.12680  -0.68455   0.23539
  51   38952.2    256.7   0.016431256   0.13887   0.27774  -0.18420   0.16675
  52   39167.2    255.3   0.027858498   0.23416  -0.07287   0.45347   0.15237
  53   39274.5    254.6   0.068676728   0.57567   0.66862   0.06158   0.35331
  54   39375.4    254.0   0.004094473   0.03423   0.13986  -0.05503   0.10791
  55   39739.0    251.6   0.050646613   0.41957   0.23104  -0.56112   0.22659
  56   39858.1    250.9   0.080821218   0.66755  -0.10198  -0.46387   0.66481
  57   39900.7    250.6   0.017084530   0.14096   0.30866   0.05018   0.20777
  58   40131.7    249.2   0.029169057   0.23928  -0.04888  -0.37553  -0.30963

FINAL SINGLE POINT ENERGY     -5142.921708844240

DIPOLE MOMENT
-------------
                                X             Y             Z
Electronic contribution:     20.48660     -23.83055      13.52721
Nuclear contribution   :    -21.41939      21.35350     -13.33337
                        -----------------------------------------
Total Dipole Moment    :     -0.93279      -2.47705       0.19384
                        -----------------------------------------
Magnitude (a.u.)       :      2.65395
Magnitude (Debye)      :      6.74581

Rotational constants in cm-1:     0.002334     0.000212     0.000201
Rotational constants in MHz :    69.980647     6.349435     6.015886

                             ****ORCA TERMINATED NORMALLY****
TOTAL RUN TIME: 0 days 0 hours 8 minutes 56 seconds 557 msec
