                         Program Version 4.2.0 -  RELEASE  -
|  1> # ORCA input file
|  2> # SCF done       -183.769310967747          0.000405549069
|  3> ! CAM-B3LYP def2-SVP def2/J RIJCOSX Grid4 TightSCF
|  4> %maxcore 5000
|  5> %tddft
|  6>     Mode sTDDFT
|  7>     Ethresh 5.0
|  8>     maxcore 5000
|  9> end
| 10>
| 11> %pal
| 12>   nprocs 6
| 13>   end
| 14> * xyz 0 1
| 15>    C       11.52298        -4.64370         4.56949
| 16>    C       12.38533        -5.69663         4.56787
| 17>    S       11.53688        -7.19853         4.55491
| 18>    C        9.98438        -6.39440         4.55976
| 19>   Cl        8.53604        -7.27282         4.54736
| 20>    C       10.14698        -5.04192         4.56258
| 21>    C        9.28299        -3.85700         4.59124
| 22>    O        8.08393        -3.82190         4.74272
| 23>    C       10.22955        -2.69742         4.52523
| 24>    C       11.59847        -3.19701         4.57482
| 25>    C       12.76232        -2.47779         4.58603
| 26>    C       14.02028        -3.11771         4.61013
| 27>    N       15.05042        -3.62187         4.63127
| 28>    C       12.86423        -1.07211         4.58323
| 29>    N       13.01817         0.06544         4.58401
| 30>    C        9.84601        -1.39778         4.51292
| 31>    C        8.49815        -0.94597         4.28952
| 32>    C        7.66898        -1.54095         3.30651
| 33>    N        8.03121        -2.43767         2.39225
| 34>    S        6.77232        -2.75941         1.45317
| 35>    N        5.71150        -1.76933         2.13768
| 36>    C        6.29575        -1.13877         3.15548
| 37>    C        5.74713        -0.12388         3.98027
| 38>    C        6.62953         0.51508         4.84258
| 39>    C        7.95859         0.12345         4.98719
| 40>    C        4.37622         0.32618         3.92408
| 41>    N        3.26024        -0.44101         3.72739
| 42>    C        3.15227        -1.88275         3.68309
| 43>    C        2.70700        -2.36968         2.30783
| 44>    C        2.08081         0.34077         3.74772
| 45>    O        0.96399        -0.11838         3.63630
| 46>    C        2.55332         1.68884         3.95099
| 47>    C        3.96357         1.64472         4.08322
| 48>    C        4.41825         3.00096         4.29155
| 49>    O        5.51908         3.47661         4.47523
| 50>    N        3.23596         3.77891         4.28195
| 51>    C        3.33494         5.21241         4.41101
| 52>    C        3.14264         5.92197         3.07291
| 53>    C        2.11831         3.00235         4.07814
| 54>    C        0.73727         3.34706         4.02604
| 55>    C        0.13122         4.53873         4.21588
| 56>    C       -1.29518         4.75640         4.17685
| 57>    C       -1.78611         6.02553         4.48872
| 58>    C       -3.14454         6.29501         4.48349
| 59>    N       -3.54402         7.64514         4.78139
| 60>    O       -2.73948         8.35264         5.35002
| 61>    O       -4.65296         8.00737         4.44164
| 62>    C       -4.08777         5.30190         4.16193
| 63>    C       -3.58151         4.03572         3.83680
| 64>    C       -2.23397         3.76602         3.84365
| 65>    C       -5.51621         5.51131         4.22693
| 66>    C       -6.39564         4.93771         3.38113
| 67>    C       -7.80556         5.15482         3.40482
| 68>    C       -8.63626         5.46770         4.43185
| 69>    C      -10.00005         5.99628         4.09110
| 70>    O      -10.52043         5.97657         3.00274
| 71>    C      -10.50289         6.55535         5.34934
| 72>    C      -11.59310         7.25612         5.77110
| 73>    S      -11.48390         7.58362         7.48480
| 74>    C       -9.97384         6.75850         7.61210
| 75>    C       -9.57736         6.27001         6.40638
| 76>    C       -8.47671         5.48593         5.87648
| 77>    C       -7.61791         4.75467         6.65360
| 78>    C       -7.65494         4.82960         8.06228
| 79>    N       -7.66265         4.88712         9.20793
| 80>    C       -6.67783         3.82586         6.17275
| 81>    N       -5.90871         3.04163         5.83927
| 82>   Cl      -12.91647         7.78266         4.85530
| 83>    H       13.45722        -5.69919         4.57541
| 84>    H       10.58041        -0.62194         4.68975
| 85>    H        6.26566         1.33416         5.44147
| 86>    H        8.57479         0.63703         5.70984
| 87>    H        2.39897        -2.17128         4.42459
| 88>    H        4.11029        -2.31928         3.96301
| 89>    H        1.73067        -1.95589         2.07178
| 90>    H        2.63700        -3.45366         2.31205
| 91>    H        3.42342        -2.06277         1.55182
| 92>    H        4.34795         5.40367         4.77884
| 93>    H        2.62421         5.56723         5.16161
| 94>    H        3.92345         5.61788         2.38023
| 95>    H        3.20549         6.99740         3.21451
| 96>    H        2.17824         5.68005         2.63182
| 97>    H        0.12961         2.47356         3.82854
| 98>    H        0.70794         5.42360         4.43564
| 99>    H       -1.10907         6.83023         4.73793
|100>    H       -4.28245         3.24406         3.62622
|101>    H       -1.90163         2.77133         3.59385
|102>    H       -5.88039         6.21003         4.96792
|103>    H       -6.02607         4.36181         2.54288
|104>    H       -8.29888         5.12050         2.43691
|105>    H       -9.48405         6.70294         8.56396
|106> *
|107>
|108>                          ****END OF INPUT****

CARTESIAN COORDINATES (ANGSTROEM)
---------------------------------
  C     11.522980   -4.643700    4.569490
  C     12.385330   -5.696630    4.567870
  S     11.536880   -7.198530    4.554910
  C      9.984380   -6.394400    4.559760
  Cl     8.536040   -7.272820    4.547360
  C     10.146980   -5.041920    4.562580
  C      9.282990   -3.857000    4.591240
  O      8.083930   -3.821900    4.742720
  C     10.229550   -2.697420    4.525230
  C     11.598470   -3.197010    4.574820
  C     12.762320   -2.477790    4.586030
  C     14.020280   -3.117710    4.610130
  N     15.050420   -3.621870    4.631270
  C     12.864230   -1.072110    4.583230
  N     13.018170    0.065440    4.584010
  C      9.846010   -1.397780    4.512920
  C      8.498150   -0.945970    4.289520
  C      7.668980   -1.540950    3.306510
  N      8.031210   -2.437670    2.392250
  S      6.772320   -2.759410    1.453170
  N      5.711500   -1.769330    2.137680
  C      6.295750   -1.138770    3.155480
  C      5.747130   -0.123880    3.980270
  C      6.629530    0.515080    4.842580
  C      7.958590    0.123450    4.987190
  C      4.376220    0.326180    3.924080
  N      3.260240   -0.441010    3.727390
  C      3.152270   -1.882750    3.683090
  C      2.707000   -2.369680    2.307830
  C      2.080810    0.340770    3.747720
  O      0.963990   -0.118380    3.636300
  C      2.553320    1.688840    3.950990
  C      3.963570    1.644720    4.083220
  C      4.418250    3.000960    4.291550
  O      5.519080    3.476610    4.475230
  N      3.235960    3.778910    4.281950
  C      3.334940    5.212410    4.411010
  C      3.142640    5.921970    3.072910
  C      2.118310    3.002350    4.078140
  C      0.737270    3.347060    4.026040
  C      0.131220    4.538730    4.215880
  C     -1.295180    4.756400    4.176850
  C     -1.786110    6.025530    4.488720
  C     -3.144540    6.295010    4.483490
  N     -3.544020    7.645140    4.781390
  O     -2.739480    8.352640    5.350020
  O     -4.652960    8.007370    4.441640
  C     -4.087770    5.301900    4.161930
  C     -3.581510    4.035720    3.836800
  C     -2.233970    3.766020    3.843650
  C     -5.516210    5.511310    4.226930
  C     -6.395640    4.937710    3.381130
  C     -7.805560    5.154820    3.404820
  C     -8.636260    5.467700    4.431850
  C    -10.000050    5.996280    4.091100
  O    -10.520430    5.976570    3.002740
  C    -10.502890    6.555350    5.349340
  C    -11.593100    7.256120    5.771100
  S    -11.483900    7.583620    7.484800
  C     -9.973840    6.758500    7.612100
  C     -9.577360    6.270010    6.406380
  C     -8.476710    5.485930    5.876480
  C     -7.617910    4.754670    6.653600
  C     -7.654940    4.829600    8.062280
  N     -7.662650    4.887120    9.207930
  C     -6.677830    3.825860    6.172750
  N     -5.908710    3.041630    5.839270
  Cl   -12.916470    7.782660    4.855300
  H     13.457220   -5.699190    4.575410
  H     10.580410   -0.621940    4.689750
  H      6.265660    1.334160    5.441470
  H      8.574790    0.637030    5.709840
  H      2.398970   -2.171280    4.424590
  H      4.110290   -2.319280    3.963010
  H      1.730670   -1.955890    2.071780
  H      2.637000   -3.453660    2.312050
  H      3.423420   -2.062770    1.551820
  H      4.347950    5.403670    4.778840
  H      2.624210    5.567230    5.161610
  H      3.923450    5.617880    2.380230
  H      3.205490    6.997400    3.214510
  H      2.178240    5.680050    2.631820
  H      0.129610    2.473560    3.828540
  H      0.707940    5.423600    4.435640
  H     -1.109070    6.830230    4.737930
  H     -4.282450    3.244060    3.626220
  H     -1.901630    2.771330    3.593850
  H     -5.880390    6.210030    4.967920
  H     -6.026070    4.361810    2.542880
  H     -8.298880    5.120500    2.436910
  H     -9.484050    6.702940    8.563960

 Total Charge           Charge          ....    0
 Multiplicity           Mult            ....    1
 Number of Electrons    NEL             ....  504
 Basis Dimension        Dim             .... 1087

ORBITAL ENERGIES
----------------

  NO   OCC          E(Eh)            E(eV)
   0   2.0000    -101.621152     -2765.2521
   1   2.0000    -101.617160     -2765.1435
   2   2.0000     -89.034989     -2422.7652
   3   2.0000     -88.997547     -2421.7464
   4   2.0000     -88.993381     -2421.6330
   5   2.0000     -19.253525      -523.9150
   6   2.0000     -19.251726      -523.8661
   7   2.0000     -19.224188      -523.1167
   8   2.0000     -19.219462      -522.9881
   9   2.0000     -19.195228      -522.3287
  10   2.0000     -19.194526      -522.3096
  11   2.0000     -14.658302      -398.8727
  12   2.0000     -14.458882      -393.4462
  13   2.0000     -14.457996      -393.4221
  14   2.0000     -14.448276      -393.1576
  15   2.0000     -14.446650      -393.1133
  16   2.0000     -14.426122      -392.5547
  17   2.0000     -14.425252      -392.5311
  18   2.0000     -14.424547      -392.5119
  19   2.0000     -14.422033      -392.4435
  20   2.0000     -10.381178      -282.4862
  21   2.0000     -10.379484      -282.4401
  22   2.0000     -10.379338      -282.4361
  23   2.0000     -10.377254      -282.3794
  24   2.0000     -10.376233      -282.3517
  25   2.0000     -10.375505      -282.3318
  26   2.0000     -10.353843      -281.7424
  27   2.0000     -10.353257      -281.7264
  28   2.0000     -10.352468      -281.7050
  29   2.0000     -10.351455      -281.6774
  30   2.0000     -10.350220      -281.6438
  31   2.0000     -10.344805      -281.4964
  32   2.0000     -10.341871      -281.4166
  33   2.0000     -10.337519      -281.2982
  34   2.0000     -10.334643      -281.2199
  35   2.0000     -10.333592      -281.1913
  36   2.0000     -10.329638      -281.0837
  37   2.0000     -10.327958      -281.0380
  38   2.0000     -10.326845      -281.0077
  39   2.0000     -10.326685      -281.0034
  40   2.0000     -10.326430      -280.9964
  41   2.0000     -10.324160      -280.9347
  42   2.0000     -10.320553      -280.8365
  43   2.0000     -10.319767      -280.8151
  44   2.0000     -10.318487      -280.7803
  45   2.0000     -10.316696      -280.7316
  46   2.0000     -10.314445      -280.6703
  47   2.0000     -10.313557      -280.6462
  48   2.0000     -10.313534      -280.6455
  49   2.0000     -10.311177      -280.5814
  50   2.0000     -10.310473      -280.5622
  51   2.0000     -10.310238      -280.5558
  52   2.0000     -10.306612      -280.4572
  53   2.0000     -10.306279      -280.4481
  54   2.0000     -10.305907      -280.4380
  55   2.0000     -10.304118      -280.3893
  56   2.0000     -10.303366      -280.3688
  57   2.0000     -10.303033      -280.3598
  58   2.0000     -10.302122      -280.3350
  59   2.0000     -10.301554      -280.3195
  60   2.0000     -10.300541      -280.2920
  61   2.0000     -10.300326      -280.2861
  62   2.0000     -10.298769      -280.2437
  63   2.0000     -10.297702      -280.2147
  64   2.0000     -10.267417      -279.3906
  65   2.0000     -10.266384      -279.3625
  66   2.0000     -10.265640      -279.3423
  67   2.0000     -10.244395      -278.7642
  68   2.0000      -9.575936      -260.5745
  69   2.0000      -9.571965      -260.4664
  70   2.0000      -8.126703      -221.1388
  71   2.0000      -8.093308      -220.2301
  72   2.0000      -8.089173      -220.1176
  73   2.0000      -7.346574      -199.9104
  74   2.0000      -7.342614      -199.8027
  75   2.0000      -7.335971      -199.6219
  76   2.0000      -7.335433      -199.6073
  77   2.0000      -7.331989      -199.5136
  78   2.0000      -7.331451      -199.4989
  79   2.0000      -6.097836      -165.9306
  80   2.0000      -6.090139      -165.7211
  81   2.0000      -6.089211      -165.6959
  82   2.0000      -6.062680      -164.9739
  83   2.0000      -6.058557      -164.8617
  84   2.0000      -6.058057      -164.8481
  85   2.0000      -6.055573      -164.7805
  86   2.0000      -6.053945      -164.7362
  87   2.0000      -6.051397      -164.6669
  88   2.0000      -1.333462       -36.2854
  89   2.0000      -1.151632       -31.3375
  90   2.0000      -1.142839       -31.0982
  91   2.0000      -1.137827       -30.9618
  92   2.0000      -1.136791       -30.9337
  93   2.0000      -1.134219       -30.8637
  94   2.0000      -1.130786       -30.7702
  95   2.0000      -1.067817       -29.0568
  96   2.0000      -1.058687       -28.8083
  97   2.0000      -1.042072       -28.3562
  98   2.0000      -1.038691       -28.2642
  99   2.0000      -1.022354       -27.8197
 100   2.0000      -1.020507       -27.7694
 101   2.0000      -1.003782       -27.3143
 102   2.0000      -1.002844       -27.2888
 103   2.0000      -0.999549       -27.1991
 104   2.0000      -0.994835       -27.0708
 105   2.0000      -0.989128       -26.9156
 106   2.0000      -0.989019       -26.9126
 107   2.0000      -0.980124       -26.6705
 108   2.0000      -0.957707       -26.0605
 109   2.0000      -0.956162       -26.0185
 110   2.0000      -0.939235       -25.5579
 111   2.0000      -0.931947       -25.3596
 112   2.0000      -0.923238       -25.1226
 113   2.0000      -0.916805       -24.9475
 114   2.0000      -0.907667       -24.6989
 115   2.0000      -0.905122       -24.6296
 116   2.0000      -0.897524       -24.4229
 117   2.0000      -0.883118       -24.0309
 118   2.0000      -0.873298       -23.7637
 119   2.0000      -0.871576       -23.7168
 120   2.0000      -0.861084       -23.4313
 121   2.0000      -0.844558       -22.9816
 122   2.0000      -0.836703       -22.7679
 123   2.0000      -0.833293       -22.6751
 124   2.0000      -0.820226       -22.3195
 125   2.0000      -0.814984       -22.1768
 126   2.0000      -0.805518       -21.9193
 127   2.0000      -0.800203       -21.7746
 128   2.0000      -0.776956       -21.1421
 129   2.0000      -0.769261       -20.9327
 130   2.0000      -0.758789       -20.6477
 131   2.0000      -0.758252       -20.6331
 132   2.0000      -0.752898       -20.4874
 133   2.0000      -0.747357       -20.3366
 134   2.0000      -0.731783       -19.9128
 135   2.0000      -0.723105       -19.6767
 136   2.0000      -0.715368       -19.4662
 137   2.0000      -0.709522       -19.3071
 138   2.0000      -0.704927       -19.1820
 139   2.0000      -0.703075       -19.1317
 140   2.0000      -0.687882       -18.7182
 141   2.0000      -0.686289       -18.6749
 142   2.0000      -0.682557       -18.5733
 143   2.0000      -0.680782       -18.5250
 144   2.0000      -0.677040       -18.4232
 145   2.0000      -0.666213       -18.1286
 146   2.0000      -0.655195       -17.8288
 147   2.0000      -0.653379       -17.7793
 148   2.0000      -0.644390       -17.5347
 149   2.0000      -0.638519       -17.3750
 150   2.0000      -0.629394       -17.1267
 151   2.0000      -0.625412       -17.0183
 152   2.0000      -0.622517       -16.9395
 153   2.0000      -0.616941       -16.7878
 154   2.0000      -0.616693       -16.7811
 155   2.0000      -0.611337       -16.6353
 156   2.0000      -0.606319       -16.4988
 157   2.0000      -0.604429       -16.4474
 158   2.0000      -0.602826       -16.4037
 159   2.0000      -0.593177       -16.1412
 160   2.0000      -0.586912       -15.9707
 161   2.0000      -0.584841       -15.9143
 162   2.0000      -0.581064       -15.8116
 163   2.0000      -0.576944       -15.6995
 164   2.0000      -0.573148       -15.5961
 165   2.0000      -0.560765       -15.2592
 166   2.0000      -0.559948       -15.2369
 167   2.0000      -0.554635       -15.0924
 168   2.0000      -0.553303       -15.0561
 169   2.0000      -0.551840       -15.0163
 170   2.0000      -0.548249       -14.9186
 171   2.0000      -0.547952       -14.9105
 172   2.0000      -0.546159       -14.8617
 173   2.0000      -0.539770       -14.6879
 174   2.0000      -0.538065       -14.6415
 175   2.0000      -0.535472       -14.5709
 176   2.0000      -0.532390       -14.4871
 177   2.0000      -0.531636       -14.4665
 178   2.0000      -0.530869       -14.4457
 179   2.0000      -0.524250       -14.2656
 180   2.0000      -0.522553       -14.2194
 181   2.0000      -0.514488       -13.9999
 182   2.0000      -0.512747       -13.9526
 183   2.0000      -0.510965       -13.9041
 184   2.0000      -0.509653       -13.8684
 185   2.0000      -0.508468       -13.8361
 186   2.0000      -0.507562       -13.8115
 187   2.0000      -0.501969       -13.6593
 188   2.0000      -0.499384       -13.5889
 189   2.0000      -0.497715       -13.5435
 190   2.0000      -0.494954       -13.4684
 191   2.0000      -0.492479       -13.4010
 192   2.0000      -0.489512       -13.3203
 193   2.0000      -0.486704       -13.2439
 194   2.0000      -0.484450       -13.1826
 195   2.0000      -0.477157       -12.9841
 196   2.0000      -0.475409       -12.9365
 197   2.0000      -0.474839       -12.9210
 198   2.0000      -0.473339       -12.8802
 199   2.0000      -0.469751       -12.7826
 200   2.0000      -0.462989       -12.5986
 201   2.0000      -0.461052       -12.5459
 202   2.0000      -0.460076       -12.5193
 203   2.0000      -0.459194       -12.4953
 204   2.0000      -0.457805       -12.4575
 205   2.0000      -0.457667       -12.4538
 206   2.0000      -0.457453       -12.4479
 207   2.0000      -0.454906       -12.3786
 208   2.0000      -0.453411       -12.3379
 209   2.0000      -0.451336       -12.2815
 210   2.0000      -0.449760       -12.2386
 211   2.0000      -0.449422       -12.2294
 212   2.0000      -0.446107       -12.1392
 213   2.0000      -0.445411       -12.1202
 214   2.0000      -0.442525       -12.0417
 215   2.0000      -0.438913       -11.9434
 216   2.0000      -0.438393       -11.9293
 217   2.0000      -0.436721       -11.8838
 218   2.0000      -0.435242       -11.8435
 219   2.0000      -0.432914       -11.7802
 220   2.0000      -0.428690       -11.6653
 221   2.0000      -0.426844       -11.6150
 222   2.0000      -0.423068       -11.5123
 223   2.0000      -0.420134       -11.4324
 224   2.0000      -0.414461       -11.2781
 225   2.0000      -0.410371       -11.1668
 226   2.0000      -0.407369       -11.0851
 227   2.0000      -0.406288       -11.0557
 228   2.0000      -0.405044       -11.0218
 229   2.0000      -0.402965       -10.9652
 230   2.0000      -0.399892       -10.8816
 231   2.0000      -0.394051       -10.7227
 232   2.0000      -0.390434       -10.6242
 233   2.0000      -0.380517       -10.3544
 234   2.0000      -0.377398       -10.2695
 235   2.0000      -0.376854       -10.2547
 236   2.0000      -0.363842        -9.9006
 237   2.0000      -0.354837        -9.6556
 238   2.0000      -0.353712        -9.6250
 239   2.0000      -0.350115        -9.5271
 240   2.0000      -0.344316        -9.3693
 241   2.0000      -0.339548        -9.2396
 242   2.0000      -0.338639        -9.2148
 243   2.0000      -0.336576        -9.1587
 244   2.0000      -0.334110        -9.0916
 245   2.0000      -0.332874        -9.0580
 246   2.0000      -0.320618        -8.7244
 247   2.0000      -0.319014        -8.6808
 248   2.0000      -0.315923        -8.5967
 249   2.0000      -0.305023        -8.3001
 250   2.0000      -0.296775        -8.0757
 251   2.0000      -0.246529        -6.7084
 252   0.0000      -0.112732        -3.0676
 253   0.0000      -0.099918        -2.7189
 254   0.0000      -0.078494        -2.1359
 255   0.0000      -0.064290        -1.7494
 256   0.0000      -0.055844        -1.5196

MULLIKEN ATOMIC CHARGES
-----------------------
   0 C :    0.031487
   1 C :   -0.129338
   2 S :    0.188907
   3 C :   -0.173257
   4 Cl:   -0.002638
   5 C :    0.080439
   6 C :    0.155432
   7 O :   -0.136530
   8 C :   -0.065835
   9 C :    0.287801
  10 C :   -0.324808
  11 C :   -0.196084
  12 N :    0.159752
  13 C :   -0.185857
  14 N :    0.164206
  15 C :   -0.049774
  16 C :    0.083544
  17 C :    0.028497
  18 N :   -0.272164
  19 S :    0.524842
  20 N :   -0.278570
  21 C :    0.051226
  22 C :   -0.011326
  23 C :    0.009776
  24 C :   -0.017903
  25 C :    0.113046
  26 N :   -0.259872
  27 C :    0.138350
  28 C :   -0.006955
  29 C :    0.158611
  30 O :   -0.194464
  31 C :   -0.050116
  32 C :   -0.049815
  33 C :    0.135979
  34 O :   -0.199578
  35 N :   -0.271194
  36 C :    0.100885
  37 C :   -0.001158
  38 C :    0.120950
  39 C :   -0.008765
  40 C :    0.009270
  41 C :    0.112391
  42 C :   -0.083829
  43 C :    0.161861
  44 N :    0.245205
  45 O :   -0.228986
  46 O :   -0.233930
  47 C :    0.014743
  48 C :    0.000261
  49 C :    0.020973
  50 C :    0.032422
  51 C :    0.003386
  52 C :    0.038770
  53 C :   -0.126162
  54 C :    0.129707
  55 O :   -0.129507
  56 C :    0.098122
  57 C :   -0.173955
  58 S :    0.187449
  59 C :   -0.125654
  60 C :    0.009820
  61 C :    0.277448
  62 C :   -0.329539
  63 C :   -0.183692
  64 N :    0.156943
  65 C :   -0.189352
  66 N :    0.172823
  67 Cl:    0.000398
  68 H :    0.056382
  69 H :    0.034049
  70 H :    0.005729
  71 H :    0.000417
  72 H :    0.024217
  73 H :    0.025889
  74 H :    0.033060
  75 H :    0.009040
  76 H :    0.021676
  77 H :    0.044279
  78 H :    0.025981
  79 H :    0.028912
  80 H :    0.024954
  81 H :    0.019969
  82 H :    0.006638
  83 H :   -0.023518
  84 H :    0.002781
  85 H :    0.008249
  86 H :    0.005016
  87 H :    0.031300
  88 H :    0.011776
  89 H :    0.033634
  90 H :    0.054457
Sum of atomic charges:   -0.0000000

LOEWDIN ATOMIC CHARGES
----------------------
   0 C :   -0.059228
   1 C :   -0.148403
   2 S :    0.478585
   3 C :   -0.273462
   4 Cl:    0.189981
   5 C :   -0.113796
   6 C :    0.084046
   7 O :   -0.131551
   8 C :   -0.066954
   9 C :    0.075196
  10 C :   -0.130499
  11 C :   -0.015031
  12 N :   -0.047730
  13 C :   -0.022537
  14 N :   -0.041321
  15 C :    0.077497
  16 C :   -0.027208
  17 C :   -0.034186
  18 N :   -0.278949
  19 S :    0.659025
  20 N :   -0.272253
  21 C :   -0.042917
  22 C :   -0.030467
  23 C :    0.025774
  24 C :    0.015625
  25 C :    0.090489
  26 N :    0.008097
  27 C :    0.042192
  28 C :   -0.066417
  29 C :    0.082956
  30 O :   -0.191040
  31 C :   -0.111963
  32 C :   -0.127539
  33 C :    0.081535
  34 O :   -0.196481
  35 N :   -0.006454
  36 C :    0.034328
  37 C :   -0.063142
  38 C :    0.073356
  39 C :   -0.020675
  40 C :   -0.003477
  41 C :   -0.019143
  42 C :    0.007948
  43 C :   -0.024340
  44 N :    0.285933
  45 O :   -0.196594
  46 O :   -0.194021
  47 C :   -0.007882
  48 C :    0.012777
  49 C :    0.019842
  50 C :    0.041035
  51 C :   -0.035293
  52 C :    0.072981
  53 C :   -0.085146
  54 C :    0.081844
  55 O :   -0.131433
  56 C :   -0.117751
  57 C :   -0.271959
  58 S :    0.476303
  59 C :   -0.150425
  60 C :   -0.057499
  61 C :    0.069815
  62 C :   -0.138968
  63 C :   -0.017287
  64 N :   -0.049390
  65 C :   -0.010917
  66 N :   -0.043194
  67 Cl:    0.192801
  68 H :    0.038301
  69 H :    0.049274
  70 H :    0.044062
  71 H :    0.041544
  72 H :    0.030201
  73 H :    0.025606
  74 H :    0.026871
  75 H :    0.025438
  76 H :    0.016550
  77 H :    0.038006
  78 H :    0.020501
  79 H :    0.033047
  80 H :    0.031630
  81 H :    0.021428
  82 H :    0.044724
  83 H :    0.029933
  84 H :    0.039844
  85 H :    0.039881
  86 H :    0.040304
  87 H :    0.033884
  88 H :    0.036360
  89 H :    0.049751
  90 H :    0.037814

  Mayer bond orders larger than 0.100000
B(  0-C ,  1-C ) :   1.5383 B(  0-C ,  5-C ) :   1.2235 B(  0-C ,  9-C ) :   1.0062
B(  1-C ,  2-S ) :   1.1652 B(  1-C , 68-H ) :   0.9539 B(  2-S ,  3-C ) :   1.1497
B(  3-C ,  4-Cl) :   1.1260 B(  3-C ,  5-C ) :   1.4783 B(  5-C ,  6-C ) :   0.9526
B(  6-C ,  7-O ) :   2.2383 B(  6-C ,  8-C ) :   0.9184 B(  8-C ,  9-C ) :   1.0617
B(  8-C , 15-C ) :   1.7114 B(  9-C , 10-C ) :   1.6629 B( 10-C , 11-C ) :   1.1441
B( 10-C , 13-C ) :   1.1393 B( 11-C , 12-N ) :   2.9919 B( 13-C , 14-N ) :   2.9705
B( 15-C , 16-C ) :   1.0553 B( 15-C , 69-H ) :   0.9389 B( 16-C , 17-C ) :   1.1897
B( 16-C , 22-C ) :   0.1085 B( 16-C , 24-C ) :   1.4337 B( 17-C , 18-N ) :   1.5342
B( 17-C , 21-C ) :   1.1582 B( 18-N , 19-S ) :   1.2744 B( 18-N , 20-N ) :   0.1456
B( 19-S , 20-N ) :   1.2654 B( 20-N , 21-C ) :   1.5221 B( 21-C , 22-C ) :   1.1788
B( 22-C , 23-C ) :   1.4940 B( 22-C , 25-C ) :   1.0130 B( 23-C , 24-C ) :   1.2119
B( 23-C , 70-H ) :   0.9955 B( 24-C , 71-H ) :   1.0023 B( 25-C , 26-N ) :   1.2362
B( 25-C , 32-C ) :   1.3924 B( 26-N , 27-C ) :   0.9300 B( 26-N , 29-C ) :   1.0269
B( 27-C , 28-C ) :   1.1113 B( 27-C , 72-H ) :   0.9392 B( 27-C , 73-H ) :   0.9491
B( 28-C , 74-H ) :   0.9629 B( 28-C , 75-H ) :   0.9647 B( 28-C , 76-H ) :   0.9594
B( 29-C , 30-O ) :   2.1051 B( 29-C , 31-C ) :   0.9841 B( 31-C , 32-C ) :   1.2138
B( 31-C , 38-C ) :   1.3680 B( 32-C , 33-C ) :   0.9677 B( 33-C , 34-O ) :   2.1085
B( 33-C , 35-N ) :   1.0402 B( 35-N , 36-C ) :   0.9434 B( 35-N , 38-C ) :   1.1622
B( 36-C , 37-C ) :   1.1156 B( 36-C , 77-H ) :   0.9222 B( 36-C , 78-H ) :   0.9508
B( 37-C , 79-H ) :   0.9618 B( 37-C , 80-H ) :   0.9683 B( 37-C , 81-H ) :   0.9688
B( 38-C , 39-C ) :   1.1691 B( 39-C , 40-C ) :   1.6002 B( 39-C , 82-H ) :   0.9413
B( 40-C , 41-C ) :   1.0750 B( 40-C , 83-H ) :   0.9909 B( 41-C , 42-C ) :   1.2796
B( 41-C , 49-C ) :   1.3101 B( 42-C , 43-C ) :   1.3670 B( 42-C , 84-H ) :   0.9982
B( 43-C , 44-N ) :   0.8831 B( 43-C , 47-C ) :   1.3456 B( 44-N , 45-O ) :   1.5602
B( 44-N , 46-O ) :   1.5173 B( 45-O , 46-O ) :   0.2642 B( 47-C , 48-C ) :   1.3447
B( 47-C , 50-C ) :   1.0862 B( 48-C , 49-C ) :   1.4252 B( 48-C , 85-H ) :   0.9780
B( 49-C , 86-H ) :   0.9902 B( 50-C , 51-C ) :   1.7025 B( 50-C , 87-H ) :   0.9393
B( 51-C , 52-C ) :   1.1308 B( 51-C , 88-H ) :   0.9588 B( 52-C , 53-C ) :   1.7079
B( 52-C , 89-H ) :   0.9252 B( 53-C , 54-C ) :   0.9375 B( 53-C , 61-C ) :   1.0286
B( 54-C , 55-O ) :   2.2730 B( 54-C , 56-C ) :   0.9254 B( 56-C , 57-C ) :   1.4818
B( 56-C , 60-C ) :   1.2218 B( 57-C , 58-S ) :   1.1522 B( 57-C , 67-Cl) :   1.1302
B( 58-S , 59-C ) :   1.1612 B( 59-C , 60-C ) :   1.5488 B( 59-C , 90-H ) :   0.9557
B( 60-C , 61-C ) :   1.0123 B( 61-C , 62-C ) :   1.6604 B( 62-C , 63-C ) :   1.1271
B( 62-C , 65-C ) :   1.1674 B( 63-C , 64-N ) :   2.9992 B( 65-C , 66-N ) :   2.9930

-----------------------------------------------------------------------------
         ABSORPTION SPECTRUM VIA TRANSITION ELECTRIC DIPOLE MOMENTS
-----------------------------------------------------------------------------
State   Energy  Wavelength   fosc         T2         TX        TY        TZ
        (cm-1)    (nm)                  (au**2)     (au)      (au)      (au)
-----------------------------------------------------------------------------
   0   14359.9    696.4   0.838785794  19.22984  -3.47427   2.67268   0.12660
   1   19595.6    510.3   0.227278311   3.81835   1.74997  -0.67650  -0.54617
   2   23164.7    431.7   0.158206278   2.24840  -1.18554  -0.90782   0.13695
   3   24322.7    411.1   0.251063315   3.39818  -1.24898   1.20098  -0.62921
   4   25393.4    393.8   0.346526049   4.49253  -2.03852   0.23422   0.53115
   5   25938.7    385.5   0.077328798   0.98145  -0.70645   0.41738   0.55513
   6   26174.9    382.0   0.012635976   0.15893   0.31869   0.13170  -0.20005
   7   26722.8    374.2   0.070569519   0.86938  -0.09466  -0.88316  -0.28364
   8   27170.4    368.0   0.073831058   0.89458   0.93634   0.06299   0.11784
   9   28237.2    354.1   0.000725768   0.00846   0.02325   0.08826   0.01149
  10   28529.7    350.5   0.072813342   0.84021  -0.75606   0.51444   0.06273
  11   29040.5    344.3   0.184644349   2.09318  -1.22417   0.75626  -0.15057
  12   29495.8    339.0   0.014102834   0.15741  -0.13547   0.16541   0.33421
  13   29637.2    337.4   0.075817741   0.84219  -0.37120   0.81360  -0.20604
  14   30086.8    332.4   0.217939484   2.38471   1.41699  -0.48799   0.37243
  15   31525.1    317.2   0.060152254   0.62816   0.20990   0.75082   0.14270
  16   31785.0    314.6   0.015162651   0.15705  -0.25049   0.22191   0.21227
  17   32252.0    310.1   0.043132908   0.44028   0.58595   0.27610   0.14391
  18   32542.7    307.3   0.057717960   0.58389   0.75838  -0.09163  -0.01904
  19   32838.3    304.5   0.064970942   0.65135  -0.18155   0.67649   0.40094
  20   33318.8    300.1   0.042157011   0.41654   0.17569   0.01385   0.62087
  21   33430.0    299.1   0.305848294   3.01193  -1.62768   0.58272  -0.15177
  22   33633.5    297.3   0.022822109   0.22339  -0.46220  -0.06080  -0.07787
  23   34007.0    294.1   0.009826847   0.09513   0.10718  -0.03173   0.28746
  24   34590.5    289.1   0.005741483   0.05464   0.20034   0.05268  -0.10832
  25   35168.2    284.3   0.082706445   0.77422   0.77798  -0.08094   0.40302
  26   35247.2    283.7   0.032876102   0.30707   0.15120  -0.48791   0.21482
  27   35485.4    281.8   0.003110715   0.02886   0.12523  -0.10206  -0.05255
  28   35995.4    277.8   0.021320233   0.19499  -0.32854  -0.28209   0.08650
  29   36228.0    276.0   0.120424640   1.09433  -1.02958   0.18102   0.03887
  30   36418.3    274.6   0.178091212   1.60990  -0.02496  -1.26846   0.01700
  31   36575.3    273.4   0.216805012   1.95145   1.38989   0.09760   0.10057
  32   36964.7    270.5   0.042188790   0.37574   0.34435  -0.50157  -0.07473
  33   37038.2    270.0   0.060591214   0.53856  -0.23698  -0.69192   0.06034
  34   37254.6    268.4   0.072830569   0.64359   0.34954   0.70638   0.14981
  35   37462.5    266.9   0.035417821   0.31124  -0.52801   0.08476  -0.15896
  36   37770.0    264.8   0.204099877   1.77898  -0.99779   0.88037  -0.09135
  37   37964.3    263.4   0.108235303   0.93858  -0.70721  -0.61254   0.25145
  38   38452.4    260.1   0.011718968   0.10033   0.23184  -0.20774  -0.05856
  39   38495.9    259.8   0.292777313   2.50379  -1.21893   1.00674   0.06687
  40   39149.5    255.4   0.050388782   0.42372   0.60142   0.22754  -0.10119
  41   39645.5    252.2   0.279898085   2.32424   0.61731   1.37683  -0.21796
  42   39736.8    251.7   0.029471363   0.24416   0.00683  -0.42828  -0.24637
  43   39889.2    250.7   0.005607343   0.04628   0.17429  -0.08274   0.09516
  44   40222.8    248.6   0.077649481   0.63554  -0.76578  -0.22045  -0.02277

FINAL SINGLE POINT ENERGY     -4897.696878695758

DIPOLE MOMENT
-------------
                                X             Y             Z
Electronic contribution:    -11.46835     -24.26050      11.17359
Nuclear contribution   :     10.91572      23.15411     -11.83374
                        -----------------------------------------
Total Dipole Moment    :     -0.55263      -1.10639      -0.66016
                        -----------------------------------------
Magnitude (a.u.)       :      1.40189
Magnitude (Debye)      :      3.56333

Rotational constants in cm-1:     0.002842     0.000202     0.000196
Rotational constants in MHz :    85.196542     6.069638     5.868221

                             ****ORCA TERMINATED NORMALLY****
TOTAL RUN TIME: 0 days 0 hours 7 minutes 57 seconds 696 msec
