                         Program Version 4.2.0 -  RELEASE  -
|  1> # ORCA input file
|  2> # SCF done       -182.715930287755          0.000837347726
|  3> ! CAM-B3LYP def2-SVP def2/J RIJCOSX Grid4 TightSCF
|  4> %maxcore 5000
|  5> %tddft
|  6>     Mode sTDDFT
|  7>     Ethresh 5.0
|  8>     maxcore 5000
|  9> end
| 10>
| 11> %pal
| 12>   nprocs 6
| 13>   end
| 14> * xyz 0 1
| 15>    C        1.80032         2.13376        -0.94940
| 16>    C        1.73462         3.47614        -1.19512
| 17>    C        2.02074         4.05728        -2.44828
| 18>    N        2.23937         4.57405        -3.44913
| 19>    C        1.48995         4.44447        -0.19805
| 20>    N        1.37652         5.27360         0.58712
| 21>    C        2.33416         1.12495        -1.85641
| 22>    C        2.69117        -0.02981        -1.09775
| 23>    C        3.26662        -1.12254        -1.68142
| 24>    C        3.51025        -1.11260        -3.07259
| 25>    C        3.14102         0.03145        -3.83890
| 26>    C        2.54807         1.14921        -3.20877
| 27>    C        3.38747         0.02646        -5.22707
| 28>    C        3.97357        -1.05280        -5.83018
| 29>    C        4.33740        -2.17802        -5.07490
| 30>    C        4.11046        -2.20744        -3.72582
| 31>    C        2.33513         0.18034         0.31411
| 32>    O        2.53078        -0.54762         1.25794
| 33>    C        1.60438         1.48677         0.33671
| 34>    C        0.82448         1.79711         1.39575
| 35>    C       -0.19324         2.79156         1.45344
| 36>    S       -0.74834         3.46254         2.97385
| 37>    C       -1.87150         4.39691         2.00061
| 38>    N       -1.76860         4.12984         0.72508
| 39>    N       -0.85032         3.26300         0.42710
| 40>    C       -2.76030         5.33324         2.58983
| 41>    C       -3.63528         6.07302         1.86527
| 42>    C       -4.49327         7.02638         2.47388
| 43>    N       -5.41971         7.77682         1.79470
| 44>    C       -5.73793         7.68667         0.39019
| 45>    C       -6.60414         6.46823         0.08135
| 46>    C       -6.11075         8.66786         2.64683
| 47>    O       -6.97064         9.42794         2.26439
| 48>    C       -5.53433         8.41893         3.95280
| 49>    C       -4.55114         7.40889         3.81389
| 50>    C       -3.97237         7.18169         5.11722
| 51>    O       -3.13812         6.39178         5.51506
| 52>    N       -4.61893         8.10584         5.95848
| 53>    C       -4.32243         8.09779         7.37155
| 54>    C       -3.08969         8.93975         7.69469
| 55>    C       -5.55263         8.85305         5.27502
| 56>    C       -6.40107         9.87305         5.78867
| 57>    C       -6.19694        10.62809         6.89347
| 58>    C       -7.13493        11.59021         7.35715
| 59>    S       -6.74679        12.67530         8.68927
| 60>    C       -8.39889        13.26771         8.50952
| 61>    N       -9.03762        12.66118         7.54838
| 62>    N       -8.35382        11.75581         6.92156
| 63>    C       -8.92133        14.27192         9.36565
| 64>    C      -10.22829        14.63152         9.39246
| 65>    C      -10.68741        15.61429        10.30622
| 66>    C      -11.98907        15.96750        10.49800
| 67>    C      -12.48999        16.95111        11.44439
| 68>    C      -11.74493        17.81714        12.20165
| 69>    C      -12.29448        18.75935        13.09740
| 70>    N      -12.67182        19.54448        13.84502
| 71>    C      -10.33757        17.91613        12.19688
| 72>    N       -9.20019        18.06627        12.25133
| 73>    C      -13.94601        16.87771        11.43151
| 74>    C      -14.34780        15.92061        10.45624
| 75>    C      -13.15620        15.33781         9.81576
| 76>    O      -13.13876        14.50797         8.93416
| 77>    C      -15.66238        15.63435        10.22438
| 78>    C      -16.65589        16.30105        10.97540
| 79>    C      -16.26262        17.25715        11.95625
| 80>    C      -14.89388        17.53585        12.17106
| 81>    C      -17.26163        17.91191        12.70550
| 82>    C      -18.58558        17.63626        12.49779
| 83>    C      -18.97166        16.69492        11.53163
| 84>    C      -18.02763        16.04221        10.78612
| 85>    H        3.53603        -1.98320        -1.08738
| 86>    H        2.26840         1.99823        -3.81273
| 87>    H        3.10878         0.89605        -5.80374
| 88>    H        4.16137        -1.04539        -6.89335
| 89>    H        4.79838        -3.02094        -5.56751
| 90>    H        4.38842        -3.07061        -3.13897
| 91>    H        0.94151         1.17938         2.27928
| 92>    H       -2.70307         5.44463         3.66401
| 93>    H       -3.67257         5.93862         0.79438
| 94>    H       -4.81373         7.66383        -0.19361
| 95>    H       -6.28822         8.60006         0.14733
| 96>    H       -6.09159         5.54724         0.35002
| 97>    H       -6.83534         6.44270        -0.97977
| 98>    H       -7.53596         6.52345         0.63882
| 99>    H       -4.11315         7.05715         7.63979
|100>    H       -5.20187         8.43350         7.92402
|101>    H       -2.21905         8.50809         7.20792
|102>    H       -2.91948         8.94974         8.76777
|103>    H       -3.20280         9.96372         7.34455
|104>    H       -7.27511        10.07778         5.18406
|105>    H       -5.28952        10.56052         7.47224
|106>    H       -8.21547        14.73654        10.04270
|107>    H      -10.93299        14.15213         8.72959
|108>    H       -9.92495        16.09373        10.90804
|109>    H      -15.93971        14.90497         9.47786
|110>    H      -14.63007        18.26175        12.92356
|111>    H      -16.95920        18.63610        13.44766
|112>    H      -19.34325        18.14218        13.07719
|113>    H      -20.02096        16.48938        11.38151
|114>    H      -18.31890        15.31634        10.04113
|115> *
|116>
|117>                          ****END OF INPUT****

CARTESIAN COORDINATES (ANGSTROEM)
---------------------------------
  C      1.800320    2.133760   -0.949400
  C      1.734620    3.476140   -1.195120
  C      2.020740    4.057280   -2.448280
  N      2.239370    4.574050   -3.449130
  C      1.489950    4.444470   -0.198050
  N      1.376520    5.273600    0.587120
  C      2.334160    1.124950   -1.856410
  C      2.691170   -0.029810   -1.097750
  C      3.266620   -1.122540   -1.681420
  C      3.510250   -1.112600   -3.072590
  C      3.141020    0.031450   -3.838900
  C      2.548070    1.149210   -3.208770
  C      3.387470    0.026460   -5.227070
  C      3.973570   -1.052800   -5.830180
  C      4.337400   -2.178020   -5.074900
  C      4.110460   -2.207440   -3.725820
  C      2.335130    0.180340    0.314110
  O      2.530780   -0.547620    1.257940
  C      1.604380    1.486770    0.336710
  C      0.824480    1.797110    1.395750
  C     -0.193240    2.791560    1.453440
  S     -0.748340    3.462540    2.973850
  C     -1.871500    4.396910    2.000610
  N     -1.768600    4.129840    0.725080
  N     -0.850320    3.263000    0.427100
  C     -2.760300    5.333240    2.589830
  C     -3.635280    6.073020    1.865270
  C     -4.493270    7.026380    2.473880
  N     -5.419710    7.776820    1.794700
  C     -5.737930    7.686670    0.390190
  C     -6.604140    6.468230    0.081350
  C     -6.110750    8.667860    2.646830
  O     -6.970640    9.427940    2.264390
  C     -5.534330    8.418930    3.952800
  C     -4.551140    7.408890    3.813890
  C     -3.972370    7.181690    5.117220
  O     -3.138120    6.391780    5.515060
  N     -4.618930    8.105840    5.958480
  C     -4.322430    8.097790    7.371550
  C     -3.089690    8.939750    7.694690
  C     -5.552630    8.853050    5.275020
  C     -6.401070    9.873050    5.788670
  C     -6.196940   10.628090    6.893470
  C     -7.134930   11.590210    7.357150
  S     -6.746790   12.675300    8.689270
  C     -8.398890   13.267710    8.509520
  N     -9.037620   12.661180    7.548380
  N     -8.353820   11.755810    6.921560
  C     -8.921330   14.271920    9.365650
  C    -10.228290   14.631520    9.392460
  C    -10.687410   15.614290   10.306220
  C    -11.989070   15.967500   10.498000
  C    -12.489990   16.951110   11.444390
  C    -11.744930   17.817140   12.201650
  C    -12.294480   18.759350   13.097400
  N    -12.671820   19.544480   13.845020
  C    -10.337570   17.916130   12.196880
  N     -9.200190   18.066270   12.251330
  C    -13.946010   16.877710   11.431510
  C    -14.347800   15.920610   10.456240
  C    -13.156200   15.337810    9.815760
  O    -13.138760   14.507970    8.934160
  C    -15.662380   15.634350   10.224380
  C    -16.655890   16.301050   10.975400
  C    -16.262620   17.257150   11.956250
  C    -14.893880   17.535850   12.171060
  C    -17.261630   17.911910   12.705500
  C    -18.585580   17.636260   12.497790
  C    -18.971660   16.694920   11.531630
  C    -18.027630   16.042210   10.786120
  H      3.536030   -1.983200   -1.087380
  H      2.268400    1.998230   -3.812730
  H      3.108780    0.896050   -5.803740
  H      4.161370   -1.045390   -6.893350
  H      4.798380   -3.020940   -5.567510
  H      4.388420   -3.070610   -3.138970
  H      0.941510    1.179380    2.279280
  H     -2.703070    5.444630    3.664010
  H     -3.672570    5.938620    0.794380
  H     -4.813730    7.663830   -0.193610
  H     -6.288220    8.600060    0.147330
  H     -6.091590    5.547240    0.350020
  H     -6.835340    6.442700   -0.979770
  H     -7.535960    6.523450    0.638820
  H     -4.113150    7.057150    7.639790
  H     -5.201870    8.433500    7.924020
  H     -2.219050    8.508090    7.207920
  H     -2.919480    8.949740    8.767770
  H     -3.202800    9.963720    7.344550
  H     -7.275110   10.077780    5.184060
  H     -5.289520   10.560520    7.472240
  H     -8.215470   14.736540   10.042700
  H    -10.932990   14.152130    8.729590
  H     -9.924950   16.093730   10.908040
  H    -15.939710   14.904970    9.477860
  H    -14.630070   18.261750   12.923560
  H    -16.959200   18.636100   13.447660
  H    -19.343250   18.142180   13.077190
  H    -20.020960   16.489380   11.381510
  H    -18.318900   15.316340   10.041130

 Total Charge           Charge          ....    0
 Multiplicity           Mult            ....    1
 Number of Electrons    NEL             ....  488
 Basis Dimension        Dim             .... 1138

ORBITAL ENERGIES
----------------

  NO   OCC          E(Eh)            E(eV)
   0   2.0000     -88.984788     -2421.3992
   1   2.0000     -88.980772     -2421.2899
   2   2.0000     -19.222266      -523.0644
   3   2.0000     -19.216626      -522.9110
   4   2.0000     -19.198048      -522.4054
   5   2.0000     -19.195014      -522.3229
   6   2.0000     -14.460168      -393.4812
   7   2.0000     -14.458164      -393.4267
   8   2.0000     -14.453641      -393.3036
   9   2.0000     -14.448770      -393.1710
  10   2.0000     -14.447304      -393.1311
  11   2.0000     -14.444881      -393.0652
  12   2.0000     -14.418463      -392.3463
  13   2.0000     -14.418002      -392.3338
  14   2.0000     -14.415888      -392.2763
  15   2.0000     -14.414796      -392.2465
  16   2.0000     -10.379537      -282.4416
  17   2.0000     -10.379161      -282.4313
  18   2.0000     -10.372720      -282.2561
  19   2.0000     -10.367303      -282.1087
  20   2.0000     -10.353848      -281.7425
  21   2.0000     -10.352672      -281.7105
  22   2.0000     -10.351447      -281.6772
  23   2.0000     -10.349264      -281.6178
  24   2.0000     -10.349241      -281.6172
  25   2.0000     -10.347121      -281.5595
  26   2.0000     -10.344028      -281.4753
  27   2.0000     -10.343737      -281.4674
  28   2.0000     -10.342451      -281.4324
  29   2.0000     -10.341868      -281.4165
  30   2.0000     -10.326852      -281.0079
  31   2.0000     -10.321176      -280.8535
  32   2.0000     -10.319572      -280.8098
  33   2.0000     -10.318612      -280.7837
  34   2.0000     -10.317261      -280.7470
  35   2.0000     -10.316281      -280.7203
  36   2.0000     -10.313546      -280.6459
  37   2.0000     -10.312950      -280.6296
  38   2.0000     -10.311837      -280.5993
  39   2.0000     -10.309489      -280.5355
  40   2.0000     -10.307485      -280.4809
  41   2.0000     -10.307015      -280.4681
  42   2.0000     -10.304788      -280.4075
  43   2.0000     -10.304278      -280.3937
  44   2.0000     -10.303361      -280.3687
  45   2.0000     -10.303299      -280.3670
  46   2.0000     -10.302077      -280.3338
  47   2.0000     -10.301130      -280.3080
  48   2.0000     -10.300955      -280.3032
  49   2.0000     -10.300455      -280.2896
  50   2.0000     -10.299061      -280.2517
  51   2.0000     -10.298028      -280.2236
  52   2.0000     -10.297779      -280.2168
  53   2.0000     -10.297095      -280.1982
  54   2.0000     -10.296428      -280.1801
  55   2.0000     -10.293683      -280.1054
  56   2.0000     -10.293545      -280.1016
  57   2.0000     -10.289113      -279.9810
  58   2.0000     -10.288671      -279.9690
  59   2.0000     -10.288438      -279.9626
  60   2.0000     -10.288394      -279.9614
  61   2.0000     -10.287688      -279.9422
  62   2.0000     -10.286855      -279.9196
  63   2.0000     -10.286244      -279.9029
  64   2.0000     -10.286069      -279.8982
  65   2.0000     -10.285648      -279.8867
  66   2.0000     -10.270011      -279.4612
  67   2.0000     -10.267826      -279.4017
  68   2.0000     -10.267669      -279.3975
  69   2.0000     -10.264100      -279.3004
  70   2.0000      -8.080979      -219.8946
  71   2.0000      -8.077210      -219.7921
  72   2.0000      -6.049517      -164.6157
  73   2.0000      -6.046137      -164.5238
  74   2.0000      -6.045762      -164.5135
  75   2.0000      -6.043604      -164.4548
  76   2.0000      -6.042552      -164.4262
  77   2.0000      -6.039648      -164.3472
  78   2.0000      -1.155432       -31.4409
  79   2.0000      -1.151295       -31.3283
  80   2.0000      -1.139672       -31.0121
  81   2.0000      -1.137461       -30.9519
  82   2.0000      -1.132626       -30.8203
  83   2.0000      -1.131579       -30.7918
  84   2.0000      -1.069393       -29.0997
  85   2.0000      -1.060658       -28.8620
  86   2.0000      -1.020536       -27.7702
  87   2.0000      -1.019492       -27.7418
  88   2.0000      -1.000952       -27.2373
  89   2.0000      -0.999388       -27.1947
  90   2.0000      -0.995214       -27.0811
  91   2.0000      -0.994934       -27.0735
  92   2.0000      -0.976321       -26.5670
  93   2.0000      -0.972304       -26.4578
  94   2.0000      -0.957793       -26.0629
  95   2.0000      -0.956322       -26.0228
  96   2.0000      -0.939681       -25.5700
  97   2.0000      -0.939431       -25.5632
  98   2.0000      -0.932889       -25.3852
  99   2.0000      -0.925126       -25.1739
 100   2.0000      -0.923388       -25.1267
 101   2.0000      -0.910108       -24.7653
 102   2.0000      -0.900963       -24.5165
 103   2.0000      -0.896272       -24.3888
 104   2.0000      -0.890156       -24.2224
 105   2.0000      -0.884134       -24.0585
 106   2.0000      -0.883789       -24.0491
 107   2.0000      -0.880577       -23.9617
 108   2.0000      -0.873688       -23.7743
 109   2.0000      -0.860884       -23.4258
 110   2.0000      -0.845768       -23.0145
 111   2.0000      -0.831225       -22.6188
 112   2.0000      -0.828511       -22.5449
 113   2.0000      -0.824708       -22.4415
 114   2.0000      -0.816742       -22.2247
 115   2.0000      -0.804228       -21.8841
 116   2.0000      -0.797461       -21.7000
 117   2.0000      -0.792578       -21.5672
 118   2.0000      -0.764543       -20.8043
 119   2.0000      -0.764385       -20.8000
 120   2.0000      -0.762407       -20.7462
 121   2.0000      -0.741563       -20.1790
 122   2.0000      -0.735661       -20.0184
 123   2.0000      -0.734444       -19.9852
 124   2.0000      -0.721269       -19.6267
 125   2.0000      -0.712589       -19.3905
 126   2.0000      -0.710661       -19.3381
 127   2.0000      -0.706231       -19.2175
 128   2.0000      -0.704522       -19.1710
 129   2.0000      -0.702879       -19.1263
 130   2.0000      -0.696886       -18.9632
 131   2.0000      -0.694142       -18.8886
 132   2.0000      -0.685982       -18.6665
 133   2.0000      -0.681930       -18.5563
 134   2.0000      -0.677882       -18.4461
 135   2.0000      -0.671570       -18.2744
 136   2.0000      -0.657341       -17.8872
 137   2.0000      -0.652903       -17.7664
 138   2.0000      -0.641655       -17.4603
 139   2.0000      -0.634920       -17.2771
 140   2.0000      -0.631691       -17.1892
 141   2.0000      -0.624942       -17.0055
 142   2.0000      -0.610640       -16.6164
 143   2.0000      -0.607568       -16.5328
 144   2.0000      -0.606854       -16.5133
 145   2.0000      -0.606076       -16.4922
 146   2.0000      -0.601922       -16.3791
 147   2.0000      -0.594000       -16.1636
 148   2.0000      -0.590250       -16.0615
 149   2.0000      -0.586421       -15.9573
 150   2.0000      -0.583944       -15.8899
 151   2.0000      -0.576416       -15.6851
 152   2.0000      -0.569330       -15.4923
 153   2.0000      -0.568610       -15.4727
 154   2.0000      -0.562004       -15.2929
 155   2.0000      -0.558799       -15.2057
 156   2.0000      -0.554008       -15.0753
 157   2.0000      -0.549659       -14.9570
 158   2.0000      -0.548945       -14.9375
 159   2.0000      -0.547573       -14.9002
 160   2.0000      -0.545728       -14.8500
 161   2.0000      -0.541913       -14.7462
 162   2.0000      -0.539046       -14.6682
 163   2.0000      -0.538211       -14.6455
 164   2.0000      -0.537563       -14.6278
 165   2.0000      -0.535090       -14.5605
 166   2.0000      -0.533772       -14.5247
 167   2.0000      -0.530886       -14.4462
 168   2.0000      -0.524150       -14.2629
 169   2.0000      -0.522838       -14.2271
 170   2.0000      -0.520719       -14.1695
 171   2.0000      -0.520039       -14.1510
 172   2.0000      -0.519003       -14.1228
 173   2.0000      -0.518485       -14.1087
 174   2.0000      -0.515000       -14.0139
 175   2.0000      -0.514398       -13.9975
 176   2.0000      -0.512211       -13.9380
 177   2.0000      -0.508111       -13.8264
 178   2.0000      -0.504712       -13.7339
 179   2.0000      -0.503643       -13.7048
 180   2.0000      -0.498781       -13.5725
 181   2.0000      -0.497866       -13.5476
 182   2.0000      -0.493911       -13.4400
 183   2.0000      -0.492035       -13.3890
 184   2.0000      -0.487820       -13.2743
 185   2.0000      -0.487504       -13.2657
 186   2.0000      -0.485042       -13.1987
 187   2.0000      -0.481265       -13.0959
 188   2.0000      -0.476460       -12.9651
 189   2.0000      -0.473020       -12.8715
 190   2.0000      -0.472339       -12.8530
 191   2.0000      -0.470797       -12.8110
 192   2.0000      -0.468625       -12.7519
 193   2.0000      -0.465122       -12.6566
 194   2.0000      -0.463827       -12.6214
 195   2.0000      -0.458992       -12.4898
 196   2.0000      -0.453888       -12.3509
 197   2.0000      -0.452178       -12.3044
 198   2.0000      -0.450647       -12.2627
 199   2.0000      -0.449226       -12.2241
 200   2.0000      -0.448144       -12.1946
 201   2.0000      -0.445845       -12.1321
 202   2.0000      -0.445700       -12.1281
 203   2.0000      -0.442662       -12.0454
 204   2.0000      -0.440623       -11.9900
 205   2.0000      -0.437339       -11.9006
 206   2.0000      -0.436030       -11.8650
 207   2.0000      -0.434455       -11.8221
 208   2.0000      -0.433617       -11.7993
 209   2.0000      -0.433151       -11.7867
 210   2.0000      -0.430710       -11.7202
 211   2.0000      -0.428652       -11.6642
 212   2.0000      -0.428556       -11.6616
 213   2.0000      -0.426396       -11.6028
 214   2.0000      -0.422665       -11.5013
 215   2.0000      -0.420527       -11.4431
 216   2.0000      -0.418488       -11.3876
 217   2.0000      -0.408446       -11.1144
 218   2.0000      -0.407882       -11.0990
 219   2.0000      -0.406668       -11.0660
 220   2.0000      -0.400809       -10.9066
 221   2.0000      -0.397457       -10.8154
 222   2.0000      -0.392239       -10.6734
 223   2.0000      -0.389184       -10.5902
 224   2.0000      -0.385145       -10.4803
 225   2.0000      -0.379095       -10.3157
 226   2.0000      -0.375477       -10.2173
 227   2.0000      -0.368465       -10.0264
 228   2.0000      -0.354375        -9.6430
 229   2.0000      -0.352764        -9.5992
 230   2.0000      -0.342162        -9.3107
 231   2.0000      -0.339774        -9.2457
 232   2.0000      -0.336919        -9.1680
 233   2.0000      -0.335790        -9.1373
 234   2.0000      -0.335224        -9.1219
 235   2.0000      -0.328380        -8.9357
 236   2.0000      -0.321360        -8.7446
 237   2.0000      -0.319513        -8.6944
 238   2.0000      -0.317669        -8.6442
 239   2.0000      -0.309877        -8.4322
 240   2.0000      -0.298818        -8.1312
 241   2.0000      -0.295031        -8.0282
 242   2.0000      -0.288247        -7.8436
 243   2.0000      -0.245505        -6.6805
 244   0.0000      -0.112917        -3.0726
 245   0.0000      -0.101600        -2.7647
 246   0.0000      -0.083788        -2.2800
 247   0.0000      -0.060327        -1.6416
 248   0.0000      -0.057410        -1.5622

MULLIKEN ATOMIC CHARGES
-----------------------
   0 C :    0.282081
   1 C :   -0.290581
   2 C :   -0.182592
   3 N :    0.154634
   4 C :   -0.187769
   5 N :    0.165561
   6 C :    0.038049
   7 C :    0.006610
   8 C :   -0.078776
   9 C :    0.094233
  10 C :    0.096113
  11 C :   -0.078677
  12 C :   -0.018064
  13 C :    0.036568
  14 C :    0.037255
  15 C :   -0.014022
  16 C :    0.137089
  17 O :   -0.135431
  18 C :   -0.101930
  19 C :    0.089904
  20 C :   -0.118690
  21 S :    0.161461
  22 C :   -0.098868
  23 N :   -0.042286
  24 N :   -0.043748
  25 C :    0.089198
  26 C :   -0.021189
  27 C :    0.148116
  28 N :   -0.266341
  29 C :    0.095411
  30 C :    0.002237
  31 C :    0.150498
  32 O :   -0.174460
  33 C :   -0.026270
  34 C :   -0.068540
  35 C :    0.173701
  36 O :   -0.218634
  37 N :   -0.265154
  38 C :    0.109379
  39 C :   -0.003086
  40 C :    0.097286
  41 C :   -0.007982
  42 C :    0.063993
  43 C :   -0.110018
  44 S :    0.103772
  45 C :   -0.104637
  46 N :   -0.022370
  47 N :   -0.033193
  48 C :    0.084521
  49 C :    0.018244
  50 C :   -0.054654
  51 C :   -0.050701
  52 C :    0.330262
  53 C :   -0.349975
  54 C :   -0.181346
  55 N :    0.148634
  56 C :   -0.191544
  57 N :    0.149375
  58 C :    0.046880
  59 C :   -0.005540
  60 C :    0.144732
  61 O :   -0.137576
  62 C :   -0.077103
  63 C :    0.096546
  64 C :    0.094328
  65 C :   -0.083547
  66 C :   -0.019502
  67 C :    0.036703
  68 C :    0.036577
  69 C :   -0.014429
  70 H :   -0.010403
  71 H :   -0.002670
  72 H :   -0.009276
  73 H :   -0.002513
  74 H :   -0.004249
  75 H :   -0.016356
  76 H :    0.029317
  77 H :    0.014930
  78 H :    0.007109
  79 H :    0.031088
  80 H :    0.046516
  81 H :    0.018035
  82 H :    0.027235
  83 H :    0.029297
  84 H :    0.035868
  85 H :    0.026308
  86 H :    0.037461
  87 H :    0.024171
  88 H :    0.020617
  89 H :    0.046123
  90 H :   -0.017356
  91 H :    0.011278
  92 H :    0.054206
  93 H :    0.013795
  94 H :   -0.010759
  95 H :   -0.007317
  96 H :   -0.008844
  97 H :   -0.004259
  98 H :   -0.004353
  99 H :   -0.015728
Sum of atomic charges:   -0.0000000

LOEWDIN ATOMIC CHARGES
----------------------
   0 C :    0.069137
   1 C :   -0.110460
   2 C :   -0.015557
   3 N :   -0.045341
   4 C :   -0.016446
   5 N :   -0.049606
   6 C :   -0.020318
   7 C :   -0.059810
   8 C :    0.035452
   9 C :   -0.009124
  10 C :   -0.003441
  11 C :    0.017503
  12 C :   -0.005860
  13 C :   -0.010953
  14 C :   -0.012202
  15 C :   -0.008368
  16 C :    0.084870
  17 O :   -0.134728
  18 C :   -0.050238
  19 C :    0.027175
  20 C :   -0.160824
  21 S :    0.441200
  22 C :   -0.138957
  23 N :   -0.066908
  24 N :   -0.053705
  25 C :   -0.003229
  26 C :   -0.007321
  27 C :    0.084121
  28 N :   -0.001950
  29 C :    0.036778
  30 C :   -0.060139
  31 C :    0.082364
  32 O :   -0.178625
  33 C :   -0.104947
  34 C :   -0.122850
  35 C :    0.081134
  36 O :   -0.203408
  37 N :    0.001060
  38 C :    0.036666
  39 C :   -0.062842
  40 C :    0.063756
  41 C :    0.016242
  42 C :   -0.050261
  43 C :   -0.142660
  44 S :    0.390595
  45 C :   -0.153638
  46 N :   -0.053237
  47 N :   -0.066296
  48 C :   -0.011967
  49 C :    0.010319
  50 C :    0.062246
  51 C :   -0.079987
  52 C :    0.075351
  53 C :   -0.135931
  54 C :   -0.016875
  55 N :   -0.051819
  56 C :   -0.020319
  57 N :   -0.052205
  58 C :   -0.026371
  59 C :   -0.055805
  60 C :    0.083378
  61 O :   -0.132685
  62 C :    0.033345
  63 C :   -0.007618
  64 C :   -0.006108
  65 C :    0.019670
  66 C :   -0.005334
  67 C :   -0.012893
  68 C :   -0.011525
  69 C :   -0.009070
  70 H :    0.040009
  71 H :    0.039776
  72 H :    0.034990
  73 H :    0.033962
  74 H :    0.033210
  75 H :    0.032293
  76 H :    0.049944
  77 H :    0.038478
  78 H :    0.039948
  79 H :    0.026405
  80 H :    0.038884
  81 H :    0.023127
  82 H :    0.032621
  83 H :    0.031927
  84 H :    0.035938
  85 H :    0.024926
  86 H :    0.035483
  87 H :    0.030813
  88 H :    0.019684
  89 H :    0.057431
  90 H :    0.031013
  91 H :    0.038043
  92 H :    0.044981
  93 H :    0.041779
  94 H :    0.039864
  95 H :    0.039128
  96 H :    0.034839
  97 H :    0.033402
  98 H :    0.033033
  99 H :    0.032468

  Mayer bond orders larger than 0.100000
B(  0-C ,  1-C ) :   1.6978 B(  0-C ,  6-C ) :   1.0040 B(  0-C , 18-C ) :   1.0080
B(  1-C ,  2-C ) :   1.1364 B(  1-C ,  4-C ) :   1.1533 B(  2-C ,  3-N ) :   2.9847
B(  4-C ,  5-N ) :   3.0097 B(  6-C ,  7-C ) :   1.2113 B(  6-C , 11-C ) :   1.4546
B(  7-C ,  8-C ) :   1.4690 B(  7-C , 16-C ) :   0.9242 B(  8-C ,  9-C ) :   1.1899
B(  8-C , 70-H ) :   1.0155 B(  9-C , 10-C ) :   1.2529 B(  9-C , 15-C ) :   1.2442
B( 10-C , 11-C ) :   1.2082 B( 10-C , 12-C ) :   1.2396 B( 11-C , 71-H ) :   0.9924
B( 12-C , 13-C ) :   1.4919 B( 12-C , 72-H ) :   0.9973 B( 13-C , 14-C ) :   1.2580
B( 13-C , 73-H ) :   0.9889 B( 14-C , 15-C ) :   1.4915 B( 14-C , 74-H ) :   0.9883
B( 15-C , 75-H ) :   0.9971 B( 16-C , 17-O ) :   2.2803 B( 16-C , 18-C ) :   0.9218
B( 18-C , 19-C ) :   1.7516 B( 19-C , 20-C ) :   1.0594 B( 19-C , 76-H ) :   0.9314
B( 20-C , 21-S ) :   1.1094 B( 20-C , 24-N ) :   1.6062 B( 21-S , 22-C ) :   1.1231
B( 21-S , 24-N ) :   0.1003 B( 22-C , 23-N ) :   1.6413 B( 22-C , 25-C ) :   1.1107
B( 23-N , 24-N ) :   1.2668 B( 25-C , 26-C ) :   1.6541 B( 25-C , 77-H ) :   0.9155
B( 26-C , 27-C ) :   1.1324 B( 26-C , 78-H ) :   0.9755 B( 27-C , 28-N ) :   1.1751
B( 27-C , 34-C ) :   1.3334 B( 28-N , 29-C ) :   0.9407 B( 28-N , 31-C ) :   1.0209
B( 29-C , 30-C ) :   1.1215 B( 29-C , 79-H ) :   0.9503 B( 29-C , 80-H ) :   0.9288
B( 30-C , 81-H ) :   0.9687 B( 30-C , 82-H ) :   0.9679 B( 30-C , 83-H ) :   0.9641
B( 31-C , 32-O ) :   2.1624 B( 31-C , 33-C ) :   0.9658 B( 33-C , 34-C ) :   1.2476
B( 33-C , 40-C ) :   1.3630 B( 34-C , 35-C ) :   0.9952 B( 35-C , 36-O ) :   2.0004
B( 35-C , 37-N ) :   1.0665 B( 36-O , 77-H ) :   0.1190 B( 37-N , 38-C ) :   0.9409
B( 37-N , 40-C ) :   1.1669 B( 38-C , 39-C ) :   1.1154 B( 38-C , 84-H ) :   0.9300
B( 38-C , 85-H ) :   0.9501 B( 39-C , 86-H ) :   0.9597 B( 39-C , 87-H ) :   0.9687
B( 39-C , 88-H ) :   0.9638 B( 40-C , 41-C ) :   1.1450 B( 41-C , 42-C ) :   1.6549
B( 41-C , 89-H ) :   0.9582 B( 42-C , 43-C ) :   1.1092 B( 42-C , 90-H ) :   0.9440
B( 43-C , 44-S ) :   1.1049 B( 43-C , 47-N ) :   1.6635 B( 44-S , 45-C ) :   1.0860
B( 45-C , 46-N ) :   1.6687 B( 45-C , 48-C ) :   1.0857 B( 46-N , 47-N ) :   1.2470
B( 48-C , 49-C ) :   1.6358 B( 48-C , 91-H ) :   0.9571 B( 49-C , 50-C ) :   1.1233
B( 49-C , 92-H ) :   0.9873 B( 50-C , 51-C ) :   1.5731 B( 50-C , 93-H ) :   0.9609
B( 51-C , 52-C ) :   1.0568 B( 51-C , 60-C ) :   0.9304 B( 52-C , 53-C ) :   1.6325
B( 52-C , 58-C ) :   0.9938 B( 53-C , 54-C ) :   1.1433 B( 53-C , 56-C ) :   1.1461
B( 54-C , 55-N ) :   2.9635 B( 56-C , 57-N ) :   2.9662 B( 58-C , 59-C ) :   1.2156
B( 58-C , 65-C ) :   1.4439 B( 59-C , 60-C ) :   0.9398 B( 59-C , 62-C ) :   1.4728
B( 60-C , 61-O ) :   2.2262 B( 62-C , 63-C ) :   1.1798 B( 62-C , 94-H ) :   1.0160
B( 63-C , 64-C ) :   1.2560 B( 63-C , 69-C ) :   1.2446 B( 64-C , 65-C ) :   1.2117
B( 64-C , 66-C ) :   1.2378 B( 65-C , 95-H ) :   0.9888 B( 66-C , 67-C ) :   1.4914
B( 66-C , 96-H ) :   0.9973 B( 67-C , 68-C ) :   1.2592 B( 67-C , 97-H ) :   0.9885
B( 68-C , 69-C ) :   1.4881 B( 68-C , 98-H ) :   0.9892 B( 69-C , 99-H ) :   0.9980

-----------------------------------------------------------------------------
         ABSORPTION SPECTRUM VIA TRANSITION ELECTRIC DIPOLE MOMENTS
-----------------------------------------------------------------------------
State   Energy  Wavelength   fosc         T2         TX        TY        TZ
        (cm-1)    (nm)                  (au**2)     (au)      (au)      (au)
-----------------------------------------------------------------------------
   0   14552.2    687.2   1.330789903  30.10633  -2.74194   3.27880   3.44058
   1   19342.6    517.0   0.105420976   1.79427   0.46707  -0.95825  -0.81109
   2   22269.5    449.0   0.127199237   1.88040   1.22421  -0.61371   0.07116
   3   24137.9    414.3   0.021696738   0.29592   0.40939   0.35613  -0.03857
   4   24529.5    407.7   0.351601451   4.71887   1.09638  -1.55515  -1.04801
   5   25685.4    389.3   0.106964597   1.37098  -0.97863   0.57380   0.28985
   6   25825.6    387.2   0.000402182   0.00513   0.00712   0.02138   0.06796
   7   26052.3    383.8   0.516679808   6.52906   1.84856  -1.38576  -1.09159
   8   26126.5    382.8   0.015091561   0.19016  -0.05967   0.29687   0.31380
   9   26756.7    373.7   0.016833243   0.20711   0.33132  -0.26004  -0.17240
  10   27116.9    368.8   0.390098036   4.73597  -1.54835   1.01850   1.14071
  11   27781.0    360.0   0.068644960   0.81346  -0.49675   0.60048   0.45402
  12   27902.6    358.4   0.013319017   0.15715   0.07065  -0.36546  -0.13634
  13   28462.2    351.3   0.132162324   1.52867  -1.08268   0.52902   0.27680
  14   28868.7    346.4   0.011119108   0.12680   0.06956  -0.33685   0.09217
  15   29246.1    341.9   0.035414663   0.39865  -0.22447   0.46392   0.36475
  16   29696.6    336.7   0.047028379   0.52135  -0.66395   0.18781  -0.21272
  17   30557.4    327.3   0.338823999   3.65034   1.31875  -1.36126  -0.24128
  18   30874.5    323.9   0.074871256   0.79835   0.77446   0.44438   0.03281
  19   31225.0    320.3   0.084737768   0.89341   0.92744   0.15742   0.09210
  20   31471.9    317.7   0.023946081   0.25049  -0.40702   0.28609   0.05458
  21   32849.7    304.4   0.035356767   0.35434   0.20192  -0.55583   0.06798
  22   32901.4    303.9   0.100048902   1.00109  -0.43294   0.89531   0.10984
  23   33403.3    299.4   0.701706710   6.91580   2.54015  -0.49121  -0.47130
  24   33453.7    298.9   0.496071281   4.88174   0.17559   1.83041   1.22496
  25   33609.9    297.5   0.144882457   1.41914   1.16022   0.24140   0.12150
  26   34033.3    293.8   0.029705525   0.28735   0.10874  -0.07025  -0.52018
  27   34522.3    289.7   0.010405863   0.09923  -0.21112   0.09803  -0.21225
  28   35223.6    283.9   0.044334566   0.41437  -0.47591   0.43026  -0.05245
  29   35478.7    281.9   0.017424269   0.16168  -0.05168  -0.34414   0.20144
  30   35528.4    281.5   0.068469442   0.63445  -0.31284   0.65133   0.33518
  31   36008.5    277.7   0.108069753   0.98804   0.97649  -0.12861  -0.13401
  32   36210.5    276.2   0.130760816   1.18883  -1.06665   0.12831  -0.18605
  33   36368.5    275.0   0.191803916   1.73623   0.16721   1.07682   0.74077
  34   36833.6    271.5   0.062159695   0.55557   0.44942  -0.55148   0.22241
  35   37418.5    267.2   0.109407410   0.96258  -0.28735  -0.53950  -0.76743
  36   37916.9    263.7   0.009994886   0.08678  -0.23809  -0.03634   0.16962
  37   38115.6    262.4   0.061736206   0.53323   0.19737  -0.69050  -0.13219
  38   38242.0    261.5   0.004561244   0.03927   0.11815   0.15885  -0.00850
  39   38514.9    259.6   0.125445057   1.07226   0.40404  -0.68473   0.66344
  40   38699.7    258.4   0.040597027   0.34535   0.11643   0.51311   0.26174
  41   38815.9    257.6   0.065315504   0.55396  -0.21537  -0.71156  -0.03552
  42   39215.4    255.0   0.002420569   0.02032  -0.07850   0.00463   0.11890
  43   39364.7    254.0   0.009265560   0.07749  -0.16234   0.12360  -0.18936
  44   39542.7    252.9   0.059846751   0.49825  -0.22887   0.27245  -0.60963
  45   39738.4    251.6   0.071338736   0.59100  -0.27900  -0.71538   0.03742

FINAL SINGLE POINT ENERGY     -3716.571132508104

DIPOLE MOMENT
-------------
                                X             Y             Z
Electronic contribution:     15.23467       5.61887       8.47871
Nuclear contribution   :    -15.82744      -8.58317      -8.87535
                        -----------------------------------------
Total Dipole Moment    :     -0.59276      -2.96430      -0.39664
                        -----------------------------------------
Magnitude (a.u.)       :      3.04889
Magnitude (Debye)      :      7.74967

Rotational constants in cm-1:     0.003770     0.000161     0.000158
Rotational constants in MHz :   113.021914     4.823399     4.741854

                             ****ORCA TERMINATED NORMALLY****
TOTAL RUN TIME: 0 days 0 hours 8 minutes 57 seconds 958 msec
