                         Program Version 4.2.0 -  RELEASE  -
|  1> # ORCA input file
|  2> # SCF done       -166.723927959973          0.000742702904
|  3> ! CAM-B3LYP def2-SVP def2/J RIJCOSX Grid4 TightSCF
|  4> %maxcore 5000
|  5> %tddft
|  6>     Mode sTDDFT
|  7>     Ethresh 5.0
|  8>     maxcore 5000
|  9> end
| 10>
| 11> %pal
| 12>   nprocs 6
| 13>   end
| 14> * xyz 0 1
| 15>    C       -5.21836         0.71240         6.66557
| 16>    C       -5.08872        -0.51861         6.07934
| 17>    C       -5.41327        -1.73516         6.71823
| 18>    N       -5.65652        -2.75831         7.17765
| 19>    C       -4.62892        -0.76568         4.76827
| 20>    N       -4.26759        -1.04861         3.71545
| 21>    C       -5.71329         0.95603         8.01627
| 22>    C       -5.74264         2.36220         8.24499
| 23>    C       -6.15986         2.89619         9.43052
| 24>    C       -6.57564         2.03000        10.46572
| 25>    C       -6.55172         0.62198        10.24656
| 26>    C       -6.11472         0.09943         9.00738
| 27>    C       -6.96901        -0.23359        11.28633
| 28>    C       -7.38828         0.27521        12.48574
| 29>    C       -7.40971         1.66133        12.70073
| 30>    C       -7.01265         2.52043        11.71186
| 31>    C       -5.26758         3.05616         7.04318
| 32>    O       -5.17565         4.26154         6.88716
| 33>    C       -4.91643         2.00650         6.07109
| 34>    C       -4.36542         2.21949         4.84015
| 35>    C       -4.04710         3.42891         4.18588
| 36>    S       -4.32673         5.05162         4.75607
| 37>    C       -3.65544         5.72995         3.31396
| 38>    C       -3.21982         4.73283         2.43261
| 39>    C       -3.45119         3.44925         2.93060
| 40>    C       -2.60327         4.94229         1.18522
| 41>    N       -2.08686         5.06651         0.16851
| 42>    C       -3.62299         7.14974         3.19099
| 43>    C       -3.15058         7.84278         2.13821
| 44>    C       -3.14751         9.28984         2.03423
| 45>    C       -3.35279        10.16147         3.04239
| 46>    N       -2.79222         9.71065         0.76149
| 47>    N       -3.01392        10.86266         0.38436
| 48>    C       -2.96905        11.44474        -0.78648
| 49>    C       -3.50495        10.98545        -1.99824
| 50>    C       -3.48091        12.03907        -2.92355
| 51>    C       -2.92315        13.21301        -2.21957
| 52>    C       -2.64604        12.85466        -0.94092
| 53>    C       -2.77339        14.51297        -2.72355
| 54>    N       -2.66476        15.60277        -3.06702
| 55>    C       -3.81577        11.98544        -4.26998
| 56>    C       -3.54288        12.96776        -5.25273
| 57>    C       -4.03658        12.53581        -6.47444
| 58>    C       -4.65660        11.23561        -6.25991
| 59>    C       -4.51049        10.88667        -4.95325
| 60>    C       -4.98929         9.71407        -4.36050
| 61>    N       -5.39444         8.75117        -3.88164
| 62>    C       -4.08464        13.16737        -7.73775
| 63>    C       -3.44022        14.28469        -8.19600
| 64>    C       -3.70648        14.92098        -9.47506
| 65>    C       -4.69344        14.59659       -10.37267
| 66>    C       -4.89787        15.26542       -11.59810
| 67>    N       -5.12164        15.75595       -12.61200
| 68>    C       -5.65467        13.57413       -10.23073
| 69>    N       -6.48309        12.77801       -10.20457
| 70>    C       -2.76680        16.02550        -9.63404
| 71>    C       -1.92813        16.07402        -8.48606
| 72>    C       -2.29204        14.98775        -7.56041
| 73>    O       -1.71190        14.70282        -6.53560
| 74>    C       -0.95364        17.01815        -8.33874
| 75>    C       -0.77121        17.98215        -9.35510
| 76>    C       -1.60086        17.93740       -10.51243
| 77>    C       -2.59988        16.94467       -10.63653
| 78>    C       -1.40788        18.90077       -11.52352
| 79>    C       -0.44443        19.86420       -11.39784
| 80>    C        0.37006        19.90887       -10.25642
| 81>    C        0.21009        18.98799        -9.25680
| 82>    H       -6.17137         3.96620         9.57612
| 83>    H       -6.10708        -0.97081         8.87686
| 84>    H       -6.95099        -1.30005        11.11651
| 85>    H       -7.70572        -0.38845        13.27593
| 86>    H       -7.74244         2.04517        13.65343
| 87>    H       -7.02730         3.58870        11.87116
| 88>    H       -4.11714         1.34616         4.24910
| 89>    H       -3.19251         2.55200         2.39491
| 90>    H       -4.03813         7.67505         4.04145
| 91>    H       -2.76192         7.32978         1.27087
| 92>    H       -3.51914         9.83546         4.05185
| 93>    H       -3.30010        11.22227         2.86669
| 94>    H       -3.89049         9.99873        -2.16168
| 95>    H       -2.25511        13.47779        -0.15892
| 96>    H       -3.02977        13.88900        -5.06756
| 97>    H       -5.14264        10.65899        -7.02564
| 98>    H       -4.75274        12.67528        -8.43533
| 99>    H       -0.33507        17.03171        -7.45369
|100>    H       -3.20823        16.93976       -11.52664
|101>    H       -2.03849        18.86316       -12.39976
|102>    H       -0.30497        20.59811       -12.17748
|103>    H        1.12485        20.67666       -10.17345
|104>    H        0.83389        19.01718        -8.37538
|105> *
|106>
|107>                          ****END OF INPUT****

CARTESIAN COORDINATES (ANGSTROEM)
---------------------------------
  C     -5.218360    0.712400    6.665570
  C     -5.088720   -0.518610    6.079340
  C     -5.413270   -1.735160    6.718230
  N     -5.656520   -2.758310    7.177650
  C     -4.628920   -0.765680    4.768270
  N     -4.267590   -1.048610    3.715450
  C     -5.713290    0.956030    8.016270
  C     -5.742640    2.362200    8.244990
  C     -6.159860    2.896190    9.430520
  C     -6.575640    2.030000   10.465720
  C     -6.551720    0.621980   10.246560
  C     -6.114720    0.099430    9.007380
  C     -6.969010   -0.233590   11.286330
  C     -7.388280    0.275210   12.485740
  C     -7.409710    1.661330   12.700730
  C     -7.012650    2.520430   11.711860
  C     -5.267580    3.056160    7.043180
  O     -5.175650    4.261540    6.887160
  C     -4.916430    2.006500    6.071090
  C     -4.365420    2.219490    4.840150
  C     -4.047100    3.428910    4.185880
  S     -4.326730    5.051620    4.756070
  C     -3.655440    5.729950    3.313960
  C     -3.219820    4.732830    2.432610
  C     -3.451190    3.449250    2.930600
  C     -2.603270    4.942290    1.185220
  N     -2.086860    5.066510    0.168510
  C     -3.622990    7.149740    3.190990
  C     -3.150580    7.842780    2.138210
  C     -3.147510    9.289840    2.034230
  C     -3.352790   10.161470    3.042390
  N     -2.792220    9.710650    0.761490
  N     -3.013920   10.862660    0.384360
  C     -2.969050   11.444740   -0.786480
  C     -3.504950   10.985450   -1.998240
  C     -3.480910   12.039070   -2.923550
  C     -2.923150   13.213010   -2.219570
  C     -2.646040   12.854660   -0.940920
  C     -2.773390   14.512970   -2.723550
  N     -2.664760   15.602770   -3.067020
  C     -3.815770   11.985440   -4.269980
  C     -3.542880   12.967760   -5.252730
  C     -4.036580   12.535810   -6.474440
  C     -4.656600   11.235610   -6.259910
  C     -4.510490   10.886670   -4.953250
  C     -4.989290    9.714070   -4.360500
  N     -5.394440    8.751170   -3.881640
  C     -4.084640   13.167370   -7.737750
  C     -3.440220   14.284690   -8.196000
  C     -3.706480   14.920980   -9.475060
  C     -4.693440   14.596590  -10.372670
  C     -4.897870   15.265420  -11.598100
  N     -5.121640   15.755950  -12.612000
  C     -5.654670   13.574130  -10.230730
  N     -6.483090   12.778010  -10.204570
  C     -2.766800   16.025500   -9.634040
  C     -1.928130   16.074020   -8.486060
  C     -2.292040   14.987750   -7.560410
  O     -1.711900   14.702820   -6.535600
  C     -0.953640   17.018150   -8.338740
  C     -0.771210   17.982150   -9.355100
  C     -1.600860   17.937400  -10.512430
  C     -2.599880   16.944670  -10.636530
  C     -1.407880   18.900770  -11.523520
  C     -0.444430   19.864200  -11.397840
  C      0.370060   19.908870  -10.256420
  C      0.210090   18.987990   -9.256800
  H     -6.171370    3.966200    9.576120
  H     -6.107080   -0.970810    8.876860
  H     -6.950990   -1.300050   11.116510
  H     -7.705720   -0.388450   13.275930
  H     -7.742440    2.045170   13.653430
  H     -7.027300    3.588700   11.871160
  H     -4.117140    1.346160    4.249100
  H     -3.192510    2.552000    2.394910
  H     -4.038130    7.675050    4.041450
  H     -2.761920    7.329780    1.270870
  H     -3.519140    9.835460    4.051850
  H     -3.300100   11.222270    2.866690
  H     -3.890490    9.998730   -2.161680
  H     -2.255110   13.477790   -0.158920
  H     -3.029770   13.889000   -5.067560
  H     -5.142640   10.658990   -7.025640
  H     -4.752740   12.675280   -8.435330
  H     -0.335070   17.031710   -7.453690
  H     -3.208230   16.939760  -11.526640
  H     -2.038490   18.863160  -12.399760
  H     -0.304970   20.598110  -12.177480
  H      1.124850   20.676660  -10.173450
  H      0.833890   19.017180   -8.375380

 Total Charge           Charge          ....    0
 Multiplicity           Mult            ....    1
 Number of Electrons    NEL             ....  448
 Basis Dimension        Dim             .... 1057

ORBITAL ENERGIES
----------------

  NO   OCC          E(Eh)            E(eV)
   0   2.0000     -88.985498     -2421.4185
   1   2.0000     -19.232716      -523.3488
   2   2.0000     -19.216313      -522.9025
   3   2.0000     -14.501071      -394.5942
   4   2.0000     -14.499439      -394.5498
   5   2.0000     -14.424568      -392.5125
   6   2.0000     -14.420784      -392.4095
   7   2.0000     -14.416742      -392.2995
   8   2.0000     -14.415496      -392.2656
   9   2.0000     -14.415056      -392.2536
  10   2.0000     -14.413720      -392.2173
  11   2.0000     -14.404585      -391.9687
  12   2.0000     -10.380405      -282.4652
  13   2.0000     -10.367584      -282.1163
  14   2.0000     -10.351343      -281.6744
  15   2.0000     -10.350120      -281.6411
  16   2.0000     -10.349243      -281.6172
  17   2.0000     -10.342148      -281.4242
  18   2.0000     -10.340649      -281.3834
  19   2.0000     -10.339279      -281.3461
  20   2.0000     -10.338338      -281.3205
  21   2.0000     -10.336705      -281.2760
  22   2.0000     -10.335412      -281.2409
  23   2.0000     -10.331837      -281.1436
  24   2.0000     -10.331198      -281.1262
  25   2.0000     -10.327008      -281.0122
  26   2.0000     -10.326175      -280.9895
  27   2.0000     -10.323518      -280.9172
  28   2.0000     -10.322888      -280.9001
  29   2.0000     -10.322339      -280.8851
  30   2.0000     -10.319591      -280.8104
  31   2.0000     -10.319481      -280.8074
  32   2.0000     -10.316721      -280.7322
  33   2.0000     -10.316682      -280.7312
  34   2.0000     -10.316311      -280.7211
  35   2.0000     -10.315484      -280.6986
  36   2.0000     -10.311868      -280.6002
  37   2.0000     -10.311193      -280.5818
  38   2.0000     -10.311123      -280.5799
  39   2.0000     -10.310821      -280.5717
  40   2.0000     -10.309864      -280.5457
  41   2.0000     -10.306717      -280.4600
  42   2.0000     -10.306047      -280.4418
  43   2.0000     -10.306011      -280.4408
  44   2.0000     -10.305781      -280.4346
  45   2.0000     -10.305196      -280.4186
  46   2.0000     -10.304927      -280.4113
  47   2.0000     -10.304224      -280.3922
  48   2.0000     -10.303502      -280.3725
  49   2.0000     -10.301255      -280.3114
  50   2.0000     -10.301242      -280.3110
  51   2.0000     -10.297355      -280.2053
  52   2.0000     -10.296067      -280.1702
  53   2.0000     -10.295821      -280.1635
  54   2.0000     -10.295105      -280.1441
  55   2.0000     -10.294355      -280.1236
  56   2.0000     -10.293713      -280.1062
  57   2.0000     -10.293655      -280.1046
  58   2.0000     -10.293153      -280.0909
  59   2.0000     -10.292909      -280.0843
  60   2.0000     -10.292519      -280.0737
  61   2.0000     -10.292014      -280.0599
  62   2.0000     -10.286239      -279.9028
  63   2.0000     -10.285156      -279.8733
  64   2.0000     -10.284459      -279.8544
  65   2.0000     -10.284301      -279.8501
  66   2.0000     -10.283843      -279.8376
  67   2.0000      -8.078811      -219.8356
  68   2.0000      -6.048125      -164.5778
  69   2.0000      -6.043556      -164.4535
  70   2.0000      -6.041267      -164.3912
  71   2.0000      -1.171572       -31.8801
  72   2.0000      -1.147950       -31.2373
  73   2.0000      -1.131743       -30.7963
  74   2.0000      -1.027718       -27.9656
  75   2.0000      -1.026679       -27.9374
  76   2.0000      -1.022340       -27.8193
  77   2.0000      -1.018128       -27.7047
  78   2.0000      -1.007084       -27.4041
  79   2.0000      -1.004294       -27.3282
  80   2.0000      -1.000854       -27.2346
  81   2.0000      -0.997773       -27.1508
  82   2.0000      -0.996441       -27.1145
  83   2.0000      -0.994739       -27.0682
  84   2.0000      -0.993040       -27.0220
  85   2.0000      -0.982358       -26.7313
  86   2.0000      -0.979287       -26.6477
  87   2.0000      -0.970206       -26.4006
  88   2.0000      -0.965285       -26.2667
  89   2.0000      -0.935889       -25.4668
  90   2.0000      -0.925277       -25.1781
  91   2.0000      -0.923523       -25.1303
  92   2.0000      -0.909477       -24.7481
  93   2.0000      -0.903771       -24.5929
  94   2.0000      -0.891601       -24.2617
  95   2.0000      -0.888011       -24.1640
  96   2.0000      -0.882940       -24.0260
  97   2.0000      -0.879307       -23.9272
  98   2.0000      -0.876720       -23.8568
  99   2.0000      -0.864452       -23.5229
 100   2.0000      -0.859951       -23.4005
 101   2.0000      -0.841426       -22.8964
 102   2.0000      -0.835998       -22.7487
 103   2.0000      -0.832580       -22.6557
 104   2.0000      -0.826717       -22.4961
 105   2.0000      -0.825303       -22.4576
 106   2.0000      -0.799244       -21.7485
 107   2.0000      -0.793823       -21.6010
 108   2.0000      -0.777660       -21.1612
 109   2.0000      -0.771591       -20.9961
 110   2.0000      -0.761565       -20.7232
 111   2.0000      -0.759935       -20.6789
 112   2.0000      -0.728961       -19.8360
 113   2.0000      -0.727020       -19.7832
 114   2.0000      -0.723254       -19.6807
 115   2.0000      -0.718319       -19.5465
 116   2.0000      -0.711086       -19.3496
 117   2.0000      -0.704958       -19.1829
 118   2.0000      -0.702286       -19.1102
 119   2.0000      -0.695175       -18.9167
 120   2.0000      -0.687610       -18.7108
 121   2.0000      -0.685624       -18.6568
 122   2.0000      -0.681605       -18.5474
 123   2.0000      -0.677354       -18.4317
 124   2.0000      -0.666061       -18.1245
 125   2.0000      -0.658965       -17.9314
 126   2.0000      -0.646880       -17.6025
 127   2.0000      -0.644925       -17.5493
 128   2.0000      -0.635239       -17.2857
 129   2.0000      -0.630914       -17.1681
 130   2.0000      -0.624185       -16.9849
 131   2.0000      -0.622203       -16.9310
 132   2.0000      -0.614422       -16.7193
 133   2.0000      -0.607163       -16.5217
 134   2.0000      -0.605194       -16.4682
 135   2.0000      -0.599681       -16.3182
 136   2.0000      -0.592289       -16.1170
 137   2.0000      -0.586996       -15.9730
 138   2.0000      -0.581046       -15.8111
 139   2.0000      -0.573170       -15.5968
 140   2.0000      -0.571147       -15.5417
 141   2.0000      -0.560126       -15.2418
 142   2.0000      -0.557028       -15.1575
 143   2.0000      -0.555413       -15.1135
 144   2.0000      -0.551563       -15.0088
 145   2.0000      -0.549773       -14.9601
 146   2.0000      -0.548394       -14.9226
 147   2.0000      -0.546028       -14.8582
 148   2.0000      -0.544459       -14.8155
 149   2.0000      -0.540132       -14.6977
 150   2.0000      -0.538313       -14.6482
 151   2.0000      -0.536782       -14.6066
 152   2.0000      -0.534524       -14.5451
 153   2.0000      -0.529779       -14.4160
 154   2.0000      -0.526253       -14.3201
 155   2.0000      -0.523973       -14.2580
 156   2.0000      -0.522107       -14.2072
 157   2.0000      -0.520624       -14.1669
 158   2.0000      -0.518688       -14.1142
 159   2.0000      -0.517904       -14.0929
 160   2.0000      -0.515243       -14.0205
 161   2.0000      -0.510726       -13.8976
 162   2.0000      -0.509230       -13.8568
 163   2.0000      -0.505434       -13.7536
 164   2.0000      -0.504992       -13.7415
 165   2.0000      -0.502407       -13.6712
 166   2.0000      -0.497069       -13.5259
 167   2.0000      -0.495852       -13.4928
 168   2.0000      -0.495233       -13.4760
 169   2.0000      -0.491839       -13.3836
 170   2.0000      -0.489183       -13.3113
 171   2.0000      -0.486661       -13.2427
 172   2.0000      -0.483501       -13.1567
 173   2.0000      -0.480570       -13.0770
 174   2.0000      -0.473948       -12.8968
 175   2.0000      -0.472189       -12.8489
 176   2.0000      -0.470839       -12.8122
 177   2.0000      -0.462803       -12.5935
 178   2.0000      -0.456304       -12.4167
 179   2.0000      -0.452524       -12.3138
 180   2.0000      -0.450410       -12.2563
 181   2.0000      -0.448772       -12.2117
 182   2.0000      -0.448443       -12.2028
 183   2.0000      -0.446155       -12.1405
 184   2.0000      -0.445177       -12.1139
 185   2.0000      -0.443531       -12.0691
 186   2.0000      -0.442951       -12.0533
 187   2.0000      -0.441878       -12.0241
 188   2.0000      -0.441627       -12.0173
 189   2.0000      -0.439617       -11.9626
 190   2.0000      -0.435764       -11.8577
 191   2.0000      -0.434901       -11.8343
 192   2.0000      -0.434163       -11.8142
 193   2.0000      -0.433956       -11.8085
 194   2.0000      -0.432521       -11.7695
 195   2.0000      -0.431651       -11.7458
 196   2.0000      -0.430210       -11.7066
 197   2.0000      -0.425346       -11.5742
 198   2.0000      -0.423682       -11.5290
 199   2.0000      -0.419425       -11.4131
 200   2.0000      -0.417866       -11.3707
 201   2.0000      -0.413621       -11.2552
 202   2.0000      -0.412359       -11.2209
 203   2.0000      -0.410322       -11.1654
 204   2.0000      -0.405240       -11.0271
 205   2.0000      -0.401227       -10.9179
 206   2.0000      -0.399292       -10.8653
 207   2.0000      -0.390118       -10.6157
 208   2.0000      -0.380962       -10.3665
 209   2.0000      -0.375825       -10.2267
 210   2.0000      -0.363580        -9.8935
 211   2.0000      -0.347760        -9.4630
 212   2.0000      -0.346710        -9.4344
 213   2.0000      -0.342961        -9.3325
 214   2.0000      -0.337852        -9.1934
 215   2.0000      -0.336503        -9.1567
 216   2.0000      -0.327795        -8.9198
 217   2.0000      -0.325012        -8.8440
 218   2.0000      -0.315676        -8.5900
 219   2.0000      -0.302857        -8.2412
 220   2.0000      -0.299676        -8.1546
 221   2.0000      -0.292742        -7.9659
 222   2.0000      -0.284178        -7.7329
 223   2.0000      -0.275067        -7.4849
 224   0.0000      -0.140017        -3.8101
 225   0.0000      -0.107533        -2.9261
 226   0.0000      -0.083491        -2.2719
 227   0.0000      -0.076373        -2.0782
 228   0.0000      -0.067394        -1.8339

MULLIKEN ATOMIC CHARGES
-----------------------
   0 C :    0.333470
   1 C :   -0.354146
   2 C :   -0.182133
   3 N :    0.152350
   4 C :   -0.189753
   5 N :    0.154487
   6 C :    0.047461
   7 C :   -0.001696
   8 C :   -0.082013
   9 C :    0.101224
  10 C :    0.100201
  11 C :   -0.087254
  12 C :   -0.022183
  13 C :    0.038743
  14 C :    0.039754
  15 C :   -0.020543
  16 C :    0.173038
  17 O :   -0.183256
  18 C :   -0.092038
  19 C :   -0.009436
  20 C :   -0.054164
  21 S :    0.212585
  22 C :   -0.057097
  23 C :   -0.048528
  24 C :    0.014167
  25 C :   -0.174433
  26 N :    0.132282
  27 C :    0.067093
  28 C :    0.035752
  29 C :   -0.018056
  30 C :    0.019379
  31 N :   -0.036874
  32 N :    0.003815
  33 C :    0.090538
  34 C :   -0.114827
  35 C :    0.130233
  36 C :   -0.083505
  37 C :    0.008357
  38 C :   -0.176829
  39 N :    0.147777
  40 C :    0.101174
  41 C :   -0.079426
  42 C :    0.081324
  43 C :   -0.004495
  44 C :   -0.086457
  45 C :   -0.186268
  46 N :    0.137577
  47 C :   -0.027770
  48 C :   -0.058880
  49 C :    0.321293
  50 C :   -0.354818
  51 C :   -0.184768
  52 N :    0.149797
  53 C :   -0.189876
  54 N :    0.155605
  55 C :    0.046828
  56 C :   -0.004931
  57 C :    0.150048
  58 O :   -0.141762
  59 C :   -0.076083
  60 C :    0.097550
  61 C :    0.094413
  62 C :   -0.081874
  63 C :   -0.017730
  64 C :    0.034884
  65 C :    0.034729
  66 C :   -0.015760
  67 H :   -0.012121
  68 H :   -0.006229
  69 H :   -0.005826
  70 H :   -0.001889
  71 H :   -0.003821
  72 H :   -0.015933
  73 H :    0.012210
  74 H :    0.019329
  75 H :   -0.013930
  76 H :    0.024445
  77 H :    0.036989
  78 H :    0.044218
  79 H :    0.011285
  80 H :    0.003967
  81 H :    0.029699
  82 H :    0.010761
  83 H :    0.008168
  84 H :   -0.009195
  85 H :   -0.008039
  86 H :   -0.008461
  87 H :   -0.004028
  88 H :   -0.004033
  89 H :   -0.015828
Sum of atomic charges:   -0.0000000

LOEWDIN ATOMIC CHARGES
----------------------
   0 C :    0.076520
   1 C :   -0.136739
   2 C :   -0.016938
   3 N :   -0.049694
   4 C :   -0.021705
   5 N :   -0.047940
   6 C :   -0.025376
   7 C :   -0.057089
   8 C :    0.034192
   9 C :   -0.008387
  10 C :   -0.005106
  11 C :    0.021621
  12 C :   -0.004359
  13 C :   -0.010930
  14 C :   -0.010252
  15 C :   -0.009213
  16 C :    0.087486
  17 O :   -0.168600
  18 C :   -0.100223
  19 C :    0.060633
  20 C :   -0.187593
  21 S :    0.536060
  22 C :   -0.132716
  23 C :   -0.110918
  24 C :    0.016990
  25 C :   -0.031286
  26 N :   -0.045760
  27 C :   -0.036091
  28 C :    0.005173
  29 C :   -0.042114
  30 C :    0.023056
  31 N :    0.025605
  32 N :    0.039241
  33 C :   -0.007895
  34 C :   -0.044546
  35 C :    0.055914
  36 C :   -0.063860
  37 C :    0.050844
  38 C :   -0.033534
  39 N :   -0.043929
  40 C :    0.020377
  41 C :    0.037741
  42 C :   -0.043731
  43 C :    0.057814
  44 C :   -0.092116
  45 C :   -0.031384
  46 N :   -0.063154
  47 C :    0.067828
  48 C :   -0.076412
  49 C :    0.075617
  50 C :   -0.137018
  51 C :   -0.016248
  52 N :   -0.052597
  53 C :   -0.023423
  54 N :   -0.050485
  55 C :   -0.026899
  56 C :   -0.055142
  57 C :    0.085879
  58 O :   -0.131013
  59 C :    0.034439
  60 C :   -0.007606
  61 C :   -0.006001
  62 C :    0.019632
  63 C :   -0.005289
  64 C :   -0.013580
  65 C :   -0.012110
  66 C :   -0.009129
  67 H :    0.039265
  68 H :    0.039890
  69 H :    0.035861
  70 H :    0.034467
  71 H :    0.033557
  72 H :    0.032250
  73 H :    0.052463
  74 H :    0.048134
  75 H :    0.028922
  76 H :    0.043565
  77 H :    0.033625
  78 H :    0.033037
  79 H :    0.040740
  80 H :    0.041448
  81 H :    0.035286
  82 H :    0.041133
  83 H :    0.046785
  84 H :    0.040441
  85 H :    0.038962
  86 H :    0.034894
  87 H :    0.033336
  88 H :    0.032964
  89 H :    0.032444

  Mayer bond orders larger than 0.100000
B(  0-C ,  1-C ) :   1.6341 B(  0-C ,  6-C ) :   0.9867 B(  0-C , 18-C ) :   1.0636
B(  1-C ,  2-C ) :   1.1490 B(  1-C ,  4-C ) :   1.1433 B(  2-C ,  3-N ) :   2.9623
B(  4-C ,  5-N ) :   2.9591 B(  6-C ,  7-C ) :   1.2148 B(  6-C , 11-C ) :   1.4496
B(  7-C ,  8-C ) :   1.4621 B(  7-C , 16-C ) :   0.9653 B(  8-C ,  9-C ) :   1.1780
B(  8-C , 67-H ) :   1.0179 B(  9-C , 10-C ) :   1.2556 B(  9-C , 15-C ) :   1.2420
B( 10-C , 11-C ) :   1.2030 B( 10-C , 12-C ) :   1.2399 B( 11-C , 68-H ) :   0.9906
B( 12-C , 13-C ) :   1.4873 B( 12-C , 69-H ) :   0.9983 B( 13-C , 14-C ) :   1.2608
B( 13-C , 70-H ) :   0.9883 B( 14-C , 15-C ) :   1.4893 B( 14-C , 71-H ) :   0.9879
B( 15-C , 72-H ) :   0.9985 B( 16-C , 17-O ) :   2.1250 B( 16-C , 18-C ) :   0.9688
B( 18-C , 19-C ) :   1.5415 B( 19-C , 20-C ) :   1.2201 B( 19-C , 73-H ) :   0.9381
B( 20-C , 21-S ) :   1.0963 B( 20-C , 24-C ) :   1.3755 B( 21-S , 22-C ) :   1.1427
B( 22-C , 23-C ) :   1.4021 B( 22-C , 27-C ) :   1.1522 B( 23-C , 24-C ) :   1.3330
B( 23-C , 25-C ) :   1.0930 B( 24-C , 74-H ) :   1.0131 B( 25-C , 26-N ) :   2.9820
B( 27-C , 28-C ) :   1.6962 B( 27-C , 75-H ) :   0.9395 B( 28-C , 29-C ) :   1.0496
B( 28-C , 76-H ) :   0.9584 B( 29-C , 30-C ) :   1.8479 B( 29-C , 31-N ) :   1.1480
B( 30-C , 77-H ) :   0.9360 B( 30-C , 78-H ) :   0.9273 B( 31-N , 32-N ) :   1.6273
B( 32-N , 33-C ) :   1.2510 B( 33-C , 34-C ) :   1.4502 B( 33-C , 37-C ) :   1.0236
B( 34-C , 35-C ) :   1.1664 B( 34-C , 79-H ) :   1.0127 B( 35-C , 36-C ) :   1.0813
B( 35-C , 40-C ) :   1.3823 B( 36-C , 37-C ) :   1.6847 B( 36-C , 38-C ) :   1.0975
B( 37-C , 80-H ) :   1.0246 B( 38-C , 39-N ) :   2.9821 B( 40-C , 41-C ) :   1.1257
B( 40-C , 44-C ) :   1.1215 B( 41-C , 42-C ) :   1.5024 B( 41-C , 81-H ) :   0.9842
B( 42-C , 43-C ) :   1.0401 B( 42-C , 47-C ) :   1.1511 B( 43-C , 44-C ) :   1.6433
B( 43-C , 82-H ) :   1.0249 B( 44-C , 45-C ) :   1.0841 B( 45-C , 46-N ) :   2.9802
B( 47-C , 48-C ) :   1.5710 B( 47-C , 83-H ) :   0.9358 B( 48-C , 49-C ) :   1.0705
B( 48-C , 57-C ) :   0.9275 B( 49-C , 50-C ) :   1.6207 B( 49-C , 55-C ) :   0.9870
B( 50-C , 51-C ) :   1.1521 B( 50-C , 53-C ) :   1.1410 B( 51-C , 52-N ) :   2.9597
B( 53-C , 54-N ) :   2.9687 B( 55-C , 56-C ) :   1.2133 B( 55-C , 62-C ) :   1.4482
B( 56-C , 57-C ) :   0.9453 B( 56-C , 59-C ) :   1.4714 B( 57-C , 58-O ) :   2.2039
B( 59-C , 60-C ) :   1.1805 B( 59-C , 84-H ) :   1.0158 B( 60-C , 61-C ) :   1.2549
B( 60-C , 66-C ) :   1.2437 B( 61-C , 62-C ) :   1.2092 B( 61-C , 63-C ) :   1.2411
B( 62-C , 85-H ) :   0.9880 B( 63-C , 64-C ) :   1.4901 B( 63-C , 86-H ) :   0.9965
B( 64-C , 65-C ) :   1.2593 B( 64-C , 87-H ) :   0.9882 B( 65-C , 66-C ) :   1.4902
B( 65-C , 88-H ) :   0.9887 B( 66-C , 89-H ) :   0.9974

-----------------------------------------------------------------------------
         ABSORPTION SPECTRUM VIA TRANSITION ELECTRIC DIPOLE MOMENTS
-----------------------------------------------------------------------------
State   Energy  Wavelength   fosc         T2         TX        TY        TZ
        (cm-1)    (nm)                  (au**2)     (au)      (au)      (au)
-----------------------------------------------------------------------------
   0   12432.4    804.3   0.533083664  14.11613   0.28031  -1.27015   3.52481
   1   15481.7    645.9   0.003650455   0.07763  -0.01033   0.13543  -0.24327
   2   17594.4    568.4   0.018547516   0.34705   0.01173   0.12277  -0.57605
   3   19395.1    515.6   0.004042827   0.06862  -0.03433  -0.25965   0.00499
   4   20068.6    498.3   0.025375630   0.41627  -0.24175   0.08961  -0.59144
   5   21588.8    463.2   0.639015536   9.74447  -0.26424  -1.83439   2.51191
   6   22324.6    447.9   0.069019752   1.01781  -0.31712  -0.74219   0.60530
   7   22676.4    441.0   0.956760518  13.89007   0.92817   3.11039  -1.83140
   8   23800.9    420.2   0.061908601   0.85632  -0.48217  -0.29652  -0.73205
   9   25555.1    391.3   0.614672700   7.91848   0.09111   1.26440  -2.51227
  10   26455.9    378.0   0.139382045   1.73444   0.42563   0.54052  -1.12300
  11   26783.1    373.4   0.050427492   0.61984   0.15902  -0.50607   0.58176
  12   27345.7    365.7   0.003774123   0.04544  -0.14579  -0.01146  -0.15508
  13   28281.6    353.6   0.001148872   0.01337   0.09090  -0.06935  -0.01738
  14   28403.7    352.1   0.000457050   0.00530   0.03084  -0.05940  -0.02859
  15   28576.6    349.9   0.015563734   0.17930  -0.13757  -0.15057   0.37108
  16   29477.7    339.2   0.028154579   0.31443   0.07213  -0.42920  -0.35358
  17   29979.0    333.6   0.307700979   3.37900   1.04122   1.32154  -0.74054
  18   30251.7    330.6   0.194244483   2.11385   0.39285  -0.46105  -1.32172
  19   30330.0    329.7   0.006234534   0.06767  -0.20385   0.12857   0.09790
  20   30615.0    326.6   0.002277647   0.02449   0.12716  -0.01871   0.08929
  21   31396.2    318.5   0.085493091   0.89646   0.53947   0.77808   0.00439
  22   31641.4    316.0   0.030384134   0.31613  -0.16832  -0.36123   0.39663
  23   32235.4    310.2   0.011759293   0.12009  -0.25468  -0.04704  -0.23026
  24   32325.4    309.4   0.031781127   0.32367   0.29919   0.17685   0.45042
  25   32913.1    303.8   0.328571060   3.28652   0.18216  -0.43221   1.75115
  26   33075.9    302.3   0.337222710   3.35646  -0.60024   0.62002   1.61609
  27   33639.0    297.3   0.086927535   0.85073  -0.02065  -0.60547  -0.69548
  28   33687.3    296.8   0.129454071   1.26510   0.72392   0.79539  -0.32925
  29   33882.0    295.1   0.055661692   0.54083   0.28482   0.29222  -0.61182
  30   34012.1    294.0   0.045224841   0.43774  -0.11458   0.14370   0.63558
  31   34144.3    292.9   0.170876502   1.64756   0.71275   0.64092  -0.85368
  32   34436.3    290.4   0.046598920   0.44549   0.13194   0.55643  -0.34419
  33   34733.3    287.9   0.056798626   0.53835  -0.16605  -0.70039  -0.14223
  34   35038.5    285.4   0.051165397   0.48074  -0.31689  -0.60993  -0.09111
  35   35102.5    284.9   0.060025394   0.56295   0.28406  -0.64710  -0.25203
  36   35462.3    282.0   0.005387317   0.05001   0.10956  -0.13298   0.14257
  37   35635.4    280.6   0.259548522   2.39780  -0.45023   1.03680   1.05837
  38   35706.4    280.1   0.690473186   6.36614   1.86717   1.66341   0.33599
  39   36170.1    276.5   0.001117293   0.01017  -0.04409   0.00525   0.09054
  40   36309.1    275.4   0.130867657   1.18657  -0.25602   0.82598   0.66240
  41   37136.2    269.3   0.015438808   0.13686   0.26798   0.09184   0.23794
  42   37584.6    266.1   0.026221879   0.22968   0.47161  -0.08234  -0.02204
  43   37727.6    265.1   0.040890991   0.35682   0.05156   0.59510  -0.00441
  44   37952.2    263.5   0.007688241   0.06669  -0.14781  -0.12755   0.16904
  45   38045.6    262.8   0.005723487   0.04953  -0.14583  -0.16031   0.05059
  46   38171.2    262.0   0.013757894   0.11866   0.01935  -0.34321   0.02211
  47   38942.9    256.8   0.124181845   1.04980  -0.15059  -1.00783  -0.10676
  48   39064.1    256.0   0.045104664   0.38012   0.00092   0.48354  -0.38250
  49   39175.8    255.3   0.119676869   1.00570  -0.39286  -0.89897  -0.20788
  50   39544.6    252.9   0.007708658   0.06418   0.02801   0.22849   0.10574
  51   39794.2    251.3   0.026197925   0.21673  -0.16364   0.02704  -0.43500
  52   39885.8    250.7   0.222433916   1.83594  -0.20902   0.48009  -1.24971
  53   40298.9    248.1   0.144134827   1.17747  -0.26565   0.31544  -1.00369

FINAL SINGLE POINT ENERGY     -3147.203665214856

DIPOLE MOMENT
-------------
                                X             Y             Z
Electronic contribution:     -3.70831     -13.96407     -10.00185
Nuclear contribution   :      4.76713      16.15910      15.18094
                        -----------------------------------------
Total Dipole Moment    :      1.05881       2.19503       5.17909
                        -----------------------------------------
Magnitude (a.u.)       :      5.72383
Magnitude (Debye)      :     14.54883

Rotational constants in cm-1:     0.003454     0.000204     0.000198
Rotational constants in MHz :   103.548166     6.107166     5.937845

                             ****ORCA TERMINATED NORMALLY****
TOTAL RUN TIME: 0 days 0 hours 7 minutes 33 seconds 116 msec
