                         Program Version 4.2.0 -  RELEASE  -
|  1> # ORCA input file
|  2> # SCF done       -173.574973206151          0.000990555820
|  3> ! CAM-B3LYP def2-SVP def2/J RIJCOSX Grid4 TightSCF
|  4> %maxcore 5000
|  5> %tddft
|  6>     Mode sTDDFT
|  7>     Ethresh 5.0
|  8>     maxcore 5000
|  9> end
| 10>
| 11> %pal
| 12>   nprocs 6
| 13>   end
| 14> * xyz 0 1
| 15>    C       -5.82634         4.56262        -2.59601
| 16>    O       -6.58304         4.22015        -3.64670
| 17>    C       -5.88915         3.30633        -4.34959
| 18>    C       -4.69140         3.05347        -3.76656
| 19>    C       -4.63328         3.87901        -2.60031
| 20>    C       -3.58479         4.00111        -1.62858
| 21>    C       -2.41706         3.32706        -1.65565
| 22>    C       -1.40207         3.49079        -0.67192
| 23>    C       -0.21919         2.83139        -0.70009
| 24>    C        0.80496         3.01342         0.27876
| 25>    C        2.02417         2.38077         0.26338
| 26>    O        2.99735         2.61877         1.22582
| 27>    C        2.65895         3.50222         2.20173
| 28>    C        1.39026         4.14957         2.22291
| 29>    C        1.24614         4.99106         3.27591
| 30>    S        2.66172         5.00736         4.26184
| 31>    C        3.45352         3.86607         3.23795
| 32>    O        0.45244         3.92060         1.26568
| 33>    C        2.44106         1.42941        -0.71537
| 34>    C        3.67367         0.86638        -0.70479
| 35>    C        4.11678        -0.11088        -1.63585
| 36>    O        3.23114        -0.69042        -2.48616
| 37>    C        3.88710        -1.64575        -3.16465
| 38>    C        5.18713        -1.71514        -2.77973
| 39>    C        5.36968        -0.70699        -1.79132
| 40>    C        6.61066        -0.39516        -1.14126
| 41>    C        6.95248         0.81007        -0.64929
| 42>    C        8.19511         1.07868         0.00989
| 43>    C        8.52899         2.29269         0.47477
| 44>    C        9.74833         2.59107         1.21859
| 45>    C        9.61542         3.21425         2.46630
| 46>    C       10.68692         3.41700         3.31051
| 47>    C       11.96520         3.02783         2.92824
| 48>    C       12.13251         2.48149         1.67676
| 49>    C       11.04422         2.26601         0.82036
| 50>    N       11.51061         1.76187        -0.39275
| 51>    C       10.76850         1.61820        -1.61706
| 52>    C       12.87164         1.61293        -0.38350
| 53>    O       13.52717         1.22175        -1.32161
| 54>    C       13.38999         2.08399         0.96924
| 55>    C       14.34636         3.27697         0.74807
| 56>    C       14.90400         3.75685         2.08696
| 57>    O       15.58553         3.13336         2.86441
| 58>    N       14.46723         5.04062         2.28261
| 59>    C       14.76501         5.80714         3.46184
| 60>    C       13.70406         5.48797         1.21672
| 61>    C       13.08131         6.70494         1.05007
| 62>    C       12.36368         6.93874        -0.13393
| 63>    C       12.30842         5.93632        -1.10888
| 64>    C       12.93597         4.71434        -0.92900
| 65>    C       13.62751         4.48613         0.24028
| 66>    C       11.71496         8.21953        -0.28980
| 67>    C       11.05320         8.66526        -1.37677
| 68>    C       10.43696         9.94662        -1.46466
| 69>    S       10.48110        11.03816        -0.11423
| 70>    C        9.59152        12.20813        -1.02169
| 71>    N        9.27715        13.43089        -0.41375
| 72>    O        8.65181        14.24344        -1.06988
| 73>    O        9.65998        13.59367         0.73186
| 74>    C        9.28014        11.78803        -2.28802
| 75>    C        9.75610        10.49331        -2.56119
| 76>    C        9.56622         9.80692        -3.82391
| 77>    C        8.97258        10.32255        -4.89578
| 78>    H       -6.22223         5.29049        -1.91545
| 79>    H       -6.35065         2.91705        -5.23540
| 80>    H       -3.94323         2.37174        -4.11308
| 81>    H       -3.77495         4.70019        -0.82438
| 82>    H       -2.21698         2.62735        -2.45561
| 83>    H       -1.59807         4.18756         0.13057
| 84>    H       -0.02043         2.13717        -1.50010
| 85>    H        0.40071         5.59582         3.52792
| 86>    H        4.44470         3.53058         3.45972
| 87>    H        1.74439         1.15797        -1.48973
| 88>    H        4.37702         1.13925         0.06545
| 89>    H        3.32463        -2.20465        -3.88663
| 90>    H        5.93724        -2.37972        -3.15725
| 91>    H        7.32711        -1.20669        -1.09683
| 92>    H        6.28052         1.64867        -0.76452
| 93>    H        8.86578         0.24230         0.15922
| 94>    H        7.81168         3.10137         0.40140
| 95>    H        8.62501         3.50620         2.78377
| 96>    H       10.52941         3.87215         4.27627
| 97>    H       12.80505         3.15499         3.59296
| 98>    H       10.14138         2.49478        -1.78234
| 99>    H       10.13808         0.72878        -1.61016
|100>    H       11.49899         1.52325        -2.42184
|101>    H       13.94168         1.29142         1.48204
|102>    H       15.15295         2.94478         0.08798
|103>    H       15.39247         5.18931         4.10332
|104>    H       13.84620         6.06746         3.99150
|105>    H       15.30235         6.72072         3.20100
|106>    H       13.13904         7.47227         1.80633
|107>    H       11.76341         6.10787        -2.02293
|108>    H       12.89032         3.95966        -1.69856
|109>    H       11.78805         8.88036         0.56595
|110>    H       10.97367         8.04117        -2.25356
|111>    H        8.72724        12.40393        -2.97249
|112>    H        9.94647         8.79695        -3.87503
|113>    H        8.57293        11.32074        -4.91861
|114>    H        8.86654         9.74948        -5.80011
|115> *
|116>
|117>                          ****END OF INPUT****

CARTESIAN COORDINATES (ANGSTROEM)
---------------------------------
  C     -5.826340    4.562620   -2.596010
  O     -6.583040    4.220150   -3.646700
  C     -5.889150    3.306330   -4.349590
  C     -4.691400    3.053470   -3.766560
  C     -4.633280    3.879010   -2.600310
  C     -3.584790    4.001110   -1.628580
  C     -2.417060    3.327060   -1.655650
  C     -1.402070    3.490790   -0.671920
  C     -0.219190    2.831390   -0.700090
  C      0.804960    3.013420    0.278760
  C      2.024170    2.380770    0.263380
  O      2.997350    2.618770    1.225820
  C      2.658950    3.502220    2.201730
  C      1.390260    4.149570    2.222910
  C      1.246140    4.991060    3.275910
  S      2.661720    5.007360    4.261840
  C      3.453520    3.866070    3.237950
  O      0.452440    3.920600    1.265680
  C      2.441060    1.429410   -0.715370
  C      3.673670    0.866380   -0.704790
  C      4.116780   -0.110880   -1.635850
  O      3.231140   -0.690420   -2.486160
  C      3.887100   -1.645750   -3.164650
  C      5.187130   -1.715140   -2.779730
  C      5.369680   -0.706990   -1.791320
  C      6.610660   -0.395160   -1.141260
  C      6.952480    0.810070   -0.649290
  C      8.195110    1.078680    0.009890
  C      8.528990    2.292690    0.474770
  C      9.748330    2.591070    1.218590
  C      9.615420    3.214250    2.466300
  C     10.686920    3.417000    3.310510
  C     11.965200    3.027830    2.928240
  C     12.132510    2.481490    1.676760
  C     11.044220    2.266010    0.820360
  N     11.510610    1.761870   -0.392750
  C     10.768500    1.618200   -1.617060
  C     12.871640    1.612930   -0.383500
  O     13.527170    1.221750   -1.321610
  C     13.389990    2.083990    0.969240
  C     14.346360    3.276970    0.748070
  C     14.904000    3.756850    2.086960
  O     15.585530    3.133360    2.864410
  N     14.467230    5.040620    2.282610
  C     14.765010    5.807140    3.461840
  C     13.704060    5.487970    1.216720
  C     13.081310    6.704940    1.050070
  C     12.363680    6.938740   -0.133930
  C     12.308420    5.936320   -1.108880
  C     12.935970    4.714340   -0.929000
  C     13.627510    4.486130    0.240280
  C     11.714960    8.219530   -0.289800
  C     11.053200    8.665260   -1.376770
  C     10.436960    9.946620   -1.464660
  S     10.481100   11.038160   -0.114230
  C      9.591520   12.208130   -1.021690
  N      9.277150   13.430890   -0.413750
  O      8.651810   14.243440   -1.069880
  O      9.659980   13.593670    0.731860
  C      9.280140   11.788030   -2.288020
  C      9.756100   10.493310   -2.561190
  C      9.566220    9.806920   -3.823910
  C      8.972580   10.322550   -4.895780
  H     -6.222230    5.290490   -1.915450
  H     -6.350650    2.917050   -5.235400
  H     -3.943230    2.371740   -4.113080
  H     -3.774950    4.700190   -0.824380
  H     -2.216980    2.627350   -2.455610
  H     -1.598070    4.187560    0.130570
  H     -0.020430    2.137170   -1.500100
  H      0.400710    5.595820    3.527920
  H      4.444700    3.530580    3.459720
  H      1.744390    1.157970   -1.489730
  H      4.377020    1.139250    0.065450
  H      3.324630   -2.204650   -3.886630
  H      5.937240   -2.379720   -3.157250
  H      7.327110   -1.206690   -1.096830
  H      6.280520    1.648670   -0.764520
  H      8.865780    0.242300    0.159220
  H      7.811680    3.101370    0.401400
  H      8.625010    3.506200    2.783770
  H     10.529410    3.872150    4.276270
  H     12.805050    3.154990    3.592960
  H     10.141380    2.494780   -1.782340
  H     10.138080    0.728780   -1.610160
  H     11.498990    1.523250   -2.421840
  H     13.941680    1.291420    1.482040
  H     15.152950    2.944780    0.087980
  H     15.392470    5.189310    4.103320
  H     13.846200    6.067460    3.991500
  H     15.302350    6.720720    3.201000
  H     13.139040    7.472270    1.806330
  H     11.763410    6.107870   -2.022930
  H     12.890320    3.959660   -1.698560
  H     11.788050    8.880360    0.565950
  H     10.973670    8.041170   -2.253560
  H      8.727240   12.403930   -2.972490
  H      9.946470    8.796950   -3.875030
  H      8.572930   11.320740   -4.918610
  H      8.866540    9.749480   -5.800110

 Total Charge           Charge          ....    0
 Multiplicity           Mult            ....    1
 Number of Electrons    NEL             ....  454
 Basis Dimension        Dim             .... 1075

ORBITAL ENERGIES
----------------

  NO   OCC          E(Eh)            E(eV)
   0   2.0000     -88.974335     -2421.1147
   1   2.0000     -88.953099     -2420.5369
   2   2.0000     -19.285592      -524.7876
   3   2.0000     -19.284295      -524.7523
   4   2.0000     -19.268515      -524.3230
   5   2.0000     -19.268241      -524.3155
   6   2.0000     -19.235066      -523.4127
   7   2.0000     -19.234452      -523.3960
   8   2.0000     -19.193909      -522.2928
   9   2.0000     -19.191842      -522.2366
  10   2.0000     -14.645861      -398.5342
  11   2.0000     -14.456057      -393.3693
  12   2.0000     -14.453964      -393.3124
  13   2.0000     -10.376568      -282.3608
  14   2.0000     -10.373279      -282.2713
  15   2.0000     -10.340418      -281.3771
  16   2.0000     -10.339989      -281.3654
  17   2.0000     -10.338426      -281.3229
  18   2.0000     -10.335882      -281.2536
  19   2.0000     -10.335459      -281.2421
  20   2.0000     -10.323923      -280.9282
  21   2.0000     -10.323717      -280.9226
  22   2.0000     -10.321296      -280.8567
  23   2.0000     -10.318879      -280.7910
  24   2.0000     -10.315759      -280.7061
  25   2.0000     -10.315557      -280.7006
  26   2.0000     -10.315520      -280.6996
  27   2.0000     -10.310277      -280.5569
  28   2.0000     -10.300975      -280.3038
  29   2.0000     -10.300809      -280.2993
  30   2.0000     -10.297111      -280.1986
  31   2.0000     -10.296044      -280.1696
  32   2.0000     -10.294261      -280.1211
  33   2.0000     -10.293813      -280.1089
  34   2.0000     -10.293154      -280.0910
  35   2.0000     -10.291106      -280.0352
  36   2.0000     -10.289520      -279.9921
  37   2.0000     -10.289311      -279.9864
  38   2.0000     -10.286762      -279.9170
  39   2.0000     -10.282246      -279.7941
  40   2.0000     -10.282064      -279.7892
  41   2.0000     -10.281591      -279.7763
  42   2.0000     -10.281510      -279.7741
  43   2.0000     -10.278591      -279.6947
  44   2.0000     -10.277663      -279.6694
  45   2.0000     -10.276664      -279.6422
  46   2.0000     -10.276127      -279.6276
  47   2.0000     -10.275902      -279.6215
  48   2.0000     -10.275319      -279.6056
  49   2.0000     -10.275176      -279.6018
  50   2.0000     -10.274533      -279.5843
  51   2.0000     -10.274525      -279.5840
  52   2.0000     -10.274131      -279.5733
  53   2.0000     -10.273643      -279.5600
  54   2.0000     -10.273638      -279.5599
  55   2.0000     -10.272914      -279.5402
  56   2.0000     -10.272253      -279.5222
  57   2.0000     -10.269773      -279.4547
  58   2.0000     -10.269251      -279.4405
  59   2.0000     -10.267060      -279.3809
  60   2.0000     -10.266907      -279.3767
  61   2.0000     -10.266364      -279.3620
  62   2.0000     -10.262580      -279.2590
  63   2.0000      -8.069646      -219.5862
  64   2.0000      -8.048831      -219.0198
  65   2.0000      -6.039036      -164.3305
  66   2.0000      -6.034753      -164.2140
  67   2.0000      -6.031618      -164.1287
  68   2.0000      -6.018365      -163.7681
  69   2.0000      -6.014198      -163.6546
  70   2.0000      -6.010488      -163.5537
  71   2.0000      -1.315625       -35.8000
  72   2.0000      -1.203325       -32.7441
  73   2.0000      -1.203290       -32.7432
  74   2.0000      -1.193970       -32.4896
  75   2.0000      -1.157044       -31.4848
  76   2.0000      -1.138161       -30.9709
  77   2.0000      -1.134627       -30.8748
  78   2.0000      -1.134336       -30.8668
  79   2.0000      -1.062156       -28.9027
  80   2.0000      -1.056545       -28.7500
  81   2.0000      -1.009369       -27.4663
  82   2.0000      -0.981349       -26.7039
  83   2.0000      -0.961835       -26.1728
  84   2.0000      -0.952000       -25.9052
  85   2.0000      -0.932976       -25.3876
  86   2.0000      -0.924062       -25.1450
  87   2.0000      -0.920683       -25.0531
  88   2.0000      -0.917421       -24.9643
  89   2.0000      -0.911407       -24.8006
  90   2.0000      -0.902409       -24.5558
  91   2.0000      -0.894267       -24.3342
  92   2.0000      -0.892244       -24.2792
  93   2.0000      -0.877736       -23.8844
  94   2.0000      -0.867243       -23.5989
  95   2.0000      -0.860558       -23.4170
  96   2.0000      -0.853583       -23.2272
  97   2.0000      -0.847782       -23.0693
  98   2.0000      -0.844754       -22.9869
  99   2.0000      -0.833395       -22.6778
 100   2.0000      -0.830731       -22.6053
 101   2.0000      -0.821756       -22.3611
 102   2.0000      -0.813455       -22.1352
 103   2.0000      -0.811036       -22.0694
 104   2.0000      -0.808606       -22.0033
 105   2.0000      -0.804665       -21.8960
 106   2.0000      -0.795267       -21.6403
 107   2.0000      -0.788967       -21.4689
 108   2.0000      -0.773262       -21.0415
 109   2.0000      -0.755785       -20.5660
 110   2.0000      -0.741873       -20.1874
 111   2.0000      -0.727043       -19.7838
 112   2.0000      -0.718792       -19.5593
 113   2.0000      -0.713105       -19.4046
 114   2.0000      -0.706862       -19.2347
 115   2.0000      -0.699702       -19.0399
 116   2.0000      -0.694932       -18.9101
 117   2.0000      -0.686911       -18.6918
 118   2.0000      -0.681327       -18.5399
 119   2.0000      -0.678881       -18.4733
 120   2.0000      -0.670861       -18.2551
 121   2.0000      -0.669575       -18.2201
 122   2.0000      -0.662424       -18.0255
 123   2.0000      -0.657339       -17.8871
 124   2.0000      -0.655544       -17.8383
 125   2.0000      -0.649865       -17.6837
 126   2.0000      -0.648521       -17.6472
 127   2.0000      -0.638864       -17.3844
 128   2.0000      -0.630075       -17.1452
 129   2.0000      -0.627220       -17.0675
 130   2.0000      -0.627090       -17.0640
 131   2.0000      -0.625314       -17.0157
 132   2.0000      -0.623529       -16.9671
 133   2.0000      -0.616447       -16.7744
 134   2.0000      -0.611776       -16.6473
 135   2.0000      -0.605411       -16.4741
 136   2.0000      -0.599625       -16.3166
 137   2.0000      -0.593410       -16.1475
 138   2.0000      -0.590465       -16.0674
 139   2.0000      -0.580609       -15.7992
 140   2.0000      -0.578632       -15.7454
 141   2.0000      -0.577748       -15.7213
 142   2.0000      -0.572413       -15.5761
 143   2.0000      -0.570810       -15.5325
 144   2.0000      -0.561321       -15.2743
 145   2.0000      -0.560078       -15.2405
 146   2.0000      -0.559444       -15.2232
 147   2.0000      -0.555253       -15.1092
 148   2.0000      -0.549183       -14.9440
 149   2.0000      -0.546401       -14.8683
 150   2.0000      -0.544270       -14.8103
 151   2.0000      -0.542088       -14.7510
 152   2.0000      -0.541133       -14.7250
 153   2.0000      -0.537169       -14.6171
 154   2.0000      -0.535810       -14.5801
 155   2.0000      -0.534737       -14.5509
 156   2.0000      -0.531768       -14.4701
 157   2.0000      -0.529765       -14.4156
 158   2.0000      -0.528382       -14.3780
 159   2.0000      -0.523030       -14.2324
 160   2.0000      -0.522086       -14.2067
 161   2.0000      -0.515524       -14.0281
 162   2.0000      -0.513199       -13.9649
 163   2.0000      -0.508802       -13.8452
 164   2.0000      -0.507410       -13.8073
 165   2.0000      -0.500943       -13.6314
 166   2.0000      -0.498018       -13.5518
 167   2.0000      -0.497464       -13.5367
 168   2.0000      -0.494273       -13.4498
 169   2.0000      -0.493997       -13.4423
 170   2.0000      -0.491279       -13.3684
 171   2.0000      -0.488598       -13.2954
 172   2.0000      -0.480181       -13.0664
 173   2.0000      -0.479412       -13.0455
 174   2.0000      -0.477627       -12.9969
 175   2.0000      -0.476747       -12.9729
 176   2.0000      -0.476227       -12.9588
 177   2.0000      -0.474375       -12.9084
 178   2.0000      -0.473169       -12.8756
 179   2.0000      -0.472678       -12.8622
 180   2.0000      -0.468655       -12.7527
 181   2.0000      -0.466700       -12.6995
 182   2.0000      -0.466156       -12.6847
 183   2.0000      -0.461713       -12.5638
 184   2.0000      -0.461554       -12.5595
 185   2.0000      -0.458253       -12.4697
 186   2.0000      -0.453657       -12.3446
 187   2.0000      -0.452754       -12.3201
 188   2.0000      -0.451976       -12.2989
 189   2.0000      -0.447570       -12.1790
 190   2.0000      -0.442296       -12.0355
 191   2.0000      -0.439425       -11.9574
 192   2.0000      -0.435935       -11.8624
 193   2.0000      -0.430120       -11.7041
 194   2.0000      -0.428126       -11.6499
 195   2.0000      -0.425489       -11.5781
 196   2.0000      -0.423899       -11.5349
 197   2.0000      -0.419419       -11.4130
 198   2.0000      -0.418192       -11.3796
 199   2.0000      -0.413265       -11.2455
 200   2.0000      -0.412317       -11.2197
 201   2.0000      -0.410061       -11.1583
 202   2.0000      -0.409762       -11.1502
 203   2.0000      -0.393213       -10.6999
 204   2.0000      -0.393069       -10.6960
 205   2.0000      -0.381806       -10.3895
 206   2.0000      -0.381708       -10.3868
 207   2.0000      -0.375459       -10.2168
 208   2.0000      -0.374916       -10.2020
 209   2.0000      -0.373700       -10.1689
 210   2.0000      -0.366186        -9.9644
 211   2.0000      -0.361853        -9.8465
 212   2.0000      -0.344048        -9.3620
 213   2.0000      -0.340877        -9.2757
 214   2.0000      -0.337853        -9.1934
 215   2.0000      -0.332307        -9.0425
 216   2.0000      -0.327129        -8.9016
 217   2.0000      -0.315460        -8.5841
 218   2.0000      -0.312556        -8.5051
 219   2.0000      -0.301635        -8.2079
 220   2.0000      -0.293765        -7.9937
 221   2.0000      -0.292475        -7.9586
 222   2.0000      -0.280939        -7.6447
 223   2.0000      -0.274988        -7.4828
 224   2.0000      -0.264421        -7.1953
 225   2.0000      -0.260915        -7.0998
 226   2.0000      -0.221935        -6.0392
 227   0.0000      -0.069868        -1.9012
 228   0.0000      -0.050164        -1.3650
 229   0.0000      -0.022911        -0.6234
 230   0.0000      -0.014835        -0.4037
 231   0.0000       0.013536         0.3683

MULLIKEN ATOMIC CHARGES
-----------------------
   0 C :    0.073270
   1 O :   -0.180327
   2 C :    0.138208
   3 C :   -0.048321
   4 C :    0.046409
   5 C :    0.024418
   6 C :    0.014082
   7 C :    0.040970
   8 C :   -0.071610
   9 C :    0.180832
  10 C :    0.176849
  11 O :   -0.266361
  12 C :    0.224118
  13 C :    0.221667
  14 C :   -0.177261
  15 S :    0.103953
  16 C :   -0.177027
  17 O :   -0.260194
  18 C :   -0.061838
  19 C :   -0.033471
  20 C :    0.117387
  21 O :   -0.199719
  22 C :    0.148137
  23 C :   -0.036107
  24 C :    0.059916
  25 C :   -0.011826
  26 C :   -0.002534
  27 C :    0.025579
  28 C :   -0.086952
  29 C :    0.013563
  30 C :   -0.014845
  31 C :    0.035247
  32 C :   -0.038448
  33 C :   -0.050743
  34 C :    0.152782
  35 N :   -0.235402
  36 C :    0.133310
  37 C :    0.100788
  38 O :   -0.200680
  39 C :    0.057303
  40 C :    0.045942
  41 C :    0.105708
  42 O :   -0.194019
  43 N :   -0.234067
  44 C :    0.120378
  45 C :    0.231032
  46 C :   -0.168849
  47 C :    0.141761
  48 C :   -0.014549
  49 C :   -0.025096
  50 C :   -0.053399
  51 C :   -0.010227
  52 C :    0.014963
  53 C :   -0.082197
  54 S :    0.165412
  55 C :   -0.001863
  56 N :    0.271688
  57 O :   -0.248340
  58 O :   -0.259135
  59 C :    0.005791
  60 C :    0.096158
  61 C :   -0.017926
  62 C :   -0.007729
  63 H :    0.003593
  64 H :    0.008131
  65 H :   -0.013007
  66 H :   -0.022039
  67 H :   -0.020535
  68 H :   -0.000231
  69 H :   -0.014765
  70 H :    0.022619
  71 H :    0.019218
  72 H :   -0.003178
  73 H :    0.011584
  74 H :    0.008702
  75 H :   -0.017333
  76 H :   -0.013831
  77 H :   -0.001454
  78 H :    0.000445
  79 H :    0.003960
  80 H :   -0.029929
  81 H :   -0.022294
  82 H :   -0.013358
  83 H :    0.034214
  84 H :    0.034636
  85 H :    0.049309
  86 H :    0.055013
  87 H :    0.055904
  88 H :    0.058295
  89 H :    0.032363
  90 H :    0.035921
  91 H :   -0.041963
  92 H :   -0.036700
  93 H :   -0.013385
  94 H :   -0.007966
  95 H :   -0.011517
  96 H :    0.004999
  97 H :   -0.015987
  98 H :    0.017477
  99 H :    0.026531
Sum of atomic charges:   -0.0000000

LOEWDIN ATOMIC CHARGES
----------------------
   0 C :    0.031632
   1 O :    0.022588
   2 C :    0.033832
   3 C :   -0.069725
   4 C :   -0.077750
   5 C :   -0.011909
   6 C :   -0.032276
   7 C :   -0.009272
   8 C :   -0.049662
   9 C :    0.029527
  10 C :    0.022775
  11 O :   -0.058399
  12 C :   -0.007379
  13 C :   -0.007504
  14 C :   -0.212415
  15 S :    0.430171
  16 C :   -0.215194
  17 O :   -0.054501
  18 C :   -0.034493
  19 C :   -0.037684
  20 C :    0.029993
  21 O :    0.012212
  22 C :    0.040492
  23 C :   -0.068780
  24 C :   -0.066288
  25 C :   -0.020029
  26 C :   -0.028329
  27 C :   -0.020318
  28 C :   -0.028652
  29 C :   -0.053803
  30 C :   -0.007435
  31 C :   -0.037875
  32 C :   -0.021061
  33 C :   -0.038450
  34 C :    0.035958
  35 N :   -0.009624
  36 C :    0.031696
  37 C :    0.075798
  38 O :   -0.197220
  39 C :   -0.019588
  40 C :   -0.020648
  41 C :    0.076938
  42 O :   -0.192613
  43 N :   -0.011528
  44 C :    0.032241
  45 C :    0.037628
  46 C :   -0.050304
  47 C :   -0.017793
  48 C :   -0.027292
  49 C :   -0.012531
  50 C :   -0.032389
  51 C :   -0.000997
  52 C :   -0.044895
  53 C :   -0.140155
  54 S :    0.474256
  55 C :   -0.197692
  56 N :    0.273218
  57 O :   -0.214729
  58 O :   -0.225938
  59 C :   -0.003773
  60 C :   -0.063219
  61 C :   -0.023877
  62 C :   -0.033278
  63 H :    0.021268
  64 H :    0.021817
  65 H :    0.027917
  66 H :    0.028843
  67 H :    0.023996
  68 H :    0.030029
  69 H :    0.030689
  70 H :    0.028142
  71 H :    0.026686
  72 H :    0.032529
  73 H :    0.036469
  74 H :    0.022453
  75 H :    0.029645
  76 H :    0.029035
  77 H :    0.029071
  78 H :    0.027017
  79 H :    0.029421
  80 H :    0.027416
  81 H :    0.026824
  82 H :    0.031073
  83 H :    0.028410
  84 H :    0.026068
  85 H :    0.033949
  86 H :    0.056717
  87 H :    0.057287
  88 H :    0.041185
  89 H :    0.026220
  90 H :    0.028679
  91 H :    0.027120
  92 H :    0.023625
  93 H :    0.033764
  94 H :    0.022138
  95 H :    0.030886
  96 H :    0.042015
  97 H :    0.028667
  98 H :    0.022498
  99 H :    0.028747

  Mayer bond orders larger than 0.100000
B(  0-C ,  1-O ) :   1.1649 B(  0-C ,  4-C ) :   1.4994 B(  0-C , 63-H ) :   1.0070
B(  1-O ,  2-C ) :   1.1441 B(  2-C ,  3-C ) :   1.5908 B(  2-C , 64-H ) :   1.0000
B(  3-C ,  4-C ) :   1.2128 B(  3-C , 65-H ) :   1.0032 B(  4-C ,  5-C ) :   1.0740
B(  5-C ,  6-C ) :   1.6941 B(  5-C , 66-H ) :   0.9790 B(  6-C ,  7-C ) :   1.1065
B(  6-C , 67-H ) :   0.9828 B(  7-C ,  8-C ) :   1.6519 B(  7-C , 68-H ) :   0.9903
B(  8-C ,  9-C ) :   1.1523 B(  8-C , 69-H ) :   0.9625 B(  9-C , 10-C ) :   1.4645
B(  9-C , 17-O ) :   1.0551 B( 10-C , 11-O ) :   1.0453 B( 10-C , 18-C ) :   1.1573
B( 11-O , 12-C ) :   1.0556 B( 12-C , 13-C ) :   1.2026 B( 12-C , 16-C ) :   1.5714
B( 13-C , 14-C ) :   1.5710 B( 13-C , 17-O ) :   1.0566 B( 14-C , 15-S ) :   1.1399
B( 14-C , 70-H ) :   0.9725 B( 15-S , 16-C ) :   1.1377 B( 16-C , 71-H ) :   0.9719
B( 18-C , 19-C ) :   1.6522 B( 18-C , 72-H ) :   0.9660 B( 19-C , 20-C ) :   1.1355
B( 19-C , 73-H ) :   0.9591 B( 20-C , 21-O ) :   1.1494 B( 20-C , 24-C ) :   1.4162
B( 21-O , 22-C ) :   1.1346 B( 22-C , 23-C ) :   1.5552 B( 22-C , 74-H ) :   1.0041
B( 23-C , 24-C ) :   1.2040 B( 23-C , 75-H ) :   1.0067 B( 24-C , 25-C ) :   1.0725
B( 25-C , 26-C ) :   1.7078 B( 25-C , 76-H ) :   0.9702 B( 26-C , 27-C ) :   1.1120
B( 26-C , 77-H ) :   0.9824 B( 27-C , 28-C ) :   1.7721 B( 27-C , 78-H ) :   0.9767
B( 28-C , 29-C ) :   0.9774 B( 28-C , 79-H ) :   0.9606 B( 29-C , 30-C ) :   1.3415
B( 29-C , 34-C ) :   1.3940 B( 30-C , 31-C ) :   1.4114 B( 30-C , 80-H ) :   0.9937
B( 31-C , 32-C ) :   1.2991 B( 31-C , 81-H ) :   0.9907 B( 32-C , 33-C ) :   1.4713
B( 32-C , 82-H ) :   0.9922 B( 33-C , 34-C ) :   1.3497 B( 33-C , 39-C ) :   0.9359
B( 34-C , 35-N ) :   1.0502 B( 35-N , 36-C ) :   0.9640 B( 35-N , 37-C ) :   1.1443
B( 36-C , 83-H ) :   0.9679 B( 36-C , 84-H ) :   0.9658 B( 36-C , 85-H ) :   0.9508
B( 37-C , 38-O ) :   2.1499 B( 37-C , 39-C ) :   0.9302 B( 39-C , 40-C ) :   1.0339
B( 39-C , 86-H ) :   0.8761 B( 40-C , 41-C ) :   0.9254 B( 40-C , 50-C ) :   0.9401
B( 40-C , 87-H ) :   0.8774 B( 41-C , 42-O ) :   2.1664 B( 41-C , 43-N ) :   1.1312
B( 43-N , 44-C ) :   0.9671 B( 43-N , 45-C ) :   1.0383 B( 44-C , 88-H ) :   0.9578
B( 44-C , 89-H ) :   0.9706 B( 44-C , 90-H ) :   0.9722 B( 45-C , 46-C ) :   1.3495
B( 45-C , 50-C ) :   1.3606 B( 46-C , 47-C ) :   1.2578 B( 46-C , 91-H ) :   1.0168
B( 47-C , 48-C ) :   1.3709 B( 47-C , 51-C ) :   1.0768 B( 48-C , 49-C ) :   1.3422
B( 48-C , 92-H ) :   0.9877 B( 49-C , 50-C ) :   1.4499 B( 49-C , 93-H ) :   0.9893
B( 51-C , 52-C ) :   1.6873 B( 51-C , 94-H ) :   0.9800 B( 52-C , 53-C ) :   1.1598
B( 52-C , 95-H ) :   0.9670 B( 53-C , 54-S ) :   1.1212 B( 53-C , 60-C ) :   1.4208
B( 54-S , 55-C ) :   1.1144 B( 55-C , 56-N ) :   0.9584 B( 55-C , 59-C ) :   1.5032
B( 56-N , 57-O ) :   1.5348 B( 56-N , 58-O ) :   1.5188 B( 57-O , 58-O ) :   0.2640
B( 59-C , 60-C ) :   1.2235 B( 59-C , 96-H ) :   0.9961 B( 60-C , 61-C ) :   1.0841
B( 61-C , 62-C ) :   1.9594 B( 61-C , 97-H ) :   0.9627 B( 62-C , 98-H ) :   0.9521
B( 62-C , 99-H ) :   0.9464

-----------------------------------------------------------------------------
         ABSORPTION SPECTRUM VIA TRANSITION ELECTRIC DIPOLE MOMENTS
-----------------------------------------------------------------------------
State   Energy  Wavelength   fosc         T2         TX        TY        TZ
        (cm-1)    (nm)                  (au**2)     (au)      (au)      (au)
-----------------------------------------------------------------------------
   0   21973.9    455.1   1.291297184  19.34615   4.20221  -1.29265   0.12883
   1   24460.6    408.8   0.000254339   0.00342  -0.03750   0.04479   0.00334
   2   26057.5    383.8   0.980029441  12.38172   1.61848  -3.08932   0.46726
   3   29162.4    342.9   0.104592024   1.18073  -1.00717   0.40526  -0.04591
   4   30526.1    327.6   0.070158659   0.75663   0.74223   0.44329  -0.09601
   5   30650.6    326.3   0.014414674   0.15482  -0.26852  -0.27180   0.09405
   6   31578.2    316.7   0.009367985   0.09766  -0.17762   0.11353  -0.23071
   7   32488.8    307.8   0.000043815   0.00044   0.02103  -0.00115   0.00063
   8   32502.2    307.7   0.289978332   2.93716   1.38894  -0.69577   0.72381
   9   33828.5    295.6   0.003611564   0.03515  -0.05520  -0.16897   0.05957
  10   34219.4    292.2   0.196047203   1.88610  -0.39113   1.31528  -0.05606
  11   34347.5    291.1   0.032957547   0.31589  -0.50517  -0.02333  -0.24526
  12   34897.6    286.6   0.000897993   0.00847   0.06999   0.02342   0.05499
  13   35983.7    277.9   0.168460540   1.54123   0.86417   0.46479   0.76053
  14   36557.0    273.5   0.025431911   0.22903  -0.17744   0.12590   0.42625
  15   36689.5    272.6   0.000214364   0.00192   0.00803  -0.00744   0.04247
  16   36752.3    272.1   0.420048899   3.76262   1.01919  -0.68763   1.50034
  17   36885.4    271.1   0.015419100   0.13762   0.27187   0.24863   0.04350
  18   37612.3    265.9   0.317315873   2.77740   0.34153   0.98346   1.30137
  19   38147.8    262.1   0.000397501   0.00343   0.04107  -0.01268  -0.03978
  20   39661.5    252.1   0.290415427   2.41061   0.44248   0.89456   1.18936
  21   39769.3    251.5   0.001434115   0.01187  -0.03734   0.05787   0.08443
  22   40005.1    250.0   0.656839767   5.40530   1.69835   0.98157   1.24797

FINAL SINGLE POINT ENERGY     -3486.241294196872

DIPOLE MOMENT
-------------
                                X             Y             Z
Electronic contribution:     -4.40303      20.71443      14.86903
Nuclear contribution   :      3.39236     -22.00596     -15.85819
                        -----------------------------------------
Total Dipole Moment    :     -1.01067      -1.29153      -0.98916
                        -----------------------------------------
Magnitude (a.u.)       :      1.91518
Magnitude (Debye)      :      4.86800

Rotational constants in cm-1:     0.001073     0.000461     0.000374
Rotational constants in MHz :    32.153294    13.809796    11.198799

                             ****ORCA TERMINATED NORMALLY****
TOTAL RUN TIME: 0 days 0 hours 7 minutes 50 seconds 924 msec
