                         Program Version 4.2.0 -  RELEASE  -
|  1> # ORCA input file
|  2> # SCF done       -166.357480982828          0.000411701241
|  3> ! CAM-B3LYP def2-SVP def2/J RIJCOSX Grid4 TightSCF
|  4> %maxcore 5000
|  5> %tddft
|  6>     Mode sTDDFT
|  7>     Ethresh 5.0
|  8>     maxcore 5000
|  9> end
| 10>
| 11> %pal
| 12>   nprocs 6
| 13>   end
| 14> * xyz 0 1
| 15>    C        2.37632        -4.48741        -8.18211
| 16>    O        2.90301        -5.27167        -9.12555
| 17>    C        4.24103        -5.15490        -9.03683
| 18>    C        4.58774        -4.30083        -8.04264
| 19>    C        3.36105        -3.84679        -7.46348
| 20>    C        3.15099        -2.93698        -6.37650
| 21>    C        4.13898        -2.33060        -5.68449
| 22>    C        3.97157        -1.41900        -4.59748
| 23>    C        2.79957        -1.11717        -3.98530
| 24>    C        2.63128        -0.20946        -2.90480
| 25>    S        1.28041        -0.45663        -1.84135
| 26>    C        1.81675         0.84809        -0.83931
| 27>    N        1.07351         1.16735         0.30487
| 28>    O        1.48039         2.07539         1.00684
| 29>    O        0.07099         0.50691         0.51555
| 30>    C        2.95215         1.45541        -1.30576
| 31>    C        3.42635         0.87787        -2.50004
| 32>    C        4.52375         1.39721        -3.26367
| 33>    C        5.47822         2.21972        -2.77586
| 34>    C        6.54073         2.75195        -3.55479
| 35>    S        6.50727         2.62166        -5.29062
| 36>    C        7.94655         3.57280        -5.39907
| 37>    N        8.48229         3.83424        -6.66589
| 38>    O        9.49500         4.50858        -6.72352
| 39>    O        7.89381         3.36268        -7.62446
| 40>    C        8.42429         3.96861        -4.17713
| 41>    C        7.64999         3.48390        -3.10608
| 42>    C        8.04395         3.73901        -1.74036
| 43>    C        7.81036         2.93572        -0.68634
| 44>    C        8.20489         3.16751         0.67798
| 45>    C        9.32703         3.81699         1.11081
| 46>    O        9.57448         4.06048         2.44927
| 47>    C        8.65523         3.55145         3.31732
| 48>    C        7.52291         2.81029         2.87078
| 49>    C        6.73991         2.37848         3.88928
| 50>    S        7.37413         2.87028         5.41584
| 51>    C        8.70887         3.66569         4.66679
| 52>    O        7.28241         2.59558         1.54759
| 53>    C       10.39512         4.21750         0.24441
| 54>    C       11.43060         4.98610         0.64491
| 55>    C       12.56474         5.37234        -0.15097
| 56>    C       13.58074         6.08603         0.44809
| 57>    C       14.72244         6.47167        -0.28177
| 58>    C       15.87187         7.15938         0.08125
| 59>    C       16.24529         7.72152         1.41088
| 60>    C       15.31340         8.88434         1.79225
| 61>    N       15.46816         9.96814         0.83836
| 62>    C       16.27033         6.62814         2.51082
| 63>    N       17.02434         6.96604         3.69828
| 64>    C       16.68798         7.26302        -1.10438
| 65>    C       17.88970         7.83173        -1.31352
| 66>    C       18.52079         7.85827        -2.66091
| 67>    C       17.77197         7.10569        -3.71440
| 68>    C       16.57545         6.53273        -3.49029
| 69>    C       15.98274         6.59429        -2.20624
| 70>    C       14.79447         6.11789        -1.69578
| 71>    C       13.73248         5.39796        -2.29177
| 72>    C       12.66296         5.03522        -1.54330
| 73>    C       18.63004         9.30733        -3.09308
| 74>    C       19.76514         9.91677        -3.37324
| 75>    H        1.30754        -4.45313        -8.10242
| 76>    H        4.82922        -5.72364        -9.72908
| 77>    H        5.58043        -4.02437        -7.75604
| 78>    H        2.11515        -2.75144        -6.12931
| 79>    H        5.16299        -2.52909        -5.96880
| 80>    H        4.88290        -0.97892        -4.21775
| 81>    H        1.90423        -1.65289        -4.26998
| 82>    H        3.39325         2.30058        -0.80975
| 83>    H        4.56532         1.10738        -4.30480
| 84>    H        5.46026         2.51019        -1.73671
| 85>    H        9.31237         4.56530        -4.06783
| 86>    H        8.60936         4.64984        -1.60328
| 87>    H        7.22322         2.03593        -0.80470
| 88>    H        5.83518         1.81065         3.83171
| 89>    H        9.44770         4.16466         5.25781
| 90>    H       10.35487         3.81133        -0.75234
| 91>    H       11.42309         5.35554         1.66202
| 92>    H       13.49753         6.33991         1.49451
| 93>    H       17.26244         8.12727         1.33444
| 94>    H       15.52406         9.19187         2.83383
| 95>    H       14.27495         8.55071         1.74353
| 96>    H       16.40054        10.36455         0.89532
| 97>    H       14.80204        10.70840         1.02598
| 98>    H       16.71122         5.72093         2.08933
| 99>    H       15.25256         6.39335         2.82566
|100>    H       17.99232         7.16104         3.46594
|101>    H       16.63896         7.78613         4.15341
|102>    H       18.43716         8.33325        -0.52654
|103>    H       19.54125         7.45838        -2.58352
|104>    H       18.23660         7.07591        -4.68839
|105>    H       16.05654         6.01256        -4.28256
|106>    H       13.78684         5.14389        -3.34037
|107>    H       11.85628         4.48389        -2.00037
|108>    H       17.68135         9.81933        -3.17085
|109>    H       20.71773         9.41694        -3.30248
|110>    H       19.79025        10.94505        -3.69193
|111> *
|112>
|113>                          ****END OF INPUT****

CARTESIAN COORDINATES (ANGSTROEM)
---------------------------------
  C      2.376320   -4.487410   -8.182110
  O      2.903010   -5.271670   -9.125550
  C      4.241030   -5.154900   -9.036830
  C      4.587740   -4.300830   -8.042640
  C      3.361050   -3.846790   -7.463480
  C      3.150990   -2.936980   -6.376500
  C      4.138980   -2.330600   -5.684490
  C      3.971570   -1.419000   -4.597480
  C      2.799570   -1.117170   -3.985300
  C      2.631280   -0.209460   -2.904800
  S      1.280410   -0.456630   -1.841350
  C      1.816750    0.848090   -0.839310
  N      1.073510    1.167350    0.304870
  O      1.480390    2.075390    1.006840
  O      0.070990    0.506910    0.515550
  C      2.952150    1.455410   -1.305760
  C      3.426350    0.877870   -2.500040
  C      4.523750    1.397210   -3.263670
  C      5.478220    2.219720   -2.775860
  C      6.540730    2.751950   -3.554790
  S      6.507270    2.621660   -5.290620
  C      7.946550    3.572800   -5.399070
  N      8.482290    3.834240   -6.665890
  O      9.495000    4.508580   -6.723520
  O      7.893810    3.362680   -7.624460
  C      8.424290    3.968610   -4.177130
  C      7.649990    3.483900   -3.106080
  C      8.043950    3.739010   -1.740360
  C      7.810360    2.935720   -0.686340
  C      8.204890    3.167510    0.677980
  C      9.327030    3.816990    1.110810
  O      9.574480    4.060480    2.449270
  C      8.655230    3.551450    3.317320
  C      7.522910    2.810290    2.870780
  C      6.739910    2.378480    3.889280
  S      7.374130    2.870280    5.415840
  C      8.708870    3.665690    4.666790
  O      7.282410    2.595580    1.547590
  C     10.395120    4.217500    0.244410
  C     11.430600    4.986100    0.644910
  C     12.564740    5.372340   -0.150970
  C     13.580740    6.086030    0.448090
  C     14.722440    6.471670   -0.281770
  C     15.871870    7.159380    0.081250
  C     16.245290    7.721520    1.410880
  C     15.313400    8.884340    1.792250
  N     15.468160    9.968140    0.838360
  C     16.270330    6.628140    2.510820
  N     17.024340    6.966040    3.698280
  C     16.687980    7.263020   -1.104380
  C     17.889700    7.831730   -1.313520
  C     18.520790    7.858270   -2.660910
  C     17.771970    7.105690   -3.714400
  C     16.575450    6.532730   -3.490290
  C     15.982740    6.594290   -2.206240
  C     14.794470    6.117890   -1.695780
  C     13.732480    5.397960   -2.291770
  C     12.662960    5.035220   -1.543300
  C     18.630040    9.307330   -3.093080
  C     19.765140    9.916770   -3.373240
  H      1.307540   -4.453130   -8.102420
  H      4.829220   -5.723640   -9.729080
  H      5.580430   -4.024370   -7.756040
  H      2.115150   -2.751440   -6.129310
  H      5.162990   -2.529090   -5.968800
  H      4.882900   -0.978920   -4.217750
  H      1.904230   -1.652890   -4.269980
  H      3.393250    2.300580   -0.809750
  H      4.565320    1.107380   -4.304800
  H      5.460260    2.510190   -1.736710
  H      9.312370    4.565300   -4.067830
  H      8.609360    4.649840   -1.603280
  H      7.223220    2.035930   -0.804700
  H      5.835180    1.810650    3.831710
  H      9.447700    4.164660    5.257810
  H     10.354870    3.811330   -0.752340
  H     11.423090    5.355540    1.662020
  H     13.497530    6.339910    1.494510
  H     17.262440    8.127270    1.334440
  H     15.524060    9.191870    2.833830
  H     14.274950    8.550710    1.743530
  H     16.400540   10.364550    0.895320
  H     14.802040   10.708400    1.025980
  H     16.711220    5.720930    2.089330
  H     15.252560    6.393350    2.825660
  H     17.992320    7.161040    3.465940
  H     16.638960    7.786130    4.153410
  H     18.437160    8.333250   -0.526540
  H     19.541250    7.458380   -2.583520
  H     18.236600    7.075910   -4.688390
  H     16.056540    6.012560   -4.282560
  H     13.786840    5.143890   -3.340370
  H     11.856280    4.483890   -2.000370
  H     17.681350    9.819330   -3.170850
  H     20.717730    9.416940   -3.302480
  H     19.790250   10.945050   -3.691930

 Total Charge           Charge          ....    0
 Multiplicity           Mult            ....    1
 Number of Electrons    NEL             ....  444
 Basis Dimension        Dim             .... 1032

ORBITAL ENERGIES
----------------

  NO   OCC          E(Eh)            E(eV)
   0   2.0000     -88.979362     -2421.2515
   1   2.0000     -88.977706     -2421.2065
   2   2.0000     -88.950824     -2420.4750
   3   2.0000     -19.296094      -525.0734
   4   2.0000     -19.267514      -524.2957
   5   2.0000     -19.266252      -524.2614
   6   2.0000     -19.237740      -523.4855
   7   2.0000     -19.236918      -523.4632
   8   2.0000     -19.236521      -523.4523
   9   2.0000     -19.235841      -523.4338
  10   2.0000     -14.648538      -398.6070
  11   2.0000     -14.647417      -398.5765
  12   2.0000     -14.376136      -391.1945
  13   2.0000     -14.374734      -391.1564
  14   2.0000     -10.344000      -281.4746
  15   2.0000     -10.342712      -281.4395
  16   2.0000     -10.340083      -281.3680
  17   2.0000     -10.337317      -281.2927
  18   2.0000     -10.333794      -281.1968
  19   2.0000     -10.333179      -281.1801
  20   2.0000     -10.329822      -281.0887
  21   2.0000     -10.329594      -281.0826
  22   2.0000     -10.326317      -280.9934
  23   2.0000     -10.325750      -280.9779
  24   2.0000     -10.306370      -280.4506
  25   2.0000     -10.303738      -280.3790
  26   2.0000     -10.302853      -280.3549
  27   2.0000     -10.301264      -280.3116
  28   2.0000     -10.299834      -280.2727
  29   2.0000     -10.297014      -280.1960
  30   2.0000     -10.296408      -280.1795
  31   2.0000     -10.295158      -280.1455
  32   2.0000     -10.293786      -280.1081
  33   2.0000     -10.292385      -280.0700
  34   2.0000     -10.290747      -280.0255
  35   2.0000     -10.290004      -280.0052
  36   2.0000     -10.287488      -279.9368
  37   2.0000     -10.286984      -279.9231
  38   2.0000     -10.285117      -279.8723
  39   2.0000     -10.282060      -279.7891
  40   2.0000     -10.282021      -279.7880
  41   2.0000     -10.281897      -279.7846
  42   2.0000     -10.276938      -279.6497
  43   2.0000     -10.276796      -279.6458
  44   2.0000     -10.273365      -279.5525
  45   2.0000     -10.270750      -279.4813
  46   2.0000     -10.269673      -279.4520
  47   2.0000     -10.269357      -279.4434
  48   2.0000     -10.264173      -279.3024
  49   2.0000     -10.264140      -279.3014
  50   2.0000     -10.262691      -279.2620
  51   2.0000     -10.262480      -279.2563
  52   2.0000     -10.262055      -279.2447
  53   2.0000     -10.261814      -279.2382
  54   2.0000     -10.260999      -279.2160
  55   2.0000     -10.259928      -279.1868
  56   2.0000     -10.255167      -279.0573
  57   2.0000     -10.253601      -279.0147
  58   2.0000     -10.252974      -278.9976
  59   2.0000     -10.251724      -278.9636
  60   2.0000      -8.074980      -219.7314
  61   2.0000      -8.073009      -219.6777
  62   2.0000      -8.046562      -218.9581
  63   2.0000      -6.044357      -164.4753
  64   2.0000      -6.042377      -164.4214
  65   2.0000      -6.040034      -164.3577
  66   2.0000      -6.038119      -164.3056
  67   2.0000      -6.036936      -164.2734
  68   2.0000      -6.034984      -164.2203
  69   2.0000      -6.016071      -163.7056
  70   2.0000      -6.011924      -163.5928
  71   2.0000      -6.008240      -163.4925
  72   2.0000      -1.318006       -35.8648
  73   2.0000      -1.316620       -35.8270
  74   2.0000      -1.216098       -33.0917
  75   2.0000      -1.192296       -32.4440
  76   2.0000      -1.155282       -31.4368
  77   2.0000      -1.136805       -30.9340
  78   2.0000      -1.135278       -30.8925
  79   2.0000      -1.014453       -27.6047
  80   2.0000      -1.010841       -27.5064
  81   2.0000      -0.979559       -26.6552
  82   2.0000      -0.976266       -26.5655
  83   2.0000      -0.962125       -26.1808
  84   2.0000      -0.948984       -25.8232
  85   2.0000      -0.937531       -25.5115
  86   2.0000      -0.936888       -25.4940
  87   2.0000      -0.931027       -25.3345
  88   2.0000      -0.924027       -25.1441
  89   2.0000      -0.914672       -24.8895
  90   2.0000      -0.908540       -24.7226
  91   2.0000      -0.896292       -24.3894
  92   2.0000      -0.886156       -24.1135
  93   2.0000      -0.876454       -23.8495
  94   2.0000      -0.867554       -23.6073
  95   2.0000      -0.863696       -23.5024
  96   2.0000      -0.851620       -23.1738
  97   2.0000      -0.846603       -23.0372
  98   2.0000      -0.840095       -22.8602
  99   2.0000      -0.830327       -22.5943
 100   2.0000      -0.829696       -22.5772
 101   2.0000      -0.825051       -22.4508
 102   2.0000      -0.821383       -22.3510
 103   2.0000      -0.815900       -22.2018
 104   2.0000      -0.801079       -21.7985
 105   2.0000      -0.788216       -21.4485
 106   2.0000      -0.779298       -21.2058
 107   2.0000      -0.767629       -20.8882
 108   2.0000      -0.750742       -20.4287
 109   2.0000      -0.749094       -20.3839
 110   2.0000      -0.734508       -19.9870
 111   2.0000      -0.721404       -19.6304
 112   2.0000      -0.720015       -19.5926
 113   2.0000      -0.703081       -19.1318
 114   2.0000      -0.694399       -18.8956
 115   2.0000      -0.688274       -18.7289
 116   2.0000      -0.680987       -18.5306
 117   2.0000      -0.674239       -18.3470
 118   2.0000      -0.667711       -18.1693
 119   2.0000      -0.666908       -18.1475
 120   2.0000      -0.662827       -18.0364
 121   2.0000      -0.660550       -17.9745
 122   2.0000      -0.653141       -17.7729
 123   2.0000      -0.649188       -17.6653
 124   2.0000      -0.646502       -17.5922
 125   2.0000      -0.641335       -17.4516
 126   2.0000      -0.639423       -17.3996
 127   2.0000      -0.634795       -17.2736
 128   2.0000      -0.629702       -17.1351
 129   2.0000      -0.628502       -17.1024
 130   2.0000      -0.626913       -17.0592
 131   2.0000      -0.618804       -16.8385
 132   2.0000      -0.612879       -16.6773
 133   2.0000      -0.609486       -16.5849
 134   2.0000      -0.597860       -16.2686
 135   2.0000      -0.590493       -16.0681
 136   2.0000      -0.587305       -15.9814
 137   2.0000      -0.583848       -15.8873
 138   2.0000      -0.582412       -15.8482
 139   2.0000      -0.577860       -15.7244
 140   2.0000      -0.574187       -15.6244
 141   2.0000      -0.572621       -15.5818
 142   2.0000      -0.570685       -15.5291
 143   2.0000      -0.562360       -15.3026
 144   2.0000      -0.557943       -15.1824
 145   2.0000      -0.556562       -15.1448
 146   2.0000      -0.554024       -15.0758
 147   2.0000      -0.551530       -15.0079
 148   2.0000      -0.546938       -14.8830
 149   2.0000      -0.545137       -14.8339
 150   2.0000      -0.542888       -14.7727
 151   2.0000      -0.534108       -14.5338
 152   2.0000      -0.528294       -14.3756
 153   2.0000      -0.526697       -14.3322
 154   2.0000      -0.525541       -14.3007
 155   2.0000      -0.521076       -14.1792
 156   2.0000      -0.515584       -14.0298
 157   2.0000      -0.512107       -13.9351
 158   2.0000      -0.510636       -13.8951
 159   2.0000      -0.509295       -13.8586
 160   2.0000      -0.505813       -13.7639
 161   2.0000      -0.503205       -13.6929
 162   2.0000      -0.500074       -13.6077
 163   2.0000      -0.496625       -13.5138
 164   2.0000      -0.496272       -13.5042
 165   2.0000      -0.493172       -13.4199
 166   2.0000      -0.492783       -13.4093
 167   2.0000      -0.490492       -13.3470
 168   2.0000      -0.488316       -13.2877
 169   2.0000      -0.484713       -13.1897
 170   2.0000      -0.480825       -13.0839
 171   2.0000      -0.479819       -13.0566
 172   2.0000      -0.472966       -12.8701
 173   2.0000      -0.469420       -12.7736
 174   2.0000      -0.466668       -12.6987
 175   2.0000      -0.465885       -12.6774
 176   2.0000      -0.461069       -12.5463
 177   2.0000      -0.459139       -12.4938
 178   2.0000      -0.454902       -12.3785
 179   2.0000      -0.454726       -12.3737
 180   2.0000      -0.445736       -12.1291
 181   2.0000      -0.443080       -12.0568
 182   2.0000      -0.442193       -12.0327
 183   2.0000      -0.438312       -11.9271
 184   2.0000      -0.437359       -11.9011
 185   2.0000      -0.434173       -11.8144
 186   2.0000      -0.432620       -11.7722
 187   2.0000      -0.429567       -11.6891
 188   2.0000      -0.425496       -11.5783
 189   2.0000      -0.423448       -11.5226
 190   2.0000      -0.418773       -11.3954
 191   2.0000      -0.412564       -11.2264
 192   2.0000      -0.410983       -11.1834
 193   2.0000      -0.405192       -11.0258
 194   2.0000      -0.400763       -10.9053
 195   2.0000      -0.393578       -10.7098
 196   2.0000      -0.392285       -10.6746
 197   2.0000      -0.391043       -10.6408
 198   2.0000      -0.384695       -10.4681
 199   2.0000      -0.383620       -10.4388
 200   2.0000      -0.381308       -10.3759
 201   2.0000      -0.377024       -10.2594
 202   2.0000      -0.375916       -10.2292
 203   2.0000      -0.370938       -10.0937
 204   2.0000      -0.364577        -9.9206
 205   2.0000      -0.363243        -9.8843
 206   2.0000      -0.362766        -9.8714
 207   2.0000      -0.350692        -9.5428
 208   2.0000      -0.343418        -9.3449
 209   2.0000      -0.341699        -9.2981
 210   2.0000      -0.338954        -9.2234
 211   2.0000      -0.320984        -8.7344
 212   2.0000      -0.317565        -8.6414
 213   2.0000      -0.311000        -8.4628
 214   2.0000      -0.303733        -8.2650
 215   2.0000      -0.298926        -8.1342
 216   2.0000      -0.291568        -7.9340
 217   2.0000      -0.286361        -7.7923
 218   2.0000      -0.281973        -7.6729
 219   2.0000      -0.258426        -7.0321
 220   2.0000      -0.241415        -6.5692
 221   2.0000      -0.211457        -5.7540
 222   0.0000      -0.081204        -2.2097
 223   0.0000      -0.066415        -1.8072
 224   0.0000      -0.061722        -1.6795
 225   0.0000      -0.032384        -0.8812
 226   0.0000      -0.023490        -0.6392

MULLIKEN ATOMIC CHARGES
-----------------------
   0 C :    0.081313
   1 O :   -0.174674
   2 C :    0.137188
   3 C :   -0.042465
   4 C :    0.034396
   5 C :    0.057676
   6 C :   -0.016359
   7 C :    0.010510
   8 C :    0.032603
   9 C :   -0.110598
  10 S :    0.192375
  11 C :   -0.009272
  12 N :    0.276055
  13 O :   -0.247672
  14 O :   -0.258487
  15 C :   -0.003329
  16 C :    0.112264
  17 C :   -0.039742
  18 C :   -0.011248
  19 C :   -0.096070
  20 S :    0.165901
  21 C :    0.001931
  22 N :    0.273642
  23 O :   -0.248782
  24 O :   -0.260089
  25 C :    0.009147
  26 C :    0.100100
  27 C :   -0.034840
  28 C :   -0.009438
  29 C :    0.130117
  30 C :    0.173887
  31 O :   -0.258706
  32 C :    0.218577
  33 C :    0.218529
  34 C :   -0.175117
  35 S :    0.106338
  36 C :   -0.174116
  37 O :   -0.261008
  38 C :   -0.079144
  39 C :    0.003558
  40 C :    0.137626
  41 C :   -0.107442
  42 C :    0.046464
  43 C :    0.027786
  44 C :   -0.062376
  45 C :    0.152728
  46 N :   -0.216105
  47 C :    0.134477
  48 N :   -0.207106
  49 C :    0.120980
  50 C :   -0.148139
  51 C :    0.114425
  52 C :   -0.041159
  53 C :    0.022579
  54 C :    0.008130
  55 C :    0.026934
  56 C :    0.006446
  57 C :   -0.017978
  58 C :   -0.042600
  59 C :   -0.018447
  60 H :    0.010620
  61 H :    0.015255
  62 H :   -0.006794
  63 H :   -0.015451
  64 H :   -0.014057
  65 H :    0.003898
  66 H :   -0.006172
  67 H :    0.013425
  68 H :    0.013145
  69 H :    0.003865
  70 H :    0.008219
  71 H :    0.017591
  72 H :    0.017080
  73 H :    0.026631
  74 H :    0.022991
  75 H :    0.005140
  76 H :   -0.012132
  77 H :   -0.042683
  78 H :   -0.056783
  79 H :   -0.036602
  80 H :   -0.007937
  81 H :    0.083100
  82 H :    0.090960
  83 H :    0.010293
  84 H :   -0.005402
  85 H :    0.086234
  86 H :    0.083173
  87 H :   -0.014352
  88 H :    0.019579
  89 H :   -0.012040
  90 H :   -0.036009
  91 H :   -0.037356
  92 H :   -0.046113
  93 H :    0.017369
  94 H :    0.014518
  95 H :    0.024623
Sum of atomic charges:   -0.0000000

LOEWDIN ATOMIC CHARGES
----------------------
   0 C :    0.040679
   1 O :    0.028896
   2 C :    0.038849
   3 C :   -0.065553
   4 C :   -0.080025
   5 C :    0.015690
   6 C :   -0.048130
   7 C :   -0.000786
   8 C :   -0.054791
   9 C :   -0.136390
  10 S :    0.481497
  11 C :   -0.200935
  12 N :    0.273502
  13 O :   -0.214186
  14 O :   -0.224556
  15 C :   -0.003523
  16 C :   -0.069072
  17 C :   -0.010993
  18 C :   -0.047352
  19 C :   -0.141426
  20 S :    0.475322
  21 C :   -0.200014
  22 N :    0.273561
  23 O :   -0.215002
  24 O :   -0.226781
  25 C :   -0.008023
  26 C :   -0.061099
  27 C :   -0.021575
  28 C :   -0.021673
  29 C :    0.007641
  30 C :    0.034046
  31 O :   -0.055170
  32 C :   -0.007224
  33 C :   -0.008872
  34 C :   -0.210612
  35 S :    0.433143
  36 C :   -0.211529
  37 O :   -0.066228
  38 C :   -0.055504
  39 C :   -0.000977
  40 C :   -0.028934
  41 C :   -0.012872
  42 C :   -0.020175
  43 C :   -0.023546
  44 C :   -0.053503
  45 C :    0.024774
  46 N :   -0.116035
  47 C :    0.024123
  48 N :   -0.107859
  49 C :   -0.012206
  50 C :    0.060719
  51 C :   -0.029916
  52 C :   -0.031644
  53 C :   -0.017192
  54 C :   -0.034308
  55 C :   -0.029582
  56 C :   -0.003930
  57 C :   -0.032481
  58 C :   -0.000381
  59 C :   -0.059583
  60 H :    0.023789
  61 H :    0.024711
  62 H :    0.030320
  63 H :    0.029000
  64 H :    0.029478
  65 H :    0.033699
  66 H :    0.027940
  67 H :    0.044199
  68 H :    0.025788
  69 H :    0.036043
  70 H :    0.043874
  71 H :    0.036190
  72 H :    0.035011
  73 H :    0.029792
  74 H :    0.028278
  75 H :    0.029400
  76 H :    0.029861
  77 H :    0.019289
  78 H :    0.012268
  79 H :   -0.011959
  80 H :    0.018136
  81 H :    0.048466
  82 H :    0.054705
  83 H :    0.022800
  84 H :    0.017499
  85 H :    0.049734
  86 H :    0.045124
  87 H :    0.025439
  88 H :    0.050437
  89 H :    0.024609
  90 H :    0.029428
  91 H :    0.027645
  92 H :    0.020267
  93 H :    0.031683
  94 H :    0.020732
  95 H :    0.026030

  Mayer bond orders larger than 0.100000
B(  0-C ,  1-O ) :   1.1782 B(  0-C ,  4-C ) :   1.4847 B(  0-C , 60-H ) :   1.0058
B(  1-O ,  2-C ) :   1.1389 B(  2-C ,  3-C ) :   1.5973 B(  2-C , 61-H ) :   0.9997
B(  3-C ,  4-C ) :   1.2091 B(  3-C , 62-H ) :   1.0043 B(  4-C ,  5-C ) :   1.1061
B(  5-C ,  6-C ) :   1.7117 B(  5-C , 63-H ) :   0.9648 B(  6-C ,  7-C ) :   1.1404
B(  6-C , 64-H ) :   0.9758 B(  7-C ,  8-C ) :   1.6930 B(  7-C , 65-H ) :   0.9740
B(  8-C ,  9-C ) :   1.1403 B(  8-C , 66-H ) :   0.9420 B(  9-C , 10-S ) :   1.1455
B(  9-C , 16-C ) :   1.3999 B( 10-S , 11-C ) :   1.1100 B( 11-C , 12-N ) :   0.9574
B( 11-C , 15-C ) :   1.4919 B( 12-N , 13-O ) :   1.5352 B( 12-N , 14-O ) :   1.5174
B( 13-O , 14-O ) :   0.2648 B( 15-C , 16-C ) :   1.2262 B( 15-C , 67-H ) :   0.9985
B( 16-C , 17-C ) :   1.1019 B( 17-C , 18-C ) :   1.6763 B( 17-C , 68-H ) :   0.9638
B( 18-C , 19-C ) :   1.1599 B( 18-C , 69-H ) :   0.9668 B( 19-C , 20-S ) :   1.1247
B( 19-C , 26-C ) :   1.4264 B( 20-S , 21-C ) :   1.1146 B( 21-C , 22-N ) :   0.9610
B( 21-C , 25-C ) :   1.4816 B( 22-N , 23-O ) :   1.5349 B( 22-N , 24-O ) :   1.5167
B( 23-O , 24-O ) :   0.2642 B( 25-C , 26-C ) :   1.2176 B( 25-C , 70-H ) :   1.0050
B( 26-C , 27-C ) :   1.0739 B( 27-C , 28-C ) :   1.7458 B( 27-C , 71-H ) :   0.9594
B( 28-C , 29-C ) :   1.0959 B( 28-C , 72-H ) :   0.9416 B( 29-C , 30-C ) :   1.5317
B( 29-C , 37-O ) :   1.0324 B( 30-C , 31-O ) :   1.0640 B( 30-C , 38-C ) :   1.1448
B( 31-O , 32-C ) :   1.0504 B( 32-C , 33-C ) :   1.1999 B( 32-C , 36-C ) :   1.5744
B( 33-C , 34-C ) :   1.5761 B( 33-C , 37-O ) :   1.0602 B( 34-C , 35-S ) :   1.1404
B( 34-C , 73-H ) :   0.9713 B( 35-S , 36-C ) :   1.1400 B( 36-C , 74-H ) :   0.9719
B( 38-C , 39-C ) :   1.6713 B( 38-C , 75-H ) :   0.9484 B( 39-C , 40-C ) :   1.0603
B( 39-C , 76-H ) :   0.9895 B( 40-C , 41-C ) :   1.5184 B( 40-C , 57-C ) :   1.1155
B( 41-C , 42-C ) :   1.1029 B( 41-C , 77-H ) :   0.9959 B( 42-C , 43-C ) :   1.4840
B( 42-C , 55-C ) :   1.1241 B( 43-C , 44-C ) :   0.9876 B( 43-C , 49-C ) :   1.1187
B( 44-C , 45-C ) :   1.0357 B( 44-C , 47-C ) :   1.0107 B( 44-C , 78-H ) :   0.8842
B( 45-C , 46-N ) :   1.0801 B( 45-C , 79-H ) :   0.9354 B( 45-C , 80-H ) :   0.9348
B( 46-N , 81-H ) :   0.9727 B( 46-N , 82-H ) :   0.9689 B( 47-C , 48-N ) :   1.1158
B( 47-C , 83-H ) :   0.9529 B( 47-C , 84-H ) :   0.9402 B( 48-N , 85-H ) :   0.9793
B( 48-N , 86-H ) :   0.9820 B( 49-C , 50-C ) :   1.6463 B( 49-C , 54-C ) :   1.0473
B( 50-C , 51-C ) :   0.9761 B( 50-C , 87-H ) :   0.9722 B( 51-C , 52-C ) :   0.9927
B( 51-C , 58-C ) :   0.9609 B( 51-C , 88-H ) :   0.8774 B( 52-C , 53-C ) :   1.7167
B( 52-C , 89-H ) :   0.9728 B( 53-C , 54-C ) :   1.1296 B( 53-C , 90-H ) :   0.9895
B( 54-C , 55-C ) :   1.4445 B( 55-C , 56-C ) :   1.1370 B( 56-C , 57-C ) :   1.6233
B( 56-C , 91-H ) :   0.9889 B( 57-C , 92-H ) :   0.9809 B( 58-C , 59-C ) :   2.0030
B( 58-C , 93-H ) :   0.9651 B( 59-C , 94-H ) :   0.9601 B( 59-C , 95-H ) :   0.9531

-----------------------------------------------------------------------------
         ABSORPTION SPECTRUM VIA TRANSITION ELECTRIC DIPOLE MOMENTS
-----------------------------------------------------------------------------
State   Energy  Wavelength   fosc         T2         TX        TY        TZ
        (cm-1)    (nm)                  (au**2)     (au)      (au)      (au)
-----------------------------------------------------------------------------
   0   14637.2    683.2   0.091420270   2.05618  -0.66028  -0.62680  -1.10785
   1   17259.1    579.4   0.170549269   3.25318  -1.49231  -0.93832  -0.38179
   2   21089.9    474.2   0.607066367   9.47625   2.02607   2.05486   1.07183
   3   21841.4    457.8   0.038438490   0.57938   0.68529   0.07933  -0.32166
   4   22949.4    435.7   0.235356937   3.37622   0.04035   1.66249   0.78148
   5   23887.3    418.6   0.114790460   1.58203  -0.97441  -0.74412  -0.28080
   6   24235.8    412.6   0.537239864   7.29769   2.47043   1.07149   0.21582
   7   25033.2    399.5   0.280295229   3.68617   0.74063  -0.56385  -1.67920
   8   27067.0    369.5   0.236239182   2.87334   0.96485  -0.35038  -1.34894
   9   28991.3    344.9   0.538781817   6.11815  -1.73647  -0.23929   1.74516
  10   29452.4    339.5   0.069159770   0.77305  -0.58621  -0.03241   0.65449
  11   29802.6    335.5   0.107246950   1.18470   0.57378   0.31576  -0.86935
  12   30311.6    329.9   0.023716009   0.25758  -0.44015  -0.05753  -0.24604
  13   31396.5    318.5   0.128315265   1.34546   1.03743   0.33343   0.39752
  14   31739.3    315.1   0.057462358   0.59602   0.13405   0.16554   0.74206
  15   32365.6    309.0   0.101979896   1.03730   0.72773   0.66123   0.26550
  16   32561.7    307.1   0.077771815   0.78630   0.31893   0.10137  -0.82116
  17   33467.5    298.8   0.115919758   1.14028   0.71905   0.73210   0.29541
  18   33630.9    297.3   0.055685950   0.54511  -0.39282  -0.61462   0.11419
  19   33913.5    294.9   0.215604790   2.09296  -0.37326  -0.24492   1.37610
  20   34710.1    288.1   0.615944688   5.84200   1.96456   0.64117  -1.25355
  21   35063.6    285.2   0.011866165   0.11141   0.29408   0.01633  -0.15704
  22   35232.7    283.8   0.288695324   2.69755   1.35242   0.93140   0.03160
  23   36237.9    276.0   0.014601223   0.13265  -0.28768  -0.21495   0.06071
  24   36369.8    275.0   0.001181429   0.01069  -0.06349   0.08115   0.00884
  25   36589.2    273.3   0.142187628   1.27933  -0.88677   0.18329   0.67778
  26   36745.2    272.1   0.089132669   0.79857   0.72338   0.45511  -0.26107
  27   37012.4    270.2   0.023329982   0.20751  -0.18269  -0.07896  -0.40976
  28   37165.9    269.1   0.142154030   1.25919  -0.45777  -0.27202   0.98774
  29   38019.5    263.0   0.063283379   0.54797  -0.20691  -0.05243   0.70881
  30   38246.6    261.5   0.042853198   0.36886   0.44241   0.21521  -0.35612
  31   38292.6    261.1   0.240277691   2.06573  -0.60185  -0.21896   1.28669
  32   38928.3    256.9   0.106607580   0.90157   0.45258   0.22263  -0.80447
  33   39317.7    254.3   0.019005105   0.15913   0.18384   0.09616  -0.34072
  34   39555.0    252.8   0.044464798   0.37008  -0.53881  -0.24666  -0.13755
  35   40169.1    248.9   0.256697079   2.10380  -1.19220  -0.63106   0.53312
  36   40205.8    248.7   0.008655153   0.07087   0.20973   0.00686  -0.16382

FINAL SINGLE POINT ENERGY     -3710.795669224694

DIPOLE MOMENT
-------------
                                X             Y             Z
Electronic contribution:    -88.71416     -42.29311      -7.40963
Nuclear contribution   :     90.37793      42.18211       7.06523
                        -----------------------------------------
Total Dipole Moment    :      1.66377      -0.11100      -0.34441
                        -----------------------------------------
Magnitude (a.u.)       :      1.70266
Magnitude (Debye)      :      4.32782

Rotational constants in cm-1:     0.001430     0.000438     0.000355
Rotational constants in MHz :    42.872530    13.124213    10.636714

                             ****ORCA TERMINATED NORMALLY****
TOTAL RUN TIME: 0 days 0 hours 7 minutes 7 seconds 611 msec
