                         Program Version 4.2.0 -  RELEASE  -
|  1> # ORCA input file
|  2> # SCF done       -168.170982981851          0.000804567895
|  3> ! CAM-B3LYP def2-SVP def2/J RIJCOSX Grid4 TightSCF
|  4> %maxcore 5000
|  5> %tddft
|  6>     Mode sTDDFT
|  7>     Ethresh 5.0
|  8>     maxcore 5000
|  9> end
| 10>
| 11> %pal
| 12>   nprocs 6
| 13>   end
| 14> * xyz 0 1
| 15>    C       -5.23066        -5.62446         2.33682
| 16>    S       -5.77341        -4.06443         2.77396
| 17>    C       -6.13070        -3.64588         1.12804
| 18>    C       -5.80214        -4.68993         0.27770
| 19>    C       -5.29847        -5.83355         0.98116
| 20>    C       -4.93234        -7.00019         0.26132
| 21>    C       -5.04457        -7.02038        -1.09538
| 22>    O       -4.73993        -8.07045        -1.90095
| 23>    C       -4.26243        -9.24804        -1.30266
| 24>    C       -5.50433        -5.85022        -1.81077
| 25>    O       -5.52735        -6.00565        -3.15869
| 26>    C       -5.95407        -4.92341        -3.94807
| 27>    C       -5.86255        -4.71988        -1.13836
| 28>    C       -6.69713        -2.35987         0.81813
| 29>    S       -5.95704        -0.90605         1.44423
| 30>    C       -7.15380         0.06752         0.68684
| 31>    C       -8.06848        -0.66767         0.00156
| 32>    C       -7.81593        -2.06390         0.08172
| 33>    C       -8.77531        -3.07107        -0.47161
| 34>    C       -9.71120        -2.48116        -1.53321
| 35>    C      -10.28773        -1.14840        -1.03054
| 36>    C       -9.19437        -0.10671        -0.80899
| 37>    C       -9.06333        -2.30654        -2.88715
| 38>    C       -7.76968        -2.00002        -3.04134
| 39>    C       -9.87937        -2.44189        -4.07279
| 40>    C      -11.21543        -2.60632        -4.13160
| 41>    C      -11.91718        -2.68139        -5.36998
| 42>    S      -13.66309        -2.75479        -5.43295
| 43>    C      -13.74723        -2.70640        -7.17254
| 44>    C      -12.45403        -2.69960        -7.68666
| 45>    C      -11.45375        -2.67154        -6.66524
| 46>    O      -10.21330        -2.68095        -7.20598
| 47>    C      -10.41114        -2.74827        -8.55107
| 48>    N       -9.27291        -2.79445        -9.38237
| 49>    O       -9.47859        -2.84573       -10.58281
| 50>    O       -8.18003        -2.77373        -8.85456
| 51>    C      -11.73396        -2.76741        -8.90687
| 52>    C      -15.01339        -2.61745        -7.81199
| 53>    S      -16.43082        -3.22322        -6.98022
| 54>    C      -17.45961        -2.66447        -8.23920
| 55>    C      -16.76542        -2.05385        -9.23597
| 56>    C      -15.36881        -2.01969        -9.00177
| 57>    C      -14.53496        -1.28668        -9.99140
| 58>    C      -15.15186         0.09470       -10.32263
| 59>    C      -16.69112         0.06781       -10.45433
| 60>    C      -17.27918        -1.35080       -10.44470
| 61>    C      -14.69856         1.07515        -9.26112
| 62>    C      -14.01070         2.17063        -9.57631
| 63>    C      -15.01884         0.71868        -7.88828
| 64>    C      -14.19002         0.90769        -6.84732
| 65>    C      -14.46373         0.48969        -5.51001
| 66>    S      -13.19878         0.62901        -4.30153
| 67>    C      -14.20566        -0.09268        -3.12569
| 68>    C      -15.45418        -0.41741        -3.64026
| 69>    C      -15.60624        -0.08910        -4.98490
| 70>    C      -16.22973        -1.04146        -2.54575
| 71>    O      -17.35750        -1.46616        -2.56262
| 72>    C      -15.28560        -1.03184        -1.36163
| 73>    C      -14.11046        -0.46121        -1.74162
| 74>    C      -15.69924        -1.56815        -0.09674
| 75>    C      -14.95478        -1.61690         1.00863
| 76>    H       -4.89253        -6.30050         3.09614
| 77>    H       -4.56861        -7.84853         0.81764
| 78>    H       -3.32296        -9.07445        -0.76716
| 79>    H       -4.08814        -9.94484        -2.12086
| 80>    H       -4.99784        -9.67492        -0.61221
| 81>    H       -6.98376        -4.63252        -3.71270
| 82>    H       -5.90296        -5.27092        -4.97842
| 83>    H       -5.29846        -4.05507        -3.82595
| 84>    H       -6.16667        -3.83137        -1.66412
| 85>    H       -7.10687         1.13340         0.79105
| 86>    H       -9.38973        -3.43506         0.36008
| 87>    H       -8.24861        -3.93618        -0.87511
| 88>    H      -10.53955        -3.18749        -1.65041
| 89>    H      -10.80972        -1.33358        -0.08840
| 90>    H      -11.00569        -0.76354        -1.75766
| 91>    H       -9.60773         0.77577        -0.31559
| 92>    H       -8.80219         0.21452        -1.77950
| 93>    H       -7.34365        -1.86718        -4.02221
| 94>    H       -7.10616        -1.85143        -2.20889
| 95>    H       -9.33887        -2.37789        -5.00777
| 96>    H      -11.83306        -2.66165        -3.24693
| 97>    H      -12.10039        -2.85373        -9.90830
| 98>    H      -18.51696        -2.82486        -8.16570
| 99>    H      -14.48094        -1.87757       -10.91063
|100>    H      -13.52258        -1.13104        -9.62253
|101>    H      -14.72132         0.41645       -11.27504
|102>    H      -16.98568         0.57080       -11.37608
|103>    H      -17.13574         0.62705        -9.62860
|104>    H      -16.96004        -1.88613       -11.34293
|105>    H      -18.36849        -1.30661       -10.44209
|106>    H      -13.69509         2.87638        -8.82763
|107>    H      -13.76294         2.41132       -10.59580
|108>    H      -15.96079         0.21629        -7.72611
|109>    H      -13.22269         1.36381        -7.01078
|110>    H      -16.50081        -0.26377        -5.55262
|111>    H      -13.24463        -0.29755        -1.12682
|112>    H      -16.71036        -1.95538        -0.09074
|113>    H      -13.94668        -1.23929         1.03574
|114>    H      -15.33522        -2.03473         1.92397
|115> *
|116>
|117>                          ****END OF INPUT****

CARTESIAN COORDINATES (ANGSTROEM)
---------------------------------
  C     -5.230660   -5.624460    2.336820
  S     -5.773410   -4.064430    2.773960
  C     -6.130700   -3.645880    1.128040
  C     -5.802140   -4.689930    0.277700
  C     -5.298470   -5.833550    0.981160
  C     -4.932340   -7.000190    0.261320
  C     -5.044570   -7.020380   -1.095380
  O     -4.739930   -8.070450   -1.900950
  C     -4.262430   -9.248040   -1.302660
  C     -5.504330   -5.850220   -1.810770
  O     -5.527350   -6.005650   -3.158690
  C     -5.954070   -4.923410   -3.948070
  C     -5.862550   -4.719880   -1.138360
  C     -6.697130   -2.359870    0.818130
  S     -5.957040   -0.906050    1.444230
  C     -7.153800    0.067520    0.686840
  C     -8.068480   -0.667670    0.001560
  C     -7.815930   -2.063900    0.081720
  C     -8.775310   -3.071070   -0.471610
  C     -9.711200   -2.481160   -1.533210
  C    -10.287730   -1.148400   -1.030540
  C     -9.194370   -0.106710   -0.808990
  C     -9.063330   -2.306540   -2.887150
  C     -7.769680   -2.000020   -3.041340
  C     -9.879370   -2.441890   -4.072790
  C    -11.215430   -2.606320   -4.131600
  C    -11.917180   -2.681390   -5.369980
  S    -13.663090   -2.754790   -5.432950
  C    -13.747230   -2.706400   -7.172540
  C    -12.454030   -2.699600   -7.686660
  C    -11.453750   -2.671540   -6.665240
  O    -10.213300   -2.680950   -7.205980
  C    -10.411140   -2.748270   -8.551070
  N     -9.272910   -2.794450   -9.382370
  O     -9.478590   -2.845730  -10.582810
  O     -8.180030   -2.773730   -8.854560
  C    -11.733960   -2.767410   -8.906870
  C    -15.013390   -2.617450   -7.811990
  S    -16.430820   -3.223220   -6.980220
  C    -17.459610   -2.664470   -8.239200
  C    -16.765420   -2.053850   -9.235970
  C    -15.368810   -2.019690   -9.001770
  C    -14.534960   -1.286680   -9.991400
  C    -15.151860    0.094700  -10.322630
  C    -16.691120    0.067810  -10.454330
  C    -17.279180   -1.350800  -10.444700
  C    -14.698560    1.075150   -9.261120
  C    -14.010700    2.170630   -9.576310
  C    -15.018840    0.718680   -7.888280
  C    -14.190020    0.907690   -6.847320
  C    -14.463730    0.489690   -5.510010
  S    -13.198780    0.629010   -4.301530
  C    -14.205660   -0.092680   -3.125690
  C    -15.454180   -0.417410   -3.640260
  C    -15.606240   -0.089100   -4.984900
  C    -16.229730   -1.041460   -2.545750
  O    -17.357500   -1.466160   -2.562620
  C    -15.285600   -1.031840   -1.361630
  C    -14.110460   -0.461210   -1.741620
  C    -15.699240   -1.568150   -0.096740
  C    -14.954780   -1.616900    1.008630
  H     -4.892530   -6.300500    3.096140
  H     -4.568610   -7.848530    0.817640
  H     -3.322960   -9.074450   -0.767160
  H     -4.088140   -9.944840   -2.120860
  H     -4.997840   -9.674920   -0.612210
  H     -6.983760   -4.632520   -3.712700
  H     -5.902960   -5.270920   -4.978420
  H     -5.298460   -4.055070   -3.825950
  H     -6.166670   -3.831370   -1.664120
  H     -7.106870    1.133400    0.791050
  H     -9.389730   -3.435060    0.360080
  H     -8.248610   -3.936180   -0.875110
  H    -10.539550   -3.187490   -1.650410
  H    -10.809720   -1.333580   -0.088400
  H    -11.005690   -0.763540   -1.757660
  H     -9.607730    0.775770   -0.315590
  H     -8.802190    0.214520   -1.779500
  H     -7.343650   -1.867180   -4.022210
  H     -7.106160   -1.851430   -2.208890
  H     -9.338870   -2.377890   -5.007770
  H    -11.833060   -2.661650   -3.246930
  H    -12.100390   -2.853730   -9.908300
  H    -18.516960   -2.824860   -8.165700
  H    -14.480940   -1.877570  -10.910630
  H    -13.522580   -1.131040   -9.622530
  H    -14.721320    0.416450  -11.275040
  H    -16.985680    0.570800  -11.376080
  H    -17.135740    0.627050   -9.628600
  H    -16.960040   -1.886130  -11.342930
  H    -18.368490   -1.306610  -10.442090
  H    -13.695090    2.876380   -8.827630
  H    -13.762940    2.411320  -10.595800
  H    -15.960790    0.216290   -7.726110
  H    -13.222690    1.363810   -7.010780
  H    -16.500810   -0.263770   -5.552620
  H    -13.244630   -0.297550   -1.126820
  H    -16.710360   -1.955380   -0.090740
  H    -13.946680   -1.239290    1.035740
  H    -15.335220   -2.034730    1.923970

 Total Charge           Charge          ....    0
 Multiplicity           Mult            ....    1
 Number of Electrons    NEL             ....  468
 Basis Dimension        Dim             .... 1069

ORBITAL ENERGIES
----------------

  NO   OCC          E(Eh)            E(eV)
   0   2.0000     -88.972657     -2421.0691
   1   2.0000     -88.972058     -2421.0528
   2   2.0000     -88.957201     -2420.6485
   3   2.0000     -88.944441     -2420.3013
   4   2.0000     -88.937350     -2420.1083
   5   2.0000     -19.307961      -525.3963
   6   2.0000     -19.242930      -523.6267
   7   2.0000     -19.240505      -523.5608
   8   2.0000     -19.233428      -523.3682
   9   2.0000     -19.231368      -523.3121
  10   2.0000     -19.223158      -523.0887
  11   2.0000     -14.654434      -398.7674
  12   2.0000     -10.385330      -282.5992
  13   2.0000     -10.364000      -282.0188
  14   2.0000     -10.344054      -281.4760
  15   2.0000     -10.324881      -280.9543
  16   2.0000     -10.322259      -280.8830
  17   2.0000     -10.322028      -280.8767
  18   2.0000     -10.313251      -280.6378
  19   2.0000     -10.312657      -280.6217
  20   2.0000     -10.311141      -280.5804
  21   2.0000     -10.309427      -280.5338
  22   2.0000     -10.306507      -280.4543
  23   2.0000     -10.306176      -280.4453
  24   2.0000     -10.305536      -280.4279
  25   2.0000     -10.298593      -280.2390
  26   2.0000     -10.298588      -280.2388
  27   2.0000     -10.294647      -280.1316
  28   2.0000     -10.285660      -279.8870
  29   2.0000     -10.284693      -279.8607
  30   2.0000     -10.283522      -279.8289
  31   2.0000     -10.282269      -279.7948
  32   2.0000     -10.281983      -279.7870
  33   2.0000     -10.281219      -279.7662
  34   2.0000     -10.281091      -279.7627
  35   2.0000     -10.280964      -279.7592
  36   2.0000     -10.278836      -279.7013
  37   2.0000     -10.277207      -279.6570
  38   2.0000     -10.277030      -279.6522
  39   2.0000     -10.276469      -279.6369
  40   2.0000     -10.276042      -279.6253
  41   2.0000     -10.273912      -279.5674
  42   2.0000     -10.273725      -279.5623
  43   2.0000     -10.273176      -279.5473
  44   2.0000     -10.273127      -279.5460
  45   2.0000     -10.272929      -279.5406
  46   2.0000     -10.272688      -279.5341
  47   2.0000     -10.272216      -279.5212
  48   2.0000     -10.270794      -279.4825
  49   2.0000     -10.267429      -279.3909
  50   2.0000     -10.266889      -279.3762
  51   2.0000     -10.263629      -279.2875
  52   2.0000     -10.263441      -279.2824
  53   2.0000     -10.263107      -279.2733
  54   2.0000     -10.261772      -279.2370
  55   2.0000     -10.260855      -279.2121
  56   2.0000     -10.260624      -279.2058
  57   2.0000     -10.258836      -279.1571
  58   2.0000     -10.258623      -279.1513
  59   2.0000     -10.256212      -279.0857
  60   2.0000     -10.253243      -279.0049
  61   2.0000      -8.067070      -219.5161
  62   2.0000      -8.065924      -219.4850
  63   2.0000      -8.052817      -219.1283
  64   2.0000      -8.039759      -218.7730
  65   2.0000      -8.033231      -218.5953
  66   2.0000      -6.036133      -164.2515
  67   2.0000      -6.035278      -164.2283
  68   2.0000      -6.032114      -164.1422
  69   2.0000      -6.031164      -164.1163
  70   2.0000      -6.029778      -164.0786
  71   2.0000      -6.028131      -164.0338
  72   2.0000      -6.022235      -163.8734
  73   2.0000      -6.017848      -163.7540
  74   2.0000      -6.014912      -163.6741
  75   2.0000      -6.008807      -163.5080
  76   2.0000      -6.004550      -163.3921
  77   2.0000      -6.002650      -163.3404
  78   2.0000      -6.002475      -163.3357
  79   2.0000      -5.998281      -163.2215
  80   2.0000      -5.995485      -163.1454
  81   2.0000      -1.324797       -36.0496
  82   2.0000      -1.227029       -33.3891
  83   2.0000      -1.148426       -31.2503
  84   2.0000      -1.141053       -31.0496
  85   2.0000      -1.133661       -30.8485
  86   2.0000      -1.126355       -30.6497
  87   2.0000      -1.005886       -27.3715
  88   2.0000      -1.001733       -27.2585
  89   2.0000      -0.984013       -26.7764
  90   2.0000      -0.982031       -26.7224
  91   2.0000      -0.964491       -26.2451
  92   2.0000      -0.943055       -25.6618
  93   2.0000      -0.938640       -25.5417
  94   2.0000      -0.934578       -25.4312
  95   2.0000      -0.930103       -25.3094
  96   2.0000      -0.907957       -24.7068
  97   2.0000      -0.899757       -24.4836
  98   2.0000      -0.897029       -24.4094
  99   2.0000      -0.883719       -24.0472
 100   2.0000      -0.873095       -23.7581
 101   2.0000      -0.866355       -23.5747
 102   2.0000      -0.859177       -23.3794
 103   2.0000      -0.850163       -23.1341
 104   2.0000      -0.846729       -23.0407
 105   2.0000      -0.838282       -22.8108
 106   2.0000      -0.834352       -22.7039
 107   2.0000      -0.831786       -22.6341
 108   2.0000      -0.819869       -22.3098
 109   2.0000      -0.811317       -22.0770
 110   2.0000      -0.807776       -21.9807
 111   2.0000      -0.799777       -21.7630
 112   2.0000      -0.792141       -21.5553
 113   2.0000      -0.776845       -21.1390
 114   2.0000      -0.772448       -21.0194
 115   2.0000      -0.768169       -20.9029
 116   2.0000      -0.766273       -20.8513
 117   2.0000      -0.748721       -20.3737
 118   2.0000      -0.746257       -20.3067
 119   2.0000      -0.734336       -19.9823
 120   2.0000      -0.722617       -19.6634
 121   2.0000      -0.721402       -19.6303
 122   2.0000      -0.711099       -19.3500
 123   2.0000      -0.705853       -19.2072
 124   2.0000      -0.682681       -18.5767
 125   2.0000      -0.681313       -18.5395
 126   2.0000      -0.674164       -18.3449
 127   2.0000      -0.668788       -18.1987
 128   2.0000      -0.665698       -18.1146
 129   2.0000      -0.664821       -18.0907
 130   2.0000      -0.652359       -17.7516
 131   2.0000      -0.646800       -17.6003
 132   2.0000      -0.640782       -17.4366
 133   2.0000      -0.639407       -17.3991
 134   2.0000      -0.638429       -17.3725
 135   2.0000      -0.627756       -17.0821
 136   2.0000      -0.626029       -17.0351
 137   2.0000      -0.621466       -16.9109
 138   2.0000      -0.613178       -16.6854
 139   2.0000      -0.612293       -16.6613
 140   2.0000      -0.597811       -16.2673
 141   2.0000      -0.595975       -16.2173
 142   2.0000      -0.592704       -16.1283
 143   2.0000      -0.591274       -16.0894
 144   2.0000      -0.586433       -15.9576
 145   2.0000      -0.584074       -15.8935
 146   2.0000      -0.581610       -15.8264
 147   2.0000      -0.576596       -15.6900
 148   2.0000      -0.572880       -15.5889
 149   2.0000      -0.565927       -15.3997
 150   2.0000      -0.565432       -15.3862
 151   2.0000      -0.562679       -15.3113
 152   2.0000      -0.555102       -15.1051
 153   2.0000      -0.554837       -15.0979
 154   2.0000      -0.549484       -14.9522
 155   2.0000      -0.545503       -14.8439
 156   2.0000      -0.539413       -14.6782
 157   2.0000      -0.534352       -14.5405
 158   2.0000      -0.532733       -14.4964
 159   2.0000      -0.531433       -14.4610
 160   2.0000      -0.528802       -14.3894
 161   2.0000      -0.524387       -14.2693
 162   2.0000      -0.520704       -14.1691
 163   2.0000      -0.517596       -14.0845
 164   2.0000      -0.515804       -14.0357
 165   2.0000      -0.515382       -14.0243
 166   2.0000      -0.508709       -13.8427
 167   2.0000      -0.505527       -13.7561
 168   2.0000      -0.501223       -13.6390
 169   2.0000      -0.499002       -13.5785
 170   2.0000      -0.496764       -13.5176
 171   2.0000      -0.494566       -13.4578
 172   2.0000      -0.491302       -13.3690
 173   2.0000      -0.486618       -13.2415
 174   2.0000      -0.485268       -13.2048
 175   2.0000      -0.484290       -13.1782
 176   2.0000      -0.481102       -13.0914
 177   2.0000      -0.480353       -13.0711
 178   2.0000      -0.478725       -13.0268
 179   2.0000      -0.475711       -12.9448
 180   2.0000      -0.474506       -12.9120
 181   2.0000      -0.471351       -12.8261
 182   2.0000      -0.469864       -12.7856
 183   2.0000      -0.468827       -12.7574
 184   2.0000      -0.464603       -12.6425
 185   2.0000      -0.461798       -12.5662
 186   2.0000      -0.459409       -12.5012
 187   2.0000      -0.457300       -12.4438
 188   2.0000      -0.453938       -12.3523
 189   2.0000      -0.453214       -12.3326
 190   2.0000      -0.444275       -12.0893
 191   2.0000      -0.442920       -12.0525
 192   2.0000      -0.438554       -11.9336
 193   2.0000      -0.435527       -11.8513
 194   2.0000      -0.433999       -11.8097
 195   2.0000      -0.432184       -11.7603
 196   2.0000      -0.429443       -11.6857
 197   2.0000      -0.427937       -11.6448
 198   2.0000      -0.420291       -11.4367
 199   2.0000      -0.417093       -11.3497
 200   2.0000      -0.414112       -11.2686
 201   2.0000      -0.413528       -11.2527
 202   2.0000      -0.408315       -11.1108
 203   2.0000      -0.407446       -11.0872
 204   2.0000      -0.403022       -10.9668
 205   2.0000      -0.401037       -10.9128
 206   2.0000      -0.396916       -10.8006
 207   2.0000      -0.395514       -10.7625
 208   2.0000      -0.394017       -10.7217
 209   2.0000      -0.391452       -10.6520
 210   2.0000      -0.391372       -10.6498
 211   2.0000      -0.389765       -10.6061
 212   2.0000      -0.388960       -10.5841
 213   2.0000      -0.387859       -10.5542
 214   2.0000      -0.383289       -10.4298
 215   2.0000      -0.379832       -10.3357
 216   2.0000      -0.371962       -10.1216
 217   2.0000      -0.370589       -10.0842
 218   2.0000      -0.353535        -9.6202
 219   2.0000      -0.348421        -9.4810
 220   2.0000      -0.344502        -9.3744
 221   2.0000      -0.337031        -9.1711
 222   2.0000      -0.334347        -9.0980
 223   2.0000      -0.331945        -9.0327
 224   2.0000      -0.321621        -8.7518
 225   2.0000      -0.312577        -8.5056
 226   2.0000      -0.305734        -8.3194
 227   2.0000      -0.301775        -8.2117
 228   2.0000      -0.292530        -7.9601
 229   2.0000      -0.288023        -7.8375
 230   2.0000      -0.264685        -7.2024
 231   2.0000      -0.247710        -6.7405
 232   2.0000      -0.242060        -6.5868
 233   2.0000      -0.233368        -6.3503
 234   0.0000      -0.073412        -1.9976
 235   0.0000      -0.071184        -1.9370
 236   0.0000      -0.029840        -0.8120
 237   0.0000      -0.016442        -0.4474
 238   0.0000      -0.010792        -0.2937

MULLIKEN ATOMIC CHARGES
-----------------------
   0 C :   -0.144271
   1 S :    0.147996
   2 C :   -0.221204
   3 C :    0.194442
   4 C :    0.100601
   5 C :   -0.164308
   6 C :    0.218507
   7 O :   -0.294367
   8 C :    0.180011
   9 C :    0.216650
  10 O :   -0.295260
  11 C :    0.178527
  12 C :   -0.157977
  13 C :   -0.201493
  14 S :    0.121308
  15 C :   -0.135697
  16 C :   -0.068872
  17 C :   -0.056869
  18 C :    0.218834
  19 C :   -0.060231
  20 C :    0.048331
  21 C :    0.144618
  22 C :   -0.025846
  23 C :   -0.060609
  24 C :   -0.037658
  25 C :    0.073029
  26 C :   -0.193459
  27 S :    0.166405
  28 C :   -0.145296
  29 C :    0.155552
  30 C :    0.175753
  31 O :   -0.194351
  32 C :    0.240299
  33 N :    0.279963
  34 O :   -0.254613
  35 O :   -0.235981
  36 C :   -0.114650
  37 C :   -0.163884
  38 S :    0.120051
  39 C :   -0.143891
  40 C :   -0.081673
  41 C :   -0.069545
  42 C :    0.222844
  43 C :   -0.058827
  44 C :    0.069212
  45 C :    0.185517
  46 C :   -0.059665
  47 C :   -0.039933
  48 C :    0.029755
  49 C :    0.063058
  50 C :   -0.106346
  51 S :    0.168517
  52 C :   -0.086404
  53 C :    0.009658
  54 C :   -0.015837
  55 C :    0.147023
  56 O :   -0.112228
  57 C :   -0.049770
  58 C :   -0.029323
  59 C :    0.013853
  60 C :   -0.007536
  61 H :    0.004273
  62 H :   -0.048808
  63 H :    0.018861
  64 H :    0.036826
  65 H :    0.019049
  66 H :    0.024811
  67 H :    0.036995
  68 H :    0.018988
  69 H :   -0.071924
  70 H :    0.004221
  71 H :    0.008472
  72 H :    0.010415
  73 H :   -0.002866
  74 H :    0.007542
  75 H :   -0.010136
  76 H :   -0.003220
  77 H :    0.021331
  78 H :    0.016076
  79 H :    0.068427
  80 H :   -0.003410
  81 H :   -0.022656
  82 H :    0.013452
  83 H :    0.017552
  84 H :    0.010631
  85 H :    0.013184
  86 H :   -0.019700
  87 H :    0.004365
  88 H :    0.007165
  89 H :    0.004795
  90 H :   -0.002641
  91 H :    0.012185
  92 H :    0.008183
  93 H :    0.004138
  94 H :   -0.018871
  95 H :   -0.011083
  96 H :   -0.017484
  97 H :    0.001087
  98 H :    0.009967
  99 H :    0.027367
Sum of atomic charges:   -0.0000000

LOEWDIN ATOMIC CHARGES
----------------------
   0 C :   -0.212371
   1 S :    0.458585
   2 C :   -0.220134
   3 C :   -0.044612
   4 C :   -0.051560
   5 C :   -0.084396
   6 C :    0.043882
   7 O :   -0.090481
   8 C :    0.075903
   9 C :    0.048220
  10 O :   -0.088965
  11 C :    0.074989
  12 C :   -0.088021
  13 C :   -0.202184
  14 S :    0.421475
  15 C :   -0.198204
  16 C :   -0.069725
  17 C :   -0.068439
  18 C :   -0.014083
  19 C :   -0.024164
  20 C :   -0.019833
  21 C :   -0.025682
  22 C :   -0.018951
  23 C :   -0.042711
  24 C :   -0.011675
  25 C :   -0.054415
  26 C :   -0.203660
  27 S :    0.494342
  28 C :   -0.178681
  29 C :   -0.080372
  30 C :    0.021012
  31 O :   -0.001389
  32 C :    0.021057
  33 N :    0.273115
  34 O :   -0.215394
  35 O :   -0.197585
  36 C :   -0.009644
  37 C :   -0.197742
  38 S :    0.428736
  39 C :   -0.190318
  40 C :   -0.066936
  41 C :   -0.054017
  42 C :   -0.018222
  43 C :   -0.014996
  44 C :   -0.018770
  45 C :   -0.020153
  46 C :   -0.021211
  47 C :   -0.054543
  48 C :   -0.014761
  49 C :   -0.040008
  50 C :   -0.174716
  51 S :    0.469992
  52 C :   -0.186726
  53 C :   -0.108753
  54 C :   -0.031104
  55 C :    0.097789
  56 O :   -0.104603
  57 C :   -0.062765
  58 C :    0.001199
  59 C :   -0.025017
  60 C :   -0.030159
  61 H :    0.018457
  62 H :    0.027037
  63 H :    0.013748
  64 H :    0.028357
  65 H :    0.013580
  66 H :    0.015012
  67 H :    0.029407
  68 H :    0.014011
  69 H :    0.027002
  70 H :    0.018321
  71 H :    0.036786
  72 H :    0.033720
  73 H :    0.027672
  74 H :    0.021953
  75 H :    0.015756
  76 H :    0.029223
  77 H :    0.032337
  78 H :    0.022187
  79 H :    0.026385
  80 H :    0.031142
  81 H :    0.024588
  82 H :    0.045413
  83 H :    0.023998
  84 H :    0.034716
  85 H :    0.034451
  86 H :    0.028122
  87 H :    0.028141
  88 H :    0.026221
  89 H :    0.031101
  90 H :    0.031155
  91 H :    0.020044
  92 H :    0.019803
  93 H :    0.025264
  94 H :    0.026722
  95 H :    0.031755
  96 H :    0.028463
  97 H :    0.034803
  98 H :    0.018602
  99 H :    0.027097

  Mayer bond orders larger than 0.100000
B(  0-C ,  1-S ) :   1.1741 B(  0-C ,  2-C ) :   0.1211 B(  0-C ,  4-C ) :   1.4569
B(  0-C , 61-H ) :   0.9684 B(  1-S ,  2-C ) :   1.1746 B(  2-C ,  3-C ) :   1.4456
B(  2-C , 13-C ) :   1.0432 B(  3-C ,  4-C ) :   1.1968 B(  3-C , 12-C ) :   1.1182
B(  4-C ,  5-C ) :   1.0921 B(  5-C ,  6-C ) :   1.5061 B(  5-C , 62-H ) :   1.0136
B(  6-C ,  7-O ) :   1.1833 B(  6-C ,  9-C ) :   1.1694 B(  7-O ,  8-C ) :   0.9749
B(  8-C , 63-H ) :   0.9677 B(  8-C , 64-H ) :   0.9788 B(  8-C , 65-H ) :   0.9674
B(  9-C , 10-O ) :   1.1887 B(  9-C , 12-C ) :   1.5094 B( 10-O , 11-C ) :   0.9655
B( 11-C , 66-H ) :   0.9659 B( 11-C , 67-H ) :   0.9757 B( 11-C , 68-H ) :   0.9668
B( 12-C , 69-H ) :   0.9913 B( 13-C , 14-S ) :   1.1548 B( 13-C , 15-C ) :   0.1010
B( 13-C , 17-C ) :   1.5593 B( 14-S , 15-C ) :   1.1424 B( 15-C , 16-C ) :   1.5905
B( 15-C , 70-H ) :   0.9712 B( 16-C , 17-C ) :   1.2582 B( 16-C , 21-C ) :   1.0332
B( 17-C , 18-C ) :   1.0553 B( 18-C , 19-C ) :   1.0605 B( 18-C , 71-H ) :   0.8967
B( 18-C , 72-H ) :   0.9048 B( 19-C , 20-C ) :   1.0404 B( 19-C , 22-C ) :   0.9831
B( 19-C , 73-H ) :   0.8915 B( 20-C , 21-C ) :   1.0908 B( 20-C , 74-H ) :   0.9427
B( 20-C , 75-H ) :   0.9211 B( 21-C , 76-H ) :   0.9162 B( 21-C , 77-H ) :   0.9079
B( 22-C , 23-C ) :   1.8991 B( 22-C , 24-C ) :   1.0901 B( 23-C , 78-H ) :   0.9479
B( 23-C , 79-H ) :   0.9200 B( 24-C , 25-C ) :   1.6915 B( 24-C , 80-H ) :   0.9781
B( 25-C , 26-C ) :   1.1006 B( 25-C , 81-H ) :   0.9467 B( 26-C , 27-S ) :   1.1046
B( 26-C , 28-C ) :   0.1230 B( 26-C , 30-C ) :   1.4836 B( 27-S , 28-C ) :   1.1737
B( 28-C , 29-C ) :   1.3916 B( 28-C , 37-C ) :   1.1278 B( 29-C , 30-C ) :   1.2182
B( 29-C , 36-C ) :   1.0714 B( 30-C , 31-O ) :   1.0900 B( 31-O , 32-C ) :   1.1171
B( 32-C , 33-N ) :   0.9268 B( 32-C , 36-C ) :   1.5542 B( 33-N , 34-O ) :   1.5251
B( 33-N , 35-O ) :   1.5038 B( 34-O , 35-O ) :   0.2766 B( 36-C , 82-H ) :   1.0182
B( 37-C , 38-S ) :   1.1338 B( 37-C , 41-C ) :   1.5336 B( 38-S , 39-C ) :   1.1371
B( 39-C , 40-C ) :   1.5764 B( 39-C , 83-H ) :   0.9731 B( 40-C , 41-C ) :   1.2730
B( 40-C , 45-C ) :   1.0657 B( 41-C , 42-C ) :   1.0865 B( 42-C , 43-C ) :   1.0647
B( 42-C , 84-H ) :   0.8714 B( 42-C , 85-H ) :   0.9043 B( 43-C , 44-C ) :   1.0324
B( 43-C , 46-C ) :   0.9912 B( 43-C , 86-H ) :   0.8942 B( 44-C , 45-C ) :   1.1102
B( 44-C , 87-H ) :   0.9289 B( 44-C , 88-H ) :   0.9350 B( 45-C , 89-H ) :   0.8917
B( 45-C , 90-H ) :   0.9186 B( 46-C , 47-C ) :   1.9812 B( 46-C , 48-C ) :   1.0280
B( 47-C , 91-H ) :   0.9461 B( 47-C , 92-H ) :   0.9421 B( 48-C , 49-C ) :   1.8071
B( 48-C , 93-H ) :   0.9318 B( 49-C , 50-C ) :   1.0933 B( 49-C , 94-H ) :   0.9597
B( 50-C , 51-S ) :   1.1175 B( 50-C , 54-C ) :   1.4683 B( 51-S , 52-C ) :   1.1390
B( 52-C , 53-C ) :   1.4703 B( 52-C , 58-C ) :   1.0427 B( 53-C , 54-C ) :   1.2928
B( 53-C , 55-C ) :   0.9152 B( 54-C , 95-H ) :   1.0030 B( 55-C , 56-O ) :   2.2784
B( 55-C , 57-C ) :   0.9230 B( 57-C , 58-C ) :   1.6712 B( 57-C , 59-C ) :   1.1125
B( 58-C , 96-H ) :   1.0126 B( 59-C , 60-C ) :   1.9105 B( 59-C , 97-H ) :   0.9588
B( 60-C , 98-H ) :   0.9527 B( 60-C , 99-H ) :   0.9503

-----------------------------------------------------------------------------
         ABSORPTION SPECTRUM VIA TRANSITION ELECTRIC DIPOLE MOMENTS
-----------------------------------------------------------------------------
State   Energy  Wavelength   fosc         T2         TX        TY        TZ
        (cm-1)    (nm)                  (au**2)     (au)      (au)      (au)
-----------------------------------------------------------------------------
   0   18359.2    544.7   0.166681239   2.98888   0.27216   0.44154  -1.64920
   1   19803.4    505.0   0.249691896   4.15088   1.94054  -0.10902   0.61097
   2   20535.5    487.0   0.004727338   0.07579  -0.09596  -0.24275   0.08747
   3   21890.7    456.8   0.063271650   0.95153   0.87484  -0.06368   0.42678
   4   24680.3    405.2   0.000037938   0.00051  -0.01611   0.00753   0.01378
   5   24957.7    400.7   0.000333913   0.00440   0.06517   0.00723  -0.01027
   6   26810.5    373.0   0.000033107   0.00041  -0.00956   0.01502   0.00947
   7   29492.4    339.1   0.544732801   6.08063   2.10384  -0.19072   1.27204
   8   30718.6    325.5   0.373350404   4.00121  -0.75277   1.77465  -0.53402
   9   31176.4    320.8   0.088611382   0.93570  -0.42413  -0.36257  -0.79016
  10   31219.0    320.3   0.013727868   0.14476  -0.24501   0.19603  -0.21518
  11   31341.2    319.1   0.037517916   0.39409   0.15770  -0.10914   0.59776
  12   31719.7    315.3   0.281374340   2.92032   1.28343   0.34066   1.07568
  13   31901.5    313.5   0.010479258   0.10814   0.05229   0.06454   0.31819
  14   32415.4    308.5   0.000362623   0.00368   0.00269   0.04750  -0.03767
  15   32675.1    306.0   0.025339415   0.25530   0.23651  -0.10375  -0.43428
  16   32938.7    303.6   0.551407118   5.51114   0.18205   0.24564  -2.32759
  17   33024.1    302.8   0.143994517   1.43546  -0.73518   0.65268  -0.68482
  18   34199.1    292.4   0.094711743   0.91173   0.28120   0.13513  -0.90244
  19   34472.3    290.1   0.062886301   0.60057  -0.08426   0.19878  -0.74428
  20   35254.6    283.7   0.209570477   1.95700   1.11450  -0.12917  -0.83558
  21   35492.7    281.7   0.001091866   0.01013   0.09680  -0.02679   0.00620
  22   35610.0    280.8   0.003671839   0.03395  -0.15742   0.06440  -0.07084
  23   35986.4    277.9   0.004745199   0.04341   0.04721  -0.09401   0.17984
  24   36313.9    275.4   0.000799378   0.00725   0.02159  -0.00986   0.08175
  25   36495.9    274.0   0.020974893   0.18920  -0.06947  -0.02845  -0.42845
  26   36659.7    272.8   0.131184264   1.17806   0.84049  -0.04164  -0.68550
  27   37020.8    270.1   0.017113285   0.15218  -0.36948  -0.05850   0.11066
  28   37098.4    269.6   0.012283114   0.10900  -0.26332  -0.05447  -0.19156
  29   37469.8    266.9   0.111385961   0.97864   0.70282   0.52976  -0.45171
  30   37659.8    265.5   0.337104988   2.94689   0.75279   0.58342  -1.42823
  31   38370.3    260.6   0.318020624   2.72857  -0.26306   0.72290   1.46178
  32   38435.6    260.2   0.046502341   0.39831   0.09278  -0.30386  -0.54531
  33   38722.1    258.3   0.107375723   0.91290  -0.08930   0.51980   0.79670
  34   38792.3    257.8   0.002049647   0.01739   0.06264  -0.05687  -0.10117
  35   39321.2    254.3   0.103984535   0.87060   0.01699   0.30109  -0.88298
  36   39930.2    250.4   0.006416975   0.05291  -0.12150   0.14547  -0.13031
  37   40306.0    248.1   0.047832356   0.39069   0.44356  -0.07918  -0.43321

FINAL SINGLE POINT ENERGY     -4383.874523118049

DIPOLE MOMENT
-------------
                                X             Y             Z
Electronic contribution:      2.25957      -3.34814       7.45286
Nuclear contribution   :     -3.67123       3.71688      -7.74299
                        -----------------------------------------
Total Dipole Moment    :     -1.41166       0.36874      -0.29013
                        -----------------------------------------
Magnitude (a.u.)       :      1.48759
Magnitude (Debye)      :      3.78116

Rotational constants in cm-1:     0.001885     0.000605     0.000524
Rotational constants in MHz :    56.511640    18.129892    15.707184

                             ****ORCA TERMINATED NORMALLY****
TOTAL RUN TIME: 0 days 0 hours 9 minutes 56 seconds 561 msec
