                         Program Version 4.2.0 -  RELEASE  -
|  1> # ORCA input file
|  2> # SCF done       -183.760431464578          0.000341177353
|  3> ! CAM-B3LYP def2-SVP def2/J RIJCOSX Grid4 TightSCF
|  4> %maxcore 5000
|  5> %tddft
|  6>     Mode sTDDFT
|  7>     Ethresh 5.0
|  8>     maxcore 5000
|  9> end
| 10>
| 11> %pal
| 12>   nprocs 6
| 13>   end
| 14> * xyz 0 1
| 15>    C       -2.90451        -1.97321        -9.67570
| 16>    S       -3.28476        -3.61917        -9.45225
| 17>    C       -2.34259        -3.73406        -7.97335
| 18>    C       -1.80906        -2.46610        -7.66378
| 19>    C       -2.11788        -1.48040        -8.65373
| 20>    C       -1.65114        -0.16196        -8.49094
| 21>    C       -0.92262         0.20708        -7.38762
| 22>    O       -0.52378         1.50734        -7.38722
| 23>    C        0.10543         2.10472        -6.27621
| 24>    C       -0.65923        -0.76915        -6.36891
| 25>    O        0.05101        -0.36243        -5.27477
| 26>    C        0.36761        -1.30587        -4.27894
| 27>    C       -1.11814        -2.05669        -6.51544
| 28>    C       -2.28744        -5.00557        -7.39341
| 29>    C       -1.43172        -5.58620        -6.47622
| 30>    C       -1.58416        -6.89892        -5.98184
| 31>    C       -0.60089        -7.30782        -5.11970
| 32>    C        0.39003        -6.34411        -4.89629
| 33>    S        0.04813        -4.90359        -5.82479
| 34>    C        1.51198        -6.41537        -4.07232
| 35>    C        1.95357        -7.48469        -3.28918
| 36>    C        3.12778        -7.22962        -2.61691
| 37>    C        3.65632        -5.95757        -2.84280
| 38>    S        2.60451        -5.05800        -3.91404
| 39>    C        4.85595        -5.43557        -2.35769
| 40>    C        5.30435        -4.16346        -2.60128
| 41>    C        6.52959        -3.65421        -2.16683
| 42>    C        7.01425        -2.35674        -2.34914
| 43>    C        8.28424        -2.15710        -1.85471
| 44>    C        8.84419        -3.29963        -1.27663
| 45>    S        7.71188        -4.62771        -1.32455
| 46>    C       10.14520        -3.47628        -0.80140
| 47>    C       11.24345        -2.61862        -0.92870
| 48>    C       12.42503        -3.18039        -0.51493
| 49>    C       12.31205        -4.50847        -0.05872
| 50>    S       10.63520        -4.99016        -0.07351
| 51>    C       13.39215        -5.27589         0.35357
| 52>    C       13.53274        -6.59749         0.78342
| 53>    C       12.68877        -7.70210         0.63292
| 54>    O       12.83029        -8.82990         1.42957
| 55>    C       13.93629        -8.89367         2.21030
| 56>    C       14.91547        -7.85857         2.19923
| 57>    C       15.96976        -8.12406         3.00994
| 58>    S       15.78007        -9.64534         3.80284
| 59>    C       14.26394        -9.92342         3.03143
| 60>    O       14.75096        -6.73101         1.46630
| 61>    C       11.63249        -7.87963        -0.28484
| 62>    C       11.43156        -7.19312        -1.44607
| 63>    C       10.27959        -7.28314        -2.29242
| 64>    C       10.15858        -6.39036        -3.34325
| 65>    C        8.97681        -6.32246        -4.10006
| 66>    C        8.57897        -5.48435        -5.13671
| 67>    C        9.36359        -4.42133        -5.83298
| 68>    C        9.67555        -3.25840        -4.87680
| 69>    N       10.29024        -2.14408        -5.58587
| 70>    C       10.63785        -5.00041        -6.47595
| 71>    N       11.05105        -4.15547        -7.58185
| 72>    C        7.22615        -5.85261        -5.47516
| 73>    C        6.35018        -5.32631        -6.35339
| 74>    C        4.97258        -5.86764        -6.50755
| 75>    C        4.69503        -7.09324        -5.69551
| 76>    C        5.57130        -7.59680        -4.80914
| 77>    C        6.83504        -6.98561        -4.62756
| 78>    C        7.89372        -7.24812        -3.78583
| 79>    C        8.06225        -8.19112        -2.74543
| 80>    C        9.20812        -8.19984        -2.02365
| 81>    C        4.66354        -6.14362        -7.96120
| 82>    C        3.61021        -5.66538        -8.59449
| 83>    H       -3.27757        -1.44705       -10.53109
| 84>    H       -1.86798         0.58385        -9.23835
| 85>    H        1.08397         1.66403        -6.07640
| 86>    H       -0.51095         2.03967        -5.37727
| 87>    H        0.22935         3.15135        -6.55523
| 88>    H        0.97483        -0.76613        -3.55357
| 89>    H        0.94176        -2.14591        -4.68236
| 90>    H       -0.53129        -1.68576        -3.78397
| 91>    H       -0.96138        -2.76757        -5.72688
| 92>    H       -3.02642        -5.69688        -7.78551
| 93>    H       -2.42547        -7.50641        -6.26581
| 94>    H       -0.57814        -8.27251        -4.64544
| 95>    H        1.41768        -8.41534        -3.23567
| 96>    H        3.61766        -7.93562        -1.96980
| 97>    H        5.46781        -6.09726        -1.75845
| 98>    H        4.67716        -3.49200        -3.17549
| 99>    H        6.43070        -1.59678        -2.83970
|100>    H        8.81271        -1.22194        -1.90702
|101>    H       11.15998        -1.63341        -1.35105
|102>    H       13.37792        -2.68353        -0.56515
|103>    H       14.31530        -4.71576         0.46010
|104>    H       16.83726        -7.52376         3.18568
|105>    H       13.71015       -10.81825         3.22281
|106>    H       10.97188        -8.69125        -0.01477
|107>    H       12.19815        -6.49955        -1.76585
|108>    H       10.96914        -5.70543        -3.54550
|109>    H        8.76142        -4.02290        -6.65602
|110>    H       10.37760        -3.58628        -4.10629
|111>    H        8.73764        -2.97536        -4.37082
|112>    H        9.63295        -1.76125        -6.25899
|113>    H       10.52746        -1.40539        -4.93203
|114>    H       10.41220        -5.99419        -6.87737
|115>    H       11.41301        -5.11870        -5.70289
|116>    H       11.24000        -3.22400        -7.22101
|117>    H       11.90331        -4.51509        -7.99858
|118>    H        6.60362        -4.48351        -6.98256
|119>    H        4.27486        -5.08141        -6.17697
|120>    H        3.72981        -7.55109        -5.85482
|121>    H        5.32498        -8.47473        -4.22935
|122>    H        7.26492        -8.88784        -2.52912
|123>    H        9.32712        -8.91113        -1.22233
|124>    H        5.36401        -6.80294        -8.45502
|125>    H        2.89905        -5.01442        -8.11114
|126>    H        3.41033        -5.90736        -9.62459
|127> *
|128>
|129>                          ****END OF INPUT****

CARTESIAN COORDINATES (ANGSTROEM)
---------------------------------
  C     -2.904510   -1.973210   -9.675700
  S     -3.284760   -3.619170   -9.452250
  C     -2.342590   -3.734060   -7.973350
  C     -1.809060   -2.466100   -7.663780
  C     -2.117880   -1.480400   -8.653730
  C     -1.651140   -0.161960   -8.490940
  C     -0.922620    0.207080   -7.387620
  O     -0.523780    1.507340   -7.387220
  C      0.105430    2.104720   -6.276210
  C     -0.659230   -0.769150   -6.368910
  O      0.051010   -0.362430   -5.274770
  C      0.367610   -1.305870   -4.278940
  C     -1.118140   -2.056690   -6.515440
  C     -2.287440   -5.005570   -7.393410
  C     -1.431720   -5.586200   -6.476220
  C     -1.584160   -6.898920   -5.981840
  C     -0.600890   -7.307820   -5.119700
  C      0.390030   -6.344110   -4.896290
  S      0.048130   -4.903590   -5.824790
  C      1.511980   -6.415370   -4.072320
  C      1.953570   -7.484690   -3.289180
  C      3.127780   -7.229620   -2.616910
  C      3.656320   -5.957570   -2.842800
  S      2.604510   -5.058000   -3.914040
  C      4.855950   -5.435570   -2.357690
  C      5.304350   -4.163460   -2.601280
  C      6.529590   -3.654210   -2.166830
  C      7.014250   -2.356740   -2.349140
  C      8.284240   -2.157100   -1.854710
  C      8.844190   -3.299630   -1.276630
  S      7.711880   -4.627710   -1.324550
  C     10.145200   -3.476280   -0.801400
  C     11.243450   -2.618620   -0.928700
  C     12.425030   -3.180390   -0.514930
  C     12.312050   -4.508470   -0.058720
  S     10.635200   -4.990160   -0.073510
  C     13.392150   -5.275890    0.353570
  C     13.532740   -6.597490    0.783420
  C     12.688770   -7.702100    0.632920
  O     12.830290   -8.829900    1.429570
  C     13.936290   -8.893670    2.210300
  C     14.915470   -7.858570    2.199230
  C     15.969760   -8.124060    3.009940
  S     15.780070   -9.645340    3.802840
  C     14.263940   -9.923420    3.031430
  O     14.750960   -6.731010    1.466300
  C     11.632490   -7.879630   -0.284840
  C     11.431560   -7.193120   -1.446070
  C     10.279590   -7.283140   -2.292420
  C     10.158580   -6.390360   -3.343250
  C      8.976810   -6.322460   -4.100060
  C      8.578970   -5.484350   -5.136710
  C      9.363590   -4.421330   -5.832980
  C      9.675550   -3.258400   -4.876800
  N     10.290240   -2.144080   -5.585870
  C     10.637850   -5.000410   -6.475950
  N     11.051050   -4.155470   -7.581850
  C      7.226150   -5.852610   -5.475160
  C      6.350180   -5.326310   -6.353390
  C      4.972580   -5.867640   -6.507550
  C      4.695030   -7.093240   -5.695510
  C      5.571300   -7.596800   -4.809140
  C      6.835040   -6.985610   -4.627560
  C      7.893720   -7.248120   -3.785830
  C      8.062250   -8.191120   -2.745430
  C      9.208120   -8.199840   -2.023650
  C      4.663540   -6.143620   -7.961200
  C      3.610210   -5.665380   -8.594490
  H     -3.277570   -1.447050  -10.531090
  H     -1.867980    0.583850   -9.238350
  H      1.083970    1.664030   -6.076400
  H     -0.510950    2.039670   -5.377270
  H      0.229350    3.151350   -6.555230
  H      0.974830   -0.766130   -3.553570
  H      0.941760   -2.145910   -4.682360
  H     -0.531290   -1.685760   -3.783970
  H     -0.961380   -2.767570   -5.726880
  H     -3.026420   -5.696880   -7.785510
  H     -2.425470   -7.506410   -6.265810
  H     -0.578140   -8.272510   -4.645440
  H      1.417680   -8.415340   -3.235670
  H      3.617660   -7.935620   -1.969800
  H      5.467810   -6.097260   -1.758450
  H      4.677160   -3.492000   -3.175490
  H      6.430700   -1.596780   -2.839700
  H      8.812710   -1.221940   -1.907020
  H     11.159980   -1.633410   -1.351050
  H     13.377920   -2.683530   -0.565150
  H     14.315300   -4.715760    0.460100
  H     16.837260   -7.523760    3.185680
  H     13.710150  -10.818250    3.222810
  H     10.971880   -8.691250   -0.014770
  H     12.198150   -6.499550   -1.765850
  H     10.969140   -5.705430   -3.545500
  H      8.761420   -4.022900   -6.656020
  H     10.377600   -3.586280   -4.106290
  H      8.737640   -2.975360   -4.370820
  H      9.632950   -1.761250   -6.258990
  H     10.527460   -1.405390   -4.932030
  H     10.412200   -5.994190   -6.877370
  H     11.413010   -5.118700   -5.702890
  H     11.240000   -3.224000   -7.221010
  H     11.903310   -4.515090   -7.998580
  H      6.603620   -4.483510   -6.982560
  H      4.274860   -5.081410   -6.176970
  H      3.729810   -7.551090   -5.854820
  H      5.324980   -8.474730   -4.229350
  H      7.264920   -8.887840   -2.529120
  H      9.327120   -8.911130   -1.222330
  H      5.364010   -6.802940   -8.455020
  H      2.899050   -5.014420   -8.111140
  H      3.410330   -5.907360   -9.624590

 Total Charge           Charge          ....    0
 Multiplicity           Mult            ....    1
 Number of Electrons    NEL             ....  522
 Basis Dimension        Dim             .... 1196

ORBITAL ENERGIES
----------------

  NO   OCC          E(Eh)            E(eV)
   0   2.0000     -88.958268     -2420.6775
   1   2.0000     -88.948662     -2420.4161
   2   2.0000     -88.946859     -2420.3671
   3   2.0000     -88.940482     -2420.1936
   4   2.0000     -88.940152     -2420.1846
   5   2.0000     -88.939887     -2420.1774
   6   2.0000     -19.255142      -523.9590
   7   2.0000     -19.250946      -523.8449
   8   2.0000     -19.248601      -523.7811
   9   2.0000     -19.235120      -523.4142
  10   2.0000     -14.381821      -391.3492
  11   2.0000     -14.347162      -390.4061
  12   2.0000     -10.339396      -281.3493
  13   2.0000     -10.332526      -281.1623
  14   2.0000     -10.329693      -281.0852
  15   2.0000     -10.326907      -281.0094
  16   2.0000     -10.323371      -280.9132
  17   2.0000     -10.322384      -280.8864
  18   2.0000     -10.321839      -280.8715
  19   2.0000     -10.308442      -280.5070
  20   2.0000     -10.308069      -280.4968
  21   2.0000     -10.305624      -280.4303
  22   2.0000     -10.305266      -280.4205
  23   2.0000     -10.305001      -280.4133
  24   2.0000     -10.301363      -280.3143
  25   2.0000     -10.300082      -280.2795
  26   2.0000     -10.298218      -280.2287
  27   2.0000     -10.296398      -280.1792
  28   2.0000     -10.293797      -280.1085
  29   2.0000     -10.292192      -280.0648
  30   2.0000     -10.290121      -280.0084
  31   2.0000     -10.287890      -279.9477
  32   2.0000     -10.282321      -279.7962
  33   2.0000     -10.281321      -279.7690
  34   2.0000     -10.281049      -279.7616
  35   2.0000     -10.280080      -279.7352
  36   2.0000     -10.279339      -279.7150
  37   2.0000     -10.278415      -279.6899
  38   2.0000     -10.277355      -279.6610
  39   2.0000     -10.277018      -279.6519
  40   2.0000     -10.276993      -279.6512
  41   2.0000     -10.276164      -279.6286
  42   2.0000     -10.275487      -279.6102
  43   2.0000     -10.275423      -279.6085
  44   2.0000     -10.273175      -279.5473
  45   2.0000     -10.272289      -279.5232
  46   2.0000     -10.271001      -279.4881
  47   2.0000     -10.270694      -279.4798
  48   2.0000     -10.270143      -279.4648
  49   2.0000     -10.267906      -279.4039
  50   2.0000     -10.267123      -279.3826
  51   2.0000     -10.266270      -279.3594
  52   2.0000     -10.264836      -279.3204
  53   2.0000     -10.261756      -279.2366
  54   2.0000     -10.261377      -279.2263
  55   2.0000     -10.260406      -279.1998
  56   2.0000     -10.259773      -279.1826
  57   2.0000     -10.258632      -279.1516
  58   2.0000     -10.258439      -279.1463
  59   2.0000     -10.256455      -279.0923
  60   2.0000     -10.255579      -279.0685
  61   2.0000     -10.255003      -279.0528
  62   2.0000     -10.254787      -279.0470
  63   2.0000     -10.251913      -278.9687
  64   2.0000     -10.251632      -278.9611
  65   2.0000     -10.250249      -278.9234
  66   2.0000     -10.249459      -278.9020
  67   2.0000     -10.249146      -278.8934
  68   2.0000      -8.053772      -219.1543
  69   2.0000      -8.044197      -218.8937
  70   2.0000      -8.042091      -218.8364
  71   2.0000      -8.035950      -218.6693
  72   2.0000      -8.035829      -218.6660
  73   2.0000      -8.034796      -218.6379
  74   2.0000      -6.022797      -163.8886
  75   2.0000      -6.018647      -163.7757
  76   2.0000      -6.016522      -163.7179
  77   2.0000      -6.013882      -163.6461
  78   2.0000      -6.011717      -163.5871
  79   2.0000      -6.009753      -163.5337
  80   2.0000      -6.007762      -163.4795
  81   2.0000      -6.005494      -163.4178
  82   2.0000      -6.005455      -163.4167
  83   2.0000      -6.005408      -163.4155
  84   2.0000      -6.004335      -163.3863
  85   2.0000      -6.003435      -163.3618
  86   2.0000      -6.001435      -163.3074
  87   2.0000      -6.001323      -163.3043
  88   2.0000      -6.000026      -163.2690
  89   2.0000      -5.997587      -163.2026
  90   2.0000      -5.997105      -163.1895
  91   2.0000      -5.996479      -163.1725
  92   2.0000      -1.178867       -32.0786
  93   2.0000      -1.157806       -31.5055
  94   2.0000      -1.140865       -31.0445
  95   2.0000      -1.132927       -30.8285
  96   2.0000      -0.994474       -27.0610
  97   2.0000      -0.988081       -26.8871
  98   2.0000      -0.986526       -26.8447
  99   2.0000      -0.971763       -26.4430
 100   2.0000      -0.970541       -26.4098
 101   2.0000      -0.968839       -26.3634
 102   2.0000      -0.963673       -26.2229
 103   2.0000      -0.960848       -26.1460
 104   2.0000      -0.931396       -25.3446
 105   2.0000      -0.927661       -25.2429
 106   2.0000      -0.922892       -25.1132
 107   2.0000      -0.908557       -24.7231
 108   2.0000      -0.901023       -24.5181
 109   2.0000      -0.892698       -24.2915
 110   2.0000      -0.883248       -24.0344
 111   2.0000      -0.868150       -23.6236
 112   2.0000      -0.863241       -23.4900
 113   2.0000      -0.856776       -23.3141
 114   2.0000      -0.848062       -23.0769
 115   2.0000      -0.841529       -22.8992
 116   2.0000      -0.839191       -22.8355
 117   2.0000      -0.837858       -22.7993
 118   2.0000      -0.833680       -22.6856
 119   2.0000      -0.825124       -22.4528
 120   2.0000      -0.823854       -22.4182
 121   2.0000      -0.820515       -22.3274
 122   2.0000      -0.818350       -22.2684
 123   2.0000      -0.813647       -22.1404
 124   2.0000      -0.808560       -22.0020
 125   2.0000      -0.807232       -21.9659
 126   2.0000      -0.794435       -21.6177
 127   2.0000      -0.786541       -21.4029
 128   2.0000      -0.779156       -21.2019
 129   2.0000      -0.769283       -20.9333
 130   2.0000      -0.761946       -20.7336
 131   2.0000      -0.750230       -20.4148
 132   2.0000      -0.742754       -20.2114
 133   2.0000      -0.736644       -20.0451
 134   2.0000      -0.722254       -19.6535
 135   2.0000      -0.710267       -19.3274
 136   2.0000      -0.708085       -19.2680
 137   2.0000      -0.698838       -19.0164
 138   2.0000      -0.694418       -18.8961
 139   2.0000      -0.684963       -18.6388
 140   2.0000      -0.673119       -18.3165
 141   2.0000      -0.669571       -18.2200
 142   2.0000      -0.665152       -18.0997
 143   2.0000      -0.661641       -18.0042
 144   2.0000      -0.660738       -17.9796
 145   2.0000      -0.654636       -17.8136
 146   2.0000      -0.652386       -17.7523
 147   2.0000      -0.646957       -17.6046
 148   2.0000      -0.637546       -17.3485
 149   2.0000      -0.635425       -17.2908
 150   2.0000      -0.633866       -17.2484
 151   2.0000      -0.627042       -17.0627
 152   2.0000      -0.620722       -16.8907
 153   2.0000      -0.616959       -16.7883
 154   2.0000      -0.612952       -16.6793
 155   2.0000      -0.605372       -16.4730
 156   2.0000      -0.602859       -16.4046
 157   2.0000      -0.599852       -16.3228
 158   2.0000      -0.594440       -16.1755
 159   2.0000      -0.591754       -16.1024
 160   2.0000      -0.588121       -16.0036
 161   2.0000      -0.584429       -15.9031
 162   2.0000      -0.579862       -15.7788
 163   2.0000      -0.575085       -15.6489
 164   2.0000      -0.566449       -15.4139
 165   2.0000      -0.564580       -15.3630
 166   2.0000      -0.561680       -15.2841
 167   2.0000      -0.558629       -15.2011
 168   2.0000      -0.552288       -15.0285
 169   2.0000      -0.550472       -14.9791
 170   2.0000      -0.545726       -14.8500
 171   2.0000      -0.544978       -14.8296
 172   2.0000      -0.536453       -14.5976
 173   2.0000      -0.534647       -14.5485
 174   2.0000      -0.532125       -14.4798
 175   2.0000      -0.529756       -14.4154
 176   2.0000      -0.527861       -14.3638
 177   2.0000      -0.522787       -14.2258
 178   2.0000      -0.521428       -14.1888
 179   2.0000      -0.518649       -14.1131
 180   2.0000      -0.516728       -14.0609
 181   2.0000      -0.512762       -13.9530
 182   2.0000      -0.510452       -13.8901
 183   2.0000      -0.508391       -13.8340
 184   2.0000      -0.507170       -13.8008
 185   2.0000      -0.503915       -13.7122
 186   2.0000      -0.503415       -13.6986
 187   2.0000      -0.496921       -13.5219
 188   2.0000      -0.495339       -13.4789
 189   2.0000      -0.493839       -13.4381
 190   2.0000      -0.491414       -13.3721
 191   2.0000      -0.490533       -13.3481
 192   2.0000      -0.489699       -13.3254
 193   2.0000      -0.487381       -13.2623
 194   2.0000      -0.486231       -13.2310
 195   2.0000      -0.483365       -13.1530
 196   2.0000      -0.482670       -13.1341
 197   2.0000      -0.479988       -13.0611
 198   2.0000      -0.478230       -13.0133
 199   2.0000      -0.477327       -12.9887
 200   2.0000      -0.475570       -12.9409
 201   2.0000      -0.467835       -12.7304
 202   2.0000      -0.464544       -12.6409
 203   2.0000      -0.462747       -12.5920
 204   2.0000      -0.461560       -12.5597
 205   2.0000      -0.461129       -12.5480
 206   2.0000      -0.457960       -12.4617
 207   2.0000      -0.456920       -12.4334
 208   2.0000      -0.454879       -12.3779
 209   2.0000      -0.453044       -12.3280
 210   2.0000      -0.449770       -12.2389
 211   2.0000      -0.447927       -12.1887
 212   2.0000      -0.444869       -12.1055
 213   2.0000      -0.443985       -12.0814
 214   2.0000      -0.437656       -11.9092
 215   2.0000      -0.435747       -11.8573
 216   2.0000      -0.431129       -11.7316
 217   2.0000      -0.428959       -11.6726
 218   2.0000      -0.426944       -11.6177
 219   2.0000      -0.424315       -11.5462
 220   2.0000      -0.423469       -11.5232
 221   2.0000      -0.421253       -11.4629
 222   2.0000      -0.419706       -11.4208
 223   2.0000      -0.416629       -11.3370
 224   2.0000      -0.415832       -11.3154
 225   2.0000      -0.413177       -11.2431
 226   2.0000      -0.411745       -11.2042
 227   2.0000      -0.405437       -11.0325
 228   2.0000      -0.404770       -11.0144
 229   2.0000      -0.400586       -10.9005
 230   2.0000      -0.398020       -10.8307
 231   2.0000      -0.394917       -10.7462
 232   2.0000      -0.394136       -10.7250
 233   2.0000      -0.390079       -10.6146
 234   2.0000      -0.384295       -10.4572
 235   2.0000      -0.383460       -10.4345
 236   2.0000      -0.382148       -10.3988
 237   2.0000      -0.374110       -10.1800
 238   2.0000      -0.365734        -9.9521
 239   2.0000      -0.362856        -9.8738
 240   2.0000      -0.358412        -9.7529
 241   2.0000      -0.350616        -9.5408
 242   2.0000      -0.341794        -9.3007
 243   2.0000      -0.334234        -9.0950
 244   2.0000      -0.333330        -9.0704
 245   2.0000      -0.328235        -8.9317
 246   2.0000      -0.322615        -8.7788
 247   2.0000      -0.318647        -8.6708
 248   2.0000      -0.311427        -8.4743
 249   2.0000      -0.302471        -8.2307
 250   2.0000      -0.301242        -8.1972
 251   2.0000      -0.296851        -8.0777
 252   2.0000      -0.287053        -7.8111
 253   2.0000      -0.276092        -7.5128
 254   2.0000      -0.275759        -7.5038
 255   2.0000      -0.271536        -7.3889
 256   2.0000      -0.265018        -7.2115
 257   2.0000      -0.242373        -6.5953
 258   2.0000      -0.219339        -5.9685
 259   2.0000      -0.210381        -5.7248
 260   2.0000      -0.174064        -4.7365
 261   0.0000      -0.100188        -2.7263
 262   0.0000      -0.059145        -1.6094
 263   0.0000      -0.046103        -1.2545
 264   0.0000      -0.019506        -0.5308
 265   0.0000       0.002566         0.0698

MULLIKEN ATOMIC CHARGES
-----------------------
   0 C :   -0.121293
   1 S :    0.136360
   2 C :   -0.164265
   3 C :    0.173253
   4 C :    0.113710
   5 C :   -0.097087
   6 C :    0.173977
   7 O :   -0.312272
   8 C :    0.207578
   9 C :    0.183505
  10 O :   -0.330997
  11 C :    0.184116
  12 C :   -0.176966
  13 C :    0.007688
  14 C :   -0.040279
  15 C :    0.030524
  16 C :    0.021712
  17 C :   -0.042263
  18 S :    0.067463
  19 C :   -0.048233
  20 C :    0.006199
  21 C :    0.029393
  22 C :   -0.025729
  23 S :    0.050261
  24 C :    0.027470
  25 C :   -0.016135
  26 C :   -0.029339
  27 C :    0.035994
  28 C :   -0.004707
  29 C :   -0.030350
  30 S :    0.107138
  31 C :   -0.062627
  32 C :    0.019270
  33 C :    0.026309
  34 C :   -0.053935
  35 S :    0.120846
  36 C :   -0.051383
  37 C :    0.138002
  38 C :    0.146318
  39 O :   -0.248762
  40 C :    0.208819
  41 C :    0.219769
  42 C :   -0.179161
  43 S :    0.093652
  44 C :   -0.174861
  45 O :   -0.268896
  46 C :   -0.007024
  47 C :   -0.027922
  48 C :    0.127033
  49 C :   -0.118988
  50 C :    0.075496
  51 C :   -0.026691
  52 C :   -0.049165
  53 C :    0.123550
  54 N :   -0.213013
  55 C :    0.158819
  56 N :   -0.227383
  57 C :    0.113455
  58 C :   -0.159481
  59 C :    0.141278
  60 C :   -0.042650
  61 C :    0.035579
  62 C :    0.023407
  63 C :    0.011636
  64 C :   -0.005034
  65 C :   -0.007758
  66 C :   -0.058222
  67 C :   -0.016675
  68 H :    0.017594
  69 H :   -0.032234
  70 H :    0.017111
  71 H :    0.015918
  72 H :    0.023820
  73 H :    0.032436
  74 H :    0.024563
  75 H :    0.030520
  76 H :   -0.036390
  77 H :   -0.012123
  78 H :   -0.014412
  79 H :   -0.018479
  80 H :   -0.018791
  81 H :   -0.016542
  82 H :   -0.006258
  83 H :   -0.017474
  84 H :   -0.020577
  85 H :   -0.022082
  86 H :   -0.029139
  87 H :   -0.019559
  88 H :    0.001844
  89 H :    0.017354
  90 H :    0.018192
  91 H :   -0.009182
  92 H :    0.005631
  93 H :   -0.040166
  94 H :   -0.039063
  95 H :   -0.004949
  96 H :    0.003317
  97 H :    0.097296
  98 H :    0.089573
  99 H :   -0.002690
 100 H :   -0.024905
 101 H :    0.077203
 102 H :    0.079490
 103 H :   -0.008607
 104 H :    0.029886
 105 H :   -0.007753
 106 H :   -0.046891
 107 H :   -0.047327
 108 H :   -0.034191
 109 H :    0.009156
 110 H :    0.016771
 111 H :    0.022077
Sum of atomic charges:   -0.0000000

LOEWDIN ATOMIC CHARGES
----------------------
   0 C :   -0.191987
   1 S :    0.464989
   2 C :   -0.187104
   3 C :   -0.045167
   4 C :   -0.053451
   5 C :   -0.044991
   6 C :    0.043574
   7 O :   -0.106354
   8 C :    0.075555
   9 C :    0.038932
  10 O :   -0.099435
  11 C :    0.076944
  12 C :   -0.081465
  13 C :   -0.066622
  14 C :   -0.168262
  15 C :   -0.031592
  16 C :   -0.048581
  17 C :   -0.180354
  18 S :    0.396913
  19 C :   -0.188386
  20 C :   -0.042018
  21 C :   -0.041150
  22 C :   -0.143854
  23 S :    0.383252
  24 C :   -0.057717
  25 C :   -0.056457
  26 C :   -0.155952
  27 C :   -0.037509
  28 C :   -0.049312
  29 C :   -0.169623
  30 S :    0.415738
  31 C :   -0.191905
  32 C :   -0.061510
  33 C :   -0.038771
  34 C :   -0.168967
  35 S :    0.465279
  36 C :   -0.073354
  37 C :    0.009911
  38 C :    0.024207
  39 O :   -0.055147
  40 C :   -0.011679
  41 C :   -0.008744
  42 C :   -0.219787
  43 S :    0.421582
  44 C :   -0.217141
  45 O :   -0.071177
  46 C :   -0.069402
  47 C :   -0.019083
  48 C :   -0.034232
  49 C :   -0.013883
  50 C :   -0.022046
  51 C :   -0.025336
  52 C :   -0.039828
  53 C :    0.022453
  54 N :   -0.105165
  55 C :    0.032089
  56 N :   -0.132911
  57 C :   -0.018005
  58 C :    0.063699
  59 C :   -0.035267
  60 C :   -0.023640
  61 C :   -0.018486
  62 C :   -0.033535
  63 C :   -0.036434
  64 C :   -0.014747
  65 C :   -0.026131
  66 C :   -0.008635
  67 C :   -0.053014
  68 H :    0.023782
  69 H :    0.033784
  70 H :    0.011914
  71 H :    0.012552
  72 H :    0.020932
  73 H :    0.027597
  74 H :    0.011285
  75 H :    0.019038
  76 H :    0.009521
  77 H :    0.034212
  78 H :    0.032138
  79 H :    0.030940
  80 H :    0.030241
  81 H :    0.031334
  82 H :    0.029518
  83 H :    0.023557
  84 H :    0.029846
  85 H :    0.027613
  86 H :    0.025599
  87 H :    0.030476
  88 H :    0.042427
  89 H :    0.025681
  90 H :    0.026156
  91 H :    0.030521
  92 H :    0.029351
  93 H :    0.019694
  94 H :    0.019796
  95 H :    0.016850
  96 H :    0.005423
  97 H :    0.054186
  98 H :    0.053708
  99 H :    0.017073
 100 H :   -0.002265
 101 H :    0.033910
 102 H :    0.048668
 103 H :    0.029290
 104 H :    0.045194
 105 H :    0.024876
 106 H :    0.023927
 107 H :    0.023435
 108 H :    0.024040
 109 H :    0.027355
 110 H :    0.019991
 111 H :    0.025021

  Mayer bond orders larger than 0.100000
B(  0-C ,  1-S ) :   1.1956 B(  0-C ,  4-C ) :   1.3993 B(  0-C , 68-H ) :   0.9698
B(  1-S ,  2-C ) :   1.1389 B(  2-C ,  3-C ) :   1.3041 B(  2-C , 13-C ) :   1.2154
B(  3-C ,  4-C ) :   1.2090 B(  3-C , 12-C ) :   1.1814 B(  4-C ,  5-C ) :   1.1359
B(  5-C ,  6-C ) :   1.5375 B(  5-C , 69-H ) :   1.0132 B(  6-C ,  7-O ) :   1.1645
B(  6-C ,  9-C ) :   1.1623 B(  7-O ,  8-C ) :   0.9444 B(  8-C , 70-H ) :   0.9746
B(  8-C , 71-H ) :   0.9745 B(  8-C , 72-H ) :   0.9774 B(  9-C , 10-O ) :   1.1269
B(  9-C , 12-C ) :   1.4543 B( 10-O , 11-C ) :   0.9539 B( 11-C , 73-H ) :   0.9761
B( 11-C , 74-H ) :   0.9652 B( 11-C , 75-H ) :   0.9676 B( 12-C , 76-H ) :   0.9693
B( 13-C , 14-C ) :   1.5540 B( 13-C , 77-H ) :   0.9378 B( 14-C , 15-C ) :   1.1856
B( 14-C , 18-S ) :   1.0221 B( 15-C , 16-C ) :   1.5301 B( 15-C , 78-H ) :   0.9971
B( 16-C , 17-C ) :   1.2411 B( 16-C , 79-H ) :   0.9934 B( 17-C , 18-S ) :   1.0545
B( 17-C , 19-C ) :   1.4066 B( 19-C , 20-C ) :   1.2677 B( 19-C , 23-S ) :   1.0490
B( 20-C , 21-C ) :   1.4792 B( 20-C , 80-H ) :   0.9964 B( 21-C , 22-C ) :   1.2347
B( 21-C , 81-H ) :   1.0003 B( 22-C , 23-S ) :   1.0497 B( 22-C , 24-C ) :   1.4378
B( 24-C , 25-C ) :   1.3008 B( 24-C , 82-H ) :   0.9677 B( 25-C , 26-C ) :   1.4263
B( 25-C , 83-H ) :   0.9720 B( 26-C , 27-C ) :   1.2428 B( 26-C , 30-S ) :   1.0639
B( 27-C , 28-C ) :   1.4623 B( 27-C , 84-H ) :   1.0014 B( 28-C , 29-C ) :   1.2695
B( 28-C , 85-H ) :   0.9996 B( 29-C , 30-S ) :   1.0833 B( 29-C , 31-C ) :   1.3820
B( 31-C , 32-C ) :   1.2462 B( 31-C , 35-S ) :   1.0558 B( 32-C , 33-C ) :   1.5095
B( 32-C , 86-H ) :   0.9926 B( 33-C , 34-C ) :   1.1973 B( 33-C , 87-H ) :   1.0012
B( 34-C , 35-S ) :   1.0818 B( 34-C , 36-C ) :   1.4519 B( 36-C , 37-C ) :   1.2838
B( 36-C , 88-H ) :   0.9411 B( 37-C , 38-C ) :   1.3600 B( 37-C , 45-O ) :   1.0063
B( 38-C , 39-O ) :   1.0474 B( 38-C , 46-C ) :   1.2328 B( 39-O , 40-C ) :   1.0699
B( 40-C , 41-C ) :   1.1943 B( 40-C , 44-C ) :   1.5693 B( 41-C , 42-C ) :   1.5709
B( 41-C , 45-O ) :   1.0792 B( 42-C , 43-S ) :   1.1322 B( 42-C , 89-H ) :   0.9713
B( 43-S , 44-C ) :   1.1371 B( 44-C , 90-H ) :   0.9717 B( 46-C , 47-C ) :   1.5421
B( 46-C , 91-H ) :   0.9437 B( 47-C , 48-C ) :   1.1075 B( 47-C , 92-H ) :   0.9797
B( 48-C , 49-C ) :   1.4676 B( 48-C , 65-C ) :   1.1250 B( 49-C , 50-C ) :   1.1289
B( 49-C , 93-H ) :   0.9981 B( 50-C , 51-C ) :   1.4527 B( 50-C , 63-C ) :   1.1177
B( 51-C , 52-C ) :   1.0268 B( 51-C , 57-C ) :   1.1176 B( 52-C , 53-C ) :   1.0478
B( 52-C , 55-C ) :   1.0297 B( 52-C , 94-H ) :   0.8712 B( 53-C , 54-N ) :   1.0770
B( 53-C , 95-H ) :   0.9321 B( 53-C , 96-H ) :   0.9441 B( 54-N , 97-H ) :   0.9616
B( 54-N , 98-H ) :   0.9680 B( 54-N ,101-H ) :   0.1003 B( 55-C , 56-N ) :   1.1040
B( 55-C , 99-H ) :   0.9462 B( 55-C ,100-H ) :   0.9267 B( 56-N ,101-H ) :   0.9438
B( 56-N ,102-H ) :   0.9673 B( 57-C , 58-C ) :   1.6327 B( 57-C , 62-C ) :   1.0511
B( 58-C , 59-C ) :   0.9557 B( 58-C ,103-H ) :   0.9809 B( 59-C , 60-C ) :   0.9943
B( 59-C , 66-C ) :   0.9712 B( 59-C ,104-H ) :   0.8435 B( 60-C , 61-C ) :   1.6949
B( 60-C ,105-H ) :   0.9736 B( 61-C , 62-C ) :   1.1286 B( 61-C ,106-H ) :   0.9865
B( 62-C , 63-C ) :   1.4422 B( 63-C , 64-C ) :   1.1339 B( 64-C , 65-C ) :   1.6166
B( 64-C ,107-H ) :   0.9895 B( 65-C ,108-H ) :   0.9819 B( 66-C , 67-C ) :   2.0081
B( 66-C ,109-H ) :   0.9713 B( 67-C ,110-H ) :   0.9545 B( 67-C ,111-H ) :   0.9542

-----------------------------------------------------------------------------
         ABSORPTION SPECTRUM VIA TRANSITION ELECTRIC DIPOLE MOMENTS
-----------------------------------------------------------------------------
State   Energy  Wavelength   fosc         T2         TX        TY        TZ
        (cm-1)    (nm)                  (au**2)     (au)      (au)      (au)
-----------------------------------------------------------------------------
   0    3534.8   2829.0   0.258335086  24.06000   4.53154  -0.83394   1.68217
   1    8680.6   1152.0   0.018372676   0.69678   0.44987   0.23415   0.66301
   2   10609.0    942.6   0.287324944   8.91605   2.06639  -0.22114   2.14411
   3   12274.7    814.7   0.166392250   4.46269   1.49502   0.02119   1.49237
   4   14322.7    698.2   0.162147811   3.72702   1.25884   0.05438   1.46267
   5   15636.4    639.5   0.064109526   1.34977  -0.95106  -0.42320  -0.51590
   6   17492.6    571.7   0.063979137   1.20409   0.15395   0.74685  -0.78905
   7   19551.2    511.5   0.009965526   0.16780   0.23475  -0.22886  -0.24560
   8   20172.8    495.7   0.075578310   1.23341   0.21600   1.08306  -0.11723
   9   21044.6    475.2   0.401760220   6.28496   1.95737   1.47380   0.53062
  10   22932.7    436.1   0.264823124   3.80169  -0.27592  -1.92230   0.17418
  11   23684.9    422.2   0.089650266   1.24611   0.62595  -0.23510   0.89388
  12   24718.9    404.5   0.089304677   1.18938   0.41284   1.00646  -0.07730
  13   24905.5    401.5   0.004583595   0.06059   0.21899   0.04532  -0.10285
  14   25128.6    398.0   0.129138262   1.69185   0.06175   1.29563  -0.09686
  15   25247.9    396.1   0.176665939   2.30358   0.94746   0.89620   0.77636
  16   25971.2    385.0   0.149605286   1.89640  -0.73255   0.51203  -1.04766
  17   26457.3    378.0   0.059911743   0.74549  -0.26159  -0.80822   0.15440
  18   26847.9    372.5   0.013757301   0.16869  -0.25946  -0.27400  -0.16218
  19   27690.6    361.1   0.387589895   4.60803  -1.49137   1.12087  -1.06183
  20   28680.7    348.7   0.005108214   0.05863  -0.18353   0.14738  -0.05684
  21   29083.2    343.8   0.268194189   3.03587  -1.09895   0.97766  -0.93400
  22   29339.7    340.8   0.003214663   0.03607   0.02642   0.17745  -0.06232
  23   29346.5    340.8   0.015627943   0.17532  -0.16749   0.25053  -0.29068
  24   29991.8    333.4   0.008154045   0.08950   0.24360  -0.03148  -0.17080
  25   30407.6    328.9   0.015380230   0.16652  -0.31766   0.25172  -0.04737
  26   30511.5    327.7   0.049061509   0.52936   0.37263  -0.40714   0.47408
  27   30811.7    324.6   0.020869586   0.22298  -0.45489  -0.04295  -0.11922
  28   30930.3    323.3   0.019413886   0.20663  -0.27342  -0.36151  -0.03451
  29   31065.6    321.9   0.017074429   0.18094  -0.29783  -0.16195  -0.25693
  30   31447.9    318.0   0.016241824   0.17003  -0.00726  -0.32575   0.25271
  31   31784.6    314.6   0.043941611   0.45513   0.45720  -0.46718   0.16685
  32   32378.3    308.8   0.065225070   0.66319   0.58208   0.32542   0.46741
  33   32426.2    308.4   0.107813815   1.09460  -0.67053   0.58082  -0.55465
  34   32624.5    306.5   0.035185482   0.35505  -0.22432   0.23678  -0.49867
  35   33239.8    300.8   0.457376609   4.52993  -1.12328   1.21468  -1.33892
  36   33767.2    296.1   0.032036765   0.31234  -0.09397  -0.49291  -0.24606
  37   34125.4    293.0   0.099402676   0.95895   0.63933  -0.58401   0.45731
  38   34539.2    289.5   0.082107317   0.78261  -0.51617   0.28283  -0.66044
  39   34640.3    288.7   0.007300009   0.06938   0.01496   0.24555  -0.09413
  40   34842.8    287.0   0.023707871   0.22400  -0.24955  -0.34944  -0.19904
  41   34882.3    286.7   0.313340625   2.95724  -1.34856  -0.28203  -1.02912
  42   35071.1    285.1   0.021979473   0.20632  -0.26183  -0.26077  -0.26413
  43   35252.1    283.7   0.072467165   0.67676   0.63954   0.02263   0.51695
  44   35536.8    281.4   0.052731617   0.48850   0.35465  -0.31077   0.51590
  45   35863.8    278.8   0.007485729   0.06872   0.11411  -0.18041   0.15214
  46   36080.8    277.2   0.010393188   0.09483  -0.06879   0.01342   0.29986
  47   36323.1    275.3   0.017451775   0.15817  -0.10421  -0.38377   0.00569
  48   36509.5    273.9   0.014155736   0.12764  -0.16866   0.27858  -0.14694
  49   36895.9    271.0   0.054918261   0.49002  -0.54636   0.03276  -0.43639
  50   37154.9    269.1   0.003523298   0.03122  -0.12192   0.12731  -0.01208
  51   37256.3    268.4   0.048702091   0.43035  -0.46291  -0.21930  -0.40985
  52   37367.0    267.6   0.034482550   0.30380   0.42236   0.07691   0.34568
  53   37443.7    267.1   0.055765104   0.49030  -0.58842   0.03583  -0.37786
  54   37667.0    265.5   0.070370250   0.61504   0.60952  -0.29901   0.39258
  55   37972.4    263.3   0.044312853   0.38418  -0.41166   0.02236  -0.46284
  56   38044.6    262.8   0.013420285   0.11613   0.14531   0.29782   0.07949
  57   38211.2    261.7   0.145774237   1.25593   0.89638   0.19346   0.64421
  58   38955.0    256.7   0.032353198   0.27342   0.22503  -0.31315   0.35315
  59   39382.4    253.9   0.030607061   0.25586  -0.26386  -0.02003  -0.43108
  60   39539.0    252.9   0.018428993   0.15344  -0.05673   0.32622  -0.20931
  61   39645.2    252.2   0.021435842   0.17800  -0.03279   0.21825  -0.35957
  62   39731.2    251.7   0.000175925   0.00146   0.00653   0.00435  -0.03736
  63   39790.2    251.3   0.004344935   0.03595  -0.16366   0.00447  -0.09562
  64   39939.3    250.4   0.104021785   0.85743   0.65921  -0.14867   0.63307
  65   40223.1    248.6   0.017698229   0.14485   0.14648  -0.30080   0.18144

FINAL SINGLE POINT ENERGY     -4955.736881318386

DIPOLE MOMENT
-------------
                                X             Y             Z
Electronic contribution:      1.36086     -23.89433      35.36669
Nuclear contribution   :     -3.43534      25.01373     -35.83011
                        -----------------------------------------
Total Dipole Moment    :     -2.07448       1.11940      -0.46343
                        -----------------------------------------
Magnitude (a.u.)       :      2.40235
Magnitude (Debye)      :      6.10630

Rotational constants in cm-1:     0.002197     0.000356     0.000342
Rotational constants in MHz :    65.852254    10.658737    10.242931

                             ****ORCA TERMINATED NORMALLY****
TOTAL RUN TIME: 0 days 0 hours 15 minutes 32 seconds 336 msec
