                         Program Version 4.2.0 -  RELEASE  -
|  1> # ORCA input file
|  2> # SCF done       -165.064401469803          0.000954814112
|  3> ! CAM-B3LYP def2-SVP def2/J RIJCOSX Grid4 TightSCF
|  4> %maxcore 5000
|  5> %tddft
|  6>     Mode sTDDFT
|  7>     Ethresh 5.0
|  8>     maxcore 5000
|  9> end
| 10>
| 11> %pal
| 12>   nprocs 6
| 13>   end
| 14> * xyz 0 1
| 15>    C       11.86545        -9.64887         2.69047
| 16>    S       10.87346        -8.47424         3.43160
| 17>    C       11.29778        -9.01181         5.03830
| 18>    C       12.20209       -10.09498         4.95545
| 19>    C       12.51895       -10.44743         3.61031
| 20>    C       13.41736       -11.50305         3.36849
| 21>    C       13.98914       -12.20211         4.40347
| 22>    O       14.82577       -13.19899         4.00882
| 23>    C       15.62854       -13.92085         4.91539
| 24>    C       13.65840       -11.85208         5.75572
| 25>    O       14.23818       -12.58959         6.75067
| 26>    C       13.94011       -12.28378         8.08960
| 27>    C       12.78646       -10.81660         6.00385
| 28>    C       10.80002        -8.42484         6.19779
| 29>    C        9.93418        -7.35508         6.31400
| 30>    C        9.48396        -6.79383         7.52637
| 31>    C        8.64617        -5.72262         7.37356
| 32>    C        8.39261        -5.39113         6.03343
| 33>    S        9.24168        -6.48054         4.96284
| 34>    C        7.59519        -4.36008         5.54166
| 35>    C        6.90259        -3.38671         6.27494
| 36>    C        6.20072        -2.50766         5.48862
| 37>    C        6.30847        -2.75963         4.11313
| 38>    S        7.34178        -4.13434         3.82654
| 39>    C        5.67819        -2.03264         3.10718
| 40>    C        5.81770        -2.27791         1.74974
| 41>    C        5.15945        -1.54443         0.73093
| 42>    O        5.39083        -1.80108        -0.60589
| 43>    C        6.25339        -2.81148        -0.88756
| 44>    C        6.88743        -3.57201         0.13645
| 45>    C        7.70501        -4.53982        -0.34916
| 46>    S        7.71354        -4.53558        -2.07140
| 47>    C        6.60459        -3.21763        -2.13466
| 48>    O        6.67239        -3.31603         1.45225
| 49>    C        4.23574        -0.54657         1.00311
| 50>    C        3.58230         0.23038         0.05384
| 51>    C        2.61631         1.18314         0.32544
| 52>    C        2.00208         1.49901         1.53843
| 53>    C        1.07705         2.53756         1.73246
| 54>    C        0.59427         2.64969         3.01410
| 55>    C        1.10724         1.68725         3.89263
| 56>    S        2.22464         0.64421         3.05042
| 57>    C        0.86132         1.49149         5.24823
| 58>    C        0.08672         2.26801         6.12465
| 59>    C        0.08186         1.80581         7.41261
| 60>    C        0.84426         0.63311         7.60710
| 61>    S        1.57363         0.13571         6.09722
| 62>    C        1.02913        -0.05524         8.78501
| 63>    C        1.77109        -1.24358         8.88185
| 64>    O        2.31679        -1.81286         7.78802
| 65>    C        2.95762        -2.95194         8.16198
| 66>    C        2.83332        -3.12150         9.52570
| 67>    C        2.07544        -2.03720         9.99433
| 68>    C        1.66823        -1.76748        11.39021
| 69>    F        2.16026        -0.60198        11.86711
| 70>    F        0.32933        -1.67250        11.54030
| 71>    F        2.07547        -2.72062        12.23989
| 72>    C        3.58255        -3.73814         7.13984
| 73>    C        4.29304        -4.84622         7.35013
| 74>    H       11.92417        -9.69805         1.62178
| 75>    H       13.67168       -11.78042         2.35859
| 76>    H       16.24435       -14.56651         4.28900
| 77>    H       15.03009       -14.53541         5.59079
| 78>    H       16.27383       -13.26207         5.50039
| 79>    H       14.25031       -11.26659         8.35033
| 80>    H       14.51119       -12.99635         8.68317
| 81>    H       12.87367       -12.40789         8.30415
| 82>    H       12.53828       -10.55065         7.01790
| 83>    H       11.13827        -8.85347         7.13240
| 84>    H        9.79156        -7.19139         8.47772
| 85>    H        8.21043        -5.17520         8.18964
| 86>    H        6.93264        -3.33962         7.34809
| 87>    H        5.61080        -1.69280         5.86892
| 88>    H        5.04545        -1.22560         3.43427
| 89>    H        8.29199        -5.24222         0.20430
| 90>    H        6.27815        -2.82313        -3.07366
| 91>    H        4.02819        -0.36167         2.03962
| 92>    H        3.86510         0.09506        -0.98072
| 93>    H        2.26573         1.77333        -0.51271
| 94>    H        0.78798         3.18891         0.92581
| 95>    H       -0.11820         3.39137         3.32777
| 96>    H       -0.43744         3.14817         5.79688
| 97>    H       -0.44715         2.27027         8.22555
| 98>    H        0.57825         0.32521         9.68770
| 99>    H        3.22538        -3.92221        10.11773
|100>    H        3.43705        -3.35974         6.13731
|101>    H        4.45745        -5.23886         8.33835
|102>    H        4.72575        -5.39532         6.53370
|103> *
|104>
|105>                          ****END OF INPUT****

CARTESIAN COORDINATES (ANGSTROEM)
---------------------------------
  C     11.865450   -9.648870    2.690470
  S     10.873460   -8.474240    3.431600
  C     11.297780   -9.011810    5.038300
  C     12.202090  -10.094980    4.955450
  C     12.518950  -10.447430    3.610310
  C     13.417360  -11.503050    3.368490
  C     13.989140  -12.202110    4.403470
  O     14.825770  -13.198990    4.008820
  C     15.628540  -13.920850    4.915390
  C     13.658400  -11.852080    5.755720
  O     14.238180  -12.589590    6.750670
  C     13.940110  -12.283780    8.089600
  C     12.786460  -10.816600    6.003850
  C     10.800020   -8.424840    6.197790
  C      9.934180   -7.355080    6.314000
  C      9.483960   -6.793830    7.526370
  C      8.646170   -5.722620    7.373560
  C      8.392610   -5.391130    6.033430
  S      9.241680   -6.480540    4.962840
  C      7.595190   -4.360080    5.541660
  C      6.902590   -3.386710    6.274940
  C      6.200720   -2.507660    5.488620
  C      6.308470   -2.759630    4.113130
  S      7.341780   -4.134340    3.826540
  C      5.678190   -2.032640    3.107180
  C      5.817700   -2.277910    1.749740
  C      5.159450   -1.544430    0.730930
  O      5.390830   -1.801080   -0.605890
  C      6.253390   -2.811480   -0.887560
  C      6.887430   -3.572010    0.136450
  C      7.705010   -4.539820   -0.349160
  S      7.713540   -4.535580   -2.071400
  C      6.604590   -3.217630   -2.134660
  O      6.672390   -3.316030    1.452250
  C      4.235740   -0.546570    1.003110
  C      3.582300    0.230380    0.053840
  C      2.616310    1.183140    0.325440
  C      2.002080    1.499010    1.538430
  C      1.077050    2.537560    1.732460
  C      0.594270    2.649690    3.014100
  C      1.107240    1.687250    3.892630
  S      2.224640    0.644210    3.050420
  C      0.861320    1.491490    5.248230
  C      0.086720    2.268010    6.124650
  C      0.081860    1.805810    7.412610
  C      0.844260    0.633110    7.607100
  S      1.573630    0.135710    6.097220
  C      1.029130   -0.055240    8.785010
  C      1.771090   -1.243580    8.881850
  O      2.316790   -1.812860    7.788020
  C      2.957620   -2.951940    8.161980
  C      2.833320   -3.121500    9.525700
  C      2.075440   -2.037200    9.994330
  C      1.668230   -1.767480   11.390210
  F      2.160260   -0.601980   11.867110
  F      0.329330   -1.672500   11.540300
  F      2.075470   -2.720620   12.239890
  C      3.582550   -3.738140    7.139840
  C      4.293040   -4.846220    7.350130
  H     11.924170   -9.698050    1.621780
  H     13.671680  -11.780420    2.358590
  H     16.244350  -14.566510    4.289000
  H     15.030090  -14.535410    5.590790
  H     16.273830  -13.262070    5.500390
  H     14.250310  -11.266590    8.350330
  H     14.511190  -12.996350    8.683170
  H     12.873670  -12.407890    8.304150
  H     12.538280  -10.550650    7.017900
  H     11.138270   -8.853470    7.132400
  H      9.791560   -7.191390    8.477720
  H      8.210430   -5.175200    8.189640
  H      6.932640   -3.339620    7.348090
  H      5.610800   -1.692800    5.868920
  H      5.045450   -1.225600    3.434270
  H      8.291990   -5.242220    0.204300
  H      6.278150   -2.823130   -3.073660
  H      4.028190   -0.361670    2.039620
  H      3.865100    0.095060   -0.980720
  H      2.265730    1.773330   -0.512710
  H      0.787980    3.188910    0.925810
  H     -0.118200    3.391370    3.327770
  H     -0.437440    3.148170    5.796880
  H     -0.447150    2.270270    8.225550
  H      0.578250    0.325210    9.687700
  H      3.225380   -3.922210   10.117730
  H      3.437050   -3.359740    6.137310
  H      4.457450   -5.238860    8.338350
  H      4.725750   -5.395320    6.533700

 Total Charge           Charge          ....    0
 Multiplicity           Mult            ....    1
 Number of Electrons    NEL             ....  462
 Basis Dimension        Dim             ....  995

ORBITAL ENERGIES
----------------

  NO   OCC          E(Eh)            E(eV)
   0   2.0000     -88.959921     -2420.7225
   1   2.0000     -88.953242     -2420.5408
   2   2.0000     -88.944817     -2420.3115
   3   2.0000     -88.942112     -2420.2379
   4   2.0000     -88.939008     -2420.1534
   5   2.0000     -88.935122     -2420.0477
   6   2.0000     -24.787541      -674.5033
   7   2.0000     -24.779743      -674.2911
   8   2.0000     -24.778312      -674.2522
   9   2.0000     -19.288942      -524.8788
  10   2.0000     -19.277111      -524.5569
  11   2.0000     -19.268151      -524.3131
  12   2.0000     -19.255164      -523.9597
  13   2.0000     -19.235175      -523.4157
  14   2.0000     -10.504132      -285.8320
  15   2.0000     -10.347594      -281.5724
  16   2.0000     -10.342226      -281.4263
  17   2.0000     -10.338450      -281.3235
  18   2.0000     -10.337076      -281.2861
  19   2.0000     -10.335796      -281.2513
  20   2.0000     -10.334769      -281.2234
  21   2.0000     -10.332964      -281.1743
  22   2.0000     -10.331838      -281.1436
  23   2.0000     -10.324152      -280.9345
  24   2.0000     -10.309206      -280.5278
  25   2.0000     -10.307547      -280.4826
  26   2.0000     -10.304493      -280.3995
  27   2.0000     -10.302872      -280.3554
  28   2.0000     -10.301481      -280.3176
  29   2.0000     -10.301278      -280.3120
  30   2.0000     -10.297725      -280.2153
  31   2.0000     -10.297399      -280.2065
  32   2.0000     -10.294453      -280.1263
  33   2.0000     -10.294275      -280.1215
  34   2.0000     -10.289657      -279.9958
  35   2.0000     -10.289643      -279.9954
  36   2.0000     -10.288333      -279.9598
  37   2.0000     -10.288212      -279.9565
  38   2.0000     -10.282330      -279.7964
  39   2.0000     -10.279089      -279.7082
  40   2.0000     -10.278636      -279.6959
  41   2.0000     -10.277801      -279.6732
  42   2.0000     -10.277392      -279.6620
  43   2.0000     -10.276739      -279.6443
  44   2.0000     -10.275973      -279.6234
  45   2.0000     -10.275867      -279.6206
  46   2.0000     -10.274723      -279.5894
  47   2.0000     -10.274478      -279.5828
  48   2.0000     -10.274275      -279.5772
  49   2.0000     -10.273481      -279.5556
  50   2.0000     -10.273292      -279.5505
  51   2.0000     -10.272907      -279.5400
  52   2.0000     -10.272211      -279.5211
  53   2.0000     -10.271200      -279.4936
  54   2.0000     -10.271136      -279.4918
  55   2.0000     -10.270482      -279.4740
  56   2.0000     -10.263763      -279.2912
  57   2.0000     -10.262487      -279.2565
  58   2.0000     -10.262171      -279.2479
  59   2.0000      -8.054698      -219.1795
  60   2.0000      -8.048957      -219.0233
  61   2.0000      -8.040761      -218.8002
  62   2.0000      -8.037673      -218.7162
  63   2.0000      -8.034434      -218.6281
  64   2.0000      -8.030932      -218.5328
  65   2.0000      -6.023774      -163.9152
  66   2.0000      -6.019449      -163.7975
  67   2.0000      -6.018454      -163.7705
  68   2.0000      -6.017623      -163.7479
  69   2.0000      -6.014286      -163.6571
  70   2.0000      -6.010705      -163.5596
  71   2.0000      -6.010460      -163.5529
  72   2.0000      -6.007274      -163.4662
  73   2.0000      -6.006303      -163.4398
  74   2.0000      -6.004171      -163.3818
  75   2.0000      -6.003187      -163.3550
  76   2.0000      -6.001905      -163.3201
  77   2.0000      -6.000728      -163.2881
  78   2.0000      -5.999871      -163.2648
  79   2.0000      -5.999079      -163.2432
  80   2.0000      -5.996422      -163.1709
  81   2.0000      -5.995635      -163.1495
  82   2.0000      -5.991976      -163.0499
  83   2.0000      -1.370639       -37.2970
  84   2.0000      -1.276382       -34.7321
  85   2.0000      -1.268110       -34.5070
  86   2.0000      -1.207959       -32.8702
  87   2.0000      -1.200156       -32.6579
  88   2.0000      -1.162955       -31.6456
  89   2.0000      -1.161714       -31.6118
  90   2.0000      -1.133883       -30.8545
  91   2.0000      -0.993395       -27.0317
  92   2.0000      -0.986370       -26.8405
  93   2.0000      -0.986011       -26.8307
  94   2.0000      -0.981735       -26.7144
  95   2.0000      -0.967474       -26.3263
  96   2.0000      -0.964408       -26.2429
  97   2.0000      -0.923974       -25.1426
  98   2.0000      -0.917065       -24.9546
  99   2.0000      -0.911890       -24.8138
 100   2.0000      -0.904757       -24.6197
 101   2.0000      -0.894344       -24.3363
 102   2.0000      -0.884668       -24.0730
 103   2.0000      -0.870464       -23.6865
 104   2.0000      -0.859504       -23.3883
 105   2.0000      -0.852150       -23.1882
 106   2.0000      -0.844277       -22.9739
 107   2.0000      -0.839088       -22.8327
 108   2.0000      -0.837617       -22.7927
 109   2.0000      -0.828498       -22.5446
 110   2.0000      -0.820139       -22.3171
 111   2.0000      -0.817949       -22.2575
 112   2.0000      -0.813900       -22.1473
 113   2.0000      -0.812007       -22.0958
 114   2.0000      -0.807796       -21.9812
 115   2.0000      -0.800624       -21.7861
 116   2.0000      -0.791145       -21.5282
 117   2.0000      -0.784015       -21.3341
 118   2.0000      -0.772434       -21.0190
 119   2.0000      -0.761776       -20.7290
 120   2.0000      -0.752133       -20.4666
 121   2.0000      -0.739641       -20.1267
 122   2.0000      -0.724405       -19.7121
 123   2.0000      -0.710489       -19.3334
 124   2.0000      -0.705532       -19.1985
 125   2.0000      -0.698701       -19.0126
 126   2.0000      -0.691908       -18.8278
 127   2.0000      -0.683991       -18.6123
 128   2.0000      -0.680243       -18.5104
 129   2.0000      -0.675872       -18.3914
 130   2.0000      -0.668705       -18.1964
 131   2.0000      -0.662526       -18.0282
 132   2.0000      -0.656787       -17.8721
 133   2.0000      -0.655094       -17.8260
 134   2.0000      -0.653162       -17.7734
 135   2.0000      -0.651725       -17.7343
 136   2.0000      -0.649507       -17.6740
 137   2.0000      -0.631202       -17.1759
 138   2.0000      -0.625626       -17.0242
 139   2.0000      -0.621095       -16.9009
 140   2.0000      -0.614064       -16.7095
 141   2.0000      -0.610039       -16.6000
 142   2.0000      -0.605548       -16.4778
 143   2.0000      -0.601426       -16.3656
 144   2.0000      -0.598531       -16.2869
 145   2.0000      -0.596545       -16.2328
 146   2.0000      -0.590718       -16.0743
 147   2.0000      -0.587810       -15.9951
 148   2.0000      -0.581407       -15.8209
 149   2.0000      -0.569255       -15.4902
 150   2.0000      -0.567926       -15.4541
 151   2.0000      -0.566697       -15.4206
 152   2.0000      -0.564666       -15.3653
 153   2.0000      -0.559224       -15.2173
 154   2.0000      -0.555554       -15.1174
 155   2.0000      -0.551158       -14.9978
 156   2.0000      -0.548645       -14.9294
 157   2.0000      -0.540594       -14.7103
 158   2.0000      -0.538133       -14.6434
 159   2.0000      -0.537023       -14.6131
 160   2.0000      -0.532156       -14.4807
 161   2.0000      -0.530415       -14.4333
 162   2.0000      -0.529925       -14.4200
 163   2.0000      -0.522672       -14.2226
 164   2.0000      -0.521480       -14.1902
 165   2.0000      -0.517741       -14.0884
 166   2.0000      -0.513585       -13.9754
 167   2.0000      -0.508226       -13.8295
 168   2.0000      -0.505195       -13.7471
 169   2.0000      -0.502877       -13.6840
 170   2.0000      -0.500690       -13.6245
 171   2.0000      -0.497229       -13.5303
 172   2.0000      -0.496530       -13.5113
 173   2.0000      -0.494800       -13.4642
 174   2.0000      -0.493939       -13.4408
 175   2.0000      -0.490098       -13.3362
 176   2.0000      -0.487956       -13.2780
 177   2.0000      -0.487185       -13.2570
 178   2.0000      -0.485887       -13.2216
 179   2.0000      -0.485123       -13.2009
 180   2.0000      -0.483311       -13.1516
 181   2.0000      -0.481815       -13.1108
 182   2.0000      -0.477671       -12.9981
 183   2.0000      -0.476775       -12.9737
 184   2.0000      -0.474163       -12.9026
 185   2.0000      -0.467688       -12.7264
 186   2.0000      -0.466825       -12.7030
 187   2.0000      -0.465119       -12.6565
 188   2.0000      -0.462859       -12.5950
 189   2.0000      -0.459369       -12.5001
 190   2.0000      -0.457145       -12.4396
 191   2.0000      -0.454658       -12.3719
 192   2.0000      -0.452995       -12.3266
 193   2.0000      -0.448836       -12.2135
 194   2.0000      -0.443465       -12.0673
 195   2.0000      -0.441179       -12.0051
 196   2.0000      -0.433797       -11.8042
 197   2.0000      -0.432439       -11.7673
 198   2.0000      -0.430583       -11.7167
 199   2.0000      -0.429769       -11.6946
 200   2.0000      -0.428382       -11.6569
 201   2.0000      -0.423316       -11.5190
 202   2.0000      -0.418481       -11.3874
 203   2.0000      -0.415081       -11.2949
 204   2.0000      -0.414682       -11.2841
 205   2.0000      -0.411196       -11.1892
 206   2.0000      -0.405886       -11.0447
 207   2.0000      -0.400640       -10.9020
 208   2.0000      -0.396027       -10.7764
 209   2.0000      -0.390206       -10.6181
 210   2.0000      -0.385140       -10.4802
 211   2.0000      -0.382728       -10.4146
 212   2.0000      -0.379557       -10.3283
 213   2.0000      -0.372919       -10.1476
 214   2.0000      -0.367000        -9.9866
 215   2.0000      -0.366561        -9.9746
 216   2.0000      -0.356500        -9.7008
 217   2.0000      -0.341119        -9.2823
 218   2.0000      -0.328502        -8.9390
 219   2.0000      -0.327189        -8.9033
 220   2.0000      -0.318615        -8.6700
 221   2.0000      -0.316387        -8.6093
 222   2.0000      -0.311847        -8.4858
 223   2.0000      -0.302608        -8.2344
 224   2.0000      -0.296456        -8.0670
 225   2.0000      -0.280528        -7.6336
 226   2.0000      -0.272351        -7.4111
 227   2.0000      -0.265466        -7.2237
 228   2.0000      -0.240135        -6.5344
 229   2.0000      -0.212650        -5.7865
 230   2.0000      -0.175745        -4.7823
 231   0.0000      -0.098101        -2.6695
 232   0.0000      -0.061627        -1.6770
 233   0.0000      -0.026167        -0.7120
 234   0.0000      -0.002562        -0.0697
 235   0.0000       0.015007         0.4084

MULLIKEN ATOMIC CHARGES
-----------------------
   0 C :   -0.117875
   1 S :    0.132672
   2 C :   -0.122073
   3 C :    0.158521
   4 C :    0.118422
   5 C :   -0.095246
   6 C :    0.174485
   7 O :   -0.313114
   8 C :    0.207021
   9 C :    0.189324
  10 O :   -0.328096
  11 C :    0.183575
  12 C :   -0.164477
  13 C :   -0.012391
  14 C :   -0.047728
  15 C :    0.029426
  16 C :    0.016927
  17 C :   -0.032237
  18 S :    0.071725
  19 C :   -0.060919
  20 C :    0.041855
  21 C :    0.005347
  22 C :   -0.011943
  23 S :    0.115877
  24 C :   -0.088881
  25 C :    0.188845
  26 C :    0.179113
  27 O :   -0.247991
  28 C :    0.222385
  29 C :    0.222547
  30 C :   -0.170166
  31 S :    0.108146
  32 C :   -0.176576
  33 O :   -0.269295
  34 C :   -0.080359
  35 C :    0.025533
  36 C :    0.014219
  37 C :   -0.035170
  38 C :    0.034991
  39 C :    0.011151
  40 C :   -0.024058
  41 S :    0.036910
  42 C :   -0.048228
  43 C :    0.028926
  44 C :    0.018713
  45 C :   -0.005906
  46 S :    0.093459
  47 C :   -0.061437
  48 C :    0.130532
  49 O :   -0.217870
  50 C :    0.175596
  51 C :   -0.076880
  52 C :   -0.113315
  53 C :    0.517823
  54 F :   -0.175166
  55 F :   -0.174128
  56 F :   -0.159672
  57 C :   -0.011047
  58 C :   -0.013488
  59 H :    0.016611
  60 H :   -0.031200
  61 H :    0.024473
  62 H :    0.018991
  63 H :    0.013220
  64 H :    0.025536
  65 H :    0.037054
  66 H :    0.026057
  67 H :   -0.049610
  68 H :   -0.021425
  69 H :   -0.017224
  70 H :   -0.017791
  71 H :   -0.012219
  72 H :   -0.005925
  73 H :   -0.009884
  74 H :    0.028014
  75 H :    0.023005
  76 H :    0.009006
  77 H :   -0.011199
  78 H :   -0.016398
  79 H :   -0.016394
  80 H :   -0.019122
  81 H :   -0.017298
  82 H :   -0.015486
  83 H :   -0.002809
  84 H :   -0.012598
  85 H :    0.008790
  86 H :    0.012411
  87 H :    0.035081
Sum of atomic charges:   -0.0000000

LOEWDIN ATOMIC CHARGES
----------------------
   0 C :   -0.196392
   1 S :    0.467140
   2 C :   -0.192673
   3 C :   -0.040493
   4 C :   -0.054587
   5 C :   -0.042848
   6 C :    0.042602
   7 O :   -0.106638
   8 C :    0.075374
   9 C :    0.037954
  10 O :   -0.098150
  11 C :    0.076717
  12 C :   -0.075519
  13 C :   -0.057099
  14 C :   -0.169966
  15 C :   -0.030276
  16 C :   -0.049789
  17 C :   -0.169871
  18 S :    0.375545
  19 C :   -0.197276
  20 C :   -0.022660
  21 C :   -0.043950
  22 C :   -0.138910
  23 S :    0.404227
  24 C :   -0.082627
  25 C :    0.038796
  26 C :    0.020882
  27 O :   -0.049843
  28 C :   -0.007322
  29 C :   -0.009980
  30 C :   -0.209137
  31 S :    0.436846
  32 C :   -0.213876
  33 O :   -0.050786
  34 C :   -0.044890
  35 C :   -0.045820
  36 C :   -0.044131
  37 C :   -0.163568
  38 C :   -0.029904
  39 C :   -0.056510
  40 C :   -0.169654
  41 S :    0.397281
  42 C :   -0.195933
  43 C :   -0.029666
  44 C :   -0.048888
  45 C :   -0.133077
  46 S :    0.387638
  47 C :   -0.097308
  48 C :    0.049375
  49 O :    0.010205
  50 C :    0.021097
  51 C :   -0.038540
  52 C :   -0.137444
  53 C :    0.171251
  54 F :   -0.075849
  55 F :   -0.073278
  56 F :   -0.059033
  57 C :   -0.034377
  58 C :   -0.037325
  59 H :    0.023430
  60 H :    0.033881
  61 H :    0.021216
  62 H :    0.012112
  63 H :    0.011836
  64 H :    0.016381
  65 H :    0.029480
  66 H :    0.016741
  67 H :    0.025345
  68 H :    0.036486
  69 H :    0.031181
  70 H :    0.030679
  71 H :    0.030278
  72 H :    0.033332
  73 H :    0.039702
  74 H :    0.030512
  75 H :    0.028452
  76 H :    0.010650
  77 H :    0.030683
  78 H :    0.034951
  79 H :    0.032001
  80 H :    0.029613
  81 H :    0.030712
  82 H :    0.031679
  83 H :    0.039489
  84 H :    0.033500
  85 H :    0.038157
  86 H :    0.019511
  87 H :    0.030940

  Mayer bond orders larger than 0.100000
B(  0-C ,  1-S ) :   1.1908 B(  0-C ,  4-C ) :   1.3944 B(  0-C , 59-H ) :   0.9684
B(  1-S ,  2-C ) :   1.1202 B(  2-C ,  3-C ) :   1.2836 B(  2-C , 13-C ) :   1.2560
B(  3-C ,  4-C ) :   1.2226 B(  3-C , 12-C ) :   1.1871 B(  4-C ,  5-C ) :   1.1358
B(  5-C ,  6-C ) :   1.5348 B(  5-C , 60-H ) :   1.0136 B(  6-C ,  7-O ) :   1.1640
B(  6-C ,  9-C ) :   1.1662 B(  7-O ,  8-C ) :   0.9452 B(  8-C , 61-H ) :   0.9775
B(  8-C , 62-H ) :   0.9744 B(  8-C , 63-H ) :   0.9746 B(  9-C , 10-O ) :   1.1221
B(  9-C , 12-C ) :   1.4403 B( 10-O , 11-C ) :   0.9648 B( 11-C , 64-H ) :   0.9675
B( 11-C , 65-H ) :   0.9763 B( 11-C , 66-H ) :   0.9673 B( 12-C , 67-H ) :   0.9890
B( 13-C , 14-C ) :   1.5138 B( 13-C , 68-H ) :   0.9589 B( 14-C , 15-C ) :   1.1831
B( 14-C , 18-S ) :   1.0340 B( 15-C , 16-C ) :   1.5321 B( 15-C , 69-H ) :   1.0000
B( 16-C , 17-C ) :   1.2351 B( 16-C , 70-H ) :   0.9946 B( 17-C , 18-S ) :   1.0617
B( 17-C , 19-C ) :   1.4221 B( 19-C , 20-C ) :   1.2558 B( 19-C , 23-S ) :   1.0300
B( 20-C , 21-C ) :   1.5002 B( 20-C , 71-H ) :   0.9881 B( 21-C , 22-C ) :   1.2256
B( 21-C , 72-H ) :   0.9994 B( 22-C , 23-S ) :   1.0665 B( 22-C , 24-C ) :   1.4277
B( 24-C , 25-C ) :   1.3381 B( 24-C , 73-H ) :   0.9542 B( 25-C , 26-C ) :   1.2372
B( 25-C , 33-O ) :   1.0487 B( 26-C , 27-O ) :   1.0637 B( 26-C , 34-C ) :   1.4010
B( 27-O , 28-C ) :   1.0639 B( 28-C , 29-C ) :   1.2106 B( 28-C , 32-C ) :   1.5638
B( 29-C , 30-C ) :   1.5662 B( 29-C , 33-O ) :   1.0321 B( 30-C , 31-S ) :   1.1445
B( 30-C , 74-H ) :   0.9723 B( 31-S , 32-C ) :   1.1417 B( 32-C , 75-H ) :   0.9726
B( 34-C , 35-C ) :   1.4086 B( 34-C , 76-H ) :   0.9265 B( 35-C , 36-C ) :   1.3244
B( 35-C , 77-H ) :   0.9763 B( 36-C , 37-C ) :   1.4185 B( 36-C , 78-H ) :   0.9641
B( 37-C , 38-C ) :   1.2414 B( 37-C , 41-S ) :   1.0439 B( 38-C , 39-C ) :   1.4910
B( 38-C , 79-H ) :   0.9984 B( 39-C , 40-C ) :   1.2602 B( 39-C , 80-H ) :   0.9947
B( 40-C , 41-S ) :   1.0691 B( 40-C , 42-C ) :   1.4102 B( 42-C , 43-C ) :   1.2463
B( 42-C , 46-S ) :   1.0305 B( 43-C , 44-C ) :   1.5286 B( 43-C , 81-H ) :   0.9964
B( 44-C , 45-C ) :   1.1790 B( 44-C , 82-H ) :   1.0008 B( 45-C , 46-S ) :   1.0659
B( 45-C , 47-C ) :   1.5029 B( 47-C , 48-C ) :   1.2369 B( 47-C , 83-H ) :   0.9536
B( 48-C , 49-O ) :   1.1478 B( 48-C , 52-C ) :   1.3758 B( 49-O , 50-C ) :   1.0869
B( 50-C , 51-C ) :   1.4608 B( 50-C , 57-C ) :   1.1158 B( 51-C , 52-C ) :   1.2788
B( 51-C , 84-H ) :   1.0143 B( 52-C , 53-C ) :   0.9608 B( 53-C , 54-F ) :   1.1620
B( 53-C , 55-F ) :   1.1545 B( 53-C , 56-F ) :   1.1768 B( 57-C , 58-C ) :   1.9210
B( 57-C , 85-H ) :   0.9476 B( 58-C , 86-H ) :   0.9561 B( 58-C , 87-H ) :   0.9378

-----------------------------------------------------------------------------
         ABSORPTION SPECTRUM VIA TRANSITION ELECTRIC DIPOLE MOMENTS
-----------------------------------------------------------------------------
State   Energy  Wavelength   fosc         T2         TX        TY        TZ
        (cm-1)    (nm)                  (au**2)     (au)      (au)      (au)
-----------------------------------------------------------------------------
   0    4992.7   2002.9   0.458402421  30.22622  -4.14658   3.51509   0.82234
   1    9918.8   1008.2   0.001802963   0.05984  -0.06477   0.08816   0.21880
   2   14163.3    706.1   1.180212006  27.43293  -1.75507   3.61146  -3.36304
   3   16797.1    595.3   0.027627092   0.54147  -0.09510  -0.10011   0.72278
   4   19847.9    503.8   0.015729638   0.26090  -0.36293   0.27874   0.22692
   5   21646.8    462.0   0.666616105  10.13813   0.42652  -1.04101   2.97868
   6   22113.5    452.2   0.000668196   0.00995  -0.02799   0.07564   0.05868
   7   23877.4    418.8   0.177178041   2.44286   0.52523  -0.83391   1.21309
   8   25215.4    396.6   0.002339729   0.03055   0.15559  -0.04873   0.06297
   9   25812.1    387.4   0.267213108   3.40808   0.85537  -1.11972  -1.19275
  10   26610.7    375.8   0.039028945   0.48284   0.29126  -0.30789  -0.55064
  11   26817.4    372.9   0.119517365   1.46720  -0.61766   0.81840   0.64492
  12   27652.5    361.6   0.569059062   6.77484   1.20773  -1.36476  -1.85840
  13   28656.4    349.0   0.085849438   0.98626  -0.55894   0.72825   0.37881
  14   29263.5    341.7   0.102279276   1.15063   0.50281  -0.74054   0.59111
  15   30063.7    332.6   0.005876274   0.06435   0.03243  -0.12244   0.21978
  16   30253.4    330.5   0.018197184   0.19802  -0.22422   0.38332  -0.02845
  17   30513.9    327.7   0.003626552   0.03913   0.12553  -0.13528  -0.07118
  18   30989.2    322.7   0.000716931   0.00762  -0.07733   0.03327   0.02302
  19   31193.9    320.6   0.055199381   0.58256   0.19718  -0.26717  -0.68724
  20   31641.0    316.0   0.047348693   0.49264  -0.29562   0.25795  -0.58199
  21   32586.5    306.9   0.128297189   1.29615   0.62751  -0.70927  -0.63192
  22   32642.8    306.3   0.090997049   0.91773  -0.54534   0.75868   0.21152
  23   32893.4    304.0   0.089972181   0.90048  -0.56485   0.69197   0.32031
  24   33454.9    298.9   0.007048895   0.06936   0.09574   0.01667   0.24479
  25   33674.8    297.0   0.037819703   0.36973  -0.00245  -0.16257   0.58592
  26   34067.9    293.5   0.088696494   0.85711  -0.27492   0.40112   0.78780
  27   34701.5    288.2   0.057670514   0.54712  -0.17118   0.17988   0.69675
  28   34851.7    286.9   0.018868406   0.17823   0.17412  -0.19115  -0.33373
  29   35574.1    281.1   0.002890618   0.02675  -0.08391   0.13294   0.04513
  30   36187.6    276.3   0.050245879   0.45711   0.34538  -0.41711   0.40477
  31   36984.5    270.4   0.029847399   0.26568   0.04943  -0.12823   0.49678
  32   37261.0    268.4   0.075779613   0.66954   0.51444  -0.59366   0.22904
  33   38262.8    261.4   0.001942688   0.01671   0.05320  -0.09799  -0.06543
  34   38463.3    260.0   0.027787530   0.23784  -0.11589   0.17029  -0.44205
  35   39016.8    256.3   0.004920840   0.04152  -0.03349   0.10955  -0.16851
  36   39132.1    255.5   0.000595685   0.00501  -0.05917   0.02452   0.03014
  37   39411.4    253.7   0.024522061   0.20484   0.22307  -0.29088   0.26545
  38   39791.4    251.3   0.014219940   0.11765   0.21357  -0.24237  -0.11528
  39   40044.4    249.7   0.021840451   0.17955  -0.12393   0.11061   0.38982
  40   40125.8    249.2   0.019505552   0.16003   0.19252  -0.08794  -0.33947

FINAL SINGLE POINT ENERGY     -4793.195080022839

DIPOLE MOMENT
-------------
                                X             Y             Z
Electronic contribution:    -41.12853      35.29620      11.14380
Nuclear contribution   :     42.88859     -36.50019     -11.04609
                        -----------------------------------------
Total Dipole Moment    :      1.76006      -1.20399       0.09771
                        -----------------------------------------
Magnitude (a.u.)       :      2.13470
Magnitude (Debye)      :      5.42598

Rotational constants in cm-1:     0.001425     0.000475     0.000361
Rotational constants in MHz :    42.707554    14.243249    10.811867

                             ****ORCA TERMINATED NORMALLY****
TOTAL RUN TIME: 0 days 0 hours 7 minutes 54 seconds 636 msec
