                         Program Version 4.2.0 -  RELEASE  -
|  1> # ORCA input file
|  2> # SCF done       -190.509329746338          0.000914604336
|  3> ! CAM-B3LYP def2-SVP def2/J RIJCOSX Grid4 TightSCF
|  4> %maxcore 5000
|  5> %tddft
|  6>     Mode sTDDFT
|  7>     Ethresh 5.0
|  8>     maxcore 5000
|  9> end
| 10>
| 11> %pal
| 12>   nprocs 6
| 13>   end
| 14> * xyz 0 1
| 15>    C        4.63604         6.04290        -4.37148
| 16>    C        5.03319         4.74141        -4.45637
| 17>    C        3.93254         3.85346        -4.70031
| 18>    C        2.73975         4.48827        -4.80635
| 19>    S        2.93712         6.18947        -4.59621
| 20>    C        4.40654         2.46405        -4.76453
| 21>    O        3.73358         1.47513        -4.94648
| 22>    C        5.86375         2.56048        -4.48556
| 23>    C        6.25275         3.95636        -4.44444
| 24>    C        7.54577         4.40960        -4.53962
| 25>    N        7.94060         5.76479        -4.33193
| 26>    O        7.24019         6.45147        -3.61251
| 27>    O        8.94615         6.14612        -4.89030
| 28>    N        8.63612         3.54693        -4.95502
| 29>    O        9.66384         3.61154        -4.32394
| 30>    O        8.43265         2.82054        -5.90348
| 31>    C        6.69906         1.54284        -4.08098
| 32>    C        6.54329         0.15559        -4.15419
| 33>    S        7.76023        -0.81949        -3.31273
| 34>    C        7.02884        -2.25214        -3.85884
| 35>    C        5.90320        -1.99603        -4.66925
| 36>    C        5.62975        -0.65609        -4.83796
| 37>    C        5.36051        -3.29966        -5.09703
| 38>    O        4.41283        -3.51835        -5.80879
| 39>    C        6.27314        -4.31755        -4.43634
| 40>    C        7.24305        -3.64099        -3.72122
| 41>    C        6.14230        -5.71421        -4.52507
| 42>    C        5.17576        -6.35304        -5.25424
| 43>    C        5.01665        -7.74730        -5.32505
| 44>    S        3.73499        -8.41057        -6.33087
| 45>    C        4.16573       -10.00169        -5.88081
| 46>    C        5.25543       -10.01605        -4.99080
| 47>    C        5.73526        -8.76163        -4.67966
| 48>    C        5.52551       -11.42930        -4.65442
| 49>    O        6.36302       -11.89159        -3.92162
| 50>    C        4.49211       -12.20478        -5.43798
| 51>    C        3.71196       -11.31229        -6.14866
| 52>    C        4.44064       -13.60608        -5.33395
| 53>    C        3.60925       -14.42126        -6.04842
| 54>    C        3.50365       -15.82967        -5.94156
| 55>    C        3.80585       -16.59185        -4.81392
| 56>    O        3.83680       -17.96366        -4.85166
| 57>    C        3.35348       -18.54039        -5.98684
| 58>    C        2.92354       -17.75921        -7.09613
| 59>    C        2.45357       -18.51239        -8.12237
| 60>    S        2.53240       -20.19035        -7.74511
| 61>    C        3.20402       -19.87316        -6.19198
| 62>    O        3.02302       -16.39718        -7.09187
| 63>    C        3.97949       -16.04356        -3.52321
| 64>    C        4.24130       -16.81800        -2.42617
| 65>    C        4.28620       -16.29800        -1.12383
| 66>    C        4.33402       -17.01703         0.04239
| 67>    C        4.77134       -16.36109         1.29874
| 68>    O        4.90172       -15.17801         1.49291
| 69>    C        5.04738       -17.48323         2.23383
| 70>    C        4.69378       -18.70192         1.62458
| 71>    C        4.12186       -18.41676         0.30470
| 72>    C        3.34432       -19.28673        -0.41886
| 73>    C        3.15103       -20.64131        -0.07666
| 74>    N        2.97823       -21.75581         0.13606
| 75>    C        2.54592       -18.92446        -1.52513
| 76>    N        1.82479       -18.69142        -2.38739
| 77>    C        4.88636       -19.90346         2.28295
| 78>    C        5.43382       -19.86818         3.55800
| 79>    C        5.77950       -18.67119         4.18094
| 80>    C        5.58323       -17.46170         3.50903
| 81>    F        5.91747       -16.32299         4.10633
| 82>    F        6.29856       -18.67925         5.41105
| 83>    F        5.63851       -21.01564         4.20815
| 84>    H        5.21727         6.91679        -4.15515
| 85>    H        1.77022         4.07360        -4.99653
| 86>    H        7.61676         1.84481        -3.58562
| 87>    H        4.81487        -0.25526        -5.41209
| 88>    H        8.03391        -4.09376        -3.15124
| 89>    H        6.86492        -6.29628        -3.96695
| 90>    H        4.47416        -5.75353        -5.81716
| 91>    H        6.55819        -8.57182        -4.01586
| 92>    H        2.88897       -11.55707        -6.79447
| 93>    H        5.16573       -14.03071        -4.65224
| 94>    H        3.02866       -13.99836        -6.85723
| 95>    H        2.07217       -18.17867        -9.06459
| 96>    H        3.44064       -20.67327        -5.52257
| 97>    H        3.78481       -14.99117        -3.39455
| 98>    H        4.42690       -17.87116        -2.57512
| 99>    H        4.35519       -15.22147        -1.00958
|100>    H        4.63949       -20.85817         1.84866
|101> *
|102>
|103>                          ****END OF INPUT****

CARTESIAN COORDINATES (ANGSTROEM)
---------------------------------
  C      4.636040    6.042900   -4.371480
  C      5.033190    4.741410   -4.456370
  C      3.932540    3.853460   -4.700310
  C      2.739750    4.488270   -4.806350
  S      2.937120    6.189470   -4.596210
  C      4.406540    2.464050   -4.764530
  O      3.733580    1.475130   -4.946480
  C      5.863750    2.560480   -4.485560
  C      6.252750    3.956360   -4.444440
  C      7.545770    4.409600   -4.539620
  N      7.940600    5.764790   -4.331930
  O      7.240190    6.451470   -3.612510
  O      8.946150    6.146120   -4.890300
  N      8.636120    3.546930   -4.955020
  O      9.663840    3.611540   -4.323940
  O      8.432650    2.820540   -5.903480
  C      6.699060    1.542840   -4.080980
  C      6.543290    0.155590   -4.154190
  S      7.760230   -0.819490   -3.312730
  C      7.028840   -2.252140   -3.858840
  C      5.903200   -1.996030   -4.669250
  C      5.629750   -0.656090   -4.837960
  C      5.360510   -3.299660   -5.097030
  O      4.412830   -3.518350   -5.808790
  C      6.273140   -4.317550   -4.436340
  C      7.243050   -3.640990   -3.721220
  C      6.142300   -5.714210   -4.525070
  C      5.175760   -6.353040   -5.254240
  C      5.016650   -7.747300   -5.325050
  S      3.734990   -8.410570   -6.330870
  C      4.165730  -10.001690   -5.880810
  C      5.255430  -10.016050   -4.990800
  C      5.735260   -8.761630   -4.679660
  C      5.525510  -11.429300   -4.654420
  O      6.363020  -11.891590   -3.921620
  C      4.492110  -12.204780   -5.437980
  C      3.711960  -11.312290   -6.148660
  C      4.440640  -13.606080   -5.333950
  C      3.609250  -14.421260   -6.048420
  C      3.503650  -15.829670   -5.941560
  C      3.805850  -16.591850   -4.813920
  O      3.836800  -17.963660   -4.851660
  C      3.353480  -18.540390   -5.986840
  C      2.923540  -17.759210   -7.096130
  C      2.453570  -18.512390   -8.122370
  S      2.532400  -20.190350   -7.745110
  C      3.204020  -19.873160   -6.191980
  O      3.023020  -16.397180   -7.091870
  C      3.979490  -16.043560   -3.523210
  C      4.241300  -16.818000   -2.426170
  C      4.286200  -16.298000   -1.123830
  C      4.334020  -17.017030    0.042390
  C      4.771340  -16.361090    1.298740
  O      4.901720  -15.178010    1.492910
  C      5.047380  -17.483230    2.233830
  C      4.693780  -18.701920    1.624580
  C      4.121860  -18.416760    0.304700
  C      3.344320  -19.286730   -0.418860
  C      3.151030  -20.641310   -0.076660
  N      2.978230  -21.755810    0.136060
  C      2.545920  -18.924460   -1.525130
  N      1.824790  -18.691420   -2.387390
  C      4.886360  -19.903460    2.282950
  C      5.433820  -19.868180    3.558000
  C      5.779500  -18.671190    4.180940
  C      5.583230  -17.461700    3.509030
  F      5.917470  -16.322990    4.106330
  F      6.298560  -18.679250    5.411050
  F      5.638510  -21.015640    4.208150
  H      5.217270    6.916790   -4.155150
  H      1.770220    4.073600   -4.996530
  H      7.616760    1.844810   -3.585620
  H      4.814870   -0.255260   -5.412090
  H      8.033910   -4.093760   -3.151240
  H      6.864920   -6.296280   -3.966950
  H      4.474160   -5.753530   -5.817160
  H      6.558190   -8.571820   -4.015860
  H      2.888970  -11.557070   -6.794470
  H      5.165730  -14.030710   -4.652240
  H      3.028660  -13.998360   -6.857230
  H      2.072170  -18.178670   -9.064590
  H      3.440640  -20.673270   -5.522570
  H      3.784810  -14.991170   -3.394550
  H      4.426900  -17.871160   -2.575120
  H      4.355190  -15.221470   -1.009580
  H      4.639490  -20.858170    1.848660

 Total Charge           Charge          ....    0
 Multiplicity           Mult            ....    1
 Number of Electrons    NEL             ....  504
 Basis Dimension        Dim             .... 1067

ORBITAL ENERGIES
----------------

  NO   OCC          E(Eh)            E(eV)
   0   2.0000     -88.997030     -2421.7323
   1   2.0000     -88.994016     -2421.6503
   2   2.0000     -88.979386     -2421.2522
   3   2.0000     -88.965743     -2420.8809
   4   2.0000     -24.808959      -675.0861
   5   2.0000     -24.807616      -675.0496
   6   2.0000     -24.806582      -675.0214
   7   2.0000     -19.294785      -525.0378
   8   2.0000     -19.285327      -524.7804
   9   2.0000     -19.251257      -523.8533
  10   2.0000     -19.248685      -523.7834
  11   2.0000     -19.247593      -523.7536
  12   2.0000     -19.245204      -523.6886
  13   2.0000     -19.243350      -523.6382
  14   2.0000     -19.243288      -523.6365
  15   2.0000     -19.217556      -522.9363
  16   2.0000     -19.215762      -522.8875
  17   2.0000     -14.657890      -398.8615
  18   2.0000     -14.655311      -398.7913
  19   2.0000     -14.419393      -392.3716
  20   2.0000     -14.416014      -392.2797
  21   2.0000     -10.396500      -282.9031
  22   2.0000     -10.393846      -282.8309
  23   2.0000     -10.391351      -282.7630
  24   2.0000     -10.389879      -282.7230
  25   2.0000     -10.388646      -282.6894
  26   2.0000     -10.375716      -282.3376
  27   2.0000     -10.373139      -282.2675
  28   2.0000     -10.371737      -282.2293
  29   2.0000     -10.364349      -282.0283
  30   2.0000     -10.361359      -281.9469
  31   2.0000     -10.350607      -281.6543
  32   2.0000     -10.348818      -281.6056
  33   2.0000     -10.348537      -281.5980
  34   2.0000     -10.347382      -281.5666
  35   2.0000     -10.346257      -281.5360
  36   2.0000     -10.341261      -281.4000
  37   2.0000     -10.334875      -281.2262
  38   2.0000     -10.332163      -281.1525
  39   2.0000     -10.330524      -281.1079
  40   2.0000     -10.327435      -281.0238
  41   2.0000     -10.326120      -280.9880
  42   2.0000     -10.324882      -280.9543
  43   2.0000     -10.321848      -280.8718
  44   2.0000     -10.318566      -280.7824
  45   2.0000     -10.318303      -280.7753
  46   2.0000     -10.317108      -280.7428
  47   2.0000     -10.316253      -280.7195
  48   2.0000     -10.316035      -280.7136
  49   2.0000     -10.315612      -280.7021
  50   2.0000     -10.313114      -280.6341
  51   2.0000     -10.312030      -280.6046
  52   2.0000     -10.310085      -280.5517
  53   2.0000     -10.310011      -280.5497
  54   2.0000     -10.309397      -280.5330
  55   2.0000     -10.309052      -280.5236
  56   2.0000     -10.308981      -280.5216
  57   2.0000     -10.308095      -280.4975
  58   2.0000     -10.307184      -280.4727
  59   2.0000     -10.304616      -280.4029
  60   2.0000     -10.303158      -280.3632
  61   2.0000     -10.302499      -280.3452
  62   2.0000     -10.301049      -280.3058
  63   2.0000     -10.299730      -280.2699
  64   2.0000     -10.298262      -280.2300
  65   2.0000     -10.296421      -280.1799
  66   2.0000     -10.293073      -280.0888
  67   2.0000     -10.292548      -280.0745
  68   2.0000     -10.288896      -279.9751
  69   2.0000      -8.091808      -220.1893
  70   2.0000      -8.089120      -220.1162
  71   2.0000      -8.075366      -219.7419
  72   2.0000      -8.061577      -219.3667
  73   2.0000      -6.060810      -164.9230
  74   2.0000      -6.058099      -164.8492
  75   2.0000      -6.056810      -164.8142
  76   2.0000      -6.054506      -164.7515
  77   2.0000      -6.054110      -164.7407
  78   2.0000      -6.051749      -164.6765
  79   2.0000      -6.044552      -164.4806
  80   2.0000      -6.039880      -164.3535
  81   2.0000      -6.038132      -164.3059
  82   2.0000      -6.031034      -164.1128
  83   2.0000      -6.026874      -163.9996
  84   2.0000      -6.023306      -163.9025
  85   2.0000      -1.338396       -36.4196
  86   2.0000      -1.335629       -36.3443
  87   2.0000      -1.324781       -36.0491
  88   2.0000      -1.320489       -35.9323
  89   2.0000      -1.313994       -35.7556
  90   2.0000      -1.218797       -33.1651
  91   2.0000      -1.181026       -32.1373
  92   2.0000      -1.158247       -31.5175
  93   2.0000      -1.157231       -31.4899
  94   2.0000      -1.152796       -31.3692
  95   2.0000      -1.143352       -31.1122
  96   2.0000      -1.134923       -30.8828
  97   2.0000      -1.133057       -30.8320
  98   2.0000      -1.028551       -27.9883
  99   2.0000      -1.026858       -27.9422
 100   2.0000      -1.024624       -27.8814
 101   2.0000      -1.017563       -27.6893
 102   2.0000      -1.006343       -27.3840
 103   2.0000      -0.997489       -27.1431
 104   2.0000      -0.995922       -27.1004
 105   2.0000      -0.979074       -26.6420
 106   2.0000      -0.969854       -26.3911
 107   2.0000      -0.962973       -26.2038
 108   2.0000      -0.961851       -26.1733
 109   2.0000      -0.944074       -25.6895
 110   2.0000      -0.933444       -25.4003
 111   2.0000      -0.922266       -25.0961
 112   2.0000      -0.909192       -24.7404
 113   2.0000      -0.904833       -24.6218
 114   2.0000      -0.886626       -24.1263
 115   2.0000      -0.879963       -23.9450
 116   2.0000      -0.874690       -23.8015
 117   2.0000      -0.871450       -23.7134
 118   2.0000      -0.868511       -23.6334
 119   2.0000      -0.859225       -23.3807
 120   2.0000      -0.844793       -22.9880
 121   2.0000      -0.838184       -22.8081
 122   2.0000      -0.831984       -22.6394
 123   2.0000      -0.821754       -22.3611
 124   2.0000      -0.810018       -22.0417
 125   2.0000      -0.801936       -21.8218
 126   2.0000      -0.796055       -21.6617
 127   2.0000      -0.783202       -21.3120
 128   2.0000      -0.777217       -21.1492
 129   2.0000      -0.776732       -21.1360
 130   2.0000      -0.772117       -21.0104
 131   2.0000      -0.769352       -20.9351
 132   2.0000      -0.750656       -20.4264
 133   2.0000      -0.735735       -20.0204
 134   2.0000      -0.725933       -19.7536
 135   2.0000      -0.721280       -19.6270
 136   2.0000      -0.706878       -19.2351
 137   2.0000      -0.699829       -19.0433
 138   2.0000      -0.692514       -18.8443
 139   2.0000      -0.689008       -18.7489
 140   2.0000      -0.679670       -18.4948
 141   2.0000      -0.678869       -18.4730
 142   2.0000      -0.674434       -18.3523
 143   2.0000      -0.672449       -18.2983
 144   2.0000      -0.664710       -18.0877
 145   2.0000      -0.657766       -17.8987
 146   2.0000      -0.657289       -17.8857
 147   2.0000      -0.651520       -17.7288
 148   2.0000      -0.649707       -17.6794
 149   2.0000      -0.646557       -17.5937
 150   2.0000      -0.642593       -17.4859
 151   2.0000      -0.641049       -17.4438
 152   2.0000      -0.634389       -17.2626
 153   2.0000      -0.629738       -17.1360
 154   2.0000      -0.625757       -17.0277
 155   2.0000      -0.623603       -16.9691
 156   2.0000      -0.619517       -16.8579
 157   2.0000      -0.614342       -16.7171
 158   2.0000      -0.608410       -16.5557
 159   2.0000      -0.606390       -16.5007
 160   2.0000      -0.605559       -16.4781
 161   2.0000      -0.599666       -16.3177
 162   2.0000      -0.595368       -16.2008
 163   2.0000      -0.591459       -16.0944
 164   2.0000      -0.588710       -16.0196
 165   2.0000      -0.586238       -15.9523
 166   2.0000      -0.584981       -15.9181
 167   2.0000      -0.581805       -15.8317
 168   2.0000      -0.579743       -15.7756
 169   2.0000      -0.573571       -15.6077
 170   2.0000      -0.570142       -15.5144
 171   2.0000      -0.568964       -15.4823
 172   2.0000      -0.568242       -15.4627
 173   2.0000      -0.558405       -15.1950
 174   2.0000      -0.552624       -15.0377
 175   2.0000      -0.551696       -15.0124
 176   2.0000      -0.548334       -14.9209
 177   2.0000      -0.547312       -14.8931
 178   2.0000      -0.544954       -14.8290
 179   2.0000      -0.541402       -14.7323
 180   2.0000      -0.540542       -14.7089
 181   2.0000      -0.535379       -14.5684
 182   2.0000      -0.532553       -14.4915
 183   2.0000      -0.531963       -14.4755
 184   2.0000      -0.529117       -14.3980
 185   2.0000      -0.528058       -14.3692
 186   2.0000      -0.522848       -14.2274
 187   2.0000      -0.520697       -14.1689
 188   2.0000      -0.518608       -14.1120
 189   2.0000      -0.516791       -14.0626
 190   2.0000      -0.514373       -13.9968
 191   2.0000      -0.510551       -13.8928
 192   2.0000      -0.506909       -13.7937
 193   2.0000      -0.502021       -13.6607
 194   2.0000      -0.500392       -13.6164
 195   2.0000      -0.499975       -13.6050
 196   2.0000      -0.497425       -13.5356
 197   2.0000      -0.494176       -13.4472
 198   2.0000      -0.493143       -13.4191
 199   2.0000      -0.489336       -13.3155
 200   2.0000      -0.488007       -13.2793
 201   2.0000      -0.486768       -13.2456
 202   2.0000      -0.484921       -13.1954
 203   2.0000      -0.482334       -13.1250
 204   2.0000      -0.479665       -13.0524
 205   2.0000      -0.477083       -12.9821
 206   2.0000      -0.472808       -12.8658
 207   2.0000      -0.471325       -12.8254
 208   2.0000      -0.469401       -12.7731
 209   2.0000      -0.466950       -12.7064
 210   2.0000      -0.460888       -12.5414
 211   2.0000      -0.453980       -12.3534
 212   2.0000      -0.452530       -12.3140
 213   2.0000      -0.451718       -12.2919
 214   2.0000      -0.449789       -12.2394
 215   2.0000      -0.447684       -12.1821
 216   2.0000      -0.445319       -12.1177
 217   2.0000      -0.443793       -12.0762
 218   2.0000      -0.441596       -12.0164
 219   2.0000      -0.440090       -11.9755
 220   2.0000      -0.439391       -11.9564
 221   2.0000      -0.431790       -11.7496
 222   2.0000      -0.428637       -11.6638
 223   2.0000      -0.427172       -11.6239
 224   2.0000      -0.424723       -11.5573
 225   2.0000      -0.410221       -11.1627
 226   2.0000      -0.408433       -11.1140
 227   2.0000      -0.407166       -11.0795
 228   2.0000      -0.395759       -10.7691
 229   2.0000      -0.393802       -10.7159
 230   2.0000      -0.387716       -10.5503
 231   2.0000      -0.382083       -10.3970
 232   2.0000      -0.377400       -10.2696
 233   2.0000      -0.373808       -10.1718
 234   2.0000      -0.366749        -9.9798
 235   2.0000      -0.360159        -9.8004
 236   2.0000      -0.359925        -9.7941
 237   2.0000      -0.358739        -9.7618
 238   2.0000      -0.356101        -9.6900
 239   2.0000      -0.353755        -9.6262
 240   2.0000      -0.344928        -9.3860
 241   2.0000      -0.342923        -9.3314
 242   2.0000      -0.340117        -9.2551
 243   2.0000      -0.335993        -9.1428
 244   2.0000      -0.334074        -9.0906
 245   2.0000      -0.322234        -8.7684
 246   2.0000      -0.317264        -8.6332
 247   2.0000      -0.314407        -8.5554
 248   2.0000      -0.301684        -8.2092
 249   2.0000      -0.294538        -8.0148
 250   2.0000      -0.264960        -7.2099
 251   2.0000      -0.242312        -6.5936
 252   0.0000      -0.127372        -3.4660
 253   0.0000      -0.104683        -2.8486
 254   0.0000      -0.087328        -2.3763
 255   0.0000      -0.081783        -2.2254
 256   0.0000      -0.064941        -1.7671

MULLIKEN ATOMIC CHARGES
-----------------------
   0 C :   -0.129896
   1 C :    0.063009
   2 C :    0.010044
   3 C :   -0.132338
   4 S :    0.148888
   5 C :    0.177371
   6 O :   -0.158364
   7 C :   -0.110251
   8 C :    0.197094
   9 C :    0.048358
  10 N :    0.257328
  11 O :   -0.255113
  12 O :   -0.228324
  13 N :    0.198282
  14 O :   -0.210283
  15 O :   -0.215981
  16 C :    0.048902
  17 C :   -0.143328
  18 S :    0.194724
  19 C :   -0.002962
  20 C :   -0.032400
  21 C :    0.053814
  22 C :    0.183155
  23 O :   -0.113211
  24 C :    0.013183
  25 C :   -0.053844
  26 C :   -0.045989
  27 C :    0.064748
  28 C :   -0.096534
  29 S :    0.201341
  30 C :   -0.050423
  31 C :   -0.000736
  32 C :    0.000695
  33 C :    0.166948
  34 O :   -0.104205
  35 C :   -0.063525
  36 C :   -0.011199
  37 C :    0.003183
  38 C :   -0.010812
  39 C :    0.193422
  40 C :    0.156759
  41 O :   -0.248005
  42 C :    0.224015
  43 C :    0.205418
  44 C :   -0.163817
  45 S :    0.122471
  46 C :   -0.159680
  47 O :   -0.235196
  48 C :   -0.052014
  49 C :    0.017469
  50 C :    0.032791
  51 C :   -0.117183
  52 C :    0.135762
  53 O :   -0.120596
  54 C :   -0.074228
  55 C :    0.048478
  56 C :    0.270248
  57 C :   -0.324148
  58 C :   -0.185882
  59 N :    0.153075
  60 C :   -0.218994
  61 N :    0.171312
  62 C :   -0.103736
  63 C :    0.235285
  64 C :    0.153422
  65 C :    0.150749
  66 F :   -0.139112
  67 F :   -0.153720
  68 F :   -0.160359
  69 H :    0.056179
  70 H :    0.037788
  71 H :    0.014848
  72 H :    0.030912
  73 H :   -0.000509
  74 H :   -0.017993
  75 H :    0.018456
  76 H :    0.003006
  77 H :    0.002383
  78 H :    0.020813
  79 H :    0.009001
  80 H :    0.027513
  81 H :    0.033418
  82 H :    0.019873
  83 H :    0.034273
  84 H :    0.019425
  85 H :    0.015257
Sum of atomic charges:   -0.0000000

LOEWDIN ATOMIC CHARGES
----------------------
   0 C :   -0.146756
   1 C :   -0.064471
   2 C :   -0.087977
   3 C :   -0.143577
   4 S :    0.481688
   5 C :    0.084314
   6 O :   -0.144795
   7 C :   -0.106528
   8 C :    0.060832
   9 C :   -0.080992
  10 N :    0.279005
  11 O :   -0.209452
  12 O :   -0.194025
  13 N :    0.268714
  14 O :   -0.182387
  15 O :   -0.192302
  16 C :    0.044362
  17 C :   -0.181586
  18 S :    0.490448
  19 C :   -0.137780
  20 C :   -0.113405
  21 C :    0.041451
  22 C :    0.104832
  23 O :   -0.096282
  24 C :   -0.027345
  25 C :   -0.024025
  26 C :   -0.029267
  27 C :   -0.009024
  28 C :   -0.168725
  29 S :    0.489126
  30 C :   -0.171781
  31 C :   -0.096438
  32 C :   -0.003817
  33 C :    0.098978
  34 O :   -0.095879
  35 C :   -0.066536
  36 C :    0.016734
  37 C :   -0.002260
  38 C :   -0.023383
  39 C :    0.051066
  40 C :    0.022735
  41 O :   -0.042868
  42 C :   -0.004658
  43 C :   -0.011675
  44 C :   -0.204137
  45 S :    0.450257
  46 C :   -0.199992
  47 O :   -0.041721
  48 C :    0.015115
  49 C :   -0.031250
  50 C :    0.070128
  51 C :   -0.101796
  52 C :    0.081356
  53 O :   -0.130566
  54 C :   -0.081870
  55 C :   -0.001172
  56 C :    0.066509
  57 C :   -0.135671
  58 C :   -0.021454
  59 N :   -0.049446
  60 C :   -0.024170
  61 N :   -0.045886
  62 C :   -0.033346
  63 C :    0.078771
  64 C :    0.037481
  65 C :    0.085415
  66 F :   -0.022472
  67 F :   -0.035032
  68 F :   -0.037750
  69 H :    0.030281
  70 H :    0.034918
  71 H :    0.034935
  72 H :    0.046373
  73 H :    0.034639
  74 H :    0.030765
  75 H :    0.036337
  76 H :    0.040654
  77 H :    0.035006
  78 H :    0.038491
  79 H :    0.037860
  80 H :    0.030736
  81 H :    0.033452
  82 H :    0.041500
  83 H :    0.035497
  84 H :    0.045401
  85 H :    0.051562

  Mayer bond orders larger than 0.100000
B(  0-C ,  1-C ) :   1.5521 B(  0-C ,  4-S ) :   1.1825 B(  0-C , 69-H ) :   0.9479
B(  1-C ,  2-C ) :   1.2214 B(  1-C ,  8-C ) :   1.0144 B(  2-C ,  3-C ) :   1.5543
B(  2-C ,  5-C ) :   0.9629 B(  3-C ,  4-S ) :   1.1775 B(  3-C , 70-H ) :   0.9722
B(  5-C ,  6-O ) :   2.1722 B(  5-C ,  7-C ) :   0.9609 B(  7-C ,  8-C ) :   1.1175
B(  7-C , 16-C ) :   1.5325 B(  8-C ,  9-C ) :   1.5654 B(  9-C , 10-N ) :   0.9494
B(  9-C , 13-N ) :   0.8865 B( 10-N , 11-O ) :   1.4910 B( 10-N , 12-O ) :   1.5314
B( 11-O , 12-O ) :   0.2587 B( 13-N , 14-O ) :   1.5210 B( 13-N , 15-O ) :   1.5310
B( 14-O , 15-O ) :   0.2795 B( 16-C , 17-C ) :   1.2786 B( 16-C , 71-H ) :   0.9319
B( 17-C , 18-S ) :   1.0651 B( 17-C , 21-C ) :   1.3543 B( 18-S , 19-C ) :   1.1926
B( 19-C , 20-C ) :   1.3634 B( 19-C , 25-C ) :   1.0874 B( 20-C , 21-C ) :   1.3662
B( 20-C , 22-C ) :   0.9373 B( 21-C , 72-H ) :   0.9822 B( 22-C , 23-O ) :   2.2250
B( 22-C , 24-C ) :   0.9051 B( 24-C , 25-C ) :   1.5367 B( 24-C , 26-C ) :   1.2061
B( 25-C , 73-H ) :   1.0256 B( 26-C , 27-C ) :   1.5938 B( 26-C , 74-H ) :   0.9780
B( 27-C , 28-C ) :   1.1488 B( 27-C , 75-H ) :   0.9533 B( 28-C , 29-S ) :   1.1171
B( 28-C , 32-C ) :   1.3872 B( 29-S , 30-C ) :   1.1458 B( 30-C , 31-C ) :   1.4043
B( 30-C , 36-C ) :   1.0965 B( 31-C , 32-C ) :   1.3643 B( 31-C , 33-C ) :   0.9165
B( 32-C , 76-H ) :   1.0004 B( 33-C , 34-O ) :   2.2751 B( 33-C , 35-C ) :   0.9173
B( 35-C , 36-C ) :   1.5746 B( 35-C , 37-C ) :   1.1847 B( 36-C , 77-H ) :   1.0135
B( 37-C , 38-C ) :   1.5718 B( 37-C , 78-H ) :   0.9620 B( 38-C , 39-C ) :   1.1758
B( 38-C , 79-H ) :   0.9535 B( 39-C , 40-C ) :   1.3972 B( 39-C , 47-O ) :   1.0914
B( 40-C , 41-O ) :   1.0766 B( 40-C , 48-C ) :   1.2028 B( 41-O , 42-C ) :   1.0394
B( 42-C , 43-C ) :   1.2076 B( 42-C , 46-C ) :   1.5774 B( 43-C , 44-C ) :   1.5723
B( 43-C , 47-O ) :   1.0343 B( 44-C , 45-S ) :   1.1521 B( 44-C , 80-H ) :   0.9721
B( 45-S , 46-C ) :   1.1465 B( 46-C , 81-H ) :   0.9710 B( 48-C , 49-C ) :   1.5685
B( 48-C , 82-H ) :   0.9700 B( 49-C , 50-C ) :   1.1615 B( 49-C , 83-H ) :   0.9613
B( 50-C , 51-C ) :   1.5574 B( 50-C , 84-H ) :   0.9596 B( 51-C , 52-C ) :   0.9569
B( 51-C , 56-C ) :   1.0793 B( 52-C , 53-O ) :   2.3065 B( 52-C , 54-C ) :   0.9040
B( 54-C , 55-C ) :   1.3572 B( 54-C , 65-C ) :   1.2760 B( 55-C , 56-C ) :   1.0107
B( 55-C , 62-C ) :   1.3320 B( 56-C , 57-C ) :   1.6294 B( 57-C , 58-C ) :   1.1293
B( 57-C , 60-C ) :   1.1590 B( 58-C , 59-N ) :   2.9870 B( 60-C , 61-N ) :   3.0088
B( 62-C , 63-C ) :   1.3205 B( 62-C , 85-H ) :   0.9999 B( 63-C , 64-C ) :   1.3014
B( 63-C , 68-F ) :   1.1464 B( 64-C , 65-C ) :   1.2585 B( 64-C , 67-F ) :   1.1734
B( 65-C , 66-F ) :   1.2444

-----------------------------------------------------------------------------
         ABSORPTION SPECTRUM VIA TRANSITION ELECTRIC DIPOLE MOMENTS
-----------------------------------------------------------------------------
State   Energy  Wavelength   fosc         T2         TX        TY        TZ
        (cm-1)    (nm)                  (au**2)     (au)      (au)      (au)
-----------------------------------------------------------------------------
   0   10487.9    953.5   1.446175719  45.39506  -0.78687  -6.58368   1.19628
   1   15147.1    660.2   0.353974151   7.69340   0.28960   2.30084   1.52173
   2   16906.8    591.5   0.046379197   0.90310   0.21176  -0.20459   0.90355
   3   18177.2    550.1   0.258112066   4.67474  -0.09951   0.89820  -1.96420
   4   20548.2    486.7   0.405429415   6.49558  -0.24334  -2.53696   0.01348
   5   21748.0    459.8   0.016480964   0.24948  -0.38404  -0.09905  -0.30362
   6   23547.7    424.7   0.020865176   0.29171   0.10031   0.19783  -0.49245
   7   24150.2    414.1   0.162103788   2.20978   0.04831  -0.81899   1.23963
   8   24594.1    406.6   0.077618828   1.03899   0.19557  -0.11588   0.99364
   9   25328.8    394.8   0.000218905   0.00285  -0.02847  -0.02496   0.03757
  10   25664.6    389.6   0.000102189   0.00131  -0.01824   0.00224  -0.03120
  11   26243.5    381.0   0.121377870   1.52262  -0.30690  -0.85766  -0.83238
  12   26614.0    375.7   0.030021786   0.37137  -0.26740  -0.02648   0.54696
  13   27040.9    369.8   0.074770917   0.91031  -0.33551   0.84609   0.28612
  14   27573.4    362.7   0.091957145   1.09792  -0.20077   0.93551   0.42713
  15   28315.4    353.2   0.095507984   1.11044  -0.61629   0.02069  -0.85451
  16   28550.1    350.3   0.072546203   0.83653  -0.89210   0.20134   0.01219
  17   28810.6    347.1   0.210343877   2.40355   0.20229  -1.50603   0.30741
  18   29661.5    337.1   0.131405320   1.45846   0.89401  -0.76317   0.27709
  19   29992.2    333.4   0.077712737   0.85302   0.51927   0.74886  -0.15033
  20   30518.0    327.7   0.145135938   1.56565   0.68040   0.94804   0.45158
  21   30983.2    322.8   0.148490299   1.57778  -0.31906  -0.71178  -0.98456
  22   31273.0    319.8   0.021298219   0.22421   0.21047  -0.42042   0.05618
  23   31325.7    319.2   0.014607001   0.15351   0.39112   0.00697  -0.02201
  24   31372.4    318.8   0.083371992   0.87488   0.34097   0.83046   0.26259
  25   32241.6    310.2   0.043704328   0.44626   0.25422   0.17790   0.59159
  26   32786.5    305.0   0.088603966   0.88968  -0.26809  -0.18927  -0.88430
  27   32875.3    304.2   0.045284775   0.45348   0.57471  -0.16865   0.30780
  28   33008.7    303.0   0.080588370   0.80375  -0.88857  -0.08009  -0.08821
  29   33376.9    299.6   0.108945233   1.07458   0.34363  -0.97199  -0.10827
  30   34036.2    293.8   0.019177631   0.18549  -0.27905  -0.26577   0.19233
  31   34067.5    293.5   0.066726508   0.64481   0.66473  -0.16364   0.41973
  32   34253.1    291.9   0.065107500   0.62576   0.32244   0.70538  -0.15566
  33   34489.6    289.9   0.100445969   0.95878   0.56252  -0.73101   0.32861
  34   34633.5    288.7   0.018928460   0.17993  -0.17816   0.35254   0.15461
  35   35030.4    285.5   0.101259949   0.95163  -0.87964  -0.38622  -0.16941
  36   35106.1    284.9   0.234217872   2.19641   0.84622   0.70712   0.99010
  37   35217.9    283.9   0.078694743   0.73563  -0.34865  -0.53203  -0.57534
  38   35536.4    281.4   0.001410999   0.01307   0.10818   0.03353   0.01565
  39   35655.3    280.5   0.039219536   0.36212  -0.57327  -0.08788   0.16050
  40   36312.1    275.4   0.075074712   0.68064   0.39612  -0.68543   0.23220
  41   36502.7    274.0   0.035578236   0.32087   0.34943  -0.44569   0.01171
  42   36726.0    272.3   0.012424465   0.11137  -0.18801  -0.07176   0.26623
  43   36894.9    271.0   0.419497933   3.74317   0.74395   0.40026   1.74055
  44   37360.1    267.7   0.001292036   0.01139  -0.05059  -0.08869  -0.03100
  45   37553.2    266.3   0.179689945   1.57526  -0.71651  -0.48456  -0.90944
  46   37661.4    265.5   0.101845011   0.89026  -0.52941  -0.51781  -0.58469
  47   37789.7    264.6   0.021464385   0.18699  -0.21205   0.02721   0.37588
  48   38004.8    263.1   0.014725746   0.12756  -0.12597  -0.32446  -0.08010
  49   38133.2    262.2   0.062677174   0.54111   0.59139   0.42998   0.08055
  50   38222.6    261.6   0.008709216   0.07501   0.20432   0.18212   0.00982
  51   38883.0    257.2   0.000708398   0.00600  -0.04394  -0.06145  -0.01705
  52   38971.9    256.6   0.004520598   0.03819  -0.15528  -0.09880   0.06568
  53   39301.9    254.4   0.011683081   0.09786   0.05931  -0.24624  -0.18360
  54   39339.8    254.2   0.000188221   0.00158  -0.00308   0.00674   0.03899
  55   39491.5    253.2   0.079766077   0.66495  -0.48974  -0.62332  -0.19126
  56   39728.7    251.7   0.010935556   0.09062  -0.07092  -0.28614   0.06093
  57   40130.8    249.2   0.011164953   0.09159   0.09613   0.28142   0.05616
  58   40314.0    248.1   0.052346991   0.42748  -0.16513   0.63042  -0.05274

FINAL SINGLE POINT ENERGY     -4698.198539138109

DIPOLE MOMENT
-------------
                                X             Y             Z
Electronic contribution:      6.96685     -19.63631      36.09249
Nuclear contribution   :     -8.10163      18.95310     -37.82894
                        -----------------------------------------
Total Dipole Moment    :     -1.13478      -0.68321      -1.73646
                        -----------------------------------------
Magnitude (a.u.)       :      2.18398
Magnitude (Debye)      :      5.55124

Rotational constants in cm-1:     0.001465     0.000177     0.000163
Rotational constants in MHz :    43.927844     5.308255     4.893182

                             ****ORCA TERMINATED NORMALLY****
TOTAL RUN TIME: 0 days 0 hours 8 minutes 29 seconds 110 msec
