                         Program Version 4.2.0 -  RELEASE  -
|  1> # ORCA input file
|  2> # SCF done       -180.108923514902          0.000387199430
|  3> ! CAM-B3LYP def2-SVP def2/J RIJCOSX Grid4 TightSCF
|  4> %maxcore 5000
|  5> %tddft
|  6>     Mode sTDDFT
|  7>     Ethresh 5.0
|  8>     maxcore 5000
|  9> end
| 10>
| 11> %pal
| 12>   nprocs 6
| 13>   end
| 14> * xyz 0 1
| 15>    C      -20.28219        -7.82742        -4.18802
| 16>    C      -19.33467        -8.58536        -3.53441
| 17>    C      -19.43908        -9.97387        -3.32649
| 18>    N      -19.45702       -11.10454        -3.12079
| 19>    C      -18.13338        -8.10850        -2.97606
| 20>    N      -17.13420        -7.81760        -2.48659
| 21>    C      -21.52682        -8.34950        -4.75227
| 22>    C      -22.24631        -7.27574        -5.32978
| 23>    C      -23.46277        -7.44185        -5.94266
| 24>    C      -23.99793        -8.73434        -5.99129
| 25>    C      -23.27201        -9.80086        -5.41418
| 26>    C      -22.04011        -9.63109        -4.79174
| 27>    S      -24.11197       -11.31305        -5.58754
| 28>    C      -25.40935       -10.50020        -6.42204
| 29>    C      -25.22562        -9.16670        -6.56442
| 30>   Br      -26.88435       -11.48991        -7.02705
| 31>    C      -21.47537        -6.02554        -5.15545
| 32>    O      -21.81010        -4.91917        -5.53475
| 33>    C      -20.24663        -6.41301        -4.43952
| 34>    C      -19.23549        -5.53591        -4.08554
| 35>    C      -19.23074        -4.17534        -4.35424
| 36>    C      -18.19121        -3.33783        -3.97863
| 37>    C      -18.09348        -1.95215        -4.21020
| 38>    C      -16.94753        -1.38386        -3.72021
| 39>    C      -16.09637        -2.30023        -3.08074
| 40>    S      -16.77972        -3.90589        -3.11733
| 41>    C      -14.86984        -2.06120        -2.46559
| 42>    C      -14.17767        -0.84536        -2.33089
| 43>    C      -12.99656        -0.96134        -1.64858
| 44>    C      -12.70923        -2.27088        -1.21684
| 45>    S      -13.98336        -3.36071        -1.71356
| 46>    C      -11.60365        -2.67166        -0.48800
| 47>    C      -11.32563        -3.95579        -0.04564
| 48>    S      -12.30283        -5.38465        -0.34627
| 49>    C      -11.25905        -6.47715         0.57290
| 50>    C      -10.16826        -5.73004         1.08710
| 51>    C      -10.23350        -4.36335         0.72811
| 52>    O       -9.19173        -3.67597         1.21281
| 53>    C       -8.44018        -4.58922         1.88427
| 54>    N       -7.26295        -4.13647         2.50276
| 55>    O       -6.59897        -4.97247         3.09652
| 56>    O       -6.98308        -2.95832         2.41067
| 57>    C       -8.98246        -5.85507         1.84209
| 58>    C      -11.67068        -7.79307         0.62320
| 59>    C      -11.18062        -8.90121         1.30330
| 60>    C      -11.76964       -10.17792         1.21990
| 61>    C      -11.17554       -11.12779         2.00560
| 62>    C      -10.08782       -10.64276         2.75010
| 63>    S       -9.83027        -8.94706         2.40659
| 64>    C       -9.30356       -11.33736         3.66371
| 65>    C       -9.44229       -12.68693         4.05179
| 66>    C       -8.54664       -13.07968         5.00195
| 67>    C       -7.65399       -12.05964         5.40887
| 68>    S       -7.98893       -10.58261         4.52664
| 69>    C       -6.66843       -12.15828         6.35995
| 70>    C       -5.82006       -11.09090         6.70349
| 71>    O       -5.92548        -9.91060         6.06199
| 72>    C       -5.00666        -9.05822         6.56488
| 73>    C       -4.28466        -9.69027         7.56044
| 74>    C       -4.80029       -10.99145         7.65471
| 75>    C       -4.36488       -12.06915         8.57585
| 76>    F       -3.81946       -13.11821         7.92481
| 77>    F       -3.45260       -11.65348         9.46016
| 78>    F       -5.38802       -12.58348         9.28874
| 79>    C       -4.90869        -7.72813         6.03275
| 80>    C       -5.69406        -7.28452         5.05096
| 81>    H      -23.98631        -6.60236        -6.37263
| 82>    H      -21.52794       -10.47814        -4.36729
| 83>    H      -25.92490        -8.51285        -7.05286
| 84>    H      -18.37532        -5.93352        -3.56052
| 85>    H      -20.06806        -3.73875        -4.87908
| 86>    H      -18.86670        -1.41386        -4.72861
| 87>    H      -16.70631        -0.33959        -3.80554
| 88>    H      -14.55692         0.07800        -2.72941
| 89>    H      -12.33093        -0.14184        -1.44325
| 90>    H      -10.88111        -1.91216        -0.21858
| 91>    H       -8.55411        -6.72145         2.29923
| 92>    H      -12.56165        -7.99891         0.04020
| 93>    H      -12.61931       -10.36260         0.58714
| 94>    H      -11.50116       -12.15013         2.06360
| 95>    H      -10.19497       -13.32891         3.63160
| 96>    H       -8.49874       -14.06605         5.42720
| 97>    H       -6.53256       -13.09394         6.87923
| 98>    H       -3.49107        -9.27393         8.14601
| 99>    H       -4.14721        -7.10697         6.48025
|100>    H       -6.44729        -7.92370         4.62055
|101>    H       -5.61456        -6.29211         4.64746
|102> *
|103>
|104>                          ****END OF INPUT****

CARTESIAN COORDINATES (ANGSTROEM)
---------------------------------
  C    -20.282190   -7.827420   -4.188020
  C    -19.334670   -8.585360   -3.534410
  C    -19.439080   -9.973870   -3.326490
  N    -19.457020  -11.104540   -3.120790
  C    -18.133380   -8.108500   -2.976060
  N    -17.134200   -7.817600   -2.486590
  C    -21.526820   -8.349500   -4.752270
  C    -22.246310   -7.275740   -5.329780
  C    -23.462770   -7.441850   -5.942660
  C    -23.997930   -8.734340   -5.991290
  C    -23.272010   -9.800860   -5.414180
  C    -22.040110   -9.631090   -4.791740
  S    -24.111970  -11.313050   -5.587540
  C    -25.409350  -10.500200   -6.422040
  C    -25.225620   -9.166700   -6.564420
  Br   -26.884350  -11.489910   -7.027050
  C    -21.475370   -6.025540   -5.155450
  O    -21.810100   -4.919170   -5.534750
  C    -20.246630   -6.413010   -4.439520
  C    -19.235490   -5.535910   -4.085540
  C    -19.230740   -4.175340   -4.354240
  C    -18.191210   -3.337830   -3.978630
  C    -18.093480   -1.952150   -4.210200
  C    -16.947530   -1.383860   -3.720210
  C    -16.096370   -2.300230   -3.080740
  S    -16.779720   -3.905890   -3.117330
  C    -14.869840   -2.061200   -2.465590
  C    -14.177670   -0.845360   -2.330890
  C    -12.996560   -0.961340   -1.648580
  C    -12.709230   -2.270880   -1.216840
  S    -13.983360   -3.360710   -1.713560
  C    -11.603650   -2.671660   -0.488000
  C    -11.325630   -3.955790   -0.045640
  S    -12.302830   -5.384650   -0.346270
  C    -11.259050   -6.477150    0.572900
  C    -10.168260   -5.730040    1.087100
  C    -10.233500   -4.363350    0.728110
  O     -9.191730   -3.675970    1.212810
  C     -8.440180   -4.589220    1.884270
  N     -7.262950   -4.136470    2.502760
  O     -6.598970   -4.972470    3.096520
  O     -6.983080   -2.958320    2.410670
  C     -8.982460   -5.855070    1.842090
  C    -11.670680   -7.793070    0.623200
  C    -11.180620   -8.901210    1.303300
  C    -11.769640  -10.177920    1.219900
  C    -11.175540  -11.127790    2.005600
  C    -10.087820  -10.642760    2.750100
  S     -9.830270   -8.947060    2.406590
  C     -9.303560  -11.337360    3.663710
  C     -9.442290  -12.686930    4.051790
  C     -8.546640  -13.079680    5.001950
  C     -7.653990  -12.059640    5.408870
  S     -7.988930  -10.582610    4.526640
  C     -6.668430  -12.158280    6.359950
  C     -5.820060  -11.090900    6.703490
  O     -5.925480   -9.910600    6.061990
  C     -5.006660   -9.058220    6.564880
  C     -4.284660   -9.690270    7.560440
  C     -4.800290  -10.991450    7.654710
  C     -4.364880  -12.069150    8.575850
  F     -3.819460  -13.118210    7.924810
  F     -3.452600  -11.653480    9.460160
  F     -5.388020  -12.583480    9.288740
  C     -4.908690   -7.728130    6.032750
  C     -5.694060   -7.284520    5.050960
  H    -23.986310   -6.602360   -6.372630
  H    -21.527940  -10.478140   -4.367290
  H    -25.924900   -8.512850   -7.052860
  H    -18.375320   -5.933520   -3.560520
  H    -20.068060   -3.738750   -4.879080
  H    -18.866700   -1.413860   -4.728610
  H    -16.706310   -0.339590   -3.805540
  H    -14.556920    0.078000   -2.729410
  H    -12.330930   -0.141840   -1.443250
  H    -10.881110   -1.912160   -0.218580
  H     -8.554110   -6.721450    2.299230
  H    -12.561650   -7.998910    0.040200
  H    -12.619310  -10.362600    0.587140
  H    -11.501160  -12.150130    2.063600
  H    -10.194970  -13.328910    3.631600
  H     -8.498740  -14.066050    5.427200
  H     -6.532560  -13.093940    6.879230
  H     -3.491070   -9.273930    8.146010
  H     -4.147210   -7.106970    6.480250
  H     -6.447290   -7.923700    4.620550
  H     -5.614560   -6.292110    4.647460

 Total Charge           Charge          ....    0
 Multiplicity           Mult            ....    1
 Number of Electrons    NEL             ....  528
 Basis Dimension        Dim             .... 1071

ORBITAL ENERGIES
----------------

  NO   OCC          E(Eh)            E(eV)
   0   2.0000    -482.873613    -13139.6590
   1   2.0000     -88.978027     -2421.2152
   2   2.0000     -88.973071     -2421.0803
   3   2.0000     -88.966870     -2420.9116
   4   2.0000     -88.964779     -2420.8547
   5   2.0000     -88.960292     -2420.7326
   6   2.0000     -88.953754     -2420.5547
   7   2.0000     -62.551329     -1702.1082
   8   2.0000     -56.385262     -1534.3210
   9   2.0000     -56.382579     -1534.2480
  10   2.0000     -56.382538     -1534.2469
  11   2.0000     -24.806452      -675.0179
  12   2.0000     -24.800412      -674.8535
  13   2.0000     -24.798298      -674.7960
  14   2.0000     -19.324504      -525.8465
  15   2.0000     -19.313795      -525.5551
  16   2.0000     -19.249724      -523.8116
  17   2.0000     -19.248110      -523.7677
  18   2.0000     -19.192639      -522.2582
  19   2.0000     -14.662162      -398.9777
  20   2.0000     -14.395440      -391.7198
  21   2.0000     -14.392410      -391.6374
  22   2.0000     -10.525200      -286.4053
  23   2.0000     -10.391847      -282.7765
  24   2.0000     -10.366327      -282.0821
  25   2.0000     -10.358671      -281.8738
  26   2.0000     -10.350728      -281.6576
  27   2.0000     -10.344026      -281.4753
  28   2.0000     -10.342700      -281.4392
  29   2.0000     -10.342077      -281.4222
  30   2.0000     -10.334584      -281.2183
  31   2.0000     -10.334104      -281.2053
  32   2.0000     -10.331812      -281.1429
  33   2.0000     -10.329662      -281.0844
  34   2.0000     -10.329602      -281.0828
  35   2.0000     -10.326953      -281.0107
  36   2.0000     -10.323536      -280.9177
  37   2.0000     -10.319976      -280.8208
  38   2.0000     -10.318897      -280.7915
  39   2.0000     -10.316757      -280.7332
  40   2.0000     -10.315195      -280.6907
  41   2.0000     -10.314322      -280.6670
  42   2.0000     -10.313783      -280.6523
  43   2.0000     -10.312260      -280.6109
  44   2.0000     -10.310731      -280.5693
  45   2.0000     -10.307897      -280.4921
  46   2.0000     -10.306907      -280.4652
  47   2.0000     -10.305799      -280.4350
  48   2.0000     -10.305265      -280.4205
  49   2.0000     -10.305120      -280.4166
  50   2.0000     -10.304798      -280.4078
  51   2.0000     -10.302813      -280.3538
  52   2.0000     -10.300276      -280.2848
  53   2.0000     -10.299214      -280.2559
  54   2.0000     -10.298429      -280.2345
  55   2.0000     -10.297567      -280.2110
  56   2.0000     -10.296300      -280.1766
  57   2.0000     -10.294700      -280.1330
  58   2.0000     -10.289801      -279.9997
  59   2.0000     -10.288838      -279.9735
  60   2.0000     -10.287998      -279.9507
  61   2.0000     -10.286457      -279.9087
  62   2.0000     -10.286243      -279.9029
  63   2.0000     -10.284613      -279.8585
  64   2.0000     -10.282535      -279.8020
  65   2.0000     -10.282248      -279.7942
  66   2.0000     -10.272393      -279.5260
  67   2.0000     -10.271597      -279.5044
  68   2.0000     -10.267268      -279.3866
  69   2.0000     -10.265470      -279.3376
  70   2.0000      -8.780751      -238.9364
  71   2.0000      -8.072694      -219.6692
  72   2.0000      -8.068768      -219.5623
  73   2.0000      -8.062392      -219.3888
  74   2.0000      -8.060937      -219.3492
  75   2.0000      -8.056323      -219.2237
  76   2.0000      -8.049811      -219.0465
  77   2.0000      -6.616986      -180.0573
  78   2.0000      -6.602501      -179.6632
  79   2.0000      -6.602347      -179.6590
  80   2.0000      -6.042282      -164.4188
  81   2.0000      -6.038376      -164.3126
  82   2.0000      -6.038136      -164.3060
  83   2.0000      -6.034306      -164.2018
  84   2.0000      -6.034183      -164.1985
  85   2.0000      -6.032224      -164.1452
  86   2.0000      -6.030574      -164.1003
  87   2.0000      -6.030095      -164.0872
  88   2.0000      -6.027838      -164.0258
  89   2.0000      -6.026373      -163.9860
  90   2.0000      -6.026016      -163.9762
  91   2.0000      -6.023416      -163.9055
  92   2.0000      -6.022151      -163.8711
  93   2.0000      -6.021766      -163.8606
  94   2.0000      -6.019347      -163.7948
  95   2.0000      -6.017520      -163.7451
  96   2.0000      -6.015310      -163.6849
  97   2.0000      -6.011111      -163.5707
  98   2.0000      -2.732841       -74.3644
  99   2.0000      -2.728810       -74.2547
 100   2.0000      -2.728697       -74.2516
 101   2.0000      -2.717175       -73.9381
 102   2.0000      -2.717169       -73.9379
 103   2.0000      -1.391401       -37.8619
 104   2.0000      -1.331759       -36.2390
 105   2.0000      -1.296868       -35.2896
 106   2.0000      -1.289098       -35.0781
 107   2.0000      -1.245929       -33.9034
 108   2.0000      -1.235763       -33.6268
 109   2.0000      -1.147247       -31.2182
 110   2.0000      -1.105929       -30.0939
 111   2.0000      -1.018016       -27.7016
 112   2.0000      -1.012797       -27.5596
 113   2.0000      -1.004721       -27.3398
 114   2.0000      -1.004156       -27.3245
 115   2.0000      -0.994550       -27.0631
 116   2.0000      -0.993667       -27.0390
 117   2.0000      -0.984142       -26.7799
 118   2.0000      -0.973406       -26.4877
 119   2.0000      -0.968487       -26.3539
 120   2.0000      -0.948029       -25.7972
 121   2.0000      -0.938016       -25.5247
 122   2.0000      -0.929264       -25.2866
 123   2.0000      -0.925141       -25.1744
 124   2.0000      -0.917957       -24.9789
 125   2.0000      -0.909471       -24.7480
 126   2.0000      -0.899664       -24.4811
 127   2.0000      -0.891949       -24.2712
 128   2.0000      -0.889387       -24.2014
 129   2.0000      -0.879020       -23.9193
 130   2.0000      -0.868954       -23.6454
 131   2.0000      -0.867687       -23.6110
 132   2.0000      -0.862823       -23.4786
 133   2.0000      -0.857784       -23.3415
 134   2.0000      -0.849454       -23.1148
 135   2.0000      -0.842981       -22.9387
 136   2.0000      -0.835002       -22.7216
 137   2.0000      -0.831990       -22.6396
 138   2.0000      -0.822366       -22.3777
 139   2.0000      -0.812053       -22.0971
 140   2.0000      -0.810569       -22.0567
 141   2.0000      -0.797437       -21.6994
 142   2.0000      -0.793351       -21.5882
 143   2.0000      -0.776411       -21.1272
 144   2.0000      -0.762063       -20.7368
 145   2.0000      -0.748016       -20.3546
 146   2.0000      -0.738069       -20.0839
 147   2.0000      -0.727939       -19.8082
 148   2.0000      -0.725692       -19.7471
 149   2.0000      -0.723557       -19.6890
 150   2.0000      -0.703656       -19.1475
 151   2.0000      -0.702700       -19.1215
 152   2.0000      -0.695650       -18.9296
 153   2.0000      -0.690363       -18.7857
 154   2.0000      -0.682510       -18.5720
 155   2.0000      -0.677078       -18.4242
 156   2.0000      -0.673681       -18.3318
 157   2.0000      -0.671876       -18.2827
 158   2.0000      -0.670163       -18.2361
 159   2.0000      -0.668414       -18.1885
 160   2.0000      -0.654395       -17.8070
 161   2.0000      -0.653710       -17.7884
 162   2.0000      -0.648529       -17.6474
 163   2.0000      -0.647575       -17.6214
 164   2.0000      -0.640768       -17.4362
 165   2.0000      -0.639485       -17.4013
 166   2.0000      -0.634816       -17.2742
 167   2.0000      -0.627434       -17.0733
 168   2.0000      -0.627134       -17.0652
 169   2.0000      -0.615702       -16.7541
 170   2.0000      -0.613781       -16.7018
 171   2.0000      -0.610925       -16.6241
 172   2.0000      -0.604561       -16.4509
 173   2.0000      -0.601754       -16.3746
 174   2.0000      -0.598578       -16.2881
 175   2.0000      -0.595847       -16.2138
 176   2.0000      -0.586295       -15.9539
 177   2.0000      -0.581335       -15.8189
 178   2.0000      -0.580498       -15.7962
 179   2.0000      -0.579971       -15.7818
 180   2.0000      -0.575953       -15.6725
 181   2.0000      -0.570917       -15.5354
 182   2.0000      -0.563942       -15.3457
 183   2.0000      -0.552310       -15.0291
 184   2.0000      -0.551310       -15.0019
 185   2.0000      -0.549942       -14.9647
 186   2.0000      -0.547680       -14.9031
 187   2.0000      -0.542872       -14.7723
 188   2.0000      -0.540677       -14.7126
 189   2.0000      -0.530329       -14.4310
 190   2.0000      -0.525338       -14.2952
 191   2.0000      -0.522577       -14.2201
 192   2.0000      -0.521910       -14.2019
 193   2.0000      -0.520670       -14.1681
 194   2.0000      -0.518975       -14.1220
 195   2.0000      -0.517680       -14.0868
 196   2.0000      -0.513178       -13.9643
 197   2.0000      -0.512812       -13.9543
 198   2.0000      -0.510781       -13.8991
 199   2.0000      -0.510276       -13.8853
 200   2.0000      -0.509642       -13.8681
 201   2.0000      -0.508393       -13.8341
 202   2.0000      -0.504717       -13.7340
 203   2.0000      -0.500439       -13.6176
 204   2.0000      -0.498196       -13.5566
 205   2.0000      -0.494044       -13.4436
 206   2.0000      -0.491388       -13.3713
 207   2.0000      -0.490043       -13.3347
 208   2.0000      -0.487507       -13.2657
 209   2.0000      -0.487268       -13.2592
 210   2.0000      -0.482177       -13.1207
 211   2.0000      -0.480421       -13.0729
 212   2.0000      -0.477330       -12.9888
 213   2.0000      -0.475320       -12.9341
 214   2.0000      -0.474752       -12.9187
 215   2.0000      -0.472630       -12.8609
 216   2.0000      -0.472343       -12.8531
 217   2.0000      -0.471491       -12.8299
 218   2.0000      -0.468965       -12.7612
 219   2.0000      -0.467383       -12.7181
 220   2.0000      -0.454336       -12.3631
 221   2.0000      -0.453292       -12.3347
 222   2.0000      -0.449706       -12.2371
 223   2.0000      -0.448085       -12.1930
 224   2.0000      -0.444075       -12.0839
 225   2.0000      -0.441854       -12.0235
 226   2.0000      -0.441066       -12.0020
 227   2.0000      -0.435183       -11.8419
 228   2.0000      -0.432037       -11.7563
 229   2.0000      -0.429879       -11.6976
 230   2.0000      -0.424605       -11.5541
 231   2.0000      -0.423182       -11.5154
 232   2.0000      -0.421570       -11.4715
 233   2.0000      -0.419162       -11.4060
 234   2.0000      -0.415757       -11.3133
 235   2.0000      -0.407580       -11.0908
 236   2.0000      -0.404996       -11.0205
 237   2.0000      -0.404202       -10.9989
 238   2.0000      -0.402844       -10.9619
 239   2.0000      -0.397323       -10.8117
 240   2.0000      -0.395686       -10.7672
 241   2.0000      -0.391119       -10.6429
 242   2.0000      -0.388540       -10.5727
 243   2.0000      -0.387470       -10.5436
 244   2.0000      -0.386185       -10.5086
 245   2.0000      -0.377963       -10.2849
 246   2.0000      -0.374329       -10.1860
 247   2.0000      -0.368382       -10.0242
 248   2.0000      -0.363329        -9.8867
 249   2.0000      -0.358657        -9.7596
 250   2.0000      -0.355654        -9.6778
 251   2.0000      -0.349747        -9.5171
 252   2.0000      -0.346654        -9.4329
 253   2.0000      -0.340623        -9.2688
 254   2.0000      -0.335252        -9.1227
 255   2.0000      -0.327146        -8.9021
 256   2.0000      -0.318484        -8.6664
 257   2.0000      -0.313187        -8.5222
 258   2.0000      -0.299284        -8.1439
 259   2.0000      -0.297873        -8.1055
 260   2.0000      -0.278553        -7.5798
 261   2.0000      -0.272807        -7.4234
 262   2.0000      -0.240022        -6.5313
 263   2.0000      -0.204920        -5.5761
 264   0.0000      -0.126004        -3.4287
 265   0.0000      -0.090328        -2.4579
 266   0.0000      -0.064970        -1.7679
 267   0.0000      -0.053015        -1.4426
 268   0.0000      -0.036625        -0.9966

MULLIKEN ATOMIC CHARGES
-----------------------
   0 C :    0.335406
   1 C :   -0.374284
   2 C :   -0.191734
   3 N :    0.125837
   4 C :   -0.190045
   5 N :    0.120664
   6 C :    0.009195
   7 C :   -0.005382
   8 C :   -0.080503
   9 C :    0.117377
  10 C :   -0.090003
  11 C :   -0.027926
  12 S :    0.174868
  13 C :   -0.124874
  14 C :    0.037129
  15 Br:    0.009995
  16 C :    0.134355
  17 O :   -0.168892
  18 C :   -0.093050
  19 C :   -0.044410
  20 C :   -0.024411
  21 C :    0.005361
  22 C :    0.020212
  23 C :    0.037575
  24 C :   -0.050496
  25 S :    0.105921
  26 C :   -0.013937
  27 C :    0.015911
  28 C :    0.048785
  29 C :   -0.048053
  30 S :    0.093553
  31 C :    0.014064
  32 C :   -0.155232
  33 S :    0.132204
  34 C :   -0.112475
  35 C :    0.125763
  36 C :    0.170436
  37 O :   -0.167026
  38 C :    0.212016
  39 N :    0.296072
  40 O :   -0.265478
  41 O :   -0.234234
  42 C :   -0.088201
  43 C :    0.014865
  44 C :   -0.017870
  45 C :    0.020881
  46 C :    0.036313
  47 C :   -0.042018
  48 S :    0.077789
  49 C :   -0.025785
  50 C :    0.022163
  51 C :    0.040475
  52 C :   -0.017728
  53 S :    0.115840
  54 C :   -0.024585
  55 C :    0.120297
  56 O :   -0.217104
  57 C :    0.180228
  58 C :   -0.059742
  59 C :   -0.099820
  60 C :    0.524058
  61 F :   -0.169222
  62 F :   -0.150176
  63 F :   -0.170246
  64 C :   -0.030669
  65 C :   -0.000483
  66 H :   -0.018073
  67 H :   -0.012562
  68 H :   -0.007567
  69 H :    0.011246
  70 H :    0.013992
  71 H :   -0.003160
  72 H :   -0.008028
  73 H :   -0.009724
  74 H :   -0.002869
  75 H :    0.013270
  76 H :    0.015382
  77 H :    0.003274
  78 H :    0.005698
  79 H :   -0.002796
  80 H :   -0.005305
  81 H :   -0.000293
  82 H :    0.012784
  83 H :   -0.000690
  84 H :    0.001427
  85 H :    0.024803
  86 H :    0.049675
Sum of atomic charges:   -0.0000000

LOEWDIN ATOMIC CHARGES
----------------------
   0 C :    0.072514
   1 C :   -0.165834
   2 C :   -0.019171
   3 N :   -0.078703
   4 C :   -0.019743
   5 N :   -0.079990
   6 C :   -0.017142
   7 C :   -0.047666
   8 C :    0.015401
   9 C :   -0.037555
  10 C :   -0.146809
  11 C :   -0.015690
  12 S :    0.424052
  13 C :   -0.276521
  14 C :   -0.071043
  15 Br:    0.126445
  16 C :    0.080609
  17 O :   -0.162214
  18 C :   -0.114775
  19 C :    0.043023
  20 C :   -0.075240
  21 C :   -0.106160
  22 C :   -0.048546
  23 C :   -0.011790
  24 C :   -0.198843
  25 S :    0.414766
  26 C :   -0.147092
  27 C :   -0.049710
  28 C :   -0.012092
  29 C :   -0.174063
  30 S :    0.402657
  31 C :   -0.032482
  32 C :   -0.212431
  33 S :    0.448471
  34 C :   -0.134138
  35 C :   -0.090384
  36 C :    0.040336
  37 O :    0.019122
  38 C :    0.009557
  39 N :    0.277056
  40 O :   -0.221883
  41 O :   -0.195442
  42 C :   -0.007316
  43 C :   -0.087925
  44 C :   -0.134852
  45 C :   -0.034295
  46 C :   -0.021124
  47 C :   -0.185622
  48 S :    0.409692
  49 C :   -0.161739
  50 C :   -0.034040
  51 C :   -0.016087
  52 C :   -0.144342
  53 S :    0.411514
  54 C :   -0.050221
  55 C :    0.037467
  56 O :    0.019177
  57 C :    0.050723
  58 C :   -0.043612
  59 C :   -0.114425
  60 C :    0.169347
  61 F :   -0.070508
  62 F :   -0.050456
  63 F :   -0.068622
  64 C :   -0.051204
  65 C :   -0.007131
  66 H :    0.037874
  67 H :    0.039149
  68 H :    0.036994
  69 H :    0.029847
  70 H :    0.037704
  71 H :    0.037356
  72 H :    0.034161
  73 H :    0.033749
  74 H :    0.037720
  75 H :    0.050441
  76 H :    0.030593
  77 H :    0.043285
  78 H :    0.040430
  79 H :    0.036698
  80 H :    0.034854
  81 H :    0.038821
  82 H :    0.046722
  83 H :    0.039184
  84 H :    0.039541
  85 H :    0.020000
  86 H :    0.029623

  Mayer bond orders larger than 0.100000
B(  0-C ,  1-C ) :   1.5580 B(  0-C ,  6-C ) :   0.9821 B(  0-C , 18-C ) :   1.1366
B(  1-C ,  2-C ) :   1.1534 B(  1-C ,  4-C ) :   1.1582 B(  2-C ,  3-N ) :   2.9590
B(  4-C ,  5-N ) :   2.9553 B(  6-C ,  7-C ) :   1.2799 B(  6-C , 11-C ) :   1.4241
B(  7-C ,  8-C ) :   1.4313 B(  7-C , 16-C ) :   0.9326 B(  8-C ,  9-C ) :   1.2355
B(  8-C , 66-H ) :   1.0169 B(  9-C , 10-C ) :   1.3208 B(  9-C , 14-C ) :   1.1589
B( 10-C , 11-C ) :   1.3154 B( 10-C , 12-S ) :   1.0810 B( 11-C , 67-H ) :   0.9799
B( 12-S , 13-C ) :   1.0859 B( 13-C , 14-C ) :   1.6208 B( 13-C , 15-Br) :   1.0104
B( 14-C , 68-H ) :   1.0003 B( 16-C , 17-O ) :   2.1815 B( 16-C , 18-C ) :   0.9741
B( 18-C , 19-C ) :   1.4346 B( 19-C , 20-C ) :   1.3042 B( 19-C , 69-H ) :   0.9428
B( 20-C , 21-C ) :   1.3666 B( 20-C , 70-H ) :   0.9783 B( 21-C , 22-C ) :   1.2171
B( 21-C , 25-S ) :   1.0947 B( 22-C , 23-C ) :   1.4920 B( 22-C , 71-H ) :   1.0020
B( 23-C , 24-C ) :   1.2594 B( 23-C , 72-H ) :   0.9961 B( 24-C , 25-S ) :   1.0547
B( 24-C , 26-C ) :   1.3982 B( 26-C , 27-C ) :   1.2445 B( 26-C , 30-S ) :   1.0935
B( 27-C , 28-C ) :   1.5182 B( 27-C , 73-H ) :   0.9947 B( 28-C , 29-C ) :   1.2039
B( 28-C , 74-H ) :   1.0006 B( 29-C , 30-S ) :   1.0405 B( 29-C , 31-C ) :   1.4510
B( 31-C , 32-C ) :   1.2872 B( 31-C , 75-H ) :   0.9754 B( 32-C , 33-S ) :   1.0396
B( 32-C , 36-C ) :   1.3554 B( 33-S , 34-C ) :   1.1351 B( 34-C , 35-C ) :   1.1995
B( 34-C , 43-C ) :   1.3302 B( 35-C , 36-C ) :   1.2767 B( 35-C , 42-C ) :   1.1366
B( 36-C , 37-O ) :   1.1663 B( 37-O , 38-C ) :   1.1149 B( 38-C , 39-N ) :   0.9414
B( 38-C , 42-C ) :   1.5195 B( 39-N , 40-O ) :   1.4707 B( 39-N , 41-O ) :   1.5048
B( 40-O , 41-O ) :   0.2654 B( 42-C , 76-H ) :   1.0122 B( 43-C , 44-C ) :   1.4655
B( 43-C , 77-H ) :   0.9360 B( 44-C , 45-C ) :   1.2070 B( 44-C , 48-S ) :   1.0677
B( 45-C , 46-C ) :   1.5209 B( 45-C , 78-H ) :   1.0023 B( 46-C , 47-C ) :   1.2375
B( 46-C , 79-H ) :   0.9934 B( 47-C , 48-S ) :   1.0494 B( 47-C , 49-C ) :   1.4376
B( 49-C , 50-C ) :   1.2114 B( 49-C , 53-S ) :   1.0569 B( 50-C , 51-C ) :   1.5671
B( 50-C , 80-H ) :   0.9960 B( 51-C , 52-C ) :   1.1564 B( 51-C , 81-H ) :   1.0002
B( 52-C , 53-S ) :   1.0468 B( 52-C , 54-C ) :   1.5394 B( 54-C , 55-C ) :   1.2225
B( 54-C , 82-H ) :   0.9535 B( 55-C , 56-O ) :   1.1344 B( 55-C , 59-C ) :   1.3974
B( 56-O , 57-C ) :   1.1261 B( 57-C , 58-C ) :   1.4262 B( 57-C , 64-C ) :   1.1185
B( 58-C , 59-C ) :   1.2777 B( 58-C , 83-H ) :   1.0198 B( 59-C , 60-C ) :   0.9519
B( 60-C , 61-F ) :   1.1687 B( 60-C , 62-F ) :   1.1888 B( 60-C , 63-F ) :   1.1550
B( 64-C , 65-C ) :   1.8887 B( 64-C , 84-H ) :   0.9639 B( 65-C , 85-H ) :   0.9596
B( 65-C , 86-H ) :   0.9375

-----------------------------------------------------------------------------
         ABSORPTION SPECTRUM VIA TRANSITION ELECTRIC DIPOLE MOMENTS
-----------------------------------------------------------------------------
State   Energy  Wavelength   fosc         T2         TX        TY        TZ
        (cm-1)    (nm)                  (au**2)     (au)      (au)      (au)
-----------------------------------------------------------------------------
   0    5769.8   1733.2   0.903008911  51.52389  -5.42800   2.14620  -4.17787
   1   12045.1    830.2   0.083183831   2.27354   1.18388   0.83326   0.42148
   2   13003.2    769.0   0.488891322  12.37768  -1.49255  -3.14965   0.47924
   3   17250.4    579.7   0.207740888   3.96458  -0.95329   1.28032  -1.19020
   4   19210.6    520.5   0.117394702   2.01179  -1.18874  -0.25170  -0.73166
   5   20560.9    486.4   0.604769857   9.68333  -0.83077  -2.99757  -0.08789
   6   21065.8    474.7   0.116918232   1.82717  -0.52273  -1.24283  -0.09646
   7   22652.3    441.5   0.087404397   1.27027  -0.89712   0.42173  -0.53627
   8   23406.6    427.2   0.430015150   6.04813  -1.50087  -1.89047  -0.47078
   9   25015.8    399.7   0.089140237   1.17310   0.51313   0.93545   0.18633
  10   25393.9    393.8   0.334566092   4.33739   1.00703   1.79848   0.29787
  11   26300.7    380.2   0.000010022   0.00013  -0.00254  -0.00924  -0.00580
  12   27130.2    368.6   0.010255711   0.12445  -0.09146   0.30833  -0.14496
  13   27586.4    362.5   0.091796526   1.09548   0.79502   0.60249   0.31691
  14   27761.3    360.2   0.052219445   0.61925  -0.51439   0.34204  -0.48751
  15   28143.1    355.3   0.344270322   4.02721   1.70724   0.61201   0.85905
  16   28832.1    346.8   0.015455431   0.17647  -0.32530  -0.25234  -0.08352
  17   29153.9    343.0   0.042075484   0.47512   0.39356  -0.44606   0.34823
  18   29434.3    339.7   0.004025274   0.04502  -0.12084   0.10945  -0.13579
  19   29826.7    335.3   0.036298579   0.40065  -0.49430   0.19292  -0.34511
  20   30372.9    329.2   0.104564484   1.13337   0.90899   0.42475   0.35597
  21   30960.0    323.0   0.000556366   0.00592  -0.03541  -0.06798  -0.00639
  22   31566.0    316.8   0.054787517   0.57140   0.08343  -0.69050   0.29605
  23   31878.9    313.7   0.223588121   2.30898  -1.28831  -0.43269  -0.67971
  24   32152.6    311.0   0.000170987   0.00175  -0.03957  -0.01265  -0.00502
  25   32277.3    309.8   0.021659252   0.22091  -0.20149   0.37448  -0.20019
  26   32838.3    304.5   0.015409512   0.15448   0.33048   0.00261   0.21274
  27   32859.9    304.3   0.071487042   0.71620   0.71187   0.30482   0.34137
  28   33339.3    299.9   0.129999054   1.28369   0.89766   0.61415   0.31734
  29   33866.6    295.3   0.004236333   0.04118   0.11940   0.07600   0.14542
  30   34137.7    292.9   0.090435511   0.87213   0.23995   0.87968  -0.20177
  31   34481.7    290.0   0.001066571   0.01018   0.06104  -0.06054   0.05284
  32   34884.1    286.7   0.309881245   2.92444  -1.46726   0.21997  -0.85041
  33   35331.6    283.0   0.317067773   2.95437   1.25052  -0.55184   1.04213
  34   35746.7    279.7   0.035556708   0.32746   0.30792  -0.30769   0.37145
  35   36210.5    276.2   0.012578477   0.11436   0.27663  -0.06891   0.18190
  36   36216.3    276.1   0.019432173   0.17664  -0.33726   0.09150  -0.23350
  37   36545.5    273.6   0.001041567   0.00938  -0.06554   0.01894  -0.06876
  38   36606.9    273.2   0.061097240   0.54946   0.60537   0.36921   0.21603
  39   36989.2    270.3   0.004884141   0.04347   0.16104   0.11487   0.06588
  40   37509.5    266.6   0.010149486   0.08908  -0.11225   0.05177  -0.27166
  41   37652.2    265.6   0.049015389   0.42857   0.25410  -0.52896   0.29018
  42   38236.5    261.5   0.044735177   0.38516   0.49655   0.08963   0.36134
  43   38605.0    259.0   0.012040950   0.10268  -0.18051  -0.20114  -0.17216
  44   38944.8    256.8   0.030311804   0.25623   0.26308   0.41453   0.12325
  45   39279.8    254.6   0.056812632   0.47616   0.31708   0.60405   0.10365
  46   39308.0    254.4   0.106144713   0.88898   0.82028  -0.18021   0.42854
  47   39745.5    251.6   0.040362902   0.33433   0.46850  -0.17736   0.28875
  48   40052.8    249.7   0.125662194   1.03287  -0.80844   0.16960  -0.59206
  49   40084.7    249.5   0.226364791   1.85911   0.07872  -1.32136   0.32699

FINAL SINGLE POINT ENERGY     -7640.529656861024

DIPOLE MOMENT
-------------
                                X             Y             Z
Electronic contribution:   -111.88429     -61.86648     -47.05413
Nuclear contribution   :    113.60291      62.66807      47.95751
                        -----------------------------------------
Total Dipole Moment    :      1.71862       0.80158       0.90338
                        -----------------------------------------
Magnitude (a.u.)       :      2.10054
Magnitude (Debye)      :      5.33915

Rotational constants in cm-1:     0.001183     0.000221     0.000187
Rotational constants in MHz :    35.472339     6.616573     5.600981

                             ****ORCA TERMINATED NORMALLY****
TOTAL RUN TIME: 0 days 0 hours 8 minutes 48 seconds 43 msec
