                         Program Version 4.2.0 -  RELEASE  -
|  1> # ORCA input file
|  2> # SCF done       -133.430879390457          0.000277254279
|  3> ! CAM-B3LYP def2-SVP def2/J RIJCOSX Grid4 TightSCF
|  4> %maxcore 5000
|  5> %tddft
|  6>     Mode sTDDFT
|  7>     Ethresh 5.0
|  8>     maxcore 5000
|  9> end
| 10>
| 11> %pal
| 12>   nprocs 6
| 13>   end
| 14> * xyz 0 1
| 15>    C       -3.98761         8.11189        -7.87035
| 16>    S       -5.15063         6.97534        -7.26380
| 17>    C       -3.89360         5.91190        -6.81204
| 18>    C       -2.63880         6.42675        -7.11703
| 19>    C       -2.69975         7.69208        -7.72842
| 20>    C       -1.64193         5.46514        -6.65434
| 21>    O       -0.43009         5.54167        -6.73186
| 22>    C       -2.44800         4.34006        -6.03615
| 23>    C       -3.77853         4.64148        -6.16637
| 24>    C       -1.92858         3.26159        -5.28192
| 25>    C       -0.61285         3.06140        -4.98655
| 26>    C       -0.13947         2.20389        -3.96553
| 27>    O        1.18451         1.87169        -3.98472
| 28>    C        1.41970         1.04490        -2.96039
| 29>    C        0.29301         0.83084        -2.23290
| 30>    C       -0.73421         1.59863        -2.84956
| 31>    N       -2.02448         1.65687        -2.37806
| 32>    C       -2.89863         2.70768        -2.45303
| 33>    C       -2.54342         3.99018        -2.69626
| 34>    C       -3.49892         5.02265        -2.95811
| 35>    C       -3.19666         6.33804        -3.17004
| 36>    O       -4.18215         7.30610        -3.35491
| 37>    C       -5.44318         6.83171        -3.52539
| 38>    C       -5.75344         5.45299        -3.34612
| 39>    C       -7.05966         5.17329        -3.57648
| 40>    S       -7.93665         6.59505        -4.00847
| 41>    C       -6.52049         7.57172        -3.88493
| 42>    O       -4.80650         4.54642        -2.97974
| 43>    C       -1.90473         6.96612        -3.17926
| 44>    C       -0.73431         6.46707        -3.62925
| 45>    C        0.49941         7.17301        -3.56833
| 46>    O        0.63862         8.29732        -2.81594
| 47>    C        1.91871         8.68201        -2.90404
| 48>    C        2.63891         7.84933        -3.70312
| 49>    C        1.72452         6.85952        -4.15595
| 50>    N        1.91537         5.85529        -5.07355
| 51>    C        3.07262         5.20555        -5.36108
| 52>    C        4.20871         5.21236        -4.62715
| 53>    C        5.39483         4.52868        -5.00196
| 54>    S        5.52015         3.64375        -6.51412
| 55>    C        7.14175         3.21358        -6.15783
| 56>    C        7.55671         3.72569        -4.93657
| 57>    C        6.57854         4.46827        -4.28087
| 58>    C        8.96280         3.29727        -4.74244
| 59>    O        9.69760         3.52222        -3.81104
| 60>    C        9.29118         2.50161        -5.98101
| 61>    C        8.19111         2.47288        -6.78699
| 62>    C       10.59240         1.92534        -6.15750
| 63>    C       11.00039         1.22714        -7.21812
| 64>    H       -4.34327         9.02868        -8.29629
| 65>    H       -1.84450         8.26188        -8.04269
| 66>    H       -4.60297         4.04171        -5.82676
| 67>    H       -2.66864         2.58955        -4.87466
| 68>    H        0.15376         3.58644        -5.53620
| 69>    H        2.42116         0.68021        -2.84458
| 70>    H        0.19342         0.22023        -1.35870
| 71>    H       -2.30165         0.87302        -1.80384
| 72>    H       -3.93892         2.43496        -2.34398
| 73>    H       -1.50680         4.26792        -2.67371
| 74>    H       -7.55704         4.22872        -3.50728
| 75>    H       -6.56525         8.62276        -4.07746
| 76>    H       -1.93160         8.00191        -2.86629
| 77>    H       -0.67633         5.48874        -4.07819
| 78>    H        2.20310         9.56253        -2.36231
| 79>    H        3.67049         7.94844        -3.96776
| 80>    H        1.10241         5.62442        -5.63573
| 81>    H        3.02840         4.61130        -6.26460
| 82>    H        4.25122         5.74485        -3.68886
| 83>    H        6.70659         4.94858        -3.32779
| 84>    H        8.10287         1.98488        -7.74046
| 85>    H       11.26982         2.10404        -5.33156
| 86>    H       10.35402         1.03415        -8.05744
| 87>    H       11.99729         0.82719        -7.27844
| 88> *
| 89>
| 90>                          ****END OF INPUT****

CARTESIAN COORDINATES (ANGSTROEM)
---------------------------------
  C     -3.987610    8.111890   -7.870350
  S     -5.150630    6.975340   -7.263800
  C     -3.893600    5.911900   -6.812040
  C     -2.638800    6.426750   -7.117030
  C     -2.699750    7.692080   -7.728420
  C     -1.641930    5.465140   -6.654340
  O     -0.430090    5.541670   -6.731860
  C     -2.448000    4.340060   -6.036150
  C     -3.778530    4.641480   -6.166370
  C     -1.928580    3.261590   -5.281920
  C     -0.612850    3.061400   -4.986550
  C     -0.139470    2.203890   -3.965530
  O      1.184510    1.871690   -3.984720
  C      1.419700    1.044900   -2.960390
  C      0.293010    0.830840   -2.232900
  C     -0.734210    1.598630   -2.849560
  N     -2.024480    1.656870   -2.378060
  C     -2.898630    2.707680   -2.453030
  C     -2.543420    3.990180   -2.696260
  C     -3.498920    5.022650   -2.958110
  C     -3.196660    6.338040   -3.170040
  O     -4.182150    7.306100   -3.354910
  C     -5.443180    6.831710   -3.525390
  C     -5.753440    5.452990   -3.346120
  C     -7.059660    5.173290   -3.576480
  S     -7.936650    6.595050   -4.008470
  C     -6.520490    7.571720   -3.884930
  O     -4.806500    4.546420   -2.979740
  C     -1.904730    6.966120   -3.179260
  C     -0.734310    6.467070   -3.629250
  C      0.499410    7.173010   -3.568330
  O      0.638620    8.297320   -2.815940
  C      1.918710    8.682010   -2.904040
  C      2.638910    7.849330   -3.703120
  C      1.724520    6.859520   -4.155950
  N      1.915370    5.855290   -5.073550
  C      3.072620    5.205550   -5.361080
  C      4.208710    5.212360   -4.627150
  C      5.394830    4.528680   -5.001960
  S      5.520150    3.643750   -6.514120
  C      7.141750    3.213580   -6.157830
  C      7.556710    3.725690   -4.936570
  C      6.578540    4.468270   -4.280870
  C      8.962800    3.297270   -4.742440
  O      9.697600    3.522220   -3.811040
  C      9.291180    2.501610   -5.981010
  C      8.191110    2.472880   -6.786990
  C     10.592400    1.925340   -6.157500
  C     11.000390    1.227140   -7.218120
  H     -4.343270    9.028680   -8.296290
  H     -1.844500    8.261880   -8.042690
  H     -4.602970    4.041710   -5.826760
  H     -2.668640    2.589550   -4.874660
  H      0.153760    3.586440   -5.536200
  H      2.421160    0.680210   -2.844580
  H      0.193420    0.220230   -1.358700
  H     -2.301650    0.873020   -1.803840
  H     -3.938920    2.434960   -2.343980
  H     -1.506800    4.267920   -2.673710
  H     -7.557040    4.228720   -3.507280
  H     -6.565250    8.622760   -4.077460
  H     -1.931600    8.001910   -2.866290
  H     -0.676330    5.488740   -4.078190
  H      2.203100    9.562530   -2.362310
  H      3.670490    7.948440   -3.967760
  H      1.102410    5.624420   -5.635730
  H      3.028400    4.611300   -6.264600
  H      4.251220    5.744850   -3.688860
  H      6.706590    4.948580   -3.327790
  H      8.102870    1.984880   -7.740460
  H     11.269820    2.104040   -5.331560
  H     10.354020    1.034150   -8.057440
  H     11.997290    0.827190   -7.278440

 Total Charge           Charge          ....    0
 Multiplicity           Mult            ....    1
 Number of Electrons    NEL             ....  362
 Basis Dimension        Dim             ....  818

ORBITAL ENERGIES
----------------

  NO   OCC          E(Eh)            E(eV)
   0   2.0000     -88.969508     -2420.9834
   1   2.0000     -88.952366     -2420.5169
   2   2.0000     -88.950514     -2420.4665
   3   2.0000     -19.280628      -524.6526
   4   2.0000     -19.277695      -524.5727
   5   2.0000     -19.266204      -524.2601
   6   2.0000     -19.258455      -524.0492
   7   2.0000     -19.230843      -523.2978
   8   2.0000     -19.206648      -522.6395
   9   2.0000     -14.454123      -393.3167
  10   2.0000     -14.431264      -392.6947
  11   2.0000     -10.374977      -282.3175
  12   2.0000     -10.347179      -281.5611
  13   2.0000     -10.334686      -281.2211
  14   2.0000     -10.331842      -281.1437
  15   2.0000     -10.331344      -281.1302
  16   2.0000     -10.327415      -281.0233
  17   2.0000     -10.325396      -280.9683
  18   2.0000     -10.319870      -280.8179
  19   2.0000     -10.317727      -280.7596
  20   2.0000     -10.315715      -280.7049
  21   2.0000     -10.309360      -280.5319
  22   2.0000     -10.306015      -280.4409
  23   2.0000     -10.305586      -280.4293
  24   2.0000     -10.304530      -280.4005
  25   2.0000     -10.303479      -280.3719
  26   2.0000     -10.293937      -280.1123
  27   2.0000     -10.291407      -280.0434
  28   2.0000     -10.290322      -280.0139
  29   2.0000     -10.289367      -279.9879
  30   2.0000     -10.286982      -279.9230
  31   2.0000     -10.283246      -279.8213
  32   2.0000     -10.282904      -279.8120
  33   2.0000     -10.282826      -279.8099
  34   2.0000     -10.282549      -279.8024
  35   2.0000     -10.273711      -279.5619
  36   2.0000     -10.273349      -279.5520
  37   2.0000     -10.272637      -279.5327
  38   2.0000     -10.269696      -279.4526
  39   2.0000     -10.266819      -279.3743
  40   2.0000     -10.265906      -279.3495
  41   2.0000     -10.262039      -279.2443
  42   2.0000     -10.261281      -279.2237
  43   2.0000     -10.260978      -279.2154
  44   2.0000     -10.260079      -279.1910
  45   2.0000     -10.257604      -279.1236
  46   2.0000     -10.252499      -278.9847
  47   2.0000     -10.251610      -278.9605
  48   2.0000     -10.249512      -278.9034
  49   2.0000      -8.064496      -219.4461
  50   2.0000      -8.048108      -219.0002
  51   2.0000      -8.045519      -218.9297
  52   2.0000      -6.033641      -164.1837
  53   2.0000      -6.029290      -164.0653
  54   2.0000      -6.027236      -164.0094
  55   2.0000      -6.017657      -163.7488
  56   2.0000      -6.014651      -163.6670
  57   2.0000      -6.013451      -163.6343
  58   2.0000      -6.010773      -163.5615
  59   2.0000      -6.009775      -163.5343
  60   2.0000      -6.007864      -163.4823
  61   2.0000      -1.200606       -32.6702
  62   2.0000      -1.196045       -32.5461
  63   2.0000      -1.187506       -32.3137
  64   2.0000      -1.149790       -31.2874
  65   2.0000      -1.139351       -31.0033
  66   2.0000      -1.116046       -30.3692
  67   2.0000      -1.048134       -28.5212
  68   2.0000      -1.034447       -28.1487
  69   2.0000      -0.999458       -27.1966
  70   2.0000      -0.982293       -26.7296
  71   2.0000      -0.979393       -26.6506
  72   2.0000      -0.934033       -25.4163
  73   2.0000      -0.921180       -25.0666
  74   2.0000      -0.910965       -24.7886
  75   2.0000      -0.893633       -24.3170
  76   2.0000      -0.891144       -24.2493
  77   2.0000      -0.882942       -24.0261
  78   2.0000      -0.873982       -23.7823
  79   2.0000      -0.857950       -23.3460
  80   2.0000      -0.846769       -23.0418
  81   2.0000      -0.841161       -22.8892
  82   2.0000      -0.832257       -22.6469
  83   2.0000      -0.830253       -22.5923
  84   2.0000      -0.822721       -22.3874
  85   2.0000      -0.813698       -22.1419
  86   2.0000      -0.806887       -21.9565
  87   2.0000      -0.787027       -21.4161
  88   2.0000      -0.775770       -21.1098
  89   2.0000      -0.759328       -20.6624
  90   2.0000      -0.744627       -20.2623
  91   2.0000      -0.741059       -20.1652
  92   2.0000      -0.731813       -19.9137
  93   2.0000      -0.720021       -19.5928
  94   2.0000      -0.713644       -19.4192
  95   2.0000      -0.702624       -19.1194
  96   2.0000      -0.699310       -19.0292
  97   2.0000      -0.683997       -18.6125
  98   2.0000      -0.674626       -18.3575
  99   2.0000      -0.669232       -18.2107
 100   2.0000      -0.666171       -18.1274
 101   2.0000      -0.651859       -17.7380
 102   2.0000      -0.645590       -17.5674
 103   2.0000      -0.641803       -17.4643
 104   2.0000      -0.636910       -17.3312
 105   2.0000      -0.627737       -17.0816
 106   2.0000      -0.622872       -16.9492
 107   2.0000      -0.614594       -16.7239
 108   2.0000      -0.606031       -16.4909
 109   2.0000      -0.602766       -16.4021
 110   2.0000      -0.598492       -16.2858
 111   2.0000      -0.590184       -16.0597
 112   2.0000      -0.585524       -15.9329
 113   2.0000      -0.578510       -15.7421
 114   2.0000      -0.574631       -15.6365
 115   2.0000      -0.567827       -15.4514
 116   2.0000      -0.565957       -15.4005
 117   2.0000      -0.558475       -15.1969
 118   2.0000      -0.557167       -15.1613
 119   2.0000      -0.548856       -14.9351
 120   2.0000      -0.547876       -14.9085
 121   2.0000      -0.546322       -14.8662
 122   2.0000      -0.541322       -14.7301
 123   2.0000      -0.533844       -14.5266
 124   2.0000      -0.531614       -14.4659
 125   2.0000      -0.528433       -14.3794
 126   2.0000      -0.521944       -14.2028
 127   2.0000      -0.520244       -14.1566
 128   2.0000      -0.518249       -14.1023
 129   2.0000      -0.509459       -13.8631
 130   2.0000      -0.509076       -13.8527
 131   2.0000      -0.506623       -13.7859
 132   2.0000      -0.503131       -13.6909
 133   2.0000      -0.502498       -13.6737
 134   2.0000      -0.496520       -13.5110
 135   2.0000      -0.490103       -13.3364
 136   2.0000      -0.485631       -13.2147
 137   2.0000      -0.484036       -13.1713
 138   2.0000      -0.479855       -13.0575
 139   2.0000      -0.478273       -13.0145
 140   2.0000      -0.473143       -12.8749
 141   2.0000      -0.470979       -12.8160
 142   2.0000      -0.468203       -12.7405
 143   2.0000      -0.467551       -12.7227
 144   2.0000      -0.465381       -12.6636
 145   2.0000      -0.463513       -12.6128
 146   2.0000      -0.461758       -12.5651
 147   2.0000      -0.458875       -12.4866
 148   2.0000      -0.453931       -12.3521
 149   2.0000      -0.453501       -12.3404
 150   2.0000      -0.452571       -12.3151
 151   2.0000      -0.447292       -12.1714
 152   2.0000      -0.443831       -12.0773
 153   2.0000      -0.439897       -11.9702
 154   2.0000      -0.431299       -11.7363
 155   2.0000      -0.429658       -11.6916
 156   2.0000      -0.427234       -11.6256
 157   2.0000      -0.425198       -11.5702
 158   2.0000      -0.414503       -11.2792
 159   2.0000      -0.414133       -11.2691
 160   2.0000      -0.405281       -11.0283
 161   2.0000      -0.404190       -10.9986
 162   2.0000      -0.395747       -10.7688
 163   2.0000      -0.384035       -10.4501
 164   2.0000      -0.373537       -10.1645
 165   2.0000      -0.362179        -9.8554
 166   2.0000      -0.355277        -9.6676
 167   2.0000      -0.340777        -9.2730
 168   2.0000      -0.336027        -9.1438
 169   2.0000      -0.331711        -9.0263
 170   2.0000      -0.330793        -9.0013
 171   2.0000      -0.317860        -8.6494
 172   2.0000      -0.315063        -8.5733
 173   2.0000      -0.303101        -8.2478
 174   2.0000      -0.301609        -8.2072
 175   2.0000      -0.290265        -7.8985
 176   2.0000      -0.281406        -7.6574
 177   2.0000      -0.264606        -7.2003
 178   2.0000      -0.236435        -6.4337
 179   2.0000      -0.227392        -6.1876
 180   2.0000      -0.207007        -5.6329
 181   0.0000      -0.077884        -2.1193
 182   0.0000      -0.056479        -1.5369
 183   0.0000      -0.020259        -0.5513
 184   0.0000       0.004638         0.1262
 185   0.0000       0.026585         0.7234

MULLIKEN ATOMIC CHARGES
-----------------------
   0 C :   -0.101943
   1 S :    0.177913
   2 C :   -0.073136
   3 C :   -0.036151
   4 C :    0.057599
   5 C :    0.194763
   6 O :   -0.180813
   7 C :   -0.042505
   8 C :   -0.018976
   9 C :    0.014757
  10 C :   -0.027654
  11 C :    0.093546
  12 O :   -0.194133
  13 C :    0.165917
  14 C :   -0.062313
  15 C :    0.036140
  16 N :   -0.019115
  17 C :    0.014233
  18 C :   -0.034560
  19 C :    0.150386
  20 C :    0.145118
  21 O :   -0.259841
  22 C :    0.228359
  23 C :    0.213707
  24 C :   -0.187741
  25 S :    0.098399
  26 C :   -0.177279
  27 O :   -0.281995
  28 C :   -0.029704
  29 C :   -0.028001
  30 C :    0.083951
  31 O :   -0.196902
  32 C :    0.157951
  33 C :   -0.078151
  34 C :    0.076867
  35 N :   -0.058246
  36 C :    0.050450
  37 C :   -0.035653
  38 C :   -0.053052
  39 S :    0.120764
  40 C :   -0.079378
  41 C :    0.014492
  42 C :   -0.040576
  43 C :    0.147561
  44 O :   -0.123818
  45 C :   -0.057943
  46 C :   -0.018837
  47 C :    0.011335
  48 C :   -0.014024
  49 H :    0.027974
  50 H :   -0.005453
  51 H :   -0.005450
  52 H :   -0.014064
  53 H :   -0.018758
  54 H :    0.016375
  55 H :   -0.027744
  56 H :    0.130947
  57 H :    0.007185
  58 H :    0.001477
  59 H :    0.017304
  60 H :    0.020448
  61 H :    0.008966
  62 H :   -0.033811
  63 H :    0.008685
  64 H :   -0.010245
  65 H :    0.152123
  66 H :    0.012812
  67 H :   -0.012019
  68 H :   -0.021108
  69 H :   -0.016886
  70 H :   -0.003134
  71 H :    0.003181
  72 H :    0.019429
Sum of atomic charges:    0.0000000

LOEWDIN ATOMIC CHARGES
----------------------
   0 C :   -0.191336
   1 S :    0.480414
   2 C :   -0.164065
   3 C :   -0.122166
   4 C :   -0.024550
   5 C :    0.129546
   6 O :   -0.137475
   7 C :   -0.055851
   8 C :   -0.010373
   9 C :   -0.024495
  10 C :   -0.046759
  11 C :   -0.010868
  12 O :    0.012470
  13 C :    0.057331
  14 C :   -0.097264
  15 C :   -0.019126
  16 N :    0.035655
  17 C :    0.009303
  18 C :   -0.081300
  19 C :    0.025553
  20 C :    0.011095
  21 O :   -0.061185
  22 C :   -0.009965
  23 C :   -0.011180
  24 C :   -0.222171
  25 S :    0.425250
  26 C :   -0.216919
  27 O :   -0.065494
  28 C :   -0.040470
  29 C :   -0.035573
  30 C :   -0.012076
  31 O :    0.013320
  32 C :    0.048463
  33 C :   -0.089541
  34 C :   -0.009973
  35 N :    0.032644
  36 C :    0.033061
  37 C :   -0.128823
  38 C :   -0.147119
  39 S :    0.433744
  40 C :   -0.194030
  41 C :   -0.103229
  42 C :   -0.050841
  43 C :    0.099711
  44 O :   -0.112721
  45 C :   -0.078689
  46 C :    0.012855
  47 C :   -0.023246
  48 C :   -0.046038
  49 H :    0.022409
  50 H :    0.038148
  51 H :    0.030584
  52 H :    0.031287
  53 H :    0.028229
  54 H :    0.026664
  55 H :    0.028326
  56 H :    0.090368
  57 H :    0.022120
  58 H :    0.035472
  59 H :    0.025489
  60 H :    0.026813
  61 H :    0.036748
  62 H :    0.029417
  63 H :    0.023033
  64 H :    0.032638
  65 H :    0.070324
  66 H :    0.022225
  67 H :    0.031804
  68 H :    0.032183
  69 H :    0.028011
  70 H :    0.032769
  71 H :    0.016101
  72 H :    0.023328

  Mayer bond orders larger than 0.100000
B(  0-C ,  1-S ) :   1.1480 B(  0-C ,  4-C ) :   1.5541 B(  0-C , 49-H ) :   0.9682
B(  1-S ,  2-C ) :   1.1682 B(  2-C ,  3-C ) :   1.4707 B(  2-C ,  8-C ) :   1.0481
B(  3-C ,  4-C ) :   1.2728 B(  3-C ,  5-C ) :   0.9822 B(  4-C , 50-H ) :   1.0031
B(  5-C ,  6-O ) :   2.0650 B(  5-C ,  7-C ) :   0.9319 B(  6-O , 65-H ) :   0.1068
B(  7-C ,  8-C ) :   1.5981 B(  7-C ,  9-C ) :   1.2063 B(  8-C , 51-H ) :   1.0168
B(  9-C , 10-C ) :   1.5825 B(  9-C , 52-H ) :   0.9494 B( 10-C , 11-C ) :   1.2021
B( 10-C , 53-H ) :   0.9396 B( 11-C , 12-O ) :   1.1063 B( 11-C , 15-C ) :   1.4001
B( 12-O , 13-C ) :   1.1634 B( 13-C , 14-C ) :   1.5236 B( 13-C , 54-H ) :   1.0054
B( 14-C , 15-C ) :   1.2149 B( 14-C , 55-H ) :   1.0138 B( 15-C , 16-N ) :   1.1309
B( 16-N , 17-C ) :   1.1403 B( 16-N , 56-H ) :   0.9212 B( 17-C , 18-C ) :   1.6691
B( 17-C , 57-H ) :   0.9591 B( 18-C , 19-C ) :   1.2021 B( 18-C , 58-H ) :   0.9326
B( 19-C , 20-C ) :   1.5471 B( 19-C , 27-O ) :   1.0335 B( 20-C , 21-O ) :   1.0088
B( 20-C , 28-C ) :   1.0856 B( 21-O , 22-C ) :   1.0782 B( 22-C , 23-C ) :   1.2003
B( 22-C , 26-C ) :   1.5692 B( 23-C , 24-C ) :   1.5624 B( 23-C , 27-O ) :   1.0514
B( 24-C , 25-S ) :   1.1365 B( 24-C , 59-H ) :   0.9746 B( 25-S , 26-C ) :   1.1349
B( 26-C , 60-H ) :   0.9707 B( 28-C , 29-C ) :   1.6952 B( 28-C , 61-H ) :   0.9538
B( 29-C , 30-C ) :   1.1845 B( 29-C , 62-H ) :   0.9299 B( 30-C , 31-O ) :   1.1352
B( 30-C , 34-C ) :   1.4201 B( 31-O , 32-C ) :   1.1515 B( 32-C , 33-C ) :   1.5189
B( 32-C , 63-H ) :   1.0042 B( 33-C , 34-C ) :   1.2168 B( 33-C , 64-H ) :   1.0174
B( 34-C , 35-N ) :   1.1277 B( 35-N , 36-C ) :   1.1955 B( 35-N , 65-H ) :   0.8726
B( 36-C , 37-C ) :   1.6378 B( 36-C , 66-H ) :   0.9631 B( 37-C , 38-C ) :   1.1762
B( 37-C , 67-H ) :   0.9656 B( 38-C , 39-S ) :   1.1088 B( 38-C , 42-C ) :   1.4543
B( 39-S , 40-C ) :   1.1017 B( 40-C , 41-C ) :   1.4910 B( 40-C , 46-C ) :   1.0577
B( 41-C , 42-C ) :   1.2744 B( 41-C , 43-C ) :   0.9138 B( 42-C , 68-H ) :   1.0110
B( 43-C , 44-O ) :   2.2682 B( 43-C , 45-C ) :   0.9302 B( 45-C , 46-C ) :   1.6589
B( 45-C , 47-C ) :   1.1158 B( 46-C , 69-H ) :   1.0136 B( 47-C , 48-C ) :   1.9105
B( 47-C , 70-H ) :   0.9589 B( 48-C , 71-H ) :   0.9518 B( 48-C , 72-H ) :   0.9501

-----------------------------------------------------------------------------
         ABSORPTION SPECTRUM VIA TRANSITION ELECTRIC DIPOLE MOMENTS
-----------------------------------------------------------------------------
State   Energy  Wavelength   fosc         T2         TX        TY        TZ
        (cm-1)    (nm)                  (au**2)     (au)      (au)      (au)
-----------------------------------------------------------------------------
   0   10492.6    953.1   0.025724073   0.80711  -0.58248  -0.08879  -0.67819
   1   14776.4    676.8   0.145183242   3.23463  -0.75898   1.18488  -1.12010
   2   14999.7    666.7   0.299382792   6.57081   2.24624  -0.98186  -0.74911
   3   15932.8    627.6   0.006811416   0.14074  -0.34617   0.13381   0.05479
   4   23426.2    426.9   0.341299710   4.79633  -1.96649  -0.87865   0.39649
   5   23797.7    420.2   0.083620106   1.15678   0.98456   0.42103  -0.10079
   6   25284.7    395.5   0.058453903   0.76108  -0.82171  -0.28873   0.05011
   7   25563.8    391.2   0.032525393   0.41886  -0.49165  -0.17311   0.38363
   8   26774.3    373.5   0.000367586   0.00452   0.04462  -0.04612  -0.02004
   9   26889.0    371.9   0.040274105   0.49309   0.51365  -0.30558  -0.36861
  10   27180.0    367.9   0.004456818   0.05398   0.18667  -0.04465   0.13093
  11   28416.8    351.9   0.268383988   3.10926   0.91235  -1.44407  -0.43765
  12   28538.0    350.4   0.078470554   0.90523   0.87267  -0.10642  -0.36380
  13   29297.4    341.3   0.068011297   0.76424  -0.77466   0.31892  -0.24986
  14   29475.2    339.3   0.065037134   0.72641  -0.01635  -0.72003   0.45573
  15   30205.3    331.1   0.021798647   0.23759  -0.45935  -0.06119   0.15114
  16   30693.1    325.8   0.007007199   0.07516   0.15629   0.20638  -0.09023
  17   32723.6    305.6   0.031053868   0.31241  -0.47553  -0.17695   0.23447
  18   33489.7    298.6   0.050785713   0.49924   0.12089  -0.40993   0.56265
  19   34046.7    293.7   0.232334087   2.24653   1.05200  -0.43775  -0.97376
  20   34445.6    290.3   1.135777058  10.85511  -2.07639   2.24843  -1.21994
  21   35317.9    283.1   0.055264498   0.51514   0.48100   0.52826  -0.06870
  22   35401.7    282.5   0.008028168   0.07466  -0.15338  -0.17331   0.14523
  23   35516.8    281.6   0.169554631   1.57163   1.10907  -0.26219   0.52235
  24   36528.5    273.8   0.165796522   1.49424   1.21170   0.13515   0.08800
  25   36926.1    270.8   0.258626778   2.30577  -1.15664   0.83133  -0.52615
  26   37033.5    270.0   0.300533464   2.67161  -1.41103   0.82492  -0.01034
  27   38243.3    261.5   0.044732898   0.38508  -0.55577   0.22326  -0.16232
  28   39073.0    255.9   0.063305589   0.53338  -0.66992   0.29064  -0.01100
  29   39749.6    251.6   0.000112675   0.00093  -0.01828   0.02413   0.00411
  30   39992.3    250.0   0.207845537   1.71096   1.06828  -0.74156   0.14076

FINAL SINGLE POINT ENERGY     -3214.828107777992

DIPOLE MOMENT
-------------
                                X             Y             Z
Electronic contribution:    -24.50112       9.14577      -1.89674
Nuclear contribution   :     21.73654      -9.74103       1.72398
                        -----------------------------------------
Total Dipole Moment    :     -2.76458      -0.59526      -0.17276
                        -----------------------------------------
Magnitude (a.u.)       :      2.83321
Magnitude (Debye)      :      7.20145

Rotational constants in cm-1:     0.004029     0.000807     0.000769
Rotational constants in MHz :   120.772415    24.187732    23.048543

                             ****ORCA TERMINATED NORMALLY****
TOTAL RUN TIME: 0 days 0 hours 5 minutes 55 seconds 865 msec
