                         Program Version 4.2.0 -  RELEASE  -
|  1> # ORCA input file
|  2> # SCF done       -180.705073070121          0.001399766986
|  3> ! CAM-B3LYP def2-SVP def2/J RIJCOSX Grid4 TightSCF
|  4> %maxcore 5000
|  5> %tddft
|  6>     Mode sTDDFT
|  7>     Ethresh 5.0
|  8>     maxcore 5000
|  9> end
| 10>
| 11> %pal
| 12>   nprocs 6
| 13>   end
| 14> * xyz 0 1
| 15>    C       -1.87656        -7.01542        -6.53105
| 16>    O       -0.66616        -7.29907        -6.05285
| 17>    C       -0.80897        -7.70609        -4.76487
| 18>    C       -2.14076        -7.67991        -4.41931
| 19>    C       -2.82922        -7.22982        -5.57139
| 20>    C       -4.29443        -7.02679        -5.70870
| 21>    F       -4.63048        -6.57535        -6.92924
| 22>    F       -4.99588        -8.15719        -5.51583
| 23>    F       -4.77798        -6.13356        -4.82777
| 24>    C        0.33168        -8.07094        -3.98238
| 25>    C        1.59951        -8.02108        -4.43289
| 26>    C        2.71218        -8.37785        -3.61141
| 27>    N        4.02228        -8.28877        -4.01856
| 28>    C        4.86575        -8.67135        -3.02119
| 29>    C        4.09331        -9.02073        -1.93277
| 30>    C        2.74303        -8.83421        -2.31156
| 31>    S        1.72238        -9.31614        -0.94053
| 32>    O        0.96938       -10.49997        -1.25849
| 33>    O        0.98038        -8.19720        -0.41881
| 34>    C        3.15981        -9.69420         0.10500
| 35>    C        4.29860        -9.48748        -0.58978
| 36>    C        2.88995       -10.10821         1.43330
| 37>    C        3.83856       -10.28370         2.38336
| 38>    C        3.67070       -10.62923         3.75340
| 39>    S        5.10764       -10.50375         4.73583
| 40>    C        4.24183       -10.92369         6.18297
| 41>    C        2.90194       -11.14781         5.89985
| 42>    C        2.58438       -11.00678         4.53412
| 43>    C        1.18965       -11.24853         4.00436
| 44>    O        1.15795       -12.01307         2.81118
| 45>    C        1.76684       -13.27946         2.85282
| 46>    C        0.27876       -11.84357         5.08708
| 47>    C        0.47058       -11.10887         6.40422
| 48>    C        1.86374       -11.41536         6.94445
| 49>    C        4.97562       -10.96241         7.40078
| 50>    C        4.59849       -11.53572         8.56648
| 51>    C        5.38983       -11.51321         9.74614
| 52>    S        6.89721       -10.65031         9.83631
| 53>    C        7.12110       -11.10033        11.50656
| 54>    C        6.08604       -11.91208        11.94229
| 55>    C        5.10704       -12.13015        10.95598
| 56>    C        3.84507       -12.92401        11.18806
| 57>    O        3.59592       -13.88309        10.16631
| 58>    C        4.58110       -14.87015         9.98470
| 59>    C        3.79452       -13.52371        12.60568
| 60>    C        5.17078       -13.84838        13.17571
| 61>    C        6.00638       -12.57572        13.28012
| 62>    C        8.28801       -10.60121        12.15464
| 63>    C        8.47074       -10.50982        13.49086
| 64>    C        9.63235       -10.05327        14.18399
| 65>    S        9.48210        -9.98152        15.92042
| 66>    C       11.13097        -9.47210        16.11299
| 67>    C       11.75762        -9.38424        14.88842
| 68>    C       10.91227        -9.68872        13.79602
| 69>    C       11.38843        -9.63139        12.36614
| 70>    O       10.59854        -8.78594        11.53353
| 71>    C       10.25563        -7.53067        12.06772
| 72>    C       12.87056        -9.23629        12.25222
| 73>    C       13.69379        -9.77736        13.41011
| 74>    C       13.21963        -9.12551        14.70562
| 75>    C       11.60750        -9.23532        17.45013
| 76>    C       12.65206        -8.49200        17.80886
| 77>    H       -1.95844        -6.67525        -7.54433
| 78>    H       -2.56682        -7.94369        -3.47438
| 79>    H        0.12857        -8.39252        -2.97155
| 80>    H        1.80769        -7.69506        -5.44307
| 81>    H        4.31046        -7.98153        -4.93399
| 82>    H        5.92906        -8.66644        -3.15292
| 83>    H        5.29016        -9.65194        -0.19946
| 84>    H        1.84585       -10.27157         1.64399
| 85>    H        4.86987       -10.09219         2.11028
| 86>    H        0.77118       -10.27930         3.69398
| 87>    H        1.81407       -13.61452         1.81834
| 88>    H        1.18098       -14.00108         3.43325
| 89>    H        2.78145       -13.22991         3.26236
| 90>    H        0.52297       -12.89763         5.23161
| 91>    H       -0.75377       -11.77954         4.74176
| 92>    H        0.36129       -10.03382         6.24589
| 93>    H       -0.28272       -11.42439         7.12768
| 94>    H        1.90899       -12.46567         7.25061
| 95>    H        2.07247       -10.80287         7.82485
| 96>    H        5.95502       -10.49979         7.35691
| 97>    H        3.67734       -12.08835         8.64689
| 98>    H        2.98747       -12.24510        11.07308
| 99>    H        5.57913       -14.42962         9.88737
|100>    H        4.32565       -15.38156         9.05743
|101>    H        4.58298       -15.59956        10.80211
|102>    H        3.17113       -14.41895        12.56956
|103>    H        3.30580       -12.80569        13.26754
|104>    H        5.05784       -14.29633        14.16507
|105>    H        5.69072       -14.56578        12.53944
|106>    H        7.01088       -12.81632        13.63425
|107>    H        5.54441       -11.89717        14.00485
|108>    H        9.03906       -10.21298        11.48389
|109>    H        7.66440       -10.79028        14.15347
|110>    H       11.25235       -10.62935        11.92278
|111>    H        9.51101        -7.62422        12.86750
|112>    H        9.82461        -6.96500        11.24319
|113>    H       11.12653        -6.99265        12.45674
|114>    H       12.94677        -8.14634        12.24109
|115>    H       13.25164        -9.60025        11.29682
|116>    H       13.57262       -10.86107        13.47715
|117>    H       14.75163        -9.56212        13.24870
|118>    H       13.40965        -8.04812        14.66005
|119>    H       13.76836        -9.52770        15.56004
|120>    H       11.00627        -9.70195        18.22120
|121>    H       13.25692        -7.95282        17.10324
|122>    H       12.91772        -8.38332        18.84611
|123> *
|124>
|125>                          ****END OF INPUT****

CARTESIAN COORDINATES (ANGSTROEM)
---------------------------------
  C     -1.876560   -7.015420   -6.531050
  O     -0.666160   -7.299070   -6.052850
  C     -0.808970   -7.706090   -4.764870
  C     -2.140760   -7.679910   -4.419310
  C     -2.829220   -7.229820   -5.571390
  C     -4.294430   -7.026790   -5.708700
  F     -4.630480   -6.575350   -6.929240
  F     -4.995880   -8.157190   -5.515830
  F     -4.777980   -6.133560   -4.827770
  C      0.331680   -8.070940   -3.982380
  C      1.599510   -8.021080   -4.432890
  C      2.712180   -8.377850   -3.611410
  N      4.022280   -8.288770   -4.018560
  C      4.865750   -8.671350   -3.021190
  C      4.093310   -9.020730   -1.932770
  C      2.743030   -8.834210   -2.311560
  S      1.722380   -9.316140   -0.940530
  O      0.969380  -10.499970   -1.258490
  O      0.980380   -8.197200   -0.418810
  C      3.159810   -9.694200    0.105000
  C      4.298600   -9.487480   -0.589780
  C      2.889950  -10.108210    1.433300
  C      3.838560  -10.283700    2.383360
  C      3.670700  -10.629230    3.753400
  S      5.107640  -10.503750    4.735830
  C      4.241830  -10.923690    6.182970
  C      2.901940  -11.147810    5.899850
  C      2.584380  -11.006780    4.534120
  C      1.189650  -11.248530    4.004360
  O      1.157950  -12.013070    2.811180
  C      1.766840  -13.279460    2.852820
  C      0.278760  -11.843570    5.087080
  C      0.470580  -11.108870    6.404220
  C      1.863740  -11.415360    6.944450
  C      4.975620  -10.962410    7.400780
  C      4.598490  -11.535720    8.566480
  C      5.389830  -11.513210    9.746140
  S      6.897210  -10.650310    9.836310
  C      7.121100  -11.100330   11.506560
  C      6.086040  -11.912080   11.942290
  C      5.107040  -12.130150   10.955980
  C      3.845070  -12.924010   11.188060
  O      3.595920  -13.883090   10.166310
  C      4.581100  -14.870150    9.984700
  C      3.794520  -13.523710   12.605680
  C      5.170780  -13.848380   13.175710
  C      6.006380  -12.575720   13.280120
  C      8.288010  -10.601210   12.154640
  C      8.470740  -10.509820   13.490860
  C      9.632350  -10.053270   14.183990
  S      9.482100   -9.981520   15.920420
  C     11.130970   -9.472100   16.112990
  C     11.757620   -9.384240   14.888420
  C     10.912270   -9.688720   13.796020
  C     11.388430   -9.631390   12.366140
  O     10.598540   -8.785940   11.533530
  C     10.255630   -7.530670   12.067720
  C     12.870560   -9.236290   12.252220
  C     13.693790   -9.777360   13.410110
  C     13.219630   -9.125510   14.705620
  C     11.607500   -9.235320   17.450130
  C     12.652060   -8.492000   17.808860
  H     -1.958440   -6.675250   -7.544330
  H     -2.566820   -7.943690   -3.474380
  H      0.128570   -8.392520   -2.971550
  H      1.807690   -7.695060   -5.443070
  H      4.310460   -7.981530   -4.933990
  H      5.929060   -8.666440   -3.152920
  H      5.290160   -9.651940   -0.199460
  H      1.845850  -10.271570    1.643990
  H      4.869870  -10.092190    2.110280
  H      0.771180  -10.279300    3.693980
  H      1.814070  -13.614520    1.818340
  H      1.180980  -14.001080    3.433250
  H      2.781450  -13.229910    3.262360
  H      0.522970  -12.897630    5.231610
  H     -0.753770  -11.779540    4.741760
  H      0.361290  -10.033820    6.245890
  H     -0.282720  -11.424390    7.127680
  H      1.908990  -12.465670    7.250610
  H      2.072470  -10.802870    7.824850
  H      5.955020  -10.499790    7.356910
  H      3.677340  -12.088350    8.646890
  H      2.987470  -12.245100   11.073080
  H      5.579130  -14.429620    9.887370
  H      4.325650  -15.381560    9.057430
  H      4.582980  -15.599560   10.802110
  H      3.171130  -14.418950   12.569560
  H      3.305800  -12.805690   13.267540
  H      5.057840  -14.296330   14.165070
  H      5.690720  -14.565780   12.539440
  H      7.010880  -12.816320   13.634250
  H      5.544410  -11.897170   14.004850
  H      9.039060  -10.212980   11.483890
  H      7.664400  -10.790280   14.153470
  H     11.252350  -10.629350   11.922780
  H      9.511010   -7.624220   12.867500
  H      9.824610   -6.965000   11.243190
  H     11.126530   -6.992650   12.456740
  H     12.946770   -8.146340   12.241090
  H     13.251640   -9.600250   11.296820
  H     13.572620  -10.861070   13.477150
  H     14.751630   -9.562120   13.248700
  H     13.409650   -8.048120   14.660050
  H     13.768360   -9.527700   15.560040
  H     11.006270   -9.701950   18.221200
  H     13.256920   -7.952820   17.103240
  H     12.917720   -8.383320   18.846110

 Total Charge           Charge          ....    0
 Multiplicity           Mult            ....    1
 Number of Electrons    NEL             ....  480
 Basis Dimension        Dim             .... 1114

ORBITAL ENERGIES
----------------

  NO   OCC          E(Eh)            E(eV)
   0   2.0000     -89.126047     -2425.2430
   1   2.0000     -88.942145     -2420.2388
   2   2.0000     -88.941825     -2420.2301
   3   2.0000     -88.939576     -2420.1689
   4   2.0000     -24.788517      -674.5298
   5   2.0000     -24.783237      -674.3862
   6   2.0000     -24.783094      -674.3823
   7   2.0000     -19.298797      -525.1470
   8   2.0000     -19.208268      -522.6835
   9   2.0000     -19.206919      -522.6468
  10   2.0000     -19.200577      -522.4743
  11   2.0000     -19.177255      -521.8396
  12   2.0000     -19.176287      -521.8133
  13   2.0000     -14.476097      -393.9146
  14   2.0000     -10.508237      -285.9437
  15   2.0000     -10.337961      -281.3102
  16   2.0000     -10.331840      -281.1437
  17   2.0000     -10.320553      -280.8365
  18   2.0000     -10.316319      -280.7213
  19   2.0000     -10.315962      -280.7116
  20   2.0000     -10.311644      -280.5941
  21   2.0000     -10.309880      -280.5461
  22   2.0000     -10.299503      -280.2637
  23   2.0000     -10.298970      -280.2492
  24   2.0000     -10.293285      -280.0945
  25   2.0000     -10.292023      -280.0602
  26   2.0000     -10.291976      -280.0589
  27   2.0000     -10.290368      -280.0151
  28   2.0000     -10.289385      -279.9884
  29   2.0000     -10.288682      -279.9693
  30   2.0000     -10.288239      -279.9572
  31   2.0000     -10.286569      -279.9118
  32   2.0000     -10.286257      -279.9033
  33   2.0000     -10.285575      -279.8847
  34   2.0000     -10.284521      -279.8560
  35   2.0000     -10.283217      -279.8206
  36   2.0000     -10.278877      -279.7025
  37   2.0000     -10.277044      -279.6526
  38   2.0000     -10.276391      -279.6348
  39   2.0000     -10.274986      -279.5966
  40   2.0000     -10.272997      -279.5425
  41   2.0000     -10.272281      -279.5230
  42   2.0000     -10.269663      -279.4518
  43   2.0000     -10.268750      -279.4269
  44   2.0000     -10.268494      -279.4199
  45   2.0000     -10.268206      -279.4121
  46   2.0000     -10.268152      -279.4106
  47   2.0000     -10.267911      -279.4041
  48   2.0000     -10.267854      -279.4025
  49   2.0000     -10.266940      -279.3776
  50   2.0000     -10.265871      -279.3485
  51   2.0000     -10.265472      -279.3377
  52   2.0000     -10.265270      -279.3322
  53   2.0000     -10.263900      -279.2949
  54   2.0000     -10.261543      -279.2308
  55   2.0000     -10.261495      -279.2295
  56   2.0000     -10.261292      -279.2239
  57   2.0000     -10.260912      -279.2136
  58   2.0000     -10.259660      -279.1795
  59   2.0000     -10.257870      -279.1308
  60   2.0000     -10.257117      -279.1103
  61   2.0000     -10.252756      -278.9917
  62   2.0000      -8.190532      -222.8757
  63   2.0000      -8.038224      -218.7312
  64   2.0000      -8.037815      -218.7201
  65   2.0000      -8.035268      -218.6508
  66   2.0000      -6.159691      -167.6137
  67   2.0000      -6.159287      -167.6027
  68   2.0000      -6.158635      -167.5850
  69   2.0000      -6.007304      -163.4671
  70   2.0000      -6.006898      -163.4560
  71   2.0000      -6.004376      -163.3874
  72   2.0000      -6.003449      -163.3621
  73   2.0000      -6.003062      -163.3516
  74   2.0000      -6.000525      -163.2826
  75   2.0000      -6.000436      -163.2802
  76   2.0000      -6.000007      -163.2685
  77   2.0000      -5.997442      -163.1987
  78   2.0000      -1.374769       -37.4094
  79   2.0000      -1.278672       -34.7944
  80   2.0000      -1.274607       -34.6838
  81   2.0000      -1.218696       -33.1624
  82   2.0000      -1.181148       -32.1407
  83   2.0000      -1.107959       -30.1491
  84   2.0000      -1.107182       -30.1279
  85   2.0000      -1.102422       -29.9984
  86   2.0000      -1.089063       -29.6349
  87   2.0000      -1.058105       -28.7925
  88   2.0000      -0.979343       -26.6493
  89   2.0000      -0.977794       -26.6071
  90   2.0000      -0.974539       -26.5186
  91   2.0000      -0.949339       -25.8328
  92   2.0000      -0.915533       -24.9129
  93   2.0000      -0.913179       -24.8489
  94   2.0000      -0.908174       -24.7127
  95   2.0000      -0.906812       -24.6756
  96   2.0000      -0.905330       -24.6353
  97   2.0000      -0.898717       -24.4553
  98   2.0000      -0.891347       -24.2548
  99   2.0000      -0.879683       -23.9374
 100   2.0000      -0.864600       -23.5270
 101   2.0000      -0.860055       -23.4033
 102   2.0000      -0.843989       -22.9661
 103   2.0000      -0.834009       -22.6945
 104   2.0000      -0.828299       -22.5392
 105   2.0000      -0.824016       -22.4226
 106   2.0000      -0.817878       -22.2556
 107   2.0000      -0.815459       -22.1898
 108   2.0000      -0.815092       -22.1798
 109   2.0000      -0.809103       -22.0168
 110   2.0000      -0.800619       -21.7860
 111   2.0000      -0.783949       -21.3323
 112   2.0000      -0.783542       -21.3213
 113   2.0000      -0.766332       -20.8530
 114   2.0000      -0.764820       -20.8118
 115   2.0000      -0.756953       -20.5977
 116   2.0000      -0.755272       -20.5520
 117   2.0000      -0.750638       -20.4259
 118   2.0000      -0.725393       -19.7389
 119   2.0000      -0.713930       -19.4270
 120   2.0000      -0.708261       -19.2727
 121   2.0000      -0.707415       -19.2497
 122   2.0000      -0.693011       -18.8578
 123   2.0000      -0.691716       -18.8225
 124   2.0000      -0.690440       -18.7878
 125   2.0000      -0.688661       -18.7394
 126   2.0000      -0.686100       -18.6697
 127   2.0000      -0.679775       -18.4976
 128   2.0000      -0.672739       -18.3062
 129   2.0000      -0.664005       -18.0685
 130   2.0000      -0.657640       -17.8953
 131   2.0000      -0.652011       -17.7421
 132   2.0000      -0.651737       -17.7347
 133   2.0000      -0.639454       -17.4004
 134   2.0000      -0.630339       -17.1524
 135   2.0000      -0.628780       -17.1100
 136   2.0000      -0.627523       -17.0758
 137   2.0000      -0.627201       -17.0670
 138   2.0000      -0.616535       -16.7768
 139   2.0000      -0.608910       -16.5693
 140   2.0000      -0.602459       -16.3937
 141   2.0000      -0.600274       -16.3343
 142   2.0000      -0.585376       -15.9289
 143   2.0000      -0.583485       -15.8774
 144   2.0000      -0.577433       -15.7127
 145   2.0000      -0.575867       -15.6701
 146   2.0000      -0.574975       -15.6459
 147   2.0000      -0.571298       -15.5458
 148   2.0000      -0.565379       -15.3848
 149   2.0000      -0.560711       -15.2577
 150   2.0000      -0.559808       -15.2332
 151   2.0000      -0.559387       -15.2217
 152   2.0000      -0.554364       -15.0850
 153   2.0000      -0.548935       -14.9373
 154   2.0000      -0.541842       -14.7443
 155   2.0000      -0.538206       -14.6453
 156   2.0000      -0.536674       -14.6036
 157   2.0000      -0.534113       -14.5340
 158   2.0000      -0.534058       -14.5325
 159   2.0000      -0.533053       -14.5051
 160   2.0000      -0.532007       -14.4767
 161   2.0000      -0.529770       -14.4158
 162   2.0000      -0.526365       -14.3231
 163   2.0000      -0.523867       -14.2551
 164   2.0000      -0.522963       -14.2305
 165   2.0000      -0.519740       -14.1428
 166   2.0000      -0.514853       -14.0099
 167   2.0000      -0.514435       -13.9985
 168   2.0000      -0.512399       -13.9431
 169   2.0000      -0.509511       -13.8645
 170   2.0000      -0.504563       -13.7299
 171   2.0000      -0.500160       -13.6100
 172   2.0000      -0.498573       -13.5669
 173   2.0000      -0.497387       -13.5346
 174   2.0000      -0.496402       -13.5078
 175   2.0000      -0.492688       -13.4067
 176   2.0000      -0.491693       -13.3796
 177   2.0000      -0.491181       -13.3657
 178   2.0000      -0.490260       -13.3407
 179   2.0000      -0.487511       -13.2658
 180   2.0000      -0.485910       -13.2223
 181   2.0000      -0.482397       -13.1267
 182   2.0000      -0.478938       -13.0326
 183   2.0000      -0.475479       -12.9384
 184   2.0000      -0.474434       -12.9100
 185   2.0000      -0.473501       -12.8846
 186   2.0000      -0.470755       -12.8099
 187   2.0000      -0.468680       -12.7534
 188   2.0000      -0.465332       -12.6623
 189   2.0000      -0.460303       -12.5255
 190   2.0000      -0.458884       -12.4869
 191   2.0000      -0.455561       -12.3964
 192   2.0000      -0.454542       -12.3687
 193   2.0000      -0.451075       -12.2744
 194   2.0000      -0.447446       -12.1756
 195   2.0000      -0.446797       -12.1580
 196   2.0000      -0.445086       -12.1114
 197   2.0000      -0.442499       -12.0410
 198   2.0000      -0.441391       -12.0109
 199   2.0000      -0.436875       -11.8880
 200   2.0000      -0.434660       -11.8277
 201   2.0000      -0.430682       -11.7194
 202   2.0000      -0.425901       -11.5894
 203   2.0000      -0.419568       -11.4170
 204   2.0000      -0.414475       -11.2785
 205   2.0000      -0.410966       -11.1830
 206   2.0000      -0.408649       -11.1199
 207   2.0000      -0.406927       -11.0731
 208   2.0000      -0.406745       -11.0681
 209   2.0000      -0.405077       -11.0227
 210   2.0000      -0.402510       -10.9529
 211   2.0000      -0.402275       -10.9465
 212   2.0000      -0.399758       -10.8780
 213   2.0000      -0.394655       -10.7391
 214   2.0000      -0.394196       -10.7266
 215   2.0000      -0.391105       -10.6425
 216   2.0000      -0.388258       -10.5650
 217   2.0000      -0.386975       -10.5301
 218   2.0000      -0.382071       -10.3967
 219   2.0000      -0.379750       -10.3335
 220   2.0000      -0.367364        -9.9965
 221   2.0000      -0.366699        -9.9784
 222   2.0000      -0.366457        -9.9718
 223   2.0000      -0.362805        -9.8724
 224   2.0000      -0.359866        -9.7924
 225   2.0000      -0.349451        -9.5090
 226   2.0000      -0.343783        -9.3548
 227   2.0000      -0.339187        -9.2297
 228   2.0000      -0.324543        -8.8313
 229   2.0000      -0.322792        -8.7836
 230   2.0000      -0.322226        -8.7682
 231   2.0000      -0.318134        -8.6569
 232   2.0000      -0.308884        -8.4052
 233   2.0000      -0.303381        -8.2554
 234   2.0000      -0.302215        -8.2237
 235   2.0000      -0.300839        -8.1862
 236   2.0000      -0.280391        -7.6298
 237   2.0000      -0.257670        -7.0115
 238   2.0000      -0.243717        -6.6319
 239   2.0000      -0.216235        -5.8840
 240   0.0000      -0.056462        -1.5364
 241   0.0000      -0.033481        -0.9111
 242   0.0000      -0.022910        -0.6234
 243   0.0000       0.000446         0.0121
 244   0.0000       0.032643         0.8883

MULLIKEN ATOMIC CHARGES
-----------------------
   0 C :    0.116797
   1 O :   -0.184490
   2 C :    0.148873
   3 C :   -0.045238
   4 C :   -0.111302
   5 C :    0.529471
   6 F :   -0.166923
   7 F :   -0.164172
   8 F :   -0.165068
   9 C :    0.010677
  10 C :    0.006463
  11 C :    0.004160
  12 N :   -0.039329
  13 C :   -0.011883
  14 C :    0.070698
  15 C :   -0.065029
  16 S :    0.803050
  17 O :   -0.461227
  18 O :   -0.466133
  19 C :   -0.064875
  20 C :    0.014146
  21 C :    0.060688
  22 C :    0.045874
  23 C :   -0.121556
  24 S :    0.109607
  25 C :   -0.128292
  26 C :   -0.071492
  27 C :   -0.091383
  28 C :    0.209743
  29 O :   -0.383727
  30 C :    0.191925
  31 C :    0.056886
  32 C :    0.033871
  33 C :    0.091869
  34 C :    0.036206
  35 C :   -0.027419
  36 C :   -0.103336
  37 S :    0.108964
  38 C :   -0.138610
  39 C :   -0.063549
  40 C :   -0.079507
  41 C :    0.210397
  42 O :   -0.391131
  43 C :    0.185261
  44 C :    0.044648
  45 C :    0.029783
  46 C :    0.105459
  47 C :    0.016789
  48 C :    0.032266
  49 C :   -0.125746
  50 S :    0.104499
  51 C :   -0.157658
  52 C :   -0.052849
  53 C :   -0.109503
  54 C :    0.221783
  55 O :   -0.393465
  56 C :    0.199766
  57 C :    0.072583
  58 C :    0.017484
  59 C :    0.101129
  60 C :    0.025295
  61 C :   -0.030059
  62 H :    0.019781
  63 H :    0.009911
  64 H :    0.003502
  65 H :   -0.027496
  66 H :    0.127717
  67 H :   -0.003404
  68 H :   -0.015844
  69 H :    0.014891
  70 H :   -0.026510
  71 H :    0.012857
  72 H :    0.031500
  73 H :    0.003682
  74 H :    0.013534
  75 H :   -0.006512
  76 H :    0.008725
  77 H :    0.008557
  78 H :    0.000064
  79 H :    0.032430
  80 H :    0.017098
  81 H :   -0.016483
  82 H :    0.006084
  83 H :    0.003196
  84 H :    0.020610
  85 H :    0.021957
  86 H :    0.006632
  87 H :    0.011343
  88 H :    0.000283
  89 H :   -0.001057
  90 H :    0.002813
  91 H :    0.015745
  92 H :    0.018013
  93 H :    0.003604
  94 H :   -0.029697
  95 H :    0.001205
  96 H :    0.020025
  97 H :    0.027983
  98 H :   -0.004585
  99 H :   -0.007576
 100 H :    0.003181
 101 H :    0.010818
 102 H :    0.000455
 103 H :    0.012533
 104 H :    0.015951
 105 H :   -0.008572
 106 H :    0.017062
 107 H :    0.021836
Sum of atomic charges:   -0.0000000

LOEWDIN ATOMIC CHARGES
----------------------
   0 C :    0.059003
   1 O :    0.026028
   2 C :    0.030335
   3 C :   -0.035959
   4 C :   -0.132979
   5 C :    0.168216
   6 F :   -0.065408
   7 F :   -0.064594
   8 F :   -0.065008
   9 C :   -0.010979
  10 C :   -0.037212
  11 C :   -0.001764
  12 N :    0.099336
  13 C :   -0.005884
  14 C :   -0.081999
  15 C :   -0.224020
  16 S :    1.176331
  17 O :   -0.502970
  18 O :   -0.507542
  19 C :   -0.153721
  20 C :   -0.012673
  21 C :   -0.039193
  22 C :   -0.030541
  23 C :   -0.166933
  24 S :    0.431136
  25 C :   -0.173669
  26 C :   -0.051488
  27 C :   -0.072560
  28 C :    0.067108
  29 O :   -0.158708
  30 C :    0.065559
  31 C :   -0.035836
  32 C :   -0.026235
  33 C :   -0.028929
  34 C :   -0.051270
  35 C :   -0.040106
  36 C :   -0.164590
  37 S :    0.432317
  38 C :   -0.172658
  39 C :   -0.056269
  40 C :   -0.081028
  41 C :    0.069182
  42 O :   -0.170669
  43 C :    0.062873
  44 C :   -0.040275
  45 C :   -0.030021
  46 C :   -0.028502
  47 C :   -0.040477
  48 C :   -0.058301
  49 C :   -0.159635
  50 S :    0.428523
  51 C :   -0.187071
  52 C :   -0.050259
  53 C :   -0.085725
  54 C :    0.070125
  55 O :   -0.166393
  56 C :    0.065458
  57 C :   -0.035729
  58 C :   -0.028051
  59 C :   -0.027543
  60 C :   -0.040904
  61 C :   -0.050796
  62 H :    0.029516
  63 H :    0.041922
  64 H :    0.037070
  65 H :    0.028095
  66 H :    0.094018
  67 H :    0.023426
  68 H :    0.032176
  69 H :    0.033409
  70 H :    0.022964
  71 H :    0.029696
  72 H :    0.026048
  73 H :    0.003962
  74 H :    0.008577
  75 H :    0.020731
  76 H :    0.028142
  77 H :    0.023575
  78 H :    0.025277
  79 H :    0.033633
  80 H :    0.032788
  81 H :    0.018654
  82 H :    0.033476
  83 H :    0.028819
  84 H :    0.009744
  85 H :    0.022129
  86 H :    0.003892
  87 H :    0.029558
  88 H :    0.027026
  89 H :    0.024594
  90 H :    0.020522
  91 H :    0.032487
  92 H :    0.029367
  93 H :    0.027608
  94 H :    0.023502
  95 H :    0.026023
  96 H :    0.011250
  97 H :    0.023175
  98 H :    0.003261
  99 H :    0.022106
 100 H :    0.026555
 101 H :    0.023718
 102 H :    0.024283
 103 H :    0.028275
 104 H :    0.032563
 105 H :    0.027682
 106 H :    0.021056
 107 H :    0.025198

  Mayer bond orders larger than 0.100000
B(  0-C ,  1-O ) :   1.1718 B(  0-C ,  4-C ) :   1.5441 B(  0-C , 62-H ) :   1.0080
B(  1-O ,  2-C ) :   1.1406 B(  2-C ,  3-C ) :   1.4939 B(  2-C ,  9-C ) :   1.1310
B(  3-C ,  4-C ) :   1.2157 B(  3-C , 63-H ) :   1.0197 B(  4-C ,  5-C ) :   0.9592
B(  5-C ,  6-F ) :   1.1678 B(  5-C ,  7-F ) :   1.1829 B(  5-C ,  8-F ) :   1.1810
B(  9-C , 10-C ) :   1.6881 B(  9-C , 64-H ) :   0.9499 B( 10-C , 11-C ) :   1.0947
B( 10-C , 65-H ) :   0.9688 B( 11-C , 12-N ) :   1.2272 B( 11-C , 15-C ) :   1.4995
B( 12-N , 13-C ) :   1.2113 B( 12-N , 66-H ) :   0.9334 B( 13-C , 14-C ) :   1.4354
B( 13-C , 67-H ) :   0.9868 B( 14-C , 15-C ) :   1.3463 B( 14-C , 20-C ) :   1.0467
B( 15-C , 16-S ) :   0.8146 B( 16-S , 17-O ) :   1.7040 B( 16-S , 18-O ) :   1.6883
B( 16-S , 19-C ) :   0.8242 B( 19-C , 20-C ) :   1.6844 B( 19-C , 21-C ) :   1.1269
B( 20-C , 68-H ) :   0.9906 B( 21-C , 22-C ) :   1.6977 B( 21-C , 69-H ) :   0.9400
B( 22-C , 23-C ) :   1.1468 B( 22-C , 70-H ) :   0.9433 B( 23-C , 24-S ) :   1.1237
B( 23-C , 25-C ) :   0.1005 B( 23-C , 27-C ) :   1.4754 B( 24-S , 25-C ) :   1.1169
B( 25-C , 26-C ) :   1.4995 B( 25-C , 34-C ) :   1.1218 B( 26-C , 27-C ) :   1.3277
B( 26-C , 33-C ) :   1.0587 B( 27-C , 28-C ) :   0.9667 B( 28-C , 29-O ) :   1.0109
B( 28-C , 31-C ) :   1.0777 B( 28-C , 71-H ) :   0.8880 B( 29-O , 30-C ) :   0.9792
B( 30-C , 72-H ) :   0.9812 B( 30-C , 73-H ) :   0.9653 B( 30-C , 74-H ) :   0.9628
B( 31-C , 32-C ) :   1.0630 B( 31-C , 75-H ) :   0.9287 B( 31-C , 76-H ) :   0.9274
B( 32-C , 33-C ) :   1.0813 B( 32-C , 77-H ) :   0.9456 B( 32-C , 78-H ) :   0.9288
B( 33-C , 79-H ) :   0.8996 B( 33-C , 80-H ) :   0.9140 B( 34-C , 35-C ) :   1.6439
B( 34-C , 81-H ) :   0.9495 B( 35-C , 36-C ) :   1.1661 B( 35-C , 82-H ) :   0.9564
B( 36-C , 37-S ) :   1.1142 B( 36-C , 40-C ) :   1.4785 B( 37-S , 38-C ) :   1.1165
B( 38-C , 39-C ) :   1.5031 B( 38-C , 47-C ) :   1.1192 B( 39-C , 40-C ) :   1.3091
B( 39-C , 46-C ) :   1.0600 B( 40-C , 41-C ) :   0.9777 B( 41-C , 42-O ) :   1.0046
B( 41-C , 44-C ) :   1.0596 B( 41-C , 83-H ) :   0.9016 B( 42-O , 43-C ) :   0.9860
B( 43-C , 84-H ) :   0.9621 B( 43-C , 85-H ) :   0.9791 B( 43-C , 86-H ) :   0.9648
B( 44-C , 45-C ) :   1.0816 B( 44-C , 87-H ) :   0.9272 B( 44-C , 88-H ) :   0.9285
B( 45-C , 46-C ) :   1.0784 B( 45-C , 89-H ) :   0.9301 B( 45-C , 90-H ) :   0.9460
B( 46-C , 91-H ) :   0.9154 B( 46-C , 92-H ) :   0.9013 B( 47-C , 48-C ) :   1.6901
B( 47-C , 93-H ) :   0.9284 B( 48-C , 49-C ) :   1.1368 B( 48-C , 94-H ) :   0.9392
B( 49-C , 50-S ) :   1.1392 B( 49-C , 53-C ) :   1.4932 B( 50-S , 51-C ) :   1.1067
B( 51-C , 52-C ) :   1.5476 B( 51-C , 60-C ) :   1.0823 B( 52-C , 53-C ) :   1.3018
B( 52-C , 59-C ) :   1.0562 B( 53-C , 54-C ) :   0.9883 B( 54-C , 55-O ) :   0.9712
B( 54-C , 57-C ) :   1.0694 B( 54-C , 95-H ) :   0.8893 B( 55-O , 56-C ) :   0.9765
B( 56-C , 96-H ) :   0.9661 B( 56-C , 97-H ) :   0.9813 B( 56-C , 98-H ) :   0.9605
B( 57-C , 58-C ) :   1.0735 B( 57-C , 99-H ) :   0.9211 B( 57-C ,100-H ) :   0.9266
B( 58-C , 59-C ) :   1.0809 B( 58-C ,101-H ) :   0.9471 B( 58-C ,102-H ) :   0.9319
B( 59-C ,103-H ) :   0.9041 B( 59-C ,104-H ) :   0.9164 B( 60-C , 61-C ) :   1.9391
B( 60-C ,105-H ) :   0.9489 B( 61-C ,106-H ) :   0.9582 B( 61-C ,107-H ) :   0.9461

-----------------------------------------------------------------------------
         ABSORPTION SPECTRUM VIA TRANSITION ELECTRIC DIPOLE MOMENTS
-----------------------------------------------------------------------------
State   Energy  Wavelength   fosc         T2         TX        TY        TZ
        (cm-1)    (nm)                  (au**2)     (au)      (au)      (au)
-----------------------------------------------------------------------------
   0   20374.1    490.8   2.461116938  39.76754  -2.42552   0.39225  -5.80780
   1   26063.3    383.7   0.221154286   2.79346  -1.08808  -1.26055   0.14334
   2   27427.7    364.6   0.060114063   0.72154   0.41801  -0.24189   0.69879
   3   29915.6    334.3   0.269651827   2.96744  -1.60204  -0.63291  -0.01771
   4   30730.3    325.4   0.095690474   1.02513  -0.91971  -0.34039   0.25177
   5   32575.8    307.0   0.013301791   0.13443  -0.18199   0.28884   0.13372
   6   33819.7    295.7   0.567655898   5.52575   1.58187  -0.17311   1.73017
   7   35075.3    285.1   0.244587745   2.29567  -1.37379   0.63880  -0.01748
   8   35714.0    280.0   0.143953437   1.32696   1.07695   0.13590  -0.38557
   9   36277.3    275.7   0.021219156   0.19256  -0.41461   0.05110   0.13435
  10   37961.0    263.4   0.037691337   0.32687   0.54305   0.03362  -0.17560
  11   38361.9    260.7   0.077619722   0.66611  -0.47608   0.12236  -0.65153
  12   38711.9    258.3   0.127020974   1.08021   0.79638   0.02259   0.66743
  13   39144.4    255.5   0.071625545   0.60238  -0.61737  -0.33676   0.32837
  14   39639.3    252.3   0.079606027   0.66114  -0.20816   0.37317  -0.69178

FINAL SINGLE POINT ENERGY     -4251.269042042883

DIPOLE MOMENT
-------------
                                X             Y             Z
Electronic contribution:    -83.99335      41.08724    -148.40358
Nuclear contribution   :     87.51200     -41.35986     149.28430
                        -----------------------------------------
Total Dipole Moment    :      3.51865      -0.27262       0.88071
                        -----------------------------------------
Magnitude (a.u.)       :      3.63742
Magnitude (Debye)      :      9.24560

Rotational constants in cm-1:     0.002434     0.000240     0.000227
Rotational constants in MHz :    72.956241     7.196398     6.809760

                             ****ORCA TERMINATED NORMALLY****
TOTAL RUN TIME: 0 days 0 hours 8 minutes 5 seconds 527 msec
