                         Program Version 4.2.0 -  RELEASE  -
|  1> # ORCA input file
|  2> # SCF done       -150.034035869937          0.000576122510
|  3> ! CAM-B3LYP def2-SVP def2/J RIJCOSX Grid4 TightSCF
|  4> %maxcore 5000
|  5> %tddft
|  6>     Mode sTDDFT
|  7>     Ethresh 5.0
|  8>     maxcore 5000
|  9> end
| 10>
| 11> %pal
| 12>   nprocs 6
| 13>   end
| 14> * xyz 0 1
| 15>    C        2.30255         1.55147        -5.95537
| 16>    S        2.45578         3.23315        -5.67475
| 17>    C        2.48811         2.97570        -3.95689
| 18>    C        2.37841         1.63501        -3.64614
| 19>    C        2.27332         0.82535        -4.80061
| 20>    C        2.12214        -0.65967        -4.72194
| 21>    C        2.59109        -1.18518        -3.36778
| 22>    F        2.21597        -2.50795        -3.26648
| 23>    C        1.95548        -0.38331        -2.22942
| 24>    F        2.34044        -0.92245        -1.02143
| 25>    C        2.40472         1.07596        -2.26553
| 26>    C        2.61505         4.06357        -3.04987
| 27>    S        2.72516         5.74035        -3.56250
| 28>    C        2.82603         6.11682        -1.84280
| 29>    N        2.77311         5.04971        -1.09754
| 30>    N        2.66050         3.92808        -1.75317
| 31>    C        2.95198         7.44905        -1.36565
| 32>    C        3.01107         7.72477        -0.03991
| 33>    C        3.13628         9.04278         0.46792
| 34>    N        3.20363         9.33779         1.81086
| 35>    C        3.22654         8.39127         2.89960
| 36>    C        4.59540         7.73211         3.05066
| 37>    C        3.31467        10.71866         2.04257
| 38>    O        3.38118        11.20980         3.15305
| 39>    C        3.30882        11.30452         0.72116
| 40>    C        3.19758        10.25031        -0.22226
| 41>    C        3.19500        10.83604        -1.54402
| 42>    O        3.12321        10.34450        -2.65393
| 43>    N        3.31427        12.21612        -1.31285
| 44>    C        3.29384        13.16234        -2.40186
| 45>    C        1.92937        13.83164        -2.54673
| 46>    C        3.37895        12.51174         0.03032
| 47>    C        3.51431        13.82827         0.53781
| 48>    C        3.54153        14.10498         1.86503
| 49>    C        3.68388        15.43239         2.34782
| 50>    S        3.69116        15.81134         4.06832
| 51>    C        3.89432        17.48361         3.56413
| 52>    N        3.93747        17.61231         2.26541
| 53>    N        3.82177        16.49711         1.60569
| 54>    C        3.99416        18.55361         4.49578
| 55>    C        4.18642        19.83138         4.10496
| 56>    C        4.28168        20.94343         4.98579
| 57>    S        4.10099        20.76721         6.71239
| 58>    C        4.34725        22.44429         6.94922
| 59>    C        4.55574        23.11594         5.78020
| 60>    C        4.51698        22.26384         4.65309
| 61>    C        4.76125        22.76062         3.26460
| 62>    C        4.68467        24.28421         3.17814
| 63>    F        5.25248        24.67198         1.98355
| 64>    C        5.43481        24.94304         4.33753
| 65>    F        5.40256        26.31256         4.18740
| 66>    C        4.77405        24.59036         5.66679
| 67>    H        2.24026         1.18684        -6.96145
| 68>    H        2.67911        -1.14961        -5.52230
| 69>    H        1.06823        -0.93129        -4.84212
| 70>    H        3.68379        -1.16806        -3.27275
| 71>    H        0.86366        -0.48272        -2.27289
| 72>    H        3.42512         1.13127        -1.87310
| 73>    H        1.79000         1.68272        -1.59863
| 74>    H        3.00041         8.23908        -2.10166
| 75>    H        2.95589         6.90179         0.65708
| 76>    H        2.44791         7.63873         2.74747
| 77>    H        2.99354         8.96480         3.80141
| 78>    H        4.86316         7.17889         2.15332
| 79>    H        4.58150         7.04625         3.89299
| 80>    H        5.35424         8.48978         3.23120
| 81>    H        3.51861        12.58668        -3.30427
| 82>    H        4.07866        13.90909        -2.25368
| 83>    H        1.16277        13.07888        -2.71474
| 84>    H        1.94158        14.51046        -3.39488
| 85>    H        1.67395        14.39415        -1.65164
| 86>    H        3.60323        14.64861        -0.15905
| 87>    H        3.45348        13.31613         2.59890
| 88>    H        3.91067        18.30086         5.54327
| 89>    H        4.27750        20.03335         3.04723
| 90>    H        4.32255        22.84780         7.94176
| 91>    H        4.04803        22.32392         2.56284
| 92>    H        5.76306        22.45883         2.93952
| 93>    H        3.64931        24.64681         3.15531
| 94>    H        6.49329        24.65574         4.31119
| 95>    H        3.81222        25.11175         5.71349
| 96>    H        5.38485        24.95726         6.49320
| 97> *
| 98>
| 99>                          ****END OF INPUT****

CARTESIAN COORDINATES (ANGSTROEM)
---------------------------------
  C      2.302550    1.551470   -5.955370
  S      2.455780    3.233150   -5.674750
  C      2.488110    2.975700   -3.956890
  C      2.378410    1.635010   -3.646140
  C      2.273320    0.825350   -4.800610
  C      2.122140   -0.659670   -4.721940
  C      2.591090   -1.185180   -3.367780
  F      2.215970   -2.507950   -3.266480
  C      1.955480   -0.383310   -2.229420
  F      2.340440   -0.922450   -1.021430
  C      2.404720    1.075960   -2.265530
  C      2.615050    4.063570   -3.049870
  S      2.725160    5.740350   -3.562500
  C      2.826030    6.116820   -1.842800
  N      2.773110    5.049710   -1.097540
  N      2.660500    3.928080   -1.753170
  C      2.951980    7.449050   -1.365650
  C      3.011070    7.724770   -0.039910
  C      3.136280    9.042780    0.467920
  N      3.203630    9.337790    1.810860
  C      3.226540    8.391270    2.899600
  C      4.595400    7.732110    3.050660
  C      3.314670   10.718660    2.042570
  O      3.381180   11.209800    3.153050
  C      3.308820   11.304520    0.721160
  C      3.197580   10.250310   -0.222260
  C      3.195000   10.836040   -1.544020
  O      3.123210   10.344500   -2.653930
  N      3.314270   12.216120   -1.312850
  C      3.293840   13.162340   -2.401860
  C      1.929370   13.831640   -2.546730
  C      3.378950   12.511740    0.030320
  C      3.514310   13.828270    0.537810
  C      3.541530   14.104980    1.865030
  C      3.683880   15.432390    2.347820
  S      3.691160   15.811340    4.068320
  C      3.894320   17.483610    3.564130
  N      3.937470   17.612310    2.265410
  N      3.821770   16.497110    1.605690
  C      3.994160   18.553610    4.495780
  C      4.186420   19.831380    4.104960
  C      4.281680   20.943430    4.985790
  S      4.100990   20.767210    6.712390
  C      4.347250   22.444290    6.949220
  C      4.555740   23.115940    5.780200
  C      4.516980   22.263840    4.653090
  C      4.761250   22.760620    3.264600
  C      4.684670   24.284210    3.178140
  F      5.252480   24.671980    1.983550
  C      5.434810   24.943040    4.337530
  F      5.402560   26.312560    4.187400
  C      4.774050   24.590360    5.666790
  H      2.240260    1.186840   -6.961450
  H      2.679110   -1.149610   -5.522300
  H      1.068230   -0.931290   -4.842120
  H      3.683790   -1.168060   -3.272750
  H      0.863660   -0.482720   -2.272890
  H      3.425120    1.131270   -1.873100
  H      1.790000    1.682720   -1.598630
  H      3.000410    8.239080   -2.101660
  H      2.955890    6.901790    0.657080
  H      2.447910    7.638730    2.747470
  H      2.993540    8.964800    3.801410
  H      4.863160    7.178890    2.153320
  H      4.581500    7.046250    3.892990
  H      5.354240    8.489780    3.231200
  H      3.518610   12.586680   -3.304270
  H      4.078660   13.909090   -2.253680
  H      1.162770   13.078880   -2.714740
  H      1.941580   14.510460   -3.394880
  H      1.673950   14.394150   -1.651640
  H      3.603230   14.648610   -0.159050
  H      3.453480   13.316130    2.598900
  H      3.910670   18.300860    5.543270
  H      4.277500   20.033350    3.047230
  H      4.322550   22.847800    7.941760
  H      4.048030   22.323920    2.562840
  H      5.763060   22.458830    2.939520
  H      3.649310   24.646810    3.155310
  H      6.493290   24.655740    4.311190
  H      3.812220   25.111750    5.713490
  H      5.384850   24.957260    6.493200

 Total Charge           Charge          ....    0
 Multiplicity           Mult            ....    1
 Number of Electrons    NEL             ....  404
 Basis Dimension        Dim             ....  894

ORBITAL ENERGIES
----------------

  NO   OCC          E(Eh)            E(eV)
   0   2.0000     -88.972090     -2421.0536
   1   2.0000     -88.968596     -2420.9586
   2   2.0000     -88.966412     -2420.8992
   3   2.0000     -88.960724     -2420.7444
   4   2.0000     -24.748268      -673.4346
   5   2.0000     -24.747812      -673.4222
   6   2.0000     -24.743866      -673.3148
   7   2.0000     -24.740618      -673.2264
   8   2.0000     -19.191341      -522.2229
   9   2.0000     -19.190079      -522.1886
  10   2.0000     -14.452347      -393.2683
  11   2.0000     -14.451989      -393.2586
  12   2.0000     -14.436959      -392.8496
  13   2.0000     -14.436358      -392.8333
  14   2.0000     -14.435504      -392.8100
  15   2.0000     -14.431879      -392.7114
  16   2.0000     -10.373584      -282.2796
  17   2.0000     -10.372655      -282.2543
  18   2.0000     -10.349474      -281.6235
  19   2.0000     -10.348971      -281.6098
  20   2.0000     -10.348089      -281.5858
  21   2.0000     -10.344437      -281.4864
  22   2.0000     -10.341208      -281.3986
  23   2.0000     -10.339311      -281.3470
  24   2.0000     -10.339193      -281.3437
  25   2.0000     -10.337544      -281.2989
  26   2.0000     -10.336987      -281.2837
  27   2.0000     -10.335612      -281.2463
  28   2.0000     -10.309757      -280.5427
  29   2.0000     -10.305721      -280.4329
  30   2.0000     -10.305513      -280.4273
  31   2.0000     -10.303933      -280.3843
  32   2.0000     -10.302453      -280.3440
  33   2.0000     -10.300334      -280.2863
  34   2.0000     -10.296045      -280.1696
  35   2.0000     -10.294115      -280.1171
  36   2.0000     -10.293629      -280.1039
  37   2.0000     -10.292212      -280.0653
  38   2.0000     -10.291948      -280.0582
  39   2.0000     -10.290418      -280.0165
  40   2.0000     -10.290107      -280.0080
  41   2.0000     -10.288789      -279.9722
  42   2.0000     -10.287369      -279.9335
  43   2.0000     -10.286389      -279.9069
  44   2.0000     -10.285955      -279.8951
  45   2.0000     -10.284990      -279.8688
  46   2.0000     -10.283333      -279.8237
  47   2.0000     -10.271378      -279.4984
  48   2.0000     -10.260769      -279.2097
  49   2.0000     -10.260755      -279.2093
  50   2.0000     -10.260452      -279.2011
  51   2.0000     -10.260041      -279.1899
  52   2.0000      -8.068576      -219.5571
  53   2.0000      -8.065052      -219.4612
  54   2.0000      -8.062295      -219.3862
  55   2.0000      -8.056527      -219.2292
  56   2.0000      -6.037331      -164.2841
  57   2.0000      -6.033896      -164.1907
  58   2.0000      -6.033665      -164.1844
  59   2.0000      -6.031577      -164.1276
  60   2.0000      -6.030756      -164.1052
  61   2.0000      -6.030366      -164.0946
  62   2.0000      -6.027425      -164.0146
  63   2.0000      -6.027311      -164.0115
  64   2.0000      -6.025691      -163.9674
  65   2.0000      -6.024524      -163.9356
  66   2.0000      -6.021547      -163.8546
  67   2.0000      -6.018895      -163.7825
  68   2.0000      -1.268223       -34.5101
  69   2.0000      -1.262544       -34.3556
  70   2.0000      -1.253286       -34.1037
  71   2.0000      -1.247340       -33.9418
  72   2.0000      -1.140865       -31.0445
  73   2.0000      -1.137406       -30.9504
  74   2.0000      -1.132849       -30.8264
  75   2.0000      -1.126222       -30.6461
  76   2.0000      -1.062809       -28.9205
  77   2.0000      -1.054420       -28.6922
  78   2.0000      -1.000901       -27.2359
  79   2.0000      -0.996804       -27.1244
  80   2.0000      -0.945968       -25.7411
  81   2.0000      -0.943227       -25.6665
  82   2.0000      -0.928234       -25.2585
  83   2.0000      -0.925357       -25.1802
  84   2.0000      -0.923547       -25.1310
  85   2.0000      -0.917404       -24.9638
  86   2.0000      -0.908787       -24.7294
  87   2.0000      -0.891086       -24.2477
  88   2.0000      -0.886706       -24.1285
  89   2.0000      -0.878028       -23.8924
  90   2.0000      -0.867005       -23.5924
  91   2.0000      -0.858294       -23.3554
  92   2.0000      -0.852345       -23.1935
  93   2.0000      -0.824963       -22.4484
  94   2.0000      -0.824414       -22.4335
  95   2.0000      -0.818033       -22.2598
  96   2.0000      -0.809177       -22.0188
  97   2.0000      -0.800430       -21.7808
  98   2.0000      -0.792318       -21.5601
  99   2.0000      -0.783651       -21.3242
 100   2.0000      -0.758539       -20.6409
 101   2.0000      -0.737002       -20.0549
 102   2.0000      -0.731281       -19.8992
 103   2.0000      -0.730059       -19.8659
 104   2.0000      -0.727438       -19.7946
 105   2.0000      -0.720228       -19.5984
 106   2.0000      -0.710232       -19.3264
 107   2.0000      -0.703668       -19.1478
 108   2.0000      -0.694719       -18.9043
 109   2.0000      -0.690807       -18.7978
 110   2.0000      -0.685361       -18.6496
 111   2.0000      -0.676592       -18.4110
 112   2.0000      -0.661611       -18.0033
 113   2.0000      -0.651316       -17.7232
 114   2.0000      -0.648213       -17.6388
 115   2.0000      -0.641514       -17.4565
 116   2.0000      -0.629748       -17.1363
 117   2.0000      -0.614925       -16.7329
 118   2.0000      -0.613448       -16.6928
 119   2.0000      -0.608014       -16.5449
 120   2.0000      -0.599339       -16.3088
 121   2.0000      -0.595655       -16.2086
 122   2.0000      -0.590778       -16.0759
 123   2.0000      -0.586115       -15.9490
 124   2.0000      -0.582845       -15.8600
 125   2.0000      -0.578552       -15.7432
 126   2.0000      -0.573427       -15.6037
 127   2.0000      -0.570077       -15.5126
 128   2.0000      -0.567358       -15.4386
 129   2.0000      -0.566463       -15.4142
 130   2.0000      -0.564115       -15.3503
 131   2.0000      -0.562458       -15.3053
 132   2.0000      -0.561085       -15.2679
 133   2.0000      -0.547582       -14.9005
 134   2.0000      -0.543870       -14.7994
 135   2.0000      -0.543114       -14.7789
 136   2.0000      -0.537401       -14.6234
 137   2.0000      -0.530164       -14.4265
 138   2.0000      -0.529568       -14.4103
 139   2.0000      -0.527584       -14.3563
 140   2.0000      -0.526654       -14.3310
 141   2.0000      -0.526255       -14.3201
 142   2.0000      -0.520646       -14.1675
 143   2.0000      -0.519844       -14.1457
 144   2.0000      -0.516062       -14.0428
 145   2.0000      -0.512819       -13.9545
 146   2.0000      -0.509446       -13.8627
 147   2.0000      -0.504864       -13.7380
 148   2.0000      -0.503504       -13.7010
 149   2.0000      -0.497248       -13.5308
 150   2.0000      -0.496525       -13.5111
 151   2.0000      -0.492300       -13.3962
 152   2.0000      -0.490373       -13.3437
 153   2.0000      -0.487913       -13.2768
 154   2.0000      -0.485368       -13.2075
 155   2.0000      -0.482883       -13.1399
 156   2.0000      -0.480549       -13.0764
 157   2.0000      -0.477977       -13.0064
 158   2.0000      -0.470379       -12.7997
 159   2.0000      -0.466632       -12.6977
 160   2.0000      -0.465584       -12.6692
 161   2.0000      -0.464742       -12.6463
 162   2.0000      -0.463281       -12.6065
 163   2.0000      -0.459687       -12.5087
 164   2.0000      -0.457939       -12.4612
 165   2.0000      -0.457710       -12.4549
 166   2.0000      -0.453658       -12.3447
 167   2.0000      -0.448357       -12.2004
 168   2.0000      -0.447324       -12.1723
 169   2.0000      -0.445177       -12.1139
 170   2.0000      -0.444915       -12.1068
 171   2.0000      -0.440464       -11.9856
 172   2.0000      -0.435861       -11.8604
 173   2.0000      -0.430135       -11.7046
 174   2.0000      -0.425712       -11.5842
 175   2.0000      -0.424827       -11.5601
 176   2.0000      -0.423624       -11.5274
 177   2.0000      -0.416794       -11.3415
 178   2.0000      -0.411553       -11.1989
 179   2.0000      -0.411431       -11.1956
 180   2.0000      -0.403609       -10.9828
 181   2.0000      -0.402310       -10.9474
 182   2.0000      -0.397735       -10.8229
 183   2.0000      -0.391038       -10.6407
 184   2.0000      -0.387221       -10.5368
 185   2.0000      -0.384725       -10.4689
 186   2.0000      -0.380008       -10.3405
 187   2.0000      -0.375642       -10.2217
 188   2.0000      -0.374067       -10.1789
 189   2.0000      -0.361561        -9.8386
 190   2.0000      -0.348527        -9.4839
 191   2.0000      -0.336427        -9.1547
 192   2.0000      -0.332041        -9.0353
 193   2.0000      -0.323727        -8.8091
 194   2.0000      -0.323495        -8.8027
 195   2.0000      -0.320697        -8.7266
 196   2.0000      -0.318114        -8.6563
 197   2.0000      -0.317759        -8.6467
 198   2.0000      -0.313996        -8.5443
 199   2.0000      -0.285878        -7.7791
 200   2.0000      -0.270291        -7.3550
 201   2.0000      -0.234736        -6.3875
 202   0.0000      -0.091890        -2.5005
 203   0.0000      -0.055419        -1.5080
 204   0.0000      -0.034051        -0.9266
 205   0.0000      -0.010851        -0.2953
 206   0.0000       0.023578         0.6416

MULLIKEN ATOMIC CHARGES
-----------------------
   0 C :   -0.114870
   1 S :    0.140149
   2 C :   -0.090761
   3 C :   -0.105937
   4 C :   -0.083453
   5 C :    0.157127
   6 C :    0.179876
   7 F :   -0.248887
   8 C :    0.199545
   9 F :   -0.246257
  10 C :    0.182308
  11 C :   -0.102329
  12 S :    0.115968
  13 C :   -0.105357
  14 N :   -0.035186
  15 N :   -0.079005
  16 C :    0.070237
  17 C :   -0.029654
  18 C :    0.143445
  19 N :   -0.256375
  20 C :    0.095774
  21 C :    0.002891
  22 C :    0.165213
  23 O :   -0.213133
  24 C :   -0.066548
  25 C :   -0.065507
  26 C :    0.166357
  27 O :   -0.212067
  28 N :   -0.256736
  29 C :    0.095917
  30 C :    0.002772
  31 C :    0.145089
  32 C :   -0.032284
  33 C :    0.080120
  34 C :   -0.119688
  35 S :    0.114736
  36 C :   -0.101296
  37 N :   -0.056225
  38 N :   -0.042869
  39 C :    0.042545
  40 C :    0.004363
  41 C :   -0.112857
  42 S :    0.118029
  43 C :   -0.111304
  44 C :   -0.083906
  45 C :   -0.070751
  46 C :    0.138248
  47 C :    0.193728
  48 F :   -0.245745
  49 C :    0.182253
  50 F :   -0.246657
  51 C :    0.155748
  52 H :    0.019175
  53 H :    0.020502
  54 H :    0.031395
  55 H :    0.007843
  56 H :    0.003694
  57 H :    0.031867
  58 H :    0.040154
  59 H :    0.011912
  60 H :    0.003154
  61 H :    0.028880
  62 H :    0.041972
  63 H :    0.021402
  64 H :    0.025544
  65 H :    0.026544
  66 H :    0.041951
  67 H :    0.029534
  68 H :    0.026158
  69 H :    0.025229
  70 H :    0.021637
  71 H :    0.002166
  72 H :    0.011790
  73 H :   -0.006211
  74 H :    0.020706
  75 H :    0.016877
  76 H :    0.035661
  77 H :    0.037144
  78 H :    0.005861
  79 H :    0.008791
  80 H :    0.031150
  81 H :    0.020722
Sum of atomic charges:   -0.0000000

LOEWDIN ATOMIC CHARGES
----------------------
   0 C :   -0.177628
   1 S :    0.445311
   2 C :   -0.217338
   3 C :   -0.032695
   4 C :   -0.069646
   5 C :   -0.033549
   6 C :    0.092820
   7 F :   -0.125953
   8 C :    0.093238
   9 F :   -0.123793
  10 C :   -0.036411
  11 C :   -0.154392
  12 S :    0.393203
  13 C :   -0.151399
  14 N :   -0.074887
  15 N :   -0.078720
  16 C :   -0.010297
  17 C :   -0.014532
  18 C :    0.071936
  19 N :    0.001966
  20 C :    0.036232
  21 C :   -0.060495
  22 C :    0.079972
  23 O :   -0.203776
  24 C :   -0.119956
  25 C :   -0.117666
  26 C :    0.080849
  27 O :   -0.202347
  28 N :    0.001717
  29 C :    0.036336
  30 C :   -0.060544
  31 C :    0.075228
  32 C :   -0.019482
  33 C :   -0.005683
  34 C :   -0.158182
  35 S :    0.397112
  36 C :   -0.143446
  37 N :   -0.085700
  38 N :   -0.072099
  39 C :   -0.074103
  40 C :    0.009749
  41 C :   -0.183278
  42 S :    0.443018
  43 C :   -0.178098
  44 C :   -0.072801
  45 C :   -0.051719
  46 C :   -0.036249
  47 C :    0.095756
  48 F :   -0.123595
  49 C :    0.093306
  50 F :   -0.124154
  51 C :   -0.033422
  52 H :    0.025502
  53 H :    0.038905
  54 H :    0.040984
  55 H :    0.019958
  56 H :    0.018579
  57 H :    0.047082
  58 H :    0.044274
  59 H :    0.037094
  60 H :    0.037055
  61 H :    0.025527
  62 H :    0.036914
  63 H :    0.024473
  64 H :    0.031611
  65 H :    0.030947
  66 H :    0.036838
  67 H :    0.025771
  68 H :    0.030779
  69 H :    0.031492
  70 H :    0.024579
  71 H :    0.036703
  72 H :    0.037285
  73 H :    0.024870
  74 H :    0.042228
  75 H :    0.024378
  76 H :    0.041899
  77 H :    0.044449
  78 H :    0.020005
  79 H :    0.020408
  80 H :    0.040630
  81 H :    0.039066

  Mayer bond orders larger than 0.100000
B(  0-C ,  1-S ) :   1.1674 B(  0-C ,  2-C ) :   0.1038 B(  0-C ,  4-C ) :   1.5635
B(  0-C , 52-H ) :   0.9746 B(  1-S ,  2-C ) :   1.1421 B(  2-C ,  3-C ) :   1.5565
B(  2-C , 11-C ) :   1.0939 B(  3-C ,  4-C ) :   1.2905 B(  3-C , 10-C ) :   1.0336
B(  4-C ,  5-C ) :   0.9910 B(  5-C ,  6-C ) :   1.0358 B(  5-C , 53-H ) :   0.9179
B(  5-C , 54-H ) :   0.9094 B(  6-C ,  7-F ) :   1.0246 B(  6-C ,  8-C ) :   1.0108
B(  6-C , 55-H ) :   0.9401 B(  8-C ,  9-F ) :   1.0283 B(  8-C , 10-C ) :   1.0088
B(  8-C , 56-H ) :   0.9353 B( 10-C , 57-H ) :   0.8994 B( 10-C , 58-H ) :   0.8918
B( 11-C , 12-S ) :   1.1122 B( 11-C , 15-N ) :   1.6606 B( 12-S , 13-C ) :   1.0811
B( 13-C , 14-N ) :   1.6809 B( 13-C , 16-C ) :   1.1016 B( 14-N , 15-N ) :   1.2138
B( 16-C , 17-C ) :   1.6597 B( 16-C , 59-H ) :   0.9264 B( 17-C , 18-C ) :   1.1308
B( 17-C , 60-H ) :   0.9706 B( 18-C , 19-N ) :   1.1578 B( 18-C , 25-C ) :   1.3491
B( 19-N , 20-C ) :   0.9454 B( 19-N , 22-C ) :   1.0628 B( 20-C , 21-C ) :   1.1212
B( 20-C , 61-H ) :   0.9499 B( 20-C , 62-H ) :   0.9286 B( 21-C , 63-H ) :   0.9688
B( 21-C , 64-H ) :   0.9679 B( 21-C , 65-H ) :   0.9637 B( 22-C , 23-O ) :   2.0276
B( 22-C , 24-C ) :   0.9861 B( 23-O , 72-H ) :   0.1096 B( 24-C , 25-C ) :   1.2546
B( 24-C , 31-C ) :   1.3448 B( 25-C , 26-C ) :   0.9838 B( 26-C , 27-O ) :   2.0286
B( 26-C , 28-N ) :   1.0630 B( 27-O , 59-H ) :   0.1097 B( 28-N , 29-C ) :   0.9455
B( 28-N , 31-C ) :   1.1579 B( 29-C , 30-C ) :   1.1212 B( 29-C , 66-H ) :   0.9287
B( 29-C , 67-H ) :   0.9498 B( 30-C , 68-H ) :   0.9638 B( 30-C , 69-H ) :   0.9679
B( 30-C , 70-H ) :   0.9686 B( 31-C , 32-C ) :   1.1342 B( 32-C , 33-C ) :   1.6560
B( 32-C , 71-H ) :   0.9705 B( 33-C , 34-C ) :   1.1085 B( 33-C , 72-H ) :   0.9264
B( 34-C , 35-S ) :   1.0888 B( 34-C , 38-N ) :   1.6697 B( 35-S , 36-C ) :   1.0997
B( 36-C , 37-N ) :   1.6613 B( 36-C , 39-C ) :   1.1105 B( 37-N , 38-N ) :   1.2325
B( 39-C , 40-C ) :   1.7041 B( 39-C , 73-H ) :   0.9518 B( 40-C , 41-C ) :   1.1384
B( 40-C , 74-H ) :   0.9714 B( 41-C , 42-S ) :   1.1236 B( 41-C , 45-C ) :   1.5053
B( 42-S , 43-C ) :   1.1713 B( 43-C , 44-C ) :   1.5709 B( 43-C , 75-H ) :   0.9724
B( 44-C , 45-C ) :   1.2978 B( 44-C , 51-C ) :   0.9900 B( 45-C , 46-C ) :   1.0200
B( 46-C , 47-C ) :   1.0289 B( 46-C , 76-H ) :   0.9069 B( 46-C , 77-H ) :   0.9060
B( 47-C , 48-F ) :   1.0288 B( 47-C , 49-C ) :   1.0148 B( 47-C , 78-H ) :   0.9358
B( 49-C , 50-F ) :   1.0286 B( 49-C , 51-C ) :   1.0354 B( 49-C , 79-H ) :   0.9399
B( 51-C , 80-H ) :   0.9107 B( 51-C , 81-H ) :   0.9187

-----------------------------------------------------------------------------
         ABSORPTION SPECTRUM VIA TRANSITION ELECTRIC DIPOLE MOMENTS
-----------------------------------------------------------------------------
State   Energy  Wavelength   fosc         T2         TX        TY        TZ
        (cm-1)    (nm)                  (au**2)     (au)      (au)      (au)
-----------------------------------------------------------------------------
   0   15522.5    644.2   1.115767732  23.66396   0.41595   4.69210   1.21454
   1   24185.1    413.5   0.009591324   0.13056  -0.03821  -0.31603  -0.17095
   2   25133.1    397.9   0.559718997   7.33162  -0.25368  -2.22378  -1.52383
   3   26864.1    372.2   0.032994605   0.40434   0.04635   0.50224   0.38724
   4   27350.7    365.6   0.438023233   5.27236   0.18009   1.77787   1.44191
   5   28281.2    353.6   0.000942328   0.01097   0.08614   0.03745   0.04633
   6   28897.4    346.1   0.001756759   0.02001  -0.10135  -0.07336  -0.06603
   7   29325.4    341.0   0.002170922   0.02437  -0.05792  -0.10927  -0.09527
   8   29946.3    333.9   0.501375824   5.51184  -0.19840  -1.52667  -1.77250
   9   32443.7    308.2   0.000152659   0.00155  -0.00203   0.03676   0.01392
  10   33584.8    297.8   0.093781438   0.91928  -0.09386  -0.69735  -0.65129
  11   33905.0    294.9   0.070524406   0.68478   0.06579   0.82409  -0.03637
  12   35449.7    282.1   0.262379074   2.43664   0.12319   1.18423   1.00949
  13   36405.3    274.7   0.032259653   0.29172   0.01060  -0.07886   0.53422
  14   36637.0    272.9   0.005224018   0.04694   0.21000  -0.05333   0.00025
  15   37487.7    266.8   0.073504332   0.64551  -0.14901  -0.78442   0.08935
  16   37674.9    265.4   0.039334579   0.34371  -0.02579   0.13027   0.57103
  17   38585.4    259.2   0.087205960   0.74404  -0.09149  -0.66787  -0.53817
  18   39716.5    251.8   0.017004220   0.14095   0.04402   0.37284  -0.00165
  19   39979.6    250.1   0.007895927   0.06502   0.15311  -0.11888  -0.16567
  20   40183.0    248.9   0.060545957   0.49604   0.06253   0.62851   0.31163

FINAL SINGLE POINT ENERGY     -3857.737607563570

DIPOLE MOMENT
-------------
                                X             Y             Z
Electronic contribution:      0.27753      -6.92853      -3.77362
Nuclear contribution   :     -0.51908       7.54022       3.91643
                        -----------------------------------------
Total Dipole Moment    :     -0.24155       0.61169       0.14281
                        -----------------------------------------
Magnitude (a.u.)       :      0.67298
Magnitude (Debye)      :      1.71058

Rotational constants in cm-1:     0.005853     0.000272     0.000261
Rotational constants in MHz :   175.472849     8.145719     7.813863

                             ****ORCA TERMINATED NORMALLY****
TOTAL RUN TIME: 0 days 0 hours 5 minutes 12 seconds 21 msec
