                         Program Version 4.2.0 -  RELEASE  -
|  1> # ORCA input file
|  2> # SCF done       -197.931559230484          0.000505878546
|  3> ! CAM-B3LYP def2-SVP def2/J RIJCOSX Grid4 TightSCF
|  4> %maxcore 5000
|  5> %tddft
|  6>     Mode sTDDFT
|  7>     Ethresh 5.0
|  8>     maxcore 5000
|  9> end
| 10>
| 11> %pal
| 12>   nprocs 6
| 13>   end
| 14> * xyz 0 1
| 15>    C        6.03687        -0.12587         2.81196
| 16>    C        5.23385         0.92250         2.38914
| 17>    F        5.27578         2.07907         3.05702
| 18>    C        4.38338         0.79925         1.28840
| 19>    F        3.62877         1.83823         0.91669
| 20>    C        4.31335        -0.38959         0.58125
| 21>    C        5.11087        -1.43450         1.00591
| 22>    C        5.97273        -1.31906         2.10800
| 23>    C        6.67695        -2.58681         2.28589
| 24>    C        7.70793        -2.79797         3.16065
| 25>    C        8.18887        -1.82275         4.06255
| 26>    N        8.62167        -1.07858         4.82054
| 27>    C        8.47102        -3.98184         3.26934
| 28>    N        9.15355        -4.89444         3.40698
| 29>    C        6.14374        -3.53022         1.31270
| 30>    C        5.20749        -2.79333         0.43036
| 31>    O        4.61080        -3.18717        -0.54700
| 32>    C        6.39642        -4.87403         1.34606
| 33>    C        6.01007        -5.91599         0.47558
| 34>    S        6.35935        -7.55367         0.99493
| 35>    C        5.71154        -8.22738        -0.45776
| 36>    C        5.25614        -7.20291        -1.30817
| 37>    C        5.42458        -5.92103        -0.77960
| 38>    C        4.66926        -7.40330        -2.57022
| 39>    N        4.18517        -7.53232        -3.60265
| 40>    C        5.69448        -9.63248        -0.61932
| 41>    C        5.28322       -10.28396        -1.74158
| 42>    C        5.25999       -11.69491        -1.83880
| 43>    N        4.85994       -12.36989        -2.96679
| 44>    C        4.37804       -11.78790        -4.19805
| 45>    C        2.92554       -11.33331        -4.08636
| 46>    C        4.91703       -13.76405        -2.79573
| 47>    O        4.60890       -14.56082        -3.65614
| 48>    C        5.40615       -13.93773        -1.44238
| 49>    C        5.60815       -12.65270        -0.88418
| 50>    C        6.10001       -12.82606         0.46488
| 51>    O        6.41516       -12.02788         1.32567
| 52>    N        6.16998       -14.21919         0.63277
| 53>    C        6.57798       -14.79917         1.88971
| 54>    C        5.38068       -15.25672         2.71917
| 55>    C        5.75399       -14.89480        -0.49131
| 56>    C        5.72202       -16.31003        -0.59363
| 57>    C        5.29591       -16.95962        -1.70358
| 58>    C        5.26401       -18.37960        -1.79289
| 59>    O        5.66921       -19.15446        -0.72841
| 60>    C        5.50933       -20.42464        -1.14678
| 61>    C        4.99942       -20.37477        -2.48320
| 62>    N        4.86842       -19.06106        -2.82406
| 63>    C        4.72362       -21.52071        -3.20877
| 64>    C        4.98083       -22.70485        -2.53474
| 65>    C        5.48646       -22.72886        -1.19874
| 66>    C        5.76856       -21.59425        -0.46182
| 67>    O        5.62002       -24.02028        -0.84104
| 68>    C        5.22426       -24.73153        -1.93662
| 69>    N        4.83941       -23.99764        -2.94036
| 70>    C        5.19613       -26.15324        -1.85219
| 71>    C        4.94064       -27.02214        -2.85622
| 72>    C        4.53933       -28.42701        -2.53790
| 73>    O        4.68746       -29.00344        -1.49006
| 74>    C        3.86918       -28.91076        -3.76360
| 75>    C        3.97908       -27.94254        -4.77982
| 76>    C        3.39091       -28.16321        -6.01567
| 77>    C        2.70878       -29.35496        -6.20768
| 78>    C        2.61584       -30.31759        -5.19894
| 79>    C        3.19734       -30.10289        -3.96039
| 80>    F        1.95409       -31.45505        -5.43202
| 81>    F        2.12473       -29.58529        -7.38594
| 82>    C        4.78505       -26.82633        -4.28888
| 83>    C        5.45212       -25.92232        -5.06104
| 84>    C        6.46865       -25.06717        -4.57602
| 85>    N        7.37908       -24.43584        -4.27901
| 86>    C        5.29678       -25.82395        -6.46142
| 87>    N        5.19113       -25.70136        -7.59666
| 88>    H        6.67294         0.02061         3.66924
| 89>    H        3.65785        -0.49156        -0.26894
| 90>    H        6.97619        -5.22745         2.19096
| 91>    H        5.12449        -5.02588        -1.29349
| 92>    H        6.04010       -10.21017         0.22906
| 93>    H        4.95880        -9.72121        -2.60279
| 94>    H        4.45837       -12.57497        -4.95290
| 95>    H        5.02282       -10.95370        -4.48634
| 96>    H        2.28978       -12.17666        -3.82783
| 97>    H        2.59801       -10.92852        -5.03932
| 98>    H        2.81197       -10.56271        -3.32741
| 99>    H        7.11471       -14.01122         2.42549
|100>    H        7.26474       -15.62934         1.70408
|101>    H        4.73040       -14.41123         2.92972
|102>    H        5.72459       -15.67272         3.66198
|103>    H        4.80456       -16.01326         2.19099
|104>    H        6.05593       -16.88716         0.25736
|105>    H        4.95556       -16.43083        -2.58281
|106>    H        4.34789       -21.49309        -4.21561
|107>    H        6.15398       -21.62290         0.54244
|108>    H        5.30740       -26.56351        -0.85557
|109>    H        3.43370       -27.44765        -6.82063
|110>    H        3.12402       -30.84378        -3.18020
|111> *
|112>
|113>                          ****END OF INPUT****

CARTESIAN COORDINATES (ANGSTROEM)
---------------------------------
  C      6.036870   -0.125870    2.811960
  C      5.233850    0.922500    2.389140
  F      5.275780    2.079070    3.057020
  C      4.383380    0.799250    1.288400
  F      3.628770    1.838230    0.916690
  C      4.313350   -0.389590    0.581250
  C      5.110870   -1.434500    1.005910
  C      5.972730   -1.319060    2.108000
  C      6.676950   -2.586810    2.285890
  C      7.707930   -2.797970    3.160650
  C      8.188870   -1.822750    4.062550
  N      8.621670   -1.078580    4.820540
  C      8.471020   -3.981840    3.269340
  N      9.153550   -4.894440    3.406980
  C      6.143740   -3.530220    1.312700
  C      5.207490   -2.793330    0.430360
  O      4.610800   -3.187170   -0.547000
  C      6.396420   -4.874030    1.346060
  C      6.010070   -5.915990    0.475580
  S      6.359350   -7.553670    0.994930
  C      5.711540   -8.227380   -0.457760
  C      5.256140   -7.202910   -1.308170
  C      5.424580   -5.921030   -0.779600
  C      4.669260   -7.403300   -2.570220
  N      4.185170   -7.532320   -3.602650
  C      5.694480   -9.632480   -0.619320
  C      5.283220  -10.283960   -1.741580
  C      5.259990  -11.694910   -1.838800
  N      4.859940  -12.369890   -2.966790
  C      4.378040  -11.787900   -4.198050
  C      2.925540  -11.333310   -4.086360
  C      4.917030  -13.764050   -2.795730
  O      4.608900  -14.560820   -3.656140
  C      5.406150  -13.937730   -1.442380
  C      5.608150  -12.652700   -0.884180
  C      6.100010  -12.826060    0.464880
  O      6.415160  -12.027880    1.325670
  N      6.169980  -14.219190    0.632770
  C      6.577980  -14.799170    1.889710
  C      5.380680  -15.256720    2.719170
  C      5.753990  -14.894800   -0.491310
  C      5.722020  -16.310030   -0.593630
  C      5.295910  -16.959620   -1.703580
  C      5.264010  -18.379600   -1.792890
  O      5.669210  -19.154460   -0.728410
  C      5.509330  -20.424640   -1.146780
  C      4.999420  -20.374770   -2.483200
  N      4.868420  -19.061060   -2.824060
  C      4.723620  -21.520710   -3.208770
  C      4.980830  -22.704850   -2.534740
  C      5.486460  -22.728860   -1.198740
  C      5.768560  -21.594250   -0.461820
  O      5.620020  -24.020280   -0.841040
  C      5.224260  -24.731530   -1.936620
  N      4.839410  -23.997640   -2.940360
  C      5.196130  -26.153240   -1.852190
  C      4.940640  -27.022140   -2.856220
  C      4.539330  -28.427010   -2.537900
  O      4.687460  -29.003440   -1.490060
  C      3.869180  -28.910760   -3.763600
  C      3.979080  -27.942540   -4.779820
  C      3.390910  -28.163210   -6.015670
  C      2.708780  -29.354960   -6.207680
  C      2.615840  -30.317590   -5.198940
  C      3.197340  -30.102890   -3.960390
  F      1.954090  -31.455050   -5.432020
  F      2.124730  -29.585290   -7.385940
  C      4.785050  -26.826330   -4.288880
  C      5.452120  -25.922320   -5.061040
  C      6.468650  -25.067170   -4.576020
  N      7.379080  -24.435840   -4.279010
  C      5.296780  -25.823950   -6.461420
  N      5.191130  -25.701360   -7.596660
  H      6.672940    0.020610    3.669240
  H      3.657850   -0.491560   -0.268940
  H      6.976190   -5.227450    2.190960
  H      5.124490   -5.025880   -1.293490
  H      6.040100  -10.210170    0.229060
  H      4.958800   -9.721210   -2.602790
  H      4.458370  -12.574970   -4.952900
  H      5.022820  -10.953700   -4.486340
  H      2.289780  -12.176660   -3.827830
  H      2.598010  -10.928520   -5.039320
  H      2.811970  -10.562710   -3.327410
  H      7.114710  -14.011220    2.425490
  H      7.264740  -15.629340    1.704080
  H      4.730400  -14.411230    2.929720
  H      5.724590  -15.672720    3.661980
  H      4.804560  -16.013260    2.190990
  H      6.055930  -16.887160    0.257360
  H      4.955560  -16.430830   -2.582810
  H      4.347890  -21.493090   -4.215610
  H      6.153980  -21.622900    0.542440
  H      5.307400  -26.563510   -0.855570
  H      3.433700  -27.447650   -6.820630
  H      3.124020  -30.843780   -3.180200

 Total Charge           Charge          ....    0
 Multiplicity           Mult            ....    1
 Number of Electrons    NEL             ....  504
 Basis Dimension        Dim             .... 1141

ORBITAL ENERGIES
----------------

  NO   OCC          E(Eh)            E(eV)
   0   2.0000     -88.993223     -2421.6287
   1   2.0000     -24.810160      -675.1188
   2   2.0000     -24.809640      -675.1046
   3   2.0000     -24.809428      -675.0988
   4   2.0000     -24.808889      -675.0842
   5   2.0000     -19.317447      -525.6544
   6   2.0000     -19.310511      -525.4657
   7   2.0000     -19.236904      -523.4628
   8   2.0000     -19.234690      -523.4025
   9   2.0000     -19.205695      -522.6135
  10   2.0000     -19.201014      -522.4862
  11   2.0000     -14.466121      -393.6432
  12   2.0000     -14.462770      -393.5520
  13   2.0000     -14.432688      -392.7334
  14   2.0000     -14.429406      -392.6441
  15   2.0000     -14.427645      -392.5962
  16   2.0000     -14.427009      -392.5789
  17   2.0000     -14.424784      -392.5183
  18   2.0000     -14.420312      -392.3966
  19   2.0000     -14.419959      -392.3870
  20   2.0000     -10.396831      -282.9122
  21   2.0000     -10.396210      -282.8953
  22   2.0000     -10.395831      -282.8849
  23   2.0000     -10.395175      -282.8671
  24   2.0000     -10.390220      -282.7323
  25   2.0000     -10.388362      -282.6817
  26   2.0000     -10.387456      -282.6570
  27   2.0000     -10.386024      -282.6181
  28   2.0000     -10.383872      -282.5595
  29   2.0000     -10.380828      -282.4767
  30   2.0000     -10.359472      -281.8956
  31   2.0000     -10.359007      -281.8829
  32   2.0000     -10.358537      -281.8701
  33   2.0000     -10.358436      -281.8674
  34   2.0000     -10.356870      -281.8248
  35   2.0000     -10.352617      -281.7090
  36   2.0000     -10.352566      -281.7077
  37   2.0000     -10.351756      -281.6856
  38   2.0000     -10.350991      -281.6648
  39   2.0000     -10.340800      -281.3875
  40   2.0000     -10.337234      -281.2905
  41   2.0000     -10.333691      -281.1940
  42   2.0000     -10.333292      -281.1832
  43   2.0000     -10.331474      -281.1337
  44   2.0000     -10.329204      -281.0719
  45   2.0000     -10.328768      -281.0601
  46   2.0000     -10.328455      -281.0516
  47   2.0000     -10.327458      -281.0244
  48   2.0000     -10.325804      -280.9794
  49   2.0000     -10.323421      -280.9146
  50   2.0000     -10.323041      -280.9042
  51   2.0000     -10.321761      -280.8694
  52   2.0000     -10.319231      -280.8005
  53   2.0000     -10.318965      -280.7933
  54   2.0000     -10.318923      -280.7922
  55   2.0000     -10.318690      -280.7858
  56   2.0000     -10.318175      -280.7718
  57   2.0000     -10.317808      -280.7618
  58   2.0000     -10.317667      -280.7580
  59   2.0000     -10.314753      -280.6787
  60   2.0000     -10.314082      -280.6604
  61   2.0000     -10.313162      -280.6354
  62   2.0000     -10.312326      -280.6126
  63   2.0000     -10.311407      -280.5876
  64   2.0000     -10.310945      -280.5751
  65   2.0000     -10.309313      -280.5307
  66   2.0000     -10.306108      -280.4434
  67   2.0000     -10.305509      -280.4272
  68   2.0000     -10.296211      -280.1742
  69   2.0000     -10.276068      -279.6260
  70   2.0000     -10.274540      -279.5845
  71   2.0000     -10.273419      -279.5539
  72   2.0000     -10.263453      -279.2828
  73   2.0000      -8.088723      -220.1053
  74   2.0000      -6.057734      -164.8393
  75   2.0000      -6.053692      -164.7293
  76   2.0000      -6.051201      -164.6615
  77   2.0000      -1.334052       -36.3014
  78   2.0000      -1.333789       -36.2943
  79   2.0000      -1.318710       -35.8839
  80   2.0000      -1.318482       -35.8777
  81   2.0000      -1.247879       -33.9565
  82   2.0000      -1.238539       -33.7024
  83   2.0000      -1.152700       -31.3666
  84   2.0000      -1.151069       -31.3222
  85   2.0000      -1.146196       -31.1896
  86   2.0000      -1.138848       -30.9896
  87   2.0000      -1.076190       -29.2846
  88   2.0000      -1.067162       -29.0390
  89   2.0000      -1.045552       -28.4509
  90   2.0000      -1.034734       -28.1566
  91   2.0000      -1.033360       -28.1192
  92   2.0000      -1.029707       -28.0198
  93   2.0000      -1.029481       -28.0136
  94   2.0000      -1.014971       -27.6188
  95   2.0000      -1.012374       -27.5481
  96   2.0000      -1.006635       -27.3919
  97   2.0000      -1.004046       -27.3215
  98   2.0000      -1.001124       -27.2420
  99   2.0000      -0.975403       -26.5421
 100   2.0000      -0.970397       -26.4058
 101   2.0000      -0.965672       -26.2773
 102   2.0000      -0.941225       -25.6120
 103   2.0000      -0.935683       -25.4612
 104   2.0000      -0.927433       -25.2367
 105   2.0000      -0.917730       -24.9727
 106   2.0000      -0.916380       -24.9360
 107   2.0000      -0.905159       -24.6306
 108   2.0000      -0.902722       -24.5643
 109   2.0000      -0.885040       -24.0832
 110   2.0000      -0.884522       -24.0691
 111   2.0000      -0.883768       -24.0485
 112   2.0000      -0.879395       -23.9296
 113   2.0000      -0.865255       -23.5448
 114   2.0000      -0.858726       -23.3671
 115   2.0000      -0.855068       -23.2676
 116   2.0000      -0.830644       -22.6030
 117   2.0000      -0.828301       -22.5392
 118   2.0000      -0.814023       -22.1507
 119   2.0000      -0.798739       -21.7348
 120   2.0000      -0.787426       -21.4269
 121   2.0000      -0.785700       -21.3800
 122   2.0000      -0.783223       -21.3126
 123   2.0000      -0.768224       -20.9044
 124   2.0000      -0.763274       -20.7698
 125   2.0000      -0.750998       -20.4357
 126   2.0000      -0.742436       -20.2027
 127   2.0000      -0.737717       -20.0743
 128   2.0000      -0.731418       -19.9029
 129   2.0000      -0.720678       -19.6106
 130   2.0000      -0.718011       -19.5381
 131   2.0000      -0.717586       -19.5265
 132   2.0000      -0.713726       -19.4215
 133   2.0000      -0.711622       -19.3642
 134   2.0000      -0.704594       -19.1730
 135   2.0000      -0.699289       -19.0286
 136   2.0000      -0.691423       -18.8146
 137   2.0000      -0.683423       -18.5969
 138   2.0000      -0.678379       -18.4596
 139   2.0000      -0.676044       -18.3961
 140   2.0000      -0.668542       -18.1919
 141   2.0000      -0.662319       -18.0226
 142   2.0000      -0.659353       -17.9419
 143   2.0000      -0.654162       -17.8006
 144   2.0000      -0.653751       -17.7895
 145   2.0000      -0.650576       -17.7031
 146   2.0000      -0.637758       -17.3543
 147   2.0000      -0.633080       -17.2270
 148   2.0000      -0.627401       -17.0725
 149   2.0000      -0.617524       -16.8037
 150   2.0000      -0.615727       -16.7548
 151   2.0000      -0.613263       -16.6877
 152   2.0000      -0.608857       -16.5678
 153   2.0000      -0.604098       -16.4384
 154   2.0000      -0.600250       -16.3336
 155   2.0000      -0.598698       -16.2914
 156   2.0000      -0.598520       -16.2866
 157   2.0000      -0.597533       -16.2597
 158   2.0000      -0.597080       -16.2474
 159   2.0000      -0.589149       -16.0316
 160   2.0000      -0.587654       -15.9909
 161   2.0000      -0.584135       -15.8951
 162   2.0000      -0.582777       -15.8582
 163   2.0000      -0.570848       -15.5336
 164   2.0000      -0.569668       -15.5014
 165   2.0000      -0.561748       -15.2859
 166   2.0000      -0.561496       -15.2791
 167   2.0000      -0.560120       -15.2416
 168   2.0000      -0.558831       -15.2066
 169   2.0000      -0.558429       -15.1956
 170   2.0000      -0.558281       -15.1916
 171   2.0000      -0.556049       -15.1309
 172   2.0000      -0.552168       -15.0253
 173   2.0000      -0.550657       -14.9842
 174   2.0000      -0.550301       -14.9744
 175   2.0000      -0.548145       -14.9158
 176   2.0000      -0.547190       -14.8898
 177   2.0000      -0.542720       -14.7682
 178   2.0000      -0.540451       -14.7064
 179   2.0000      -0.538268       -14.6470
 180   2.0000      -0.535558       -14.5733
 181   2.0000      -0.529158       -14.3991
 182   2.0000      -0.525908       -14.3107
 183   2.0000      -0.524143       -14.2626
 184   2.0000      -0.523297       -14.2396
 185   2.0000      -0.519733       -14.1426
 186   2.0000      -0.518164       -14.1000
 187   2.0000      -0.512076       -13.9343
 188   2.0000      -0.508820       -13.8457
 189   2.0000      -0.508434       -13.8352
 190   2.0000      -0.507324       -13.8050
 191   2.0000      -0.506322       -13.7777
 192   2.0000      -0.505355       -13.7514
 193   2.0000      -0.498151       -13.5554
 194   2.0000      -0.496953       -13.5228
 195   2.0000      -0.493199       -13.4206
 196   2.0000      -0.489197       -13.3117
 197   2.0000      -0.486456       -13.2371
 198   2.0000      -0.483030       -13.1439
 199   2.0000      -0.480764       -13.0823
 200   2.0000      -0.473173       -12.8757
 201   2.0000      -0.469293       -12.7701
 202   2.0000      -0.469093       -12.7647
 203   2.0000      -0.468816       -12.7571
 204   2.0000      -0.466846       -12.7035
 205   2.0000      -0.466551       -12.6955
 206   2.0000      -0.462451       -12.5839
 207   2.0000      -0.461603       -12.5608
 208   2.0000      -0.461124       -12.5478
 209   2.0000      -0.460074       -12.5192
 210   2.0000      -0.459664       -12.5081
 211   2.0000      -0.457135       -12.4393
 212   2.0000      -0.455982       -12.4079
 213   2.0000      -0.455712       -12.4006
 214   2.0000      -0.454270       -12.3613
 215   2.0000      -0.453049       -12.3281
 216   2.0000      -0.450808       -12.2671
 217   2.0000      -0.450222       -12.2512
 218   2.0000      -0.449909       -12.2427
 219   2.0000      -0.447363       -12.1734
 220   2.0000      -0.439418       -11.9572
 221   2.0000      -0.439147       -11.9498
 222   2.0000      -0.437422       -11.9029
 223   2.0000      -0.437232       -11.8977
 224   2.0000      -0.434646       -11.8273
 225   2.0000      -0.432442       -11.7673
 226   2.0000      -0.426264       -11.5992
 227   2.0000      -0.425064       -11.5666
 228   2.0000      -0.421229       -11.4622
 229   2.0000      -0.418926       -11.3996
 230   2.0000      -0.418560       -11.3896
 231   2.0000      -0.404819       -11.0157
 232   2.0000      -0.402869       -10.9626
 233   2.0000      -0.383675       -10.4403
 234   2.0000      -0.379866       -10.3367
 235   2.0000      -0.376371       -10.2416
 236   2.0000      -0.367652       -10.0043
 237   2.0000      -0.363864        -9.9012
 238   2.0000      -0.360495        -9.8096
 239   2.0000      -0.359726        -9.7886
 240   2.0000      -0.358967        -9.7680
 241   2.0000      -0.353961        -9.6318
 242   2.0000      -0.351939        -9.5767
 243   2.0000      -0.350956        -9.5500
 244   2.0000      -0.343808        -9.3555
 245   2.0000      -0.327117        -8.9013
 246   2.0000      -0.326817        -8.8931
 247   2.0000      -0.322796        -8.7837
 248   2.0000      -0.311197        -8.4681
 249   2.0000      -0.303305        -8.2533
 250   2.0000      -0.296688        -8.0733
 251   2.0000      -0.248355        -6.7581
 252   0.0000      -0.120195        -3.2707
 253   0.0000      -0.104420        -2.8414
 254   0.0000      -0.089529        -2.4362
 255   0.0000      -0.074792        -2.0352
 256   0.0000      -0.071751        -1.9524

MULLIKEN ATOMIC CHARGES
-----------------------
   0 C :   -0.089800
   1 C :    0.239101
   2 F :   -0.161260
   3 C :    0.239405
   4 F :   -0.164553
   5 C :   -0.103885
   6 C :   -0.007646
   7 C :    0.046845
   8 C :    0.290731
   9 C :   -0.337337
  10 C :   -0.190722
  11 N :    0.162420
  12 C :   -0.196255
  13 N :    0.167325
  14 C :   -0.086235
  15 C :    0.157425
  16 O :   -0.146660
  17 C :    0.060091
  18 C :   -0.112205
  19 S :    0.202959
  20 C :   -0.050837
  21 C :   -0.095491
  22 C :    0.045635
  23 C :   -0.154961
  24 N :    0.122961
  25 C :    0.055304
  26 C :   -0.024937
  27 C :    0.135869
  28 N :   -0.256702
  29 C :    0.090240
  30 C :    0.008441
  31 C :    0.164780
  32 O :   -0.193214
  33 C :   -0.059640
  34 C :   -0.063665
  35 C :    0.168641
  36 O :   -0.206202
  37 N :   -0.257260
  38 C :    0.094822
  39 C :    0.003980
  40 C :    0.139348
  41 C :   -0.018428
  42 C :    0.000384
  43 C :    0.103086
  44 O :   -0.215490
  45 C :    0.226172
  46 C :    0.008049
  47 N :   -0.013700
  48 C :   -0.059205
  49 C :    0.033129
  50 C :    0.219020
  51 C :   -0.152712
  52 O :   -0.186726
  53 C :    0.120281
  54 N :   -0.067768
  55 C :    0.025398
  56 C :   -0.084853
  57 C :    0.134194
  58 O :   -0.123761
  59 C :    0.001014
  60 C :    0.038945
  61 C :   -0.091088
  62 C :    0.240879
  63 C :    0.233624
  64 C :   -0.100245
  65 F :   -0.164596
  66 F :   -0.159859
  67 C :    0.253955
  68 C :   -0.264665
  69 C :   -0.180780
  70 N :    0.163587
  71 C :   -0.195833
  72 N :    0.167242
  73 H :    0.018800
  74 H :    0.015362
  75 H :    0.017017
  76 H :    0.027409
  77 H :    0.008861
  78 H :   -0.010344
  79 H :    0.046423
  80 H :    0.036605
  81 H :    0.025641
  82 H :    0.031601
  83 H :    0.018226
  84 H :    0.046846
  85 H :    0.028187
  86 H :    0.030221
  87 H :    0.026487
  88 H :    0.016710
  89 H :   -0.003564
  90 H :    0.044481
  91 H :   -0.013495
  92 H :   -0.010166
  93 H :    0.033205
  94 H :    0.022262
  95 H :    0.017123
Sum of atomic charges:   -0.0000000

LOEWDIN ATOMIC CHARGES
----------------------
   0 C :   -0.017082
   1 C :    0.075996
   2 F :   -0.040191
   3 C :    0.072673
   4 F :   -0.041859
   5 C :   -0.003454
   6 C :   -0.045208
   7 C :   -0.014979
   8 C :    0.074230
   9 C :   -0.131298
  10 C :   -0.019926
  11 N :   -0.041204
  12 C :   -0.025959
  13 N :   -0.040266
  14 C :   -0.091257
  15 C :    0.088681
  16 O :   -0.132798
  17 C :    0.048679
  18 C :   -0.181624
  19 S :    0.504168
  20 C :   -0.123634
  21 C :   -0.109000
  22 C :    0.024385
  23 C :   -0.023802
  24 N :   -0.054027
  25 C :   -0.009325
  26 C :   -0.014977
  27 C :    0.072722
  28 N :    0.003732
  29 C :    0.036767
  30 C :   -0.058504
  31 C :    0.081145
  32 O :   -0.185493
  33 C :   -0.113004
  34 C :   -0.112165
  35 C :    0.081404
  36 O :   -0.196251
  37 N :    0.002084
  38 C :    0.036704
  39 C :   -0.060376
  40 C :    0.075261
  41 C :   -0.025330
  42 C :    0.012007
  43 C :    0.061688
  44 O :   -0.016526
  45 C :    0.047120
  46 C :   -0.034593
  47 N :   -0.078280
  48 C :   -0.001708
  49 C :   -0.032531
  50 C :    0.046538
  51 C :   -0.063060
  52 O :    0.005278
  53 C :    0.051285
  54 N :   -0.067779
  55 C :    0.036752
  56 C :   -0.046980
  57 C :    0.084970
  58 O :   -0.124460
  59 C :   -0.051067
  60 C :   -0.007074
  61 C :   -0.020059
  62 C :    0.078615
  63 C :    0.069912
  64 C :   -0.002089
  65 F :   -0.042218
  66 F :   -0.038404
  67 C :    0.060654
  68 C :   -0.099328
  69 C :   -0.017812
  70 N :   -0.042510
  71 C :   -0.018612
  72 N :   -0.035512
  73 H :    0.052336
  74 H :    0.053390
  75 H :    0.045116
  76 H :    0.043445
  77 H :    0.038066
  78 H :    0.037784
  79 H :    0.039210
  80 H :    0.027888
  81 H :    0.030354
  82 H :    0.035297
  83 H :    0.023084
  84 H :    0.039010
  85 H :    0.024908
  86 H :    0.032598
  87 H :    0.032154
  88 H :    0.022554
  89 H :    0.033823
  90 H :    0.052914
  91 H :    0.047548
  92 H :    0.045509
  93 H :    0.056613
  94 H :    0.052721
  95 H :    0.053824

  Mayer bond orders larger than 0.100000
B(  0-C ,  1-C ) :   1.3396 B(  0-C ,  5-C ) :   0.1049 B(  0-C ,  7-C ) :   1.3087
B(  0-C , 73-H ) :   0.9932 B(  1-C ,  2-F ) :   1.1489 B(  1-C ,  3-C ) :   1.2847
B(  3-C ,  4-F ) :   1.1360 B(  3-C ,  5-C ) :   1.3181 B(  5-C ,  6-C ) :   1.3152
B(  5-C , 74-H ) :   1.0215 B(  6-C ,  7-C ) :   1.3410 B(  6-C , 15-C ) :   0.9643
B(  7-C ,  8-C ) :   1.0061 B(  8-C ,  9-C ) :   1.6467 B(  8-C , 14-C ) :   1.0718
B(  9-C , 10-C ) :   1.1395 B(  9-C , 12-C ) :   1.1359 B( 10-C , 11-N ) :   2.9815
B( 12-C , 13-N ) :   2.9879 B( 14-C , 15-C ) :   0.9406 B( 14-C , 17-C ) :   1.6141
B( 15-C , 16-O ) :   2.1809 B( 17-C , 18-C ) :   1.1923 B( 17-C , 75-H ) :   0.9167
B( 18-C , 19-S ) :   1.1053 B( 18-C , 22-C ) :   1.4216 B( 19-S , 20-C ) :   1.1883
B( 20-C , 21-C ) :   1.3756 B( 20-C , 25-C ) :   1.1640 B( 21-C , 22-C ) :   1.3262
B( 21-C , 23-C ) :   1.1182 B( 22-C , 76-H ) :   0.9824 B( 23-C , 24-N ) :   2.9663
B( 25-C , 26-C ) :   1.6014 B( 25-C , 77-H ) :   0.9219 B( 26-C , 27-C ) :   1.1753
B( 26-C , 78-H ) :   0.9457 B( 27-C , 28-N ) :   1.1687 B( 27-C , 34-C ) :   1.3253
B( 28-N , 29-C ) :   0.9356 B( 28-N , 31-C ) :   1.0572 B( 29-C , 30-C ) :   1.1238
B( 29-C , 79-H ) :   0.9273 B( 29-C , 80-H ) :   0.9483 B( 30-C , 81-H ) :   0.9630
B( 30-C , 82-H ) :   0.9674 B( 30-C , 83-H ) :   0.9674 B( 31-C , 32-O ) :   2.0559
B( 31-C , 33-C ) :   0.9740 B( 33-C , 34-C ) :   1.2648 B( 33-C , 40-C ) :   1.3492
B( 34-C , 35-C ) :   0.9821 B( 35-C , 36-O ) :   2.0250 B( 35-C , 37-N ) :   1.0640
B( 36-O , 77-H ) :   0.1150 B( 37-N , 38-C ) :   0.9427 B( 37-N , 40-C ) :   1.1612
B( 38-C , 39-C ) :   1.1221 B( 38-C , 84-H ) :   0.9285 B( 38-C , 85-H ) :   0.9499
B( 39-C , 86-H ) :   0.9634 B( 39-C , 87-H ) :   0.9677 B( 39-C , 88-H ) :   0.9686
B( 40-C , 41-C ) :   1.1354 B( 41-C , 42-C ) :   1.5997 B( 41-C , 89-H ) :   0.9668
B( 42-C , 43-C ) :   1.1096 B( 42-C , 90-H ) :   0.9411 B( 43-C , 44-O ) :   1.1007
B( 43-C , 47-N ) :   1.7416 B( 44-O , 45-C ) :   1.1214 B( 45-C , 46-C ) :   1.2281
B( 45-C , 51-C ) :   1.3272 B( 46-C , 47-N ) :   1.2976 B( 46-C , 48-C ) :   1.3021
B( 48-C , 49-C ) :   1.2714 B( 48-C , 51-C ) :   0.1475 B( 48-C , 91-H ) :   1.0467
B( 49-C , 50-C ) :   1.2370 B( 49-C , 54-N ) :   1.2845 B( 50-C , 51-C ) :   1.3091
B( 50-C , 52-O ) :   1.1259 B( 51-C , 92-H ) :   1.0431 B( 52-O , 53-C ) :   1.1258
B( 53-C , 54-N ) :   1.6783 B( 53-C , 55-C ) :   1.0697 B( 55-C , 56-C ) :   1.7018
B( 55-C , 93-H ) :   0.9484 B( 56-C , 57-C ) :   0.9278 B( 56-C , 67-C ) :   1.0144
B( 57-C , 58-O ) :   2.2906 B( 57-C , 59-C ) :   0.9324 B( 59-C , 60-C ) :   1.3378
B( 59-C , 64-C ) :   1.3176 B( 60-C , 61-C ) :   1.3176 B( 60-C , 67-C ) :   1.0205
B( 61-C , 62-C ) :   1.3402 B( 61-C , 64-C ) :   0.1042 B( 61-C , 94-H ) :   0.9933
B( 62-C , 63-C ) :   1.2819 B( 62-C , 66-F ) :   1.1472 B( 63-C , 64-C ) :   1.3309
B( 63-C , 65-F ) :   1.1357 B( 64-C , 95-H ) :   1.0184 B( 67-C , 68-C ) :   1.7168
B( 68-C , 69-C ) :   1.1423 B( 68-C , 71-C ) :   1.1332 B( 69-C , 70-N ) :   2.9902
B( 71-C , 72-N ) :   2.9953

-----------------------------------------------------------------------------
         ABSORPTION SPECTRUM VIA TRANSITION ELECTRIC DIPOLE MOMENTS
-----------------------------------------------------------------------------
State   Energy  Wavelength   fosc         T2         TX        TY        TZ
        (cm-1)    (nm)                  (au**2)     (au)      (au)      (au)
-----------------------------------------------------------------------------
   0   13289.1    752.5   1.248011678  30.91700  -0.12987  -5.53726  -0.48874
   1   20350.4    491.4   0.109665117   1.77407  -0.20238   1.30843  -0.14536
   2   22134.8    451.8   0.322730050   4.79998   0.51726   1.27751   1.70305
   3   24199.0    413.2   0.327697792   4.45813   0.56707   1.79221   0.96153
   4   24645.5    405.8   0.759076203  10.13964   0.13493   2.90716   1.29224
   5   25254.7    396.0   0.031522847   0.41092   0.14519   0.54148   0.31086
   6   25733.2    388.6   0.017346420   0.22192   0.08098  -0.37966  -0.26687
   7   27000.5    370.4   0.096033681   1.17092   0.20417   1.04753   0.17863
   8   27676.3    361.3   0.005402145   0.06426   0.25290   0.00861  -0.01511
   9   27772.0    360.1   0.044148799   0.52334  -0.50136  -0.52135   0.01328
  10   28052.1    356.5   0.130737979   1.53431   0.32480   1.19466   0.04011
  11   29176.9    342.7   0.023193768   0.26170   0.05428  -0.21393   0.46151
  12   29399.7    340.1   0.167454978   1.87512  -0.42476   1.29429   0.13967
  13   29695.4    336.8   0.062143586   0.68894   0.23495   0.75290   0.25861
  14   29933.4    334.1   0.044071651   0.48471  -0.43621   0.53111  -0.11112
  15   30215.6    331.0   0.102215749   1.11368   0.23187   0.89403   0.51053
  16   30448.4    328.4   0.052675212   0.56953  -0.51892  -0.53259  -0.12885
  17   30872.1    323.9   0.056246888   0.59980   0.56359  -0.32857   0.41739
  18   31067.2    321.9   0.000525013   0.00556  -0.00369   0.07269   0.01632
  19   33068.8    302.4   0.236637300   2.35581  -0.40623  -1.47801  -0.07922
  20   33172.5    301.5   0.081343233   0.80727   0.40835  -0.67851   0.42443
  21   34009.5    294.0   0.032030965   0.31006  -0.23293   0.10396  -0.49497
  22   34358.0    291.1   0.057976120   0.55552   0.03274  -0.69006  -0.27976
  23   34399.5    290.7   0.066446839   0.63591   0.39076   0.56452  -0.40564
  24   35351.6    282.9   0.072580708   0.67591   0.04848   0.81698   0.07815
  25   35536.1    281.4   0.004621491   0.04281  -0.01620  -0.18112   0.09873
  26   35900.1    278.6   0.012465002   0.11431   0.20810  -0.06897  -0.25738
  27   36183.4    276.4   0.397735613   3.61876   0.94311  -1.58368   0.47039
  28   36347.3    275.1   0.339992095   3.07944   1.31254  -0.28914   1.12831
  29   36863.2    271.3   0.597943056   5.34001   1.30163   1.90205   0.16728
  30   37029.8    270.1   0.033928422   0.30164  -0.07733  -0.43521   0.32597
  31   37289.3    268.2   0.214586953   1.89450   0.10186   0.16919   1.36217
  32   37554.2    266.3   0.050767969   0.44505  -0.24126  -0.55890   0.27289
  33   38106.2    262.4   0.032190171   0.27810   0.01082  -0.15693   0.50335
  34   38299.4    261.1   0.092107094   0.79173   0.28689   0.75570   0.37195
  35   38348.3    260.8   0.068475741   0.58785   0.14984   0.55637   0.50582
  36   38818.2    257.6   0.047478879   0.40266   0.50870   0.24816   0.28688
  37   39282.7    254.6   0.002517364   0.02110   0.00688  -0.11539  -0.08795
  38   39426.1    253.6   0.001589906   0.01328   0.03969  -0.10734   0.01339
  39   39975.3    250.2   0.001762785   0.01452   0.03840  -0.03404   0.10901

FINAL SINGLE POINT ENERGY     -3770.834885569378

DIPOLE MOMENT
-------------
                                X             Y             Z
Electronic contribution:     -2.13641     -10.09326      -7.24944
Nuclear contribution   :      0.64099       9.29314       8.79057
                        -----------------------------------------
Total Dipole Moment    :     -1.49542      -0.80011       1.54113
                        -----------------------------------------
Magnitude (a.u.)       :      2.29162
Magnitude (Debye)      :      5.82484

Rotational constants in cm-1:     0.003631     0.000155     0.000151
Rotational constants in MHz :   108.856154     4.654578     4.526478

                             ****ORCA TERMINATED NORMALLY****
TOTAL RUN TIME: 0 days 0 hours 9 minutes 4 seconds 27 msec
