                         Program Version 4.2.0 -  RELEASE  -
|  1> # ORCA input file
|  2> # SCF done       -184.184508314535          0.000640109046
|  3> ! CAM-B3LYP def2-SVP def2/J RIJCOSX Grid4 TightSCF
|  4> %maxcore 5000
|  5> %tddft
|  6>     Mode sTDDFT
|  7>     Ethresh 5.0
|  8>     maxcore 5000
|  9> end
| 10>
| 11> %pal
| 12>   nprocs 6
| 13>   end
| 14> * xyz 0 1
| 15>    C        9.37562        -0.96868        -1.00327
| 16>    C       10.61001        -1.20153        -1.60400
| 17>    C       11.54031        -0.05398        -1.83163
| 18>    C       10.98210        -2.49852        -1.99281
| 19>    C       12.30780        -2.74430        -2.63754
| 20>    C       10.10921        -3.55861        -1.77240
| 21>    C        8.88924        -3.31915        -1.17283
| 22>    C        8.50637        -2.02393        -0.78338
| 23>    C        7.17763        -2.08123        -0.18288
| 24>    C        6.46399        -1.00214         0.26709
| 25>    C        6.93295         0.32852         0.22039
| 26>    N        7.25165         1.43129         0.21281
| 27>    C        5.16925        -1.03995         0.82659
| 28>    N        4.11836        -0.98241         1.28661
| 29>    C        6.76676        -3.47688        -0.17568
| 30>    C        7.82442        -4.26918        -0.82991
| 31>    O        7.82178        -5.46877        -1.04400
| 32>    C        5.62108        -3.97199         0.38022
| 33>    C        5.15206        -5.29844         0.46932
| 34>    S        5.90979        -6.73041        -0.17309
| 35>    C        4.64952        -7.74181         0.46132
| 36>    C        3.68319        -6.98152         1.13896
| 37>    C        3.97068        -5.61934         1.13177
| 38>    C        2.53585        -7.52537         1.74722
| 39>    N        1.58738        -7.93419         2.24387
| 40>    C        4.65018        -9.14649         0.31313
| 41>    C        5.58446        -9.80810        -0.42504
| 42>    C        5.62201       -11.21408        -0.54740
| 43>    N        6.52424       -11.89105        -1.33745
| 44>    C        7.48598       -11.30502        -2.23906
| 45>    C        6.82537       -10.78747        -3.51453
| 46>    C        6.36349       -13.28713        -1.24801
| 47>    O        7.04747       -14.08731        -1.85086
| 48>    C        5.27345       -13.45278        -0.31213
| 49>    C        4.83651       -12.17401         0.09431
| 50>    C        3.76737       -12.36404         1.04787
| 51>    O        3.09373       -11.57764         1.68074
| 52>    N        3.62429       -13.76468         1.15054
| 53>    C        2.61039       -14.30796         2.02191
| 54>    C        1.33620       -14.66712         1.26050
| 55>    C        4.51604       -14.42774         0.33854
| 56>    C        4.73290       -15.81263         0.13578
| 57>    C        4.03872       -16.88131         0.60490
| 58>    C        4.37274       -18.22887         0.30766
| 59>    S        3.32181       -19.50236         0.86963
| 60>    C        4.31718       -20.72555         0.15193
| 61>    C        5.41950       -20.14142        -0.48406
| 62>    C        5.44494       -18.74513        -0.39644
| 63>    C        6.40052       -20.90418        -1.14295
| 64>    N        7.20271       -21.52951        -1.67230
| 65>    C        3.99725       -22.10056         0.18712
| 66>    C        2.87137       -22.60005         0.76052
| 67>    C        2.52779       -23.96983         0.72010
| 68>    C        1.33094       -24.52335         1.05813
| 69>    C        1.23172       -25.99041         1.31091
| 70>    O        2.05476       -26.82789         1.02068
| 71>    C       -0.04290       -26.16815         2.02719
| 72>    C       -0.71982       -24.93684         2.09984
| 73>    C       -1.93391       -24.86561         2.76059
| 74>    C       -2.47761       -26.01232         3.33245
| 75>    C       -1.80488       -27.24162         3.24183
| 76>    C       -0.57902       -27.30975         2.58763
| 77>    C       -2.39819       -28.47398         3.84477
| 78>    C       -3.79008       -25.92459         4.04282
| 79>    C        0.04865       -23.92933         1.37471
| 80>    C       -0.44996       -22.74246         0.90368
| 81>    C        0.19533       -21.90924        -0.03432
| 82>    N        0.63809       -21.20889        -0.82912
| 83>    C       -1.73377       -22.25198         1.22259
| 84>    N       -2.75624       -21.79052         1.46638
| 85>    H        9.11623         0.03670        -0.71363
| 86>    H       11.10450         0.87390        -1.47215
| 87>    H       11.76210         0.05359        -2.89285
| 88>    H       12.48474        -0.21906        -1.31419
| 89>    H       13.11762        -2.43616        -1.97700
| 90>    H       12.39869        -2.16856        -3.55798
| 91>    H       12.43289        -3.79764        -2.87252
| 92>    H       10.37459        -4.56465        -2.06125
| 93>    H        4.95480        -3.26047         0.85306
| 94>    H        3.34627        -4.87610         1.59701
| 95>    H        3.86769        -9.69748         0.82113
| 96>    H        6.34364        -9.23405        -0.93943
| 97>    H        8.18991       -12.10428        -2.48758
| 98>    H        8.02767       -10.50306        -1.72976
| 99>    H        6.32421       -11.60288        -4.03039
|100>    H        7.57917       -10.36916        -4.17551
|101>    H        6.09167       -10.01693        -3.28843
|102>    H        2.38294       -13.51706         2.74352
|103>    H        3.01613       -15.16616         2.56286
|104>    H        0.90142       -13.76761         0.83235
|105>    H        0.61347       -15.11121         1.93944
|106>    H        1.53912       -15.36768         0.45340
|107>    H        5.57800       -15.99424        -0.51560
|108>    H        3.16196       -16.75739         1.22043
|109>    H        6.22075       -18.14354        -0.83429
|110>    H        4.68070       -22.76336        -0.32926
|111>    H        2.20518       -21.91693         1.27056
|112>    H        3.30607       -24.67194         0.43991
|113>    H       -2.46458       -23.93069         2.84806
|114>    H       -0.04419       -28.24450         2.50988
|115>    H       -3.37227       -28.68460         3.40448
|116>    H       -2.54379       -28.34416         4.91674
|117>    H       -1.75120       -29.33168         3.68324
|118>    H       -4.17573       -24.90926         4.01730
|119>    H       -3.68418       -26.23226         5.08266
|120>    H       -4.52066       -26.58538         3.57766
|121> *
|122>
|123>                          ****END OF INPUT****

CARTESIAN COORDINATES (ANGSTROEM)
---------------------------------
  C      9.375620   -0.968680   -1.003270
  C     10.610010   -1.201530   -1.604000
  C     11.540310   -0.053980   -1.831630
  C     10.982100   -2.498520   -1.992810
  C     12.307800   -2.744300   -2.637540
  C     10.109210   -3.558610   -1.772400
  C      8.889240   -3.319150   -1.172830
  C      8.506370   -2.023930   -0.783380
  C      7.177630   -2.081230   -0.182880
  C      6.463990   -1.002140    0.267090
  C      6.932950    0.328520    0.220390
  N      7.251650    1.431290    0.212810
  C      5.169250   -1.039950    0.826590
  N      4.118360   -0.982410    1.286610
  C      6.766760   -3.476880   -0.175680
  C      7.824420   -4.269180   -0.829910
  O      7.821780   -5.468770   -1.044000
  C      5.621080   -3.971990    0.380220
  C      5.152060   -5.298440    0.469320
  S      5.909790   -6.730410   -0.173090
  C      4.649520   -7.741810    0.461320
  C      3.683190   -6.981520    1.138960
  C      3.970680   -5.619340    1.131770
  C      2.535850   -7.525370    1.747220
  N      1.587380   -7.934190    2.243870
  C      4.650180   -9.146490    0.313130
  C      5.584460   -9.808100   -0.425040
  C      5.622010  -11.214080   -0.547400
  N      6.524240  -11.891050   -1.337450
  C      7.485980  -11.305020   -2.239060
  C      6.825370  -10.787470   -3.514530
  C      6.363490  -13.287130   -1.248010
  O      7.047470  -14.087310   -1.850860
  C      5.273450  -13.452780   -0.312130
  C      4.836510  -12.174010    0.094310
  C      3.767370  -12.364040    1.047870
  O      3.093730  -11.577640    1.680740
  N      3.624290  -13.764680    1.150540
  C      2.610390  -14.307960    2.021910
  C      1.336200  -14.667120    1.260500
  C      4.516040  -14.427740    0.338540
  C      4.732900  -15.812630    0.135780
  C      4.038720  -16.881310    0.604900
  C      4.372740  -18.228870    0.307660
  S      3.321810  -19.502360    0.869630
  C      4.317180  -20.725550    0.151930
  C      5.419500  -20.141420   -0.484060
  C      5.444940  -18.745130   -0.396440
  C      6.400520  -20.904180   -1.142950
  N      7.202710  -21.529510   -1.672300
  C      3.997250  -22.100560    0.187120
  C      2.871370  -22.600050    0.760520
  C      2.527790  -23.969830    0.720100
  C      1.330940  -24.523350    1.058130
  C      1.231720  -25.990410    1.310910
  O      2.054760  -26.827890    1.020680
  C     -0.042900  -26.168150    2.027190
  C     -0.719820  -24.936840    2.099840
  C     -1.933910  -24.865610    2.760590
  C     -2.477610  -26.012320    3.332450
  C     -1.804880  -27.241620    3.241830
  C     -0.579020  -27.309750    2.587630
  C     -2.398190  -28.473980    3.844770
  C     -3.790080  -25.924590    4.042820
  C      0.048650  -23.929330    1.374710
  C     -0.449960  -22.742460    0.903680
  C      0.195330  -21.909240   -0.034320
  N      0.638090  -21.208890   -0.829120
  C     -1.733770  -22.251980    1.222590
  N     -2.756240  -21.790520    1.466380
  H      9.116230    0.036700   -0.713630
  H     11.104500    0.873900   -1.472150
  H     11.762100    0.053590   -2.892850
  H     12.484740   -0.219060   -1.314190
  H     13.117620   -2.436160   -1.977000
  H     12.398690   -2.168560   -3.557980
  H     12.432890   -3.797640   -2.872520
  H     10.374590   -4.564650   -2.061250
  H      4.954800   -3.260470    0.853060
  H      3.346270   -4.876100    1.597010
  H      3.867690   -9.697480    0.821130
  H      6.343640   -9.234050   -0.939430
  H      8.189910  -12.104280   -2.487580
  H      8.027670  -10.503060   -1.729760
  H      6.324210  -11.602880   -4.030390
  H      7.579170  -10.369160   -4.175510
  H      6.091670  -10.016930   -3.288430
  H      2.382940  -13.517060    2.743520
  H      3.016130  -15.166160    2.562860
  H      0.901420  -13.767610    0.832350
  H      0.613470  -15.111210    1.939440
  H      1.539120  -15.367680    0.453400
  H      5.578000  -15.994240   -0.515600
  H      3.161960  -16.757390    1.220430
  H      6.220750  -18.143540   -0.834290
  H      4.680700  -22.763360   -0.329260
  H      2.205180  -21.916930    1.270560
  H      3.306070  -24.671940    0.439910
  H     -2.464580  -23.930690    2.848060
  H     -0.044190  -28.244500    2.509880
  H     -3.372270  -28.684600    3.404480
  H     -2.543790  -28.344160    4.916740
  H     -1.751200  -29.331680    3.683240
  H     -4.175730  -24.909260    4.017300
  H     -3.684180  -26.232260    5.082660
  H     -4.520660  -26.585380    3.577660

 Total Charge           Charge          ....    0
 Multiplicity           Mult            ....    1
 Number of Electrons    NEL             ....  492
 Basis Dimension        Dim             .... 1168

ORBITAL ENERGIES
----------------

  NO   OCC          E(Eh)            E(eV)
   0   2.0000     -88.983535     -2421.3651
   1   2.0000     -88.980386     -2421.2794
   2   2.0000     -19.231179      -523.3070
   3   2.0000     -19.214871      -522.8632
   4   2.0000     -19.197639      -522.3943
   5   2.0000     -19.195261      -522.3296
   6   2.0000     -14.459576      -393.4651
   7   2.0000     -14.458701      -393.4413
   8   2.0000     -14.424034      -392.4979
   9   2.0000     -14.419972      -392.3874
  10   2.0000     -14.417410      -392.3177
  11   2.0000     -14.416716      -392.2988
  12   2.0000     -14.414078      -392.2270
  13   2.0000     -14.406196      -392.0125
  14   2.0000     -10.379604      -282.4434
  15   2.0000     -10.379280      -282.4346
  16   2.0000     -10.378916      -282.4247
  17   2.0000     -10.365304      -282.0543
  18   2.0000     -10.349851      -281.6338
  19   2.0000     -10.348191      -281.5886
  20   2.0000     -10.347763      -281.5769
  21   2.0000     -10.346351      -281.5385
  22   2.0000     -10.345660      -281.5197
  23   2.0000     -10.343606      -281.4638
  24   2.0000     -10.335698      -281.2486
  25   2.0000     -10.332057      -281.1496
  26   2.0000     -10.331277      -281.1283
  27   2.0000     -10.331221      -281.1268
  28   2.0000     -10.331085      -281.1231
  29   2.0000     -10.328758      -281.0598
  30   2.0000     -10.326421      -280.9962
  31   2.0000     -10.323326      -280.9120
  32   2.0000     -10.322810      -280.8979
  33   2.0000     -10.320046      -280.8227
  34   2.0000     -10.319489      -280.8076
  35   2.0000     -10.315771      -280.7064
  36   2.0000     -10.315161      -280.6898
  37   2.0000     -10.313621      -280.6479
  38   2.0000     -10.313113      -280.6341
  39   2.0000     -10.312625      -280.6208
  40   2.0000     -10.311786      -280.5979
  41   2.0000     -10.311270      -280.5839
  42   2.0000     -10.308625      -280.5120
  43   2.0000     -10.308469      -280.5077
  44   2.0000     -10.306252      -280.4474
  45   2.0000     -10.305578      -280.4290
  46   2.0000     -10.305517      -280.4274
  47   2.0000     -10.304880      -280.4101
  48   2.0000     -10.304024      -280.3867
  49   2.0000     -10.303957      -280.3849
  50   2.0000     -10.303549      -280.3738
  51   2.0000     -10.303386      -280.3694
  52   2.0000     -10.301536      -280.3191
  53   2.0000     -10.298612      -280.2395
  54   2.0000     -10.298580      -280.2386
  55   2.0000     -10.298227      -280.2290
  56   2.0000     -10.297071      -280.1976
  57   2.0000     -10.295410      -280.1523
  58   2.0000     -10.294793      -280.1356
  59   2.0000     -10.290558      -280.0203
  60   2.0000     -10.290441      -280.0171
  61   2.0000     -10.288836      -279.9735
  62   2.0000     -10.283243      -279.8213
  63   2.0000     -10.280576      -279.7487
  64   2.0000     -10.278313      -279.6871
  65   2.0000     -10.276749      -279.6446
  66   2.0000     -10.269428      -279.4453
  67   2.0000     -10.269037      -279.4347
  68   2.0000     -10.268031      -279.4073
  69   2.0000     -10.265298      -279.3330
  70   2.0000      -8.079017      -219.8412
  71   2.0000      -8.073688      -219.6962
  72   2.0000      -6.048090      -164.5769
  73   2.0000      -6.044110      -164.4686
  74   2.0000      -6.043002      -164.4385
  75   2.0000      -6.041340      -164.3932
  76   2.0000      -6.038530      -164.3168
  77   2.0000      -6.036046      -164.2492
  78   2.0000      -1.145950       -31.1829
  79   2.0000      -1.139273       -31.0012
  80   2.0000      -1.132300       -30.8114
  81   2.0000      -1.129484       -30.7348
  82   2.0000      -1.069237       -29.0954
  83   2.0000      -1.060440       -28.8560
  84   2.0000      -1.025428       -27.9033
  85   2.0000      -1.021573       -27.7984
  86   2.0000      -1.019473       -27.7413
  87   2.0000      -1.017500       -27.6876
  88   2.0000      -1.004266       -27.3275
  89   2.0000      -0.999652       -27.2019
  90   2.0000      -0.997448       -27.1419
  91   2.0000      -0.995655       -27.0931
  92   2.0000      -0.992688       -27.0124
  93   2.0000      -0.985580       -26.8190
  94   2.0000      -0.963319       -26.2133
  95   2.0000      -0.958712       -26.0879
  96   2.0000      -0.938267       -25.5316
  97   2.0000      -0.936188       -25.4750
  98   2.0000      -0.929422       -25.2908
  99   2.0000      -0.917477       -24.9658
 100   2.0000      -0.912477       -24.8298
 101   2.0000      -0.906196       -24.6589
 102   2.0000      -0.904938       -24.6246
 103   2.0000      -0.884396       -24.0656
 104   2.0000      -0.879520       -23.9329
 105   2.0000      -0.879029       -23.9196
 106   2.0000      -0.873470       -23.7683
 107   2.0000      -0.872879       -23.7522
 108   2.0000      -0.869361       -23.6565
 109   2.0000      -0.859008       -23.3748
 110   2.0000      -0.845777       -23.0147
 111   2.0000      -0.827527       -22.5182
 112   2.0000      -0.825173       -22.4541
 113   2.0000      -0.817822       -22.2541
 114   2.0000      -0.815413       -22.1885
 115   2.0000      -0.810057       -22.0428
 116   2.0000      -0.795507       -21.6469
 117   2.0000      -0.786048       -21.3894
 118   2.0000      -0.765171       -20.8214
 119   2.0000      -0.763429       -20.7740
 120   2.0000      -0.757883       -20.6231
 121   2.0000      -0.751259       -20.4428
 122   2.0000      -0.749447       -20.3935
 123   2.0000      -0.733251       -19.9528
 124   2.0000      -0.722433       -19.6584
 125   2.0000      -0.719261       -19.5721
 126   2.0000      -0.712172       -19.3792
 127   2.0000      -0.711284       -19.3550
 128   2.0000      -0.697925       -18.9915
 129   2.0000      -0.696455       -18.9515
 130   2.0000      -0.692651       -18.8480
 131   2.0000      -0.685621       -18.6567
 132   2.0000      -0.680552       -18.5188
 133   2.0000      -0.670870       -18.2553
 134   2.0000      -0.667379       -18.1603
 135   2.0000      -0.662578       -18.0297
 136   2.0000      -0.662234       -18.0203
 137   2.0000      -0.654054       -17.7977
 138   2.0000      -0.649213       -17.6660
 139   2.0000      -0.641684       -17.4611
 140   2.0000      -0.634379       -17.2623
 141   2.0000      -0.619781       -16.8651
 142   2.0000      -0.615224       -16.7411
 143   2.0000      -0.610466       -16.6116
 144   2.0000      -0.607174       -16.5221
 145   2.0000      -0.597400       -16.2561
 146   2.0000      -0.592352       -16.1187
 147   2.0000      -0.589208       -16.0332
 148   2.0000      -0.584015       -15.8919
 149   2.0000      -0.579483       -15.7685
 150   2.0000      -0.576820       -15.6961
 151   2.0000      -0.571195       -15.5430
 152   2.0000      -0.569995       -15.5104
 153   2.0000      -0.558130       -15.1875
 154   2.0000      -0.557225       -15.1629
 155   2.0000      -0.552889       -15.0449
 156   2.0000      -0.550842       -14.9892
 157   2.0000      -0.549643       -14.9565
 158   2.0000      -0.543369       -14.7858
 159   2.0000      -0.543249       -14.7825
 160   2.0000      -0.542618       -14.7654
 161   2.0000      -0.540209       -14.6998
 162   2.0000      -0.536832       -14.6079
 163   2.0000      -0.535797       -14.5798
 164   2.0000      -0.534346       -14.5403
 165   2.0000      -0.532014       -14.4768
 166   2.0000      -0.529641       -14.4123
 167   2.0000      -0.525634       -14.3032
 168   2.0000      -0.525045       -14.2872
 169   2.0000      -0.521797       -14.1988
 170   2.0000      -0.520694       -14.1688
 171   2.0000      -0.520084       -14.1522
 172   2.0000      -0.516608       -14.0576
 173   2.0000      -0.513263       -13.9666
 174   2.0000      -0.513125       -13.9628
 175   2.0000      -0.507544       -13.8110
 176   2.0000      -0.507191       -13.8014
 177   2.0000      -0.502980       -13.6868
 178   2.0000      -0.497424       -13.5356
 179   2.0000      -0.497193       -13.5293
 180   2.0000      -0.496907       -13.5215
 181   2.0000      -0.495421       -13.4811
 182   2.0000      -0.494860       -13.4658
 183   2.0000      -0.490543       -13.3483
 184   2.0000      -0.483993       -13.1701
 185   2.0000      -0.482572       -13.1315
 186   2.0000      -0.481269       -13.0960
 187   2.0000      -0.480732       -13.0814
 188   2.0000      -0.478093       -13.0096
 189   2.0000      -0.475300       -12.9336
 190   2.0000      -0.474753       -12.9187
 191   2.0000      -0.472417       -12.8551
 192   2.0000      -0.471425       -12.8281
 193   2.0000      -0.468552       -12.7499
 194   2.0000      -0.459804       -12.5119
 195   2.0000      -0.458577       -12.4785
 196   2.0000      -0.456826       -12.4309
 197   2.0000      -0.456017       -12.4088
 198   2.0000      -0.455528       -12.3956
 199   2.0000      -0.454772       -12.3750
 200   2.0000      -0.453046       -12.3280
 201   2.0000      -0.451450       -12.2846
 202   2.0000      -0.451139       -12.2761
 203   2.0000      -0.448817       -12.2129
 204   2.0000      -0.447563       -12.1788
 205   2.0000      -0.446716       -12.1558
 206   2.0000      -0.445616       -12.1258
 207   2.0000      -0.445092       -12.1116
 208   2.0000      -0.444269       -12.0892
 209   2.0000      -0.442673       -12.0457
 210   2.0000      -0.440677       -11.9914
 211   2.0000      -0.439744       -11.9660
 212   2.0000      -0.437002       -11.8914
 213   2.0000      -0.436342       -11.8735
 214   2.0000      -0.433273       -11.7900
 215   2.0000      -0.432952       -11.7812
 216   2.0000      -0.432237       -11.7618
 217   2.0000      -0.431492       -11.7415
 218   2.0000      -0.427612       -11.6359
 219   2.0000      -0.424799       -11.5594
 220   2.0000      -0.421219       -11.4620
 221   2.0000      -0.419816       -11.4238
 222   2.0000      -0.418076       -11.3764
 223   2.0000      -0.416746       -11.3402
 224   2.0000      -0.412391       -11.2217
 225   2.0000      -0.408486       -11.1155
 226   2.0000      -0.407068       -11.0769
 227   2.0000      -0.402328       -10.9479
 228   2.0000      -0.394322       -10.7300
 229   2.0000      -0.375328       -10.2132
 230   2.0000      -0.355513        -9.6740
 231   2.0000      -0.353922        -9.6307
 232   2.0000      -0.344470        -9.3735
 233   2.0000      -0.344329        -9.3697
 234   2.0000      -0.342594        -9.3225
 235   2.0000      -0.339953        -9.2506
 236   2.0000      -0.337518        -9.1843
 237   2.0000      -0.337421        -9.1817
 238   2.0000      -0.336589        -9.1591
 239   2.0000      -0.330335        -8.9889
 240   2.0000      -0.322269        -8.7694
 241   2.0000      -0.315695        -8.5905
 242   2.0000      -0.308979        -8.4078
 243   2.0000      -0.295627        -8.0444
 244   2.0000      -0.282140        -7.6774
 245   2.0000      -0.238806        -6.4983
 246   0.0000      -0.117626        -3.2008
 247   0.0000      -0.098975        -2.6932
 248   0.0000      -0.078440        -2.1344
 249   0.0000      -0.066821        -1.8183
 250   0.0000      -0.060236        -1.6391

MULLIKEN ATOMIC CHARGES
-----------------------
   0 C :   -0.081641
   1 C :   -0.078292
   2 C :    0.116209
   3 C :   -0.075359
   4 C :    0.119128
   5 C :   -0.079782
   6 C :   -0.007144
   7 C :    0.039455
   8 C :    0.329541
   9 C :   -0.351654
  10 C :   -0.180469
  11 N :    0.149616
  12 C :   -0.189034
  13 N :    0.155074
  14 C :   -0.091039
  15 C :    0.170151
  16 O :   -0.180160
  17 C :   -0.013940
  18 C :   -0.044559
  19 S :    0.180619
  20 C :   -0.026206
  21 C :   -0.038443
  22 C :    0.011515
  23 C :   -0.180419
  24 N :    0.154853
  25 C :   -0.008153
  26 C :   -0.029182
  27 C :    0.144466
  28 N :   -0.263780
  29 C :    0.095356
  30 C :    0.002201
  31 C :    0.148546
  32 O :   -0.191377
  33 C :   -0.047929
  34 C :   -0.049133
  35 C :    0.155070
  36 O :   -0.192395
  37 N :   -0.266554
  38 C :    0.098719
  39 C :   -0.001326
  40 C :    0.121501
  41 C :   -0.036906
  42 C :    0.075472
  43 C :   -0.074760
  44 S :    0.166202
  45 C :   -0.041294
  46 C :   -0.044020
  47 C :    0.019093
  48 C :   -0.190577
  49 N :    0.141012
  50 C :    0.013428
  51 C :    0.002048
  52 C :    0.023824
  53 C :   -0.107792
  54 C :    0.141218
  55 O :   -0.139458
  56 C :    0.001713
  57 C :    0.030045
  58 C :   -0.079419
  59 C :   -0.079306
  60 C :   -0.078799
  61 C :   -0.079465
  62 C :    0.118350
  63 C :    0.114837
  64 C :    0.281798
  65 C :   -0.335604
  66 C :   -0.220071
  67 N :    0.168918
  68 C :   -0.178517
  69 N :    0.153001
  70 H :   -0.013110
  71 H :    0.027009
  72 H :    0.029379
  73 H :    0.027585
  74 H :    0.029906
  75 H :    0.029486
  76 H :    0.016812
  77 H :   -0.019746
  78 H :    0.011009
  79 H :    0.019140
  80 H :    0.043244
  81 H :   -0.006055
  82 H :    0.045659
  83 H :    0.026245
  84 H :    0.031124
  85 H :    0.025687
  86 H :    0.018014
  87 H :    0.049002
  88 H :    0.022517
  89 H :    0.035140
  90 H :    0.025866
  91 H :    0.023237
  92 H :    0.011060
  93 H :   -0.015636
  94 H :    0.015111
  95 H :    0.027413
  96 H :    0.026233
  97 H :    0.021054
  98 H :   -0.011045
  99 H :   -0.016406
 100 H :    0.028900
 101 H :    0.028618
 102 H :    0.017658
 103 H :    0.024726
 104 H :    0.027355
 105 H :    0.028791
Sum of atomic charges:   -0.0000000

LOEWDIN ATOMIC CHARGES
----------------------
   0 C :   -0.003801
   1 C :   -0.000851
   2 C :   -0.041317
   3 C :   -0.005126
   4 C :   -0.042208
   5 C :    0.008405
   6 C :   -0.049201
   7 C :   -0.016895
   8 C :    0.077652
   9 C :   -0.136173
  10 C :   -0.016985
  11 N :   -0.050048
  12 C :   -0.021904
  13 N :   -0.047387
  14 C :   -0.097024
  15 C :    0.086760
  16 O :   -0.166732
  17 C :    0.053225
  18 C :   -0.178601
  19 S :    0.521175
  20 C :   -0.137954
  21 C :   -0.099452
  22 C :    0.010825
  23 C :   -0.035272
  24 N :   -0.036491
  25 C :    0.007679
  26 C :   -0.031736
  27 C :    0.075550
  28 N :   -0.003504
  29 C :    0.035996
  30 C :   -0.060698
  31 C :    0.078164
  32 O :   -0.195789
  33 C :   -0.108398
  34 C :   -0.116060
  35 C :    0.081932
  36 O :   -0.184379
  37 N :   -0.002179
  38 C :    0.034755
  39 C :   -0.062924
  40 C :    0.069616
  41 C :   -0.016353
  42 C :   -0.028108
  43 C :   -0.152435
  44 S :    0.484775
  45 C :   -0.145682
  46 C :   -0.085360
  47 C :   -0.018772
  48 C :   -0.032320
  49 N :   -0.043638
  50 C :    0.009077
  51 C :   -0.025835
  52 C :    0.061287
  53 C :   -0.084434
  54 C :    0.082532
  55 O :   -0.139786
  56 C :   -0.048898
  57 C :   -0.016270
  58 C :   -0.007646
  59 C :   -0.002438
  60 C :   -0.006128
  61 C :    0.008093
  62 C :   -0.042559
  63 C :   -0.041834
  64 C :    0.072287
  65 C :   -0.139919
  66 C :   -0.025842
  67 N :   -0.051286
  68 C :   -0.018869
  69 N :   -0.051696
  70 H :    0.036788
  71 H :    0.036703
  72 H :    0.039210
  73 H :    0.038692
  74 H :    0.039527
  75 H :    0.039400
  76 H :    0.033175
  77 H :    0.035530
  78 H :    0.052158
  79 H :    0.047587
  80 H :    0.047575
  81 H :    0.026312
  82 H :    0.038697
  83 H :    0.023752
  84 H :    0.032822
  85 H :    0.031760
  86 H :    0.022720
  87 H :    0.040005
  88 H :    0.021043
  89 H :    0.035655
  90 H :    0.032277
  91 H :    0.021998
  92 H :    0.047186
  93 H :    0.030064
  94 H :    0.044924
  95 H :    0.048589
  96 H :    0.026837
  97 H :    0.047929
  98 H :    0.035821
  99 H :    0.036660
 100 H :    0.038973
 101 H :    0.038620
 102 H :    0.033453
 103 H :    0.035881
 104 H :    0.038044
 105 H :    0.039047

  Mayer bond orders larger than 0.100000
B(  0-C ,  1-C ) :   1.3754 B(  0-C ,  7-C ) :   1.3477 B(  0-C , 70-H ) :   0.9845
B(  1-C ,  2-C ) :   1.0946 B(  1-C ,  3-C ) :   1.3728 B(  2-C , 71-H ) :   0.9508
B(  2-C , 72-H ) :   0.9393 B(  2-C , 73-H ) :   0.9394 B(  3-C ,  4-C ) :   1.0937
B(  3-C ,  5-C ) :   1.3492 B(  4-C , 74-H ) :   0.9396 B(  4-C , 75-H ) :   0.9398
B(  4-C , 76-H ) :   0.9515 B(  5-C ,  6-C ) :   1.3537 B(  5-C , 77-H ) :   1.0114
B(  6-C ,  7-C ) :   1.3329 B(  6-C , 15-C ) :   0.9656 B(  7-C ,  8-C ) :   0.9859
B(  8-C ,  9-C ) :   1.6336 B(  8-C , 14-C ) :   1.0629 B(  9-C , 10-C ) :   1.1470
B(  9-C , 12-C ) :   1.1409 B( 10-C , 11-N ) :   2.9643 B( 12-C , 13-N ) :   2.9611
B( 14-C , 15-C ) :   0.9592 B( 14-C , 17-C ) :   1.5487 B( 15-C , 16-O ) :   2.1336
B( 17-C , 18-C ) :   1.2220 B( 17-C , 78-H ) :   0.9377 B( 18-C , 19-S ) :   1.1026
B( 18-C , 22-C ) :   1.3751 B( 19-S , 20-C ) :   1.1101 B( 20-C , 21-C ) :   1.3812
B( 20-C , 25-C ) :   1.2002 B( 21-C , 22-C ) :   1.3269 B( 21-C , 23-C ) :   1.0911
B( 22-C , 79-H ) :   1.0138 B( 23-C , 24-N ) :   3.0308 B( 25-C , 26-C ) :   1.5624
B( 25-C , 80-H ) :   0.9487 B( 26-C , 27-C ) :   1.1700 B( 26-C , 81-H ) :   0.9622
B( 27-C , 28-N ) :   1.1608 B( 27-C , 34-C ) :   1.3301 B( 28-N , 29-C ) :   0.9458
B( 28-N , 31-C ) :   1.0388 B( 29-C , 30-C ) :   1.1185 B( 29-C , 82-H ) :   0.9278
B( 29-C , 83-H ) :   0.9501 B( 30-C , 84-H ) :   0.9643 B( 30-C , 85-H ) :   0.9681
B( 30-C , 86-H ) :   0.9685 B( 31-C , 32-O ) :   2.1285 B( 31-C , 33-C ) :   0.9775
B( 33-C , 34-C ) :   1.2548 B( 33-C , 40-C ) :   1.3318 B( 34-C , 35-C ) :   0.9821
B( 35-C , 36-O ) :   2.0485 B( 35-C , 37-N ) :   1.0544 B( 37-N , 38-C ) :   0.9410
B( 37-N , 40-C ) :   1.1657 B( 38-C , 39-C ) :   1.1149 B( 38-C , 87-H ) :   0.9251
B( 38-C , 88-H ) :   0.9508 B( 39-C , 89-H ) :   0.9609 B( 39-C , 90-H ) :   0.9689
B( 39-C , 91-H ) :   0.9682 B( 40-C , 41-C ) :   1.1977 B( 41-C , 42-C ) :   1.5986
B( 41-C , 92-H ) :   0.9451 B( 42-C , 43-C ) :   1.1201 B( 42-C , 93-H ) :   0.9611
B( 43-C , 44-S ) :   1.1383 B( 43-C , 47-C ) :   1.4603 B( 44-S , 45-C ) :   1.1299
B( 45-C , 46-C ) :   1.4169 B( 45-C , 50-C ) :   1.1799 B( 46-C , 47-C ) :   1.3127
B( 46-C , 48-C ) :   1.1039 B( 47-C , 94-H ) :   0.9973 B( 48-C , 49-N ) :   3.0217
B( 50-C , 51-C ) :   1.6205 B( 50-C , 95-H ) :   0.9730 B( 51-C , 52-C ) :   1.1324
B( 51-C , 96-H ) :   0.9592 B( 52-C , 53-C ) :   1.6296 B( 52-C , 97-H ) :   0.9584
B( 53-C , 54-C ) :   0.9307 B( 53-C , 64-C ) :   1.0318 B( 54-C , 55-O ) :   2.2713
B( 54-C , 56-C ) :   0.9249 B( 56-C , 57-C ) :   1.3328 B( 56-C , 61-C ) :   1.3616
B( 57-C , 58-C ) :   1.3507 B( 57-C , 64-C ) :   1.0031 B( 58-C , 59-C ) :   1.3745
B( 58-C , 98-H ) :   0.9857 B( 59-C , 60-C ) :   1.3748 B( 59-C , 63-C ) :   1.0943
B( 60-C , 61-C ) :   1.3553 B( 60-C , 62-C ) :   1.0946 B( 61-C , 99-H ) :   1.0100
B( 62-C ,100-H ) :   0.9399 B( 62-C ,101-H ) :   0.9396 B( 62-C ,102-H ) :   0.9512
B( 63-C ,103-H ) :   0.9509 B( 63-C ,104-H ) :   0.9406 B( 63-C ,105-H ) :   0.9392
B( 64-C , 65-C ) :   1.6418 B( 65-C , 66-C ) :   1.1544 B( 65-C , 68-C ) :   1.1323
B( 66-C , 67-N ) :   3.0129 B( 68-C , 69-N ) :   2.9854

-----------------------------------------------------------------------------
         ABSORPTION SPECTRUM VIA TRANSITION ELECTRIC DIPOLE MOMENTS
-----------------------------------------------------------------------------
State   Energy  Wavelength   fosc         T2         TX        TY        TZ
        (cm-1)    (nm)                  (au**2)     (au)      (au)      (au)
-----------------------------------------------------------------------------
   0   12388.4    807.2   1.557740342  41.39565  -1.84094  -6.12500   0.70069
   1   18036.0    554.4   0.096068382   1.75354   1.03104   0.75998  -0.33603
   2   22071.9    453.1   0.247860563   3.69694  -1.46866  -1.23890   0.07144
   3   22799.7    438.6   0.006255704   0.09033   0.14551  -0.13197  -0.22746
   4   23744.0    421.2   0.715217685   9.91654   0.62386   3.08477   0.10737
   5   24944.8    400.9   0.017132245   0.22610   0.43102   0.20079  -0.00293
   6   25571.1    391.1   0.003802019   0.04895  -0.12557   0.17828   0.03736
   7   26471.4    377.8   0.028674193   0.35661   0.16323  -0.53923  -0.19798
   8   27179.1    367.9   0.112506262   1.36275  -0.48662   1.06091  -0.02049
   9   27298.4    366.3   0.098133805   1.18347   0.29426  -1.02221   0.22794
  10   28256.6    353.9   0.276337586   3.21956  -1.38599  -0.88786   0.71436
  11   28378.0    352.4   0.000889476   0.01032  -0.02134   0.04072  -0.09058
  12   28694.1    348.5   0.065219720   0.74828   0.79099  -0.07984  -0.34094
  13   29202.0    342.4   0.041788826   0.47111  -0.29097  -0.47037   0.40645
  14   29441.1    339.7   0.039625920   0.44310  -0.01806  -0.66499  -0.02374
  15   30564.3    327.2   0.008635602   0.09302  -0.11608  -0.22113   0.17505
  16   30888.2    323.7   0.000513817   0.00548  -0.06206  -0.04030   0.00075
  17   31918.2    313.3   0.001507527   0.01555   0.03096  -0.12079   0.00102
  18   32415.8    308.5   0.095775413   0.97269   0.10284   0.91833  -0.34465
  19   32619.6    306.6   0.048247933   0.48694  -0.47668  -0.43425   0.26674
  20   32740.7    305.4   0.016227216   0.16317  -0.17300  -0.34216   0.12715
  21   33107.8    302.0   0.020126923   0.20014   0.42728   0.07311  -0.11055
  22   33202.4    301.2   0.007896092   0.07829   0.26796   0.01672  -0.07881
  23   33430.4    299.1   0.117292313   1.15506   0.88533   0.39848  -0.46094
  24   33956.6    294.5   0.069795329   0.67667  -0.41174  -0.64425   0.30346
  25   34185.7    292.5   0.036411642   0.35065   0.30368  -0.50762  -0.02731
  26   34915.1    286.4   0.320804849   3.02485  -1.49262   0.22406   0.86414
  27   35349.5    282.9   0.014890313   0.13867  -0.08298   0.35457  -0.07792
  28   35701.9    280.1   0.474668391   4.37698   1.37036  -1.53579  -0.37477
  29   35721.7    279.9   0.050521500   0.46561   0.27993   0.03487  -0.62132
  30   36240.0    275.9   0.546035552   4.96031  -0.91599   2.02202   0.18087
  31   36405.3    274.7   0.219686342   1.98662  -1.05766  -0.46005   0.81014
  32   36846.1    271.4   0.215579164   1.92616  -0.71994  -0.55400   1.04925
  33   37423.1    267.2   0.095786296   0.84263   0.64789   0.39166  -0.51911
  34   37745.0    264.9   0.021597094   0.18837  -0.21273   0.37569   0.04438
  35   38108.5    262.4   0.000490921   0.00424  -0.03700   0.05210   0.01256
  36   38360.9    260.7   0.075709123   0.64973   0.70751  -0.06634  -0.38047
  37   38931.1    256.9   0.489103326   4.13599   0.95647  -1.65184  -0.70183
  38   39330.4    254.3   0.114351226   0.95717   0.79081  -0.39320  -0.42092
  39   39482.4    253.3   0.037869745   0.31577  -0.48914   0.10783   0.25472
  40   39590.1    252.6   0.026162172   0.21755  -0.38184   0.20187   0.17606
  41   39741.5    251.6   0.043331361   0.35895  -0.53045   0.18980   0.20384
  42   40069.5    249.6   0.004927342   0.04048   0.10040   0.16929   0.04174
  43   40277.1    248.3   0.264529457   2.16218  -0.81136  -1.20500   0.22769

FINAL SINGLE POINT ENERGY     -3686.924842651485

DIPOLE MOMENT
-------------
                                X             Y             Z
Electronic contribution:     -3.38124      15.05164       2.42282
Nuclear contribution   :      5.29699     -15.84404      -1.89525
                        -----------------------------------------
Total Dipole Moment    :      1.91575      -0.79241       0.52757
                        -----------------------------------------
Magnitude (a.u.)       :      2.13924
Magnitude (Debye)      :      5.43751

Rotational constants in cm-1:     0.002804     0.000201     0.000189
Rotational constants in MHz :    84.068101     6.019626     5.667601

                             ****ORCA TERMINATED NORMALLY****
TOTAL RUN TIME: 0 days 0 hours 9 minutes 55 seconds 250 msec
