                         Program Version 4.2.0 -  RELEASE  -
|  1> # ORCA input file
|  2> # SCF done       -203.128375471791          0.000816904019
|  3> ! CAM-B3LYP def2-SVP def2/J RIJCOSX Grid4 TightSCF
|  4> %maxcore 5000
|  5> %tddft
|  6>     Mode sTDDFT
|  7>     Ethresh 5.0
|  8>     maxcore 5000
|  9> end
| 10>
| 11> %pal
| 12>   nprocs 6
| 13>   end
| 14> * xyz 0 1
| 15>    C       12.79763         0.84598         2.32383
| 16>    C       14.11020         1.17667         2.46327
| 17>    S       14.29776         2.85783         2.80384
| 18>    C       12.57450         3.13032         2.75827
| 19>   Cl       11.91040         4.66489         3.01174
| 20>    C       11.91519         1.96378         2.49357
| 21>    C       10.53054         1.54392         2.31370
| 22>    O        9.52437         2.21256         2.39310
| 23>    C       10.61319         0.06795         2.03895
| 24>    C       12.01748        -0.33519         2.02139
| 25>    C       12.52787        -1.56592         1.72435
| 26>    C       13.92053        -1.80360         1.73441
| 27>    N       15.04837        -2.00943         1.75103
| 28>    C       11.77243        -2.69994         1.35708
| 29>    N       11.21775        -3.64855         1.02798
| 30>    C        9.54097        -0.74000         1.92828
| 31>    C        8.16705        -0.27796         1.93978
| 32>    C        7.66021         0.76086         1.14055
| 33>    C        8.44595         1.42765         0.07218
| 34>    O        9.52246         1.12313        -0.34755
| 35>    S        7.48290         2.76911        -0.59938
| 36>    C        6.01107         2.30921         0.32981
| 37>    O        4.94716         2.81121         0.13499
| 38>    C        6.35583         1.21876         1.26610
| 39>    C        5.41478         0.66160         2.16820
| 40>    C        5.90478        -0.43526         2.90071
| 41>    C        7.22868        -0.85792         2.79134
| 42>    C        7.45052        -1.92589         3.79213
| 43>    O        8.44579        -2.52653         4.05404
| 44>    O        6.25804        -2.12118         4.43604
| 45>    C        5.28560        -1.26844         3.96028
| 46>    O        4.17454        -1.28869         4.39286
| 47>    C        4.11703         1.25001         2.33435
| 48>    C        2.97103         0.57022         2.56617
| 49>    C        1.73054         1.23534         2.75600
| 50>    N        0.52246         0.58873         2.84843
| 51>    C        0.30097        -0.83415         2.74979
| 52>    C        0.34223        -1.31655         1.30205
| 53>    C       -0.54345         1.48676         3.01756
| 54>    O       -1.70588         1.14390         3.11163
| 55>    C        0.08791         2.78887         3.05141
| 56>    C        1.48146         2.59921         2.89262
| 57>    C        2.12125         3.89619         2.97368
| 58>    O        3.28463         4.23486         2.92170
| 59>    N        1.05711         4.79459         3.17245
| 60>    C        1.28708         6.21802         3.23078
| 61>    C        0.95952         6.89927         1.90441
| 62>    C       -0.15830         4.15388         3.21306
| 63>    C       -1.39447         4.82020         3.39425
| 64>    C       -2.58386         4.16581         3.32654
| 65>    C       -3.85337         4.78026         3.46738
| 66>    S       -5.28316         3.85282         3.11262
| 67>    C       -6.31505         5.20115         3.45506
| 68>    C       -5.55496         6.31183         3.84705
| 69>    C       -4.17776         6.07205         3.84479
| 70>    C       -6.13169         7.54489         4.20035
| 71>    N       -6.58976         8.55332         4.49687
| 72>    C       -7.71844         5.16595         3.29800
| 73>    C       -8.39650         4.09956         2.79709
| 74>    C       -9.79105         4.11064         2.57821
| 75>    C      -10.51954         3.20648         1.86394
| 76>    C      -12.00520         3.16657         2.03543
| 77>    O      -12.68502         3.99497         2.59144
| 78>    C      -12.40810         1.89222         1.42857
| 79>    C      -13.55348         1.16845         1.28493
| 80>    S      -13.23508        -0.31613         0.41779
| 81>    C      -11.55991         0.06616         0.25040
| 82>    C      -11.26720         1.25888         0.83337
| 83>    C      -10.11108         2.12426         0.98965
| 84>    C       -8.95405         1.99897         0.26468
| 85>    C       -8.73786         0.88677        -0.57675
| 86>    N       -8.53947        -0.02063        -1.25017
| 87>    C       -7.92623         2.95856         0.17542
| 88>    N       -7.07882         3.71729         0.01949
| 89>   Cl      -15.11094         1.55674         1.82553
| 90>    H       14.97960         0.55358         2.39074
| 91>    H        9.66949        -1.81457         1.89917
| 92>    H        4.07516         2.32744         2.23029
| 93>    H        2.96450        -0.50824         2.57980
| 94>    H       -0.69342        -1.01487         3.16729
| 95>    H        1.04162        -1.35828         3.35974
| 96>    H       -0.42979        -0.81795         0.72103
| 97>    H        0.16465        -2.38770         1.26743
| 98>    H        1.30757        -1.10626         0.84676
| 99>    H        2.35048         6.34205         3.45333
|100>    H        0.70466         6.65105         4.04900
|101>    H        1.58034         6.48597         1.11350
|102>    H        1.15694         7.96492         1.97951
|103>    H       -0.08462         6.75352         1.63596
|104>    H       -1.37042         5.88555         3.56960
|105>    H       -2.58774         3.10207         3.12687
|106>    H       -3.45348         6.81771         4.11914
|107>    H       -8.25074         6.07768         3.54070
|108>    H       -7.84267         3.20352         2.55236
|109>    H      -10.36747         4.89048         3.06514
|110>    H      -10.91266        -0.62070        -0.25781
|111> *
|112>
|113>                          ****END OF INPUT****

CARTESIAN COORDINATES (ANGSTROEM)
---------------------------------
  C     12.797630    0.845980    2.323830
  C     14.110200    1.176670    2.463270
  S     14.297760    2.857830    2.803840
  C     12.574500    3.130320    2.758270
  Cl    11.910400    4.664890    3.011740
  C     11.915190    1.963780    2.493570
  C     10.530540    1.543920    2.313700
  O      9.524370    2.212560    2.393100
  C     10.613190    0.067950    2.038950
  C     12.017480   -0.335190    2.021390
  C     12.527870   -1.565920    1.724350
  C     13.920530   -1.803600    1.734410
  N     15.048370   -2.009430    1.751030
  C     11.772430   -2.699940    1.357080
  N     11.217750   -3.648550    1.027980
  C      9.540970   -0.740000    1.928280
  C      8.167050   -0.277960    1.939780
  C      7.660210    0.760860    1.140550
  C      8.445950    1.427650    0.072180
  O      9.522460    1.123130   -0.347550
  S      7.482900    2.769110   -0.599380
  C      6.011070    2.309210    0.329810
  O      4.947160    2.811210    0.134990
  C      6.355830    1.218760    1.266100
  C      5.414780    0.661600    2.168200
  C      5.904780   -0.435260    2.900710
  C      7.228680   -0.857920    2.791340
  C      7.450520   -1.925890    3.792130
  O      8.445790   -2.526530    4.054040
  O      6.258040   -2.121180    4.436040
  C      5.285600   -1.268440    3.960280
  O      4.174540   -1.288690    4.392860
  C      4.117030    1.250010    2.334350
  C      2.971030    0.570220    2.566170
  C      1.730540    1.235340    2.756000
  N      0.522460    0.588730    2.848430
  C      0.300970   -0.834150    2.749790
  C      0.342230   -1.316550    1.302050
  C     -0.543450    1.486760    3.017560
  O     -1.705880    1.143900    3.111630
  C      0.087910    2.788870    3.051410
  C      1.481460    2.599210    2.892620
  C      2.121250    3.896190    2.973680
  O      3.284630    4.234860    2.921700
  N      1.057110    4.794590    3.172450
  C      1.287080    6.218020    3.230780
  C      0.959520    6.899270    1.904410
  C     -0.158300    4.153880    3.213060
  C     -1.394470    4.820200    3.394250
  C     -2.583860    4.165810    3.326540
  C     -3.853370    4.780260    3.467380
  S     -5.283160    3.852820    3.112620
  C     -6.315050    5.201150    3.455060
  C     -5.554960    6.311830    3.847050
  C     -4.177760    6.072050    3.844790
  C     -6.131690    7.544890    4.200350
  N     -6.589760    8.553320    4.496870
  C     -7.718440    5.165950    3.298000
  C     -8.396500    4.099560    2.797090
  C     -9.791050    4.110640    2.578210
  C    -10.519540    3.206480    1.863940
  C    -12.005200    3.166570    2.035430
  O    -12.685020    3.994970    2.591440
  C    -12.408100    1.892220    1.428570
  C    -13.553480    1.168450    1.284930
  S    -13.235080   -0.316130    0.417790
  C    -11.559910    0.066160    0.250400
  C    -11.267200    1.258880    0.833370
  C    -10.111080    2.124260    0.989650
  C     -8.954050    1.998970    0.264680
  C     -8.737860    0.886770   -0.576750
  N     -8.539470   -0.020630   -1.250170
  C     -7.926230    2.958560    0.175420
  N     -7.078820    3.717290    0.019490
  Cl   -15.110940    1.556740    1.825530
  H     14.979600    0.553580    2.390740
  H      9.669490   -1.814570    1.899170
  H      4.075160    2.327440    2.230290
  H      2.964500   -0.508240    2.579800
  H     -0.693420   -1.014870    3.167290
  H      1.041620   -1.358280    3.359740
  H     -0.429790   -0.817950    0.721030
  H      0.164650   -2.387700    1.267430
  H      1.307570   -1.106260    0.846760
  H      2.350480    6.342050    3.453330
  H      0.704660    6.651050    4.049000
  H      1.580340    6.485970    1.113500
  H      1.156940    7.964920    1.979510
  H     -0.084620    6.753520    1.635960
  H     -1.370420    5.885550    3.569600
  H     -2.587740    3.102070    3.126870
  H     -3.453480    6.817710    4.119140
  H     -8.250740    6.077680    3.540700
  H     -7.842670    3.203520    2.552360
  H    -10.367470    4.890480    3.065140
  H    -10.912660   -0.620700   -0.257810

 Total Charge           Charge          ....    0
 Multiplicity           Mult            ....    1
 Number of Electrons    NEL             ....  558
 Basis Dimension        Dim             .... 1179

ORBITAL ENERGIES
----------------

  NO   OCC          E(Eh)            E(eV)
   0   2.0000    -101.627679     -2765.4297
   1   2.0000    -101.617772     -2765.1602
   2   2.0000     -89.004823     -2421.9444
   3   2.0000     -88.993877     -2421.6465
   4   2.0000     -88.988041     -2421.4877
   5   2.0000     -88.958626     -2420.6873
   6   2.0000     -19.304886      -525.3126
   7   2.0000     -19.253236      -523.9072
   8   2.0000     -19.252002      -523.8736
   9   2.0000     -19.251606      -523.8628
  10   2.0000     -19.249833      -523.8146
  11   2.0000     -19.238388      -523.5032
  12   2.0000     -19.219890      -522.9998
  13   2.0000     -19.201729      -522.5056
  14   2.0000     -19.198460      -522.4166
  15   2.0000     -14.462929      -393.5563
  16   2.0000     -14.460606      -393.4931
  17   2.0000     -14.429760      -392.6537
  18   2.0000     -14.429209      -392.6387
  19   2.0000     -14.422880      -392.4665
  20   2.0000     -14.422207      -392.4482
  21   2.0000     -14.420266      -392.3954
  22   2.0000     -10.447468      -284.2900
  23   2.0000     -10.445375      -284.2331
  24   2.0000     -10.415265      -283.4138
  25   2.0000     -10.413378      -283.3624
  26   2.0000     -10.394078      -282.8372
  27   2.0000     -10.388103      -282.6747
  28   2.0000     -10.383884      -282.5598
  29   2.0000     -10.381235      -282.4878
  30   2.0000     -10.376799      -282.3670
  31   2.0000     -10.376212      -282.3511
  32   2.0000     -10.360929      -281.9352
  33   2.0000     -10.358508      -281.8693
  34   2.0000     -10.352635      -281.7095
  35   2.0000     -10.352031      -281.6931
  36   2.0000     -10.351012      -281.6654
  37   2.0000     -10.349630      -281.6278
  38   2.0000     -10.347375      -281.5664
  39   2.0000     -10.344839      -281.4974
  40   2.0000     -10.344120      -281.4778
  41   2.0000     -10.340850      -281.3888
  42   2.0000     -10.340675      -281.3841
  43   2.0000     -10.339516      -281.3525
  44   2.0000     -10.339306      -281.3468
  45   2.0000     -10.336749      -281.2772
  46   2.0000     -10.335573      -281.2452
  47   2.0000     -10.335181      -281.2346
  48   2.0000     -10.334632      -281.2196
  49   2.0000     -10.330939      -281.1191
  50   2.0000     -10.330283      -281.1013
  51   2.0000     -10.330267      -281.1008
  52   2.0000     -10.324813      -280.9524
  53   2.0000     -10.324771      -280.9513
  54   2.0000     -10.324541      -280.9450
  55   2.0000     -10.323800      -280.9249
  56   2.0000     -10.323006      -280.9033
  57   2.0000     -10.322212      -280.8817
  58   2.0000     -10.319735      -280.8143
  59   2.0000     -10.317026      -280.7406
  60   2.0000     -10.314387      -280.6687
  61   2.0000     -10.312111      -280.6068
  62   2.0000     -10.311984      -280.6034
  63   2.0000     -10.311568      -280.5920
  64   2.0000     -10.310677      -280.5678
  65   2.0000     -10.307291      -280.4756
  66   2.0000     -10.306995      -280.4676
  67   2.0000     -10.306899      -280.4650
  68   2.0000     -10.306547      -280.4554
  69   2.0000     -10.301088      -280.3069
  70   2.0000     -10.300306      -280.2856
  71   2.0000     -10.271908      -279.5128
  72   2.0000     -10.270777      -279.4820
  73   2.0000     -10.270494      -279.4743
  74   2.0000     -10.267726      -279.3990
  75   2.0000      -9.582461      -260.7520
  76   2.0000      -9.572546      -260.4822
  77   2.0000      -8.100487      -220.4255
  78   2.0000      -8.089620      -220.1298
  79   2.0000      -8.083430      -219.9613
  80   2.0000      -8.057954      -219.2681
  81   2.0000      -7.353107      -200.0882
  82   2.0000      -7.343158      -199.8175
  83   2.0000      -7.342512      -199.7999
  84   2.0000      -7.341919      -199.7838
  85   2.0000      -7.332599      -199.5302
  86   2.0000      -7.332064      -199.5156
  87   2.0000      -6.069813      -165.1680
  88   2.0000      -6.065213      -165.0428
  89   2.0000      -6.062830      -164.9780
  90   2.0000      -6.059025      -164.8745
  91   2.0000      -6.054410      -164.7489
  92   2.0000      -6.052492      -164.6967
  93   2.0000      -6.051819      -164.6784
  94   2.0000      -6.048395      -164.5852
  95   2.0000      -6.045844      -164.5158
  96   2.0000      -6.026802      -163.9976
  97   2.0000      -6.023539      -163.9088
  98   2.0000      -6.018987      -163.7850
  99   2.0000      -1.254727       -34.1428
 100   2.0000      -1.180448       -32.1216
 101   2.0000      -1.177876       -32.0516
 102   2.0000      -1.173744       -31.9392
 103   2.0000      -1.154725       -31.4217
 104   2.0000      -1.143147       -31.1066
 105   2.0000      -1.142529       -31.0898
 106   2.0000      -1.136792       -30.9337
 107   2.0000      -1.135779       -30.9061
 108   2.0000      -1.073374       -29.2080
 109   2.0000      -1.064606       -28.9694
 110   2.0000      -1.049418       -28.5561
 111   2.0000      -1.039203       -28.2782
 112   2.0000      -1.030364       -28.0376
 113   2.0000      -1.026614       -27.9356
 114   2.0000      -1.026456       -27.9313
 115   2.0000      -1.019719       -27.7480
 116   2.0000      -1.007624       -27.4188
 117   2.0000      -1.001226       -27.2447
 118   2.0000      -0.999253       -27.1911
 119   2.0000      -0.998624       -27.1739
 120   2.0000      -0.989805       -26.9340
 121   2.0000      -0.968024       -26.3413
 122   2.0000      -0.962916       -26.2023
 123   2.0000      -0.957756       -26.0619
 124   2.0000      -0.949295       -25.8316
 125   2.0000      -0.942826       -25.6556
 126   2.0000      -0.935845       -25.4656
 127   2.0000      -0.922585       -25.1048
 128   2.0000      -0.919406       -25.0183
 129   2.0000      -0.909882       -24.7591
 130   2.0000      -0.907467       -24.6934
 131   2.0000      -0.890193       -24.2234
 132   2.0000      -0.883249       -24.0344
 133   2.0000      -0.880677       -23.9645
 134   2.0000      -0.876135       -23.8408
 135   2.0000      -0.870375       -23.6841
 136   2.0000      -0.843750       -22.9596
 137   2.0000      -0.840378       -22.8679
 138   2.0000      -0.833663       -22.6851
 139   2.0000      -0.827457       -22.5163
 140   2.0000      -0.821583       -22.3564
 141   2.0000      -0.811150       -22.0725
 142   2.0000      -0.806449       -21.9446
 143   2.0000      -0.792326       -21.5603
 144   2.0000      -0.780515       -21.2389
 145   2.0000      -0.775643       -21.1063
 146   2.0000      -0.769652       -20.9433
 147   2.0000      -0.767530       -20.8855
 148   2.0000      -0.765132       -20.8203
 149   2.0000      -0.757551       -20.6140
 150   2.0000      -0.739073       -20.1112
 151   2.0000      -0.729601       -19.8535
 152   2.0000      -0.721538       -19.6340
 153   2.0000      -0.714656       -19.4468
 154   2.0000      -0.712608       -19.3910
 155   2.0000      -0.701081       -19.0774
 156   2.0000      -0.698182       -18.9985
 157   2.0000      -0.691062       -18.8047
 158   2.0000      -0.688288       -18.7293
 159   2.0000      -0.679162       -18.4809
 160   2.0000      -0.677650       -18.4398
 161   2.0000      -0.676547       -18.4098
 162   2.0000      -0.660028       -17.9603
 163   2.0000      -0.655834       -17.8462
 164   2.0000      -0.648786       -17.6544
 165   2.0000      -0.643845       -17.5199
 166   2.0000      -0.639159       -17.3924
 167   2.0000      -0.635681       -17.2978
 168   2.0000      -0.633035       -17.2258
 169   2.0000      -0.632295       -17.2056
 170   2.0000      -0.623339       -16.9619
 171   2.0000      -0.620671       -16.8893
 172   2.0000      -0.617970       -16.8158
 173   2.0000      -0.615819       -16.7573
 174   2.0000      -0.610979       -16.6256
 175   2.0000      -0.609485       -16.5849
 176   2.0000      -0.597733       -16.2651
 177   2.0000      -0.593712       -16.1557
 178   2.0000      -0.586258       -15.9529
 179   2.0000      -0.585508       -15.9325
 180   2.0000      -0.576111       -15.6768
 181   2.0000      -0.572541       -15.5796
 182   2.0000      -0.570018       -15.5110
 183   2.0000      -0.565800       -15.3962
 184   2.0000      -0.563845       -15.3430
 185   2.0000      -0.560277       -15.2459
 186   2.0000      -0.559615       -15.2279
 187   2.0000      -0.556137       -15.1332
 188   2.0000      -0.555365       -15.1123
 189   2.0000      -0.552114       -15.0238
 190   2.0000      -0.549513       -14.9530
 191   2.0000      -0.548598       -14.9281
 192   2.0000      -0.547568       -14.9001
 193   2.0000      -0.544813       -14.8251
 194   2.0000      -0.540013       -14.6945
 195   2.0000      -0.539428       -14.6786
 196   2.0000      -0.538367       -14.6497
 197   2.0000      -0.535919       -14.5831
 198   2.0000      -0.531970       -14.4756
 199   2.0000      -0.529163       -14.3993
 200   2.0000      -0.526936       -14.3386
 201   2.0000      -0.525329       -14.2949
 202   2.0000      -0.523398       -14.2424
 203   2.0000      -0.522375       -14.2145
 204   2.0000      -0.520385       -14.1604
 205   2.0000      -0.519143       -14.1266
 206   2.0000      -0.518081       -14.0977
 207   2.0000      -0.514027       -13.9874
 208   2.0000      -0.513917       -13.9844
 209   2.0000      -0.511146       -13.9090
 210   2.0000      -0.508492       -13.8368
 211   2.0000      -0.508286       -13.8312
 212   2.0000      -0.507540       -13.8109
 213   2.0000      -0.504679       -13.7330
 214   2.0000      -0.497641       -13.5415
 215   2.0000      -0.495688       -13.4884
 216   2.0000      -0.490390       -13.3442
 217   2.0000      -0.487426       -13.2635
 218   2.0000      -0.486722       -13.2444
 219   2.0000      -0.483404       -13.1541
 220   2.0000      -0.481744       -13.1089
 221   2.0000      -0.480804       -13.0834
 222   2.0000      -0.476618       -12.9694
 223   2.0000      -0.473021       -12.8716
 224   2.0000      -0.469864       -12.7857
 225   2.0000      -0.465666       -12.6714
 226   2.0000      -0.463489       -12.6122
 227   2.0000      -0.460978       -12.5438
 228   2.0000      -0.460479       -12.5303
 229   2.0000      -0.459527       -12.5044
 230   2.0000      -0.457893       -12.4599
 231   2.0000      -0.456759       -12.4290
 232   2.0000      -0.455677       -12.3996
 233   2.0000      -0.454650       -12.3716
 234   2.0000      -0.453825       -12.3492
 235   2.0000      -0.453219       -12.3327
 236   2.0000      -0.449524       -12.2322
 237   2.0000      -0.448468       -12.2034
 238   2.0000      -0.445975       -12.1356
 239   2.0000      -0.443466       -12.0673
 240   2.0000      -0.442852       -12.0506
 241   2.0000      -0.442759       -12.0481
 242   2.0000      -0.440211       -11.9788
 243   2.0000      -0.439829       -11.9684
 244   2.0000      -0.434901       -11.8343
 245   2.0000      -0.432314       -11.7639
 246   2.0000      -0.431238       -11.7346
 247   2.0000      -0.428722       -11.6661
 248   2.0000      -0.427587       -11.6352
 249   2.0000      -0.426250       -11.5988
 250   2.0000      -0.424463       -11.5502
 251   2.0000      -0.422542       -11.4979
 252   2.0000      -0.415554       -11.3078
 253   2.0000      -0.413642       -11.2558
 254   2.0000      -0.408593       -11.1184
 255   2.0000      -0.407734       -11.0950
 256   2.0000      -0.404471       -11.0062
 257   2.0000      -0.403228       -10.9724
 258   2.0000      -0.388395       -10.5688
 259   2.0000      -0.385167       -10.4809
 260   2.0000      -0.383032       -10.4228
 261   2.0000      -0.380692       -10.3592
 262   2.0000      -0.364810        -9.9270
 263   2.0000      -0.358968        -9.7680
 264   2.0000      -0.357456        -9.7269
 265   2.0000      -0.351448        -9.5634
 266   2.0000      -0.349906        -9.5214
 267   2.0000      -0.349066        -9.4986
 268   2.0000      -0.346291        -9.4231
 269   2.0000      -0.344871        -9.3844
 270   2.0000      -0.344092        -9.3632
 271   2.0000      -0.340764        -9.2727
 272   2.0000      -0.333234        -9.0677
 273   2.0000      -0.329629        -8.9697
 274   2.0000      -0.324029        -8.8173
 275   2.0000      -0.315246        -8.5783
 276   2.0000      -0.314551        -8.5594
 277   2.0000      -0.288096        -7.8395
 278   2.0000      -0.245483        -6.6799
 279   0.0000      -0.120747        -3.2857
 280   0.0000      -0.110860        -3.0167
 281   0.0000      -0.101437        -2.7602
 282   0.0000      -0.088331        -2.4036
 283   0.0000      -0.068576        -1.8660

MULLIKEN ATOMIC CHARGES
-----------------------
   0 C :    0.037598
   1 C :   -0.128555
   2 S :    0.198454
   3 C :   -0.162231
   4 Cl:    0.009113
   5 C :    0.071917
   6 C :    0.159486
   7 O :   -0.144058
   8 C :   -0.039427
   9 C :    0.287045
  10 C :   -0.306187
  11 C :   -0.196435
  12 N :    0.163740
  13 C :   -0.186772
  14 N :    0.176055
  15 C :   -0.066462
  16 C :   -0.000555
  17 C :    0.080941
  18 C :    0.044303
  19 O :   -0.131186
  20 S :    0.036750
  21 C :    0.033984
  22 O :   -0.112232
  23 C :    0.035213
  24 C :    0.059702
  25 C :   -0.078081
  26 C :   -0.055310
  27 C :    0.243005
  28 O :   -0.101343
  29 O :   -0.228083
  30 C :    0.236244
  31 O :   -0.102526
  32 C :   -0.059987
  33 C :    0.037862
  34 C :    0.100352
  35 N :   -0.252369
  36 C :    0.093233
  37 C :    0.001721
  38 C :    0.169518
  39 O :   -0.211639
  40 C :   -0.070899
  41 C :   -0.055649
  42 C :    0.174334
  43 O :   -0.198401
  44 N :   -0.258153
  45 C :    0.096449
  46 C :    0.000436
  47 C :    0.136296
  48 C :   -0.026427
  49 C :    0.082057
  50 C :   -0.071607
  51 S :    0.199275
  52 C :   -0.043281
  53 C :   -0.042940
  54 C :    0.017930
  55 C :   -0.192993
  56 N :    0.143551
  57 C :    0.011138
  58 C :    0.004825
  59 C :    0.023904
  60 C :   -0.122051
  61 C :    0.138784
  62 O :   -0.125821
  63 C :    0.083787
  64 C :   -0.172342
  65 S :    0.185184
  66 C :   -0.127932
  67 C :    0.017254
  68 C :    0.281023
  69 C :   -0.323827
  70 C :   -0.185910
  71 N :    0.152161
  72 C :   -0.213586
  73 N :    0.173676
  74 Cl:    0.001037
  75 H :    0.057879
  76 H :    0.053345
  77 H :    0.056381
  78 H :   -0.008318
  79 H :    0.042763
  80 H :    0.038904
  81 H :    0.031809
  82 H :    0.027311
  83 H :    0.013476
  84 H :    0.046622
  85 H :    0.023551
  86 H :    0.035040
  87 H :    0.027231
  88 H :    0.017510
  89 H :   -0.023164
  90 H :    0.015264
  91 H :    0.000338
  92 H :    0.028658
  93 H :    0.030866
  94 H :    0.026330
  95 H :    0.054123
Sum of atomic charges:   -0.0000000

LOEWDIN ATOMIC CHARGES
----------------------
   0 C :   -0.055107
   1 C :   -0.146750
   2 S :    0.488548
   3 C :   -0.268259
   4 Cl:    0.201017
   5 C :   -0.116752
   6 C :    0.090092
   7 O :   -0.132046
   8 C :   -0.050508
   9 C :    0.073788
  10 C :   -0.116313
  11 C :   -0.014195
  12 N :   -0.040956
  13 C :   -0.021293
  14 N :   -0.031138
  15 C :    0.069209
  16 C :    0.012059
  17 C :   -0.020902
  18 C :   -0.045828
  19 O :   -0.118640
  20 S :    0.322330
  21 C :   -0.038503
  22 O :   -0.094615
  23 C :   -0.048399
  24 C :    0.039345
  25 C :   -0.054360
  26 C :   -0.034636
  27 C :    0.105434
  28 O :   -0.093010
  29 O :   -0.052101
  30 C :    0.112790
  31 O :   -0.097462
  32 C :    0.004308
  33 C :   -0.001865
  34 C :    0.070575
  35 N :    0.005862
  36 C :    0.037112
  37 C :   -0.060719
  38 C :    0.079475
  39 O :   -0.201622
  40 C :   -0.120023
  41 C :   -0.108295
  42 C :    0.084505
  43 O :   -0.186462
  44 N :    0.000109
  45 C :    0.036260
  46 C :   -0.060771
  47 C :    0.080142
  48 C :   -0.036975
  49 C :    0.011386
  50 C :   -0.154741
  51 S :    0.509007
  52 C :   -0.146794
  53 C :   -0.085568
  54 C :   -0.019400
  55 C :   -0.033821
  56 N :   -0.042545
  57 C :    0.013950
  58 C :   -0.025930
  59 C :    0.067347
  60 C :   -0.085772
  61 C :    0.078771
  62 O :   -0.132457
  63 C :   -0.118009
  64 C :   -0.272280
  65 S :    0.474037
  66 C :   -0.151523
  67 C :   -0.057580
  68 C :    0.069779
  69 C :   -0.136681
  70 C :   -0.015801
  71 N :   -0.049524
  72 C :   -0.026804
  73 N :   -0.047966
  74 Cl:    0.192412
  75 H :    0.039532
  76 H :    0.052693
  77 H :    0.043261
  78 H :    0.030210
  79 H :    0.038127
  80 H :    0.028874
  81 H :    0.032912
  82 H :    0.032364
  83 H :    0.021174
  84 H :    0.039091
  85 H :    0.022556
  86 H :    0.034565
  87 H :    0.032149
  88 H :    0.022400
  89 H :    0.029451
  90 H :    0.038883
  91 H :    0.039482
  92 H :    0.048934
  93 H :    0.028682
  94 H :    0.049230
  95 H :    0.037481

  Mayer bond orders larger than 0.100000
B(  0-C ,  1-C ) :   1.5419 B(  0-C ,  5-C ) :   1.2217 B(  0-C ,  9-C ) :   1.0061
B(  1-C ,  2-S ) :   1.1642 B(  1-C , 75-H ) :   0.9540 B(  2-S ,  3-C ) :   1.1597
B(  3-C ,  4-Cl) :   1.1377 B(  3-C ,  5-C ) :   1.4576 B(  5-C ,  6-C ) :   0.9744
B(  6-C ,  7-O ) :   2.1993 B(  6-C ,  8-C ) :   0.9152 B(  8-C ,  9-C ) :   1.0419
B(  8-C , 15-C ) :   1.7569 B(  9-C , 10-C ) :   1.6931 B( 10-C , 11-C ) :   1.1405
B( 10-C , 13-C ) :   1.1357 B( 11-C , 12-N ) :   2.9942 B( 13-C , 14-N ) :   2.9801
B( 15-C , 16-C ) :   1.0292 B( 15-C , 76-H ) :   0.9197 B( 16-C , 17-C ) :   1.3613
B( 16-C , 26-C ) :   1.3970 B( 17-C , 18-C ) :   0.8227 B( 17-C , 23-C ) :   1.3598
B( 18-C , 19-O ) :   2.1828 B( 18-C , 20-S ) :   1.0424 B( 19-O , 20-S ) :   0.1106
B( 20-S , 21-C ) :   1.0236 B( 20-S , 22-O ) :   0.1043 B( 21-C , 22-O ) :   2.1774
B( 21-C , 23-C ) :   0.8472 B( 23-C , 24-C ) :   1.3262 B( 24-C , 25-C ) :   1.3297
B( 24-C , 32-C ) :   1.1073 B( 25-C , 26-C ) :   1.3331 B( 25-C , 30-C ) :   0.9080
B( 26-C , 27-C ) :   0.9031 B( 27-C , 28-O ) :   2.2362 B( 27-C , 29-O ) :   1.0636
B( 29-O , 30-C ) :   1.0483 B( 30-C , 31-O ) :   2.2381 B( 32-C , 33-C ) :   1.6532
B( 32-C , 77-H ) :   0.9164 B( 33-C , 34-C ) :   1.1698 B( 33-C , 78-H ) :   0.9471
B( 34-C , 35-N ) :   1.1620 B( 34-C , 41-C ) :   1.3504 B( 35-N , 36-C ) :   0.9428
B( 35-N , 38-C ) :   1.0674 B( 36-C , 37-C ) :   1.1177 B( 36-C , 79-H ) :   0.9288
B( 36-C , 80-H ) :   0.9500 B( 37-C , 81-H ) :   0.9638 B( 37-C , 82-H ) :   0.9682
B( 37-C , 83-H ) :   0.9689 B( 38-C , 39-O ) :   2.0208 B( 38-C , 40-C ) :   0.9873
B( 39-O , 90-H ) :   0.1152 B( 40-C , 41-C ) :   1.2617 B( 40-C , 47-C ) :   1.3299
B( 41-C , 42-C ) :   0.9764 B( 42-C , 43-O ) :   2.0478 B( 42-C , 44-N ) :   1.0529
B( 44-N , 45-C ) :   0.9441 B( 44-N , 47-C ) :   1.1642 B( 45-C , 46-C ) :   1.1194
B( 45-C , 84-H ) :   0.9277 B( 45-C , 85-H ) :   0.9501 B( 46-C , 86-H ) :   0.9637
B( 46-C , 87-H ) :   0.9680 B( 46-C , 88-H ) :   0.9686 B( 47-C , 48-C ) :   1.1699
B( 48-C , 49-C ) :   1.6223 B( 48-C , 89-H ) :   0.9618 B( 49-C , 50-C ) :   1.1243
B( 49-C , 90-H ) :   0.9328 B( 50-C , 51-S ) :   1.1531 B( 50-C , 54-C ) :   1.4413
B( 51-S , 52-C ) :   1.1380 B( 52-C , 53-C ) :   1.4077 B( 52-C , 57-C ) :   1.1795
B( 53-C , 54-C ) :   1.3257 B( 53-C , 55-C ) :   1.1022 B( 54-C , 91-H ) :   0.9985
B( 55-C , 56-N ) :   3.0235 B( 57-C , 58-C ) :   1.6172 B( 57-C , 92-H ) :   0.9730
B( 58-C , 59-C ) :   1.1370 B( 58-C , 93-H ) :   0.9592 B( 59-C , 60-C ) :   1.6197
B( 59-C , 94-H ) :   0.9580 B( 60-C , 61-C ) :   0.9367 B( 60-C , 68-C ) :   1.0448
B( 61-C , 62-O ) :   2.2807 B( 61-C , 63-C ) :   0.9268 B( 63-C , 64-C ) :   1.4876
B( 63-C , 67-C ) :   1.2198 B( 64-C , 65-S ) :   1.1494 B( 64-C , 74-Cl) :   1.1301
B( 65-S , 66-C ) :   1.1594 B( 66-C , 67-C ) :   1.5539 B( 66-C , 95-H ) :   0.9543
B( 67-C , 68-C ) :   1.0099 B( 68-C , 69-C ) :   1.6494 B( 69-C , 70-C ) :   1.1362
B( 69-C , 72-C ) :   1.1530 B( 70-C , 71-N ) :   2.9958 B( 72-C , 73-N ) :   3.0109

-----------------------------------------------------------------------------
         ABSORPTION SPECTRUM VIA TRANSITION ELECTRIC DIPOLE MOMENTS
-----------------------------------------------------------------------------
State   Energy  Wavelength   fosc         T2         TX        TY        TZ
        (cm-1)    (nm)                  (au**2)     (au)      (au)      (au)
-----------------------------------------------------------------------------
   0   12929.5    773.4   0.976108109  24.85379   4.76369  -1.46870   0.06266
   1   15918.0    628.2   0.017046547   0.35255  -0.47523  -0.33629   0.11668
   2   17286.4    578.5   0.081414792   1.55051   0.24547   0.89003   0.83552
   3   20802.6    480.7   0.258301112   4.08774  -0.80101  -1.70099  -0.74348
   4   21992.0    454.7   0.443339959   6.63664  -2.05253  -1.15077  -1.04856
   5   24634.5    405.9   0.110542805   1.47728  -1.12245   0.46174  -0.06463
   6   25361.6    394.3   0.010896860   0.14145   0.03551  -0.36097  -0.09943
   7   26203.3    381.6   0.020951791   0.26323  -0.03750   0.47488   0.19057
   8   26560.3    376.5   0.044649857   0.55343  -0.72070   0.04538   0.17876
   9   26771.6    373.5   0.096709587   1.18925   1.07576   0.01722  -0.17803
  10   27543.7    363.1   0.048353030   0.57793  -0.66675   0.26454   0.25179
  11   27787.7    359.9   0.006959314   0.08245  -0.26991   0.09296  -0.03094
  12   27930.2    358.0   0.137135936   1.61642  -0.90536   0.63905   0.62318
  13   28034.4    356.7   0.012009735   0.14103  -0.30885   0.16464   0.13616
  14   28161.1    355.1   0.012957439   0.15148  -0.20384   0.33072   0.02341
  15   29037.1    344.4   0.093536198   1.06048  -0.88970  -0.34837   0.38414
  16   29436.9    339.7   0.224401248   2.50963  -1.57989  -0.10690   0.04649
  17   29619.2    337.6   0.191470428   2.12816   1.32218   0.61544   0.03524
  18   30572.8    327.1   0.146673229   1.57940  -1.23075   0.11105   0.22874
  19   31190.8    320.6   0.010679863   0.11272   0.19826  -0.25787  -0.08319
  20   31228.9    320.2   0.148657756   1.56713   1.22767   0.03818  -0.24188
  21   31587.6    316.6   0.068263884   0.71146  -0.82480   0.13335   0.11566
  22   31737.3    315.1   0.021020799   0.21805   0.12735   0.41185   0.17946
  23   32101.6    311.5   0.038550329   0.39535  -0.61755  -0.01689   0.11701
  24   32407.0    308.6   0.080020880   0.81291   0.85682   0.27996  -0.01974
  25   32587.6    306.9   0.078564876   0.79369   0.83461  -0.31096  -0.02050
  26   32924.0    303.7   0.087447053   0.87440  -0.85875  -0.36581  -0.05597
  27   33350.1    299.8   0.044364803   0.43794   0.57152  -0.33154  -0.03722
  28   33543.0    298.1   0.006200149   0.06085   0.13190   0.03189  -0.20600
  29   33719.0    296.6   0.038687966   0.37773  -0.21916   0.38563   0.42543
  30   33816.0    295.7   0.084736816   0.82495  -0.48156  -0.76524  -0.08629
  31   34080.3    293.4   0.082915782   0.80096   0.11423  -0.88716   0.02917
  32   34176.2    292.6   0.051443334   0.49554   0.08771   0.69417  -0.07728
  33   34472.3    290.1   0.055926082   0.53410  -0.23857  -0.65185  -0.22862
  34   34852.1    286.9   0.057873441   0.54667   0.54315  -0.23034  -0.44564
  35   35063.6    285.2   0.044918682   0.42174   0.57292  -0.22200  -0.21028
  36   35147.4    284.5   0.116502499   1.09123  -0.93565  -0.12307   0.44794
  37   35213.7    284.0   0.097582479   0.91230   0.88444   0.06184   0.35529
  38   35414.0    282.4   0.042315993   0.39337   0.15733   0.60702  -0.01235
  39   35510.6    281.6   0.212824840   1.97306   0.99512   0.91276   0.38686
  40   35964.0    278.1   0.050674892   0.46387   0.59250   0.33171   0.05283
  41   36001.9    277.8   0.033364771   0.30510  -0.40223  -0.33712   0.17223
  42   36386.2    274.8   0.024714064   0.22361  -0.11431  -0.42834  -0.16452
  43   36539.7    273.7   0.249979301   2.25224   0.51356   1.34954   0.40894
  44   36688.8    272.6   0.115150750   1.03326  -0.33874  -0.86629  -0.40995
  45   36787.1    271.8   0.065176665   0.58327   0.56589  -0.51257   0.01774
  46   36921.7    270.8   0.006971761   0.06216  -0.13192   0.21150  -0.00528
  47   37295.6    268.1   0.066889659   0.59044   0.23121  -0.71910  -0.14101
  48   37391.9    267.4   0.019168683   0.16877  -0.34575   0.20531   0.08411
  49   37855.3    264.2   0.077280273   0.67208  -0.37167   0.72544   0.08761
  50   38115.9    262.4   0.314489569   2.71628  -1.47845  -0.69932   0.20356
  51   38350.9    260.8   0.014144892   0.12142  -0.30252   0.17159   0.02146
  52   38748.7    258.1   0.030526081   0.25935  -0.32471  -0.35389  -0.16935
  53   38818.5    257.6   0.076172100   0.64600   0.63738  -0.40008  -0.28229
  54   38935.0    256.8   0.132502126   1.12036   0.70883   0.78453   0.04932
  55   39062.9    256.0   0.074108404   0.62457   0.55300   0.54187  -0.15851
  56   39137.1    255.5   0.014524895   0.12218  -0.14595   0.05649  -0.31255
  57   39374.5    254.0   0.027630216   0.23102  -0.21335   0.25182  -0.34941
  58   39610.4    252.5   0.020393841   0.16950  -0.27973  -0.27091   0.13364
  59   39755.5    251.5   0.015397950   0.12751   0.14787   0.28713   0.15232
  60   39979.6    250.1   0.007704317   0.06344   0.21270  -0.00166   0.13489

FINAL SINGLE POINT ENERGY     -5601.053985403473

DIPOLE MOMENT
-------------
                                X             Y             Z
Electronic contribution:     19.65961     -11.44965      -3.44574
Nuclear contribution   :    -19.51593      12.34268       4.15790
                        -----------------------------------------
Total Dipole Moment    :      0.14368       0.89303       0.71216
                        -----------------------------------------
Magnitude (a.u.)       :      1.15123
Magnitude (Debye)      :      2.92618

Rotational constants in cm-1:     0.002007     0.000189     0.000179
Rotational constants in MHz :    60.165305     5.652937     5.355466

                             ****ORCA TERMINATED NORMALLY****
TOTAL RUN TIME: 0 days 0 hours 9 minutes 23 seconds 967 msec
