                         Program Version 4.2.0 -  RELEASE  -
|  1> # ORCA input file
|  2> # SCF done       -168.325880938666          0.000548624357
|  3> ! CAM-B3LYP def2-SVP def2/J RIJCOSX Grid4 TightSCF
|  4> %maxcore 5000
|  5> %tddft
|  6>     Mode sTDDFT
|  7>     Ethresh 5.0
|  8>     maxcore 5000
|  9> end
| 10>
| 11> %pal
| 12>   nprocs 6
| 13>   end
| 14> * xyz 0 1
| 15>    C        4.84560         5.39607        -2.64249
| 16>    C        5.75581         6.14608        -1.94566
| 17>    C        7.14314         6.13939        -2.20543
| 18>    N        8.27835         6.18527        -2.36953
| 19>    C        5.46886         6.99044        -0.85158
| 20>    N        5.32758         7.68068         0.05559
| 21>    C        5.17238         4.44806        -3.69943
| 22>    C        3.99494         3.72119        -4.03074
| 23>    C        3.99099         2.74809        -4.98819
| 24>    C        5.18856         2.45834        -5.67906
| 25>    C        6.37002         3.18877        -5.36112
| 26>    C        6.34390         4.18631        -4.35994
| 27>    C        7.55805         2.89660        -6.06184
| 28>    C        7.58042         1.92909        -7.02903
| 29>    C        6.41692         1.20951        -7.34025
| 30>    C        5.24673         1.46822        -6.67953
| 31>    C        2.86970         4.19707        -3.20856
| 32>    O        1.74544         3.74219        -3.21343
| 33>    C        3.40724         5.33222        -2.41405
| 34>    C        2.72084         6.26888        -1.69793
| 35>    C        1.35003         6.37376        -1.36519
| 36>    S        0.85293         7.86054        -0.57196
| 37>    C       -0.77459         7.32115        -0.43947
| 38>    C       -0.91911         6.04773        -0.99464
| 39>    C        0.27507         5.52101        -1.50888
| 40>    C       -2.15759         5.39291        -1.11615
| 41>    N       -3.17025         4.87196        -1.25633
| 42>    C       -1.77800         8.15542         0.14769
| 43>    C       -2.90175         7.69875         0.72015
| 44>    C       -3.92299         8.59335         1.24485
| 45>    C       -4.20678         8.68555         2.59043
| 46>    C       -3.54780         7.90023         3.63118
| 47>    O       -2.64564         7.13921         3.35123
| 48>    C       -4.05849         8.10389         5.03169
| 49>    S       -5.41036         9.89644         2.90723
| 50>    C       -5.51553        10.27250         1.24836
| 51>    C       -4.69280         9.50516         0.45889
| 52>    C       -4.67712         9.59151        -0.98124
| 53>    C       -4.34158         8.57349        -1.79242
| 54>    C       -4.32980         8.68419        -3.21475
| 55>    S       -3.91492         7.31865        -4.23491
| 56>    C       -4.17943         8.42017        -5.58428
| 57>    N       -4.52322         9.61438        -5.19005
| 58>    N       -4.60435         9.76010        -3.89961
| 59>    C       -4.02928         7.99802        -6.93472
| 60>    C       -4.21340         8.84443        -7.97544
| 61>    C       -4.14863         8.52406        -9.35966
| 62>    C       -3.50436         7.50933       -10.00590
| 63>    C       -3.59950         7.26618       -11.44000
| 64>    C       -4.56393         7.74752       -12.28522
| 65>    C       -4.61662         7.45964       -13.66596
| 66>    N       -4.71056         7.27330       -14.79484
| 67>    C       -5.65809         8.55775       -11.91198
| 68>    N       -6.58957         9.19370       -11.69602
| 69>    C       -2.54031         6.33807       -11.81285
| 70>    C       -1.84929         5.94737       -10.63214
| 71>    C       -2.44083         6.61810        -9.46223
| 72>    O       -2.08618         6.47956        -8.31152
| 73>    C       -0.80915         5.06335       -10.66110
| 74>    C       -0.40542         4.51679       -11.89922
| 75>    C       -1.08643         4.90846       -13.08807
| 76>    C       -2.15782         5.82843       -13.02609
| 77>    C       -0.67495         4.35695       -14.31873
| 78>    C        0.35605         3.45918       -14.37372
| 79>    C        1.02492         3.07342       -13.20228
| 80>    C        0.65276         3.59133       -11.99159
| 81>    H        3.08377         2.20861        -5.21669
| 82>    H        7.25357         4.72464        -4.14695
| 83>    H        8.45153         3.45199        -5.81721
| 84>    H        8.49541         1.71233        -7.55961
| 85>    H        6.45293         0.44902        -8.10593
| 86>    H        4.34783         0.91694        -6.91416
| 87>    H        3.30343         7.10503        -1.32782
| 88>    H        0.34696         4.55665        -1.97882
| 89>    H       -1.57443         9.21854         0.13665
| 90>    H       -3.07068         6.63878         0.85179
| 91>    H       -5.12392         7.88748         5.07502
| 92>    H       -3.91229         9.14120         5.32730
| 93>    H       -3.52311         7.45164         5.71586
| 94>    H       -6.20398        11.02566         0.91727
| 95>    H       -4.99743        10.52597        -1.42053
| 96>    H       -4.07783         7.60360        -1.39655
| 97>    H       -3.77451         6.96144        -7.08472
| 98>    H       -4.51472         9.85733        -7.74049
| 99>    H       -4.68160         9.22891        -9.98826
|100>    H       -0.30468         4.78187        -9.74863
|101>    H       -2.64801         6.10887       -13.94461
|102>    H       -1.19390         4.65575       -15.21758
|103>    H        0.66191         3.04042       -15.32069
|104>    H        1.83637         2.36378       -13.26445
|105>    H        1.16383         3.29863       -11.08599
|106> *
|107>
|108>                          ****END OF INPUT****

CARTESIAN COORDINATES (ANGSTROEM)
---------------------------------
  C      4.845600    5.396070   -2.642490
  C      5.755810    6.146080   -1.945660
  C      7.143140    6.139390   -2.205430
  N      8.278350    6.185270   -2.369530
  C      5.468860    6.990440   -0.851580
  N      5.327580    7.680680    0.055590
  C      5.172380    4.448060   -3.699430
  C      3.994940    3.721190   -4.030740
  C      3.990990    2.748090   -4.988190
  C      5.188560    2.458340   -5.679060
  C      6.370020    3.188770   -5.361120
  C      6.343900    4.186310   -4.359940
  C      7.558050    2.896600   -6.061840
  C      7.580420    1.929090   -7.029030
  C      6.416920    1.209510   -7.340250
  C      5.246730    1.468220   -6.679530
  C      2.869700    4.197070   -3.208560
  O      1.745440    3.742190   -3.213430
  C      3.407240    5.332220   -2.414050
  C      2.720840    6.268880   -1.697930
  C      1.350030    6.373760   -1.365190
  S      0.852930    7.860540   -0.571960
  C     -0.774590    7.321150   -0.439470
  C     -0.919110    6.047730   -0.994640
  C      0.275070    5.521010   -1.508880
  C     -2.157590    5.392910   -1.116150
  N     -3.170250    4.871960   -1.256330
  C     -1.778000    8.155420    0.147690
  C     -2.901750    7.698750    0.720150
  C     -3.922990    8.593350    1.244850
  C     -4.206780    8.685550    2.590430
  C     -3.547800    7.900230    3.631180
  O     -2.645640    7.139210    3.351230
  C     -4.058490    8.103890    5.031690
  S     -5.410360    9.896440    2.907230
  C     -5.515530   10.272500    1.248360
  C     -4.692800    9.505160    0.458890
  C     -4.677120    9.591510   -0.981240
  C     -4.341580    8.573490   -1.792420
  C     -4.329800    8.684190   -3.214750
  S     -3.914920    7.318650   -4.234910
  C     -4.179430    8.420170   -5.584280
  N     -4.523220    9.614380   -5.190050
  N     -4.604350    9.760100   -3.899610
  C     -4.029280    7.998020   -6.934720
  C     -4.213400    8.844430   -7.975440
  C     -4.148630    8.524060   -9.359660
  C     -3.504360    7.509330  -10.005900
  C     -3.599500    7.266180  -11.440000
  C     -4.563930    7.747520  -12.285220
  C     -4.616620    7.459640  -13.665960
  N     -4.710560    7.273300  -14.794840
  C     -5.658090    8.557750  -11.911980
  N     -6.589570    9.193700  -11.696020
  C     -2.540310    6.338070  -11.812850
  C     -1.849290    5.947370  -10.632140
  C     -2.440830    6.618100   -9.462230
  O     -2.086180    6.479560   -8.311520
  C     -0.809150    5.063350  -10.661100
  C     -0.405420    4.516790  -11.899220
  C     -1.086430    4.908460  -13.088070
  C     -2.157820    5.828430  -13.026090
  C     -0.674950    4.356950  -14.318730
  C      0.356050    3.459180  -14.373720
  C      1.024920    3.073420  -13.202280
  C      0.652760    3.591330  -11.991590
  H      3.083770    2.208610   -5.216690
  H      7.253570    4.724640   -4.146950
  H      8.451530    3.451990   -5.817210
  H      8.495410    1.712330   -7.559610
  H      6.452930    0.449020   -8.105930
  H      4.347830    0.916940   -6.914160
  H      3.303430    7.105030   -1.327820
  H      0.346960    4.556650   -1.978820
  H     -1.574430    9.218540    0.136650
  H     -3.070680    6.638780    0.851790
  H     -5.123920    7.887480    5.075020
  H     -3.912290    9.141200    5.327300
  H     -3.523110    7.451640    5.715860
  H     -6.203980   11.025660    0.917270
  H     -4.997430   10.525970   -1.420530
  H     -4.077830    7.603600   -1.396550
  H     -3.774510    6.961440   -7.084720
  H     -4.514720    9.857330   -7.740490
  H     -4.681600    9.228910   -9.988260
  H     -0.304680    4.781870   -9.748630
  H     -2.648010    6.108870  -13.944610
  H     -1.193900    4.655750  -15.217580
  H      0.661910    3.040420  -15.320690
  H      1.836370    2.363780  -13.264450
  H      1.163830    3.298630  -11.085990

 Total Charge           Charge          ....    0
 Multiplicity           Mult            ....    1
 Number of Electrons    NEL             ....  464
 Basis Dimension        Dim             .... 1061

ORBITAL ENERGIES
----------------

  NO   OCC          E(Eh)            E(eV)
   0   2.0000     -88.984643     -2421.3952
   1   2.0000     -88.982203     -2421.3288
   2   2.0000     -88.974231     -2421.1119
   3   2.0000     -19.224307      -523.1200
   4   2.0000     -19.219169      -522.9802
   5   2.0000     -19.215342      -522.8760
   6   2.0000     -14.442141      -392.9906
   7   2.0000     -14.438268      -392.8852
   8   2.0000     -14.419678      -392.3794
   9   2.0000     -14.417294      -392.3145
  10   2.0000     -14.416235      -392.2857
  11   2.0000     -14.414453      -392.2372
  12   2.0000     -14.414120      -392.2281
  13   2.0000     -10.375333      -282.3272
  14   2.0000     -10.372960      -282.2626
  15   2.0000     -10.370598      -282.1983
  16   2.0000     -10.345713      -281.5212
  17   2.0000     -10.344856      -281.4978
  18   2.0000     -10.344709      -281.4938
  19   2.0000     -10.344656      -281.4924
  20   2.0000     -10.342209      -281.4258
  21   2.0000     -10.340881      -281.3897
  22   2.0000     -10.339963      -281.3647
  23   2.0000     -10.331565      -281.1362
  24   2.0000     -10.327401      -281.0229
  25   2.0000     -10.322902      -280.9005
  26   2.0000     -10.322366      -280.8859
  27   2.0000     -10.320191      -280.8267
  28   2.0000     -10.320182      -280.8264
  29   2.0000     -10.318119      -280.7703
  30   2.0000     -10.317380      -280.7502
  31   2.0000     -10.317240      -280.7464
  32   2.0000     -10.316761      -280.7333
  33   2.0000     -10.312060      -280.6054
  34   2.0000     -10.309479      -280.5352
  35   2.0000     -10.307243      -280.4744
  36   2.0000     -10.306467      -280.4532
  37   2.0000     -10.305693      -280.4322
  38   2.0000     -10.305309      -280.4217
  39   2.0000     -10.304657      -280.4040
  40   2.0000     -10.303818      -280.3811
  41   2.0000     -10.303302      -280.3671
  42   2.0000     -10.301765      -280.3253
  43   2.0000     -10.301456      -280.3169
  44   2.0000     -10.301405      -280.3155
  45   2.0000     -10.300636      -280.2946
  46   2.0000     -10.300410      -280.2884
  47   2.0000     -10.299410      -280.2612
  48   2.0000     -10.299132      -280.2536
  49   2.0000     -10.298806      -280.2447
  50   2.0000     -10.298053      -280.2243
  51   2.0000     -10.297832      -280.2183
  52   2.0000     -10.297385      -280.2061
  53   2.0000     -10.292593      -280.0757
  54   2.0000     -10.292590      -280.0756
  55   2.0000     -10.291407      -280.0434
  56   2.0000     -10.290862      -280.0286
  57   2.0000     -10.290269      -280.0125
  58   2.0000     -10.289641      -279.9954
  59   2.0000     -10.289484      -279.9911
  60   2.0000     -10.289121      -279.9812
  61   2.0000     -10.288517      -279.9648
  62   2.0000     -10.287974      -279.9500
  63   2.0000     -10.287375      -279.9337
  64   2.0000     -10.286783      -279.9176
  65   2.0000     -10.279426      -279.7174
  66   2.0000      -8.080512      -219.8819
  67   2.0000      -8.077849      -219.8094
  68   2.0000      -8.070590      -219.6119
  69   2.0000      -6.049563      -164.6170
  70   2.0000      -6.047004      -164.5474
  71   2.0000      -6.045501      -164.5065
  72   2.0000      -6.042886      -164.4353
  73   2.0000      -6.042661      -164.4292
  74   2.0000      -6.040438      -164.3687
  75   2.0000      -6.039135      -164.3332
  76   2.0000      -6.035775      -164.2418
  77   2.0000      -6.033128      -164.1698
  78   2.0000      -1.144017       -31.1303
  79   2.0000      -1.139281       -31.0014
  80   2.0000      -1.134606       -30.8742
  81   2.0000      -1.133408       -30.8416
  82   2.0000      -1.024008       -27.8647
  83   2.0000      -1.020847       -27.7787
  84   2.0000      -1.017721       -27.6936
  85   2.0000      -1.009133       -27.4599
  86   2.0000      -1.002584       -27.2817
  87   2.0000      -0.998616       -27.1737
  88   2.0000      -0.997017       -27.1302
  89   2.0000      -0.995723       -27.0950
  90   2.0000      -0.992666       -27.0118
  91   2.0000      -0.975605       -26.5476
  92   2.0000      -0.972527       -26.4638
  93   2.0000      -0.951630       -25.8952
  94   2.0000      -0.935199       -25.4480
  95   2.0000      -0.932306       -25.3693
  96   2.0000      -0.924705       -25.1625
  97   2.0000      -0.923180       -25.1210
  98   2.0000      -0.907677       -24.6991
  99   2.0000      -0.905533       -24.6408
 100   2.0000      -0.895421       -24.3657
 101   2.0000      -0.887364       -24.1464
 102   2.0000      -0.884566       -24.0703
 103   2.0000      -0.884045       -24.0561
 104   2.0000      -0.880685       -23.9647
 105   2.0000      -0.872926       -23.7535
 106   2.0000      -0.860642       -23.4193
 107   2.0000      -0.852919       -23.2091
 108   2.0000      -0.840988       -22.8845
 109   2.0000      -0.832303       -22.6481
 110   2.0000      -0.829407       -22.5693
 111   2.0000      -0.820085       -22.3156
 112   2.0000      -0.817055       -22.2332
 113   2.0000      -0.795015       -21.6335
 114   2.0000      -0.790149       -21.5011
 115   2.0000      -0.766429       -20.8556
 116   2.0000      -0.762354       -20.7447
 117   2.0000      -0.745602       -20.2889
 118   2.0000      -0.741539       -20.1783
 119   2.0000      -0.736860       -20.0510
 120   2.0000      -0.728600       -19.8262
 121   2.0000      -0.710331       -19.3291
 122   2.0000      -0.707771       -19.2594
 123   2.0000      -0.705415       -19.1953
 124   2.0000      -0.701944       -19.1009
 125   2.0000      -0.700995       -19.0750
 126   2.0000      -0.695588       -18.9279
 127   2.0000      -0.685405       -18.6508
 128   2.0000      -0.682951       -18.5840
 129   2.0000      -0.681181       -18.5359
 130   2.0000      -0.669274       -18.2119
 131   2.0000      -0.664769       -18.0893
 132   2.0000      -0.647858       -17.6291
 133   2.0000      -0.639990       -17.4150
 134   2.0000      -0.638507       -17.3746
 135   2.0000      -0.626230       -17.0406
 136   2.0000      -0.622782       -16.9467
 137   2.0000      -0.622050       -16.9268
 138   2.0000      -0.613147       -16.6846
 139   2.0000      -0.609641       -16.5892
 140   2.0000      -0.607864       -16.5408
 141   2.0000      -0.602950       -16.4071
 142   2.0000      -0.592805       -16.1311
 143   2.0000      -0.587374       -15.9833
 144   2.0000      -0.583697       -15.8832
 145   2.0000      -0.581168       -15.8144
 146   2.0000      -0.564758       -15.3679
 147   2.0000      -0.561872       -15.2893
 148   2.0000      -0.558662       -15.2020
 149   2.0000      -0.550915       -14.9912
 150   2.0000      -0.549778       -14.9602
 151   2.0000      -0.548016       -14.9123
 152   2.0000      -0.546160       -14.8618
 153   2.0000      -0.544873       -14.8267
 154   2.0000      -0.542860       -14.7720
 155   2.0000      -0.542614       -14.7653
 156   2.0000      -0.539338       -14.6761
 157   2.0000      -0.536970       -14.6117
 158   2.0000      -0.536251       -14.5921
 159   2.0000      -0.533537       -14.5183
 160   2.0000      -0.529978       -14.4214
 161   2.0000      -0.527128       -14.3439
 162   2.0000      -0.521971       -14.2035
 163   2.0000      -0.521147       -14.1811
 164   2.0000      -0.519661       -14.1407
 165   2.0000      -0.517319       -14.0770
 166   2.0000      -0.516720       -14.0607
 167   2.0000      -0.513439       -13.9714
 168   2.0000      -0.512028       -13.9330
 169   2.0000      -0.507668       -13.8143
 170   2.0000      -0.503806       -13.7093
 171   2.0000      -0.501705       -13.6521
 172   2.0000      -0.499189       -13.5836
 173   2.0000      -0.496167       -13.5014
 174   2.0000      -0.492517       -13.4021
 175   2.0000      -0.490445       -13.3457
 176   2.0000      -0.488872       -13.3029
 177   2.0000      -0.486725       -13.2445
 178   2.0000      -0.485613       -13.2142
 179   2.0000      -0.481145       -13.0926
 180   2.0000      -0.478597       -13.0233
 181   2.0000      -0.472923       -12.8689
 182   2.0000      -0.469295       -12.7702
 183   2.0000      -0.466584       -12.6964
 184   2.0000      -0.464498       -12.6396
 185   2.0000      -0.463137       -12.6026
 186   2.0000      -0.452547       -12.3144
 187   2.0000      -0.451075       -12.2744
 188   2.0000      -0.449157       -12.2222
 189   2.0000      -0.447748       -12.1838
 190   2.0000      -0.447352       -12.1731
 191   2.0000      -0.446600       -12.1526
 192   2.0000      -0.444231       -12.0882
 193   2.0000      -0.443810       -12.0767
 194   2.0000      -0.443069       -12.0565
 195   2.0000      -0.442471       -12.0402
 196   2.0000      -0.440963       -11.9992
 197   2.0000      -0.437215       -11.8972
 198   2.0000      -0.437089       -11.8938
 199   2.0000      -0.436605       -11.8806
 200   2.0000      -0.434299       -11.8179
 201   2.0000      -0.432965       -11.7816
 202   2.0000      -0.429506       -11.6874
 203   2.0000      -0.425489       -11.5781
 204   2.0000      -0.423537       -11.5250
 205   2.0000      -0.419377       -11.4118
 206   2.0000      -0.418687       -11.3930
 207   2.0000      -0.415062       -11.2944
 208   2.0000      -0.412846       -11.2341
 209   2.0000      -0.409191       -11.1346
 210   2.0000      -0.405728       -11.0404
 211   2.0000      -0.394444       -10.7334
 212   2.0000      -0.392331       -10.6759
 213   2.0000      -0.389996       -10.6123
 214   2.0000      -0.380010       -10.3406
 215   2.0000      -0.378101       -10.2887
 216   2.0000      -0.369620       -10.0579
 217   2.0000      -0.360395        -9.8068
 218   2.0000      -0.355805        -9.6819
 219   2.0000      -0.346599        -9.4314
 220   2.0000      -0.342755        -9.3268
 221   2.0000      -0.340783        -9.2732
 222   2.0000      -0.335057        -9.1174
 223   2.0000      -0.329580        -8.9683
 224   2.0000      -0.325648        -8.8613
 225   2.0000      -0.320741        -8.7278
 226   2.0000      -0.319769        -8.7014
 227   2.0000      -0.311376        -8.4730
 228   2.0000      -0.299731        -8.1561
 229   2.0000      -0.295189        -8.0325
 230   2.0000      -0.283684        -7.7194
 231   2.0000      -0.273547        -7.4436
 232   0.0000      -0.100498        -2.7347
 233   0.0000      -0.099345        -2.7033
 234   0.0000      -0.063535        -1.7289
 235   0.0000      -0.061300        -1.6681
 236   0.0000      -0.049824        -1.3558

MULLIKEN ATOMIC CHARGES
-----------------------
   0 C :    0.302472
   1 C :   -0.344308
   2 C :   -0.182328
   3 N :    0.148088
   4 C :   -0.199357
   5 N :    0.159090
   6 C :    0.045903
   7 C :   -0.002427
   8 C :   -0.077784
   9 C :    0.096356
  10 C :    0.092289
  11 C :   -0.076579
  12 C :   -0.015968
  13 C :    0.036594
  14 C :    0.033637
  15 C :   -0.015863
  16 C :    0.162689
  17 O :   -0.153475
  18 C :   -0.086459
  19 C :    0.058936
  20 C :   -0.115380
  21 S :    0.181942
  22 C :   -0.041316
  23 C :   -0.090981
  24 C :    0.040275
  25 C :   -0.155047
  26 N :    0.111369
  27 C :    0.031256
  28 C :   -0.008022
  29 C :    0.042469
  30 C :   -0.158984
  31 C :    0.009716
  32 O :   -0.179116
  33 C :    0.024821
  34 S :    0.150687
  35 C :   -0.102281
  36 C :    0.099885
  37 C :    0.000067
  38 C :    0.082829
  39 C :   -0.127733
  40 S :    0.137096
  41 C :   -0.130563
  42 N :   -0.034756
  43 N :   -0.046844
  44 C :    0.125617
  45 C :    0.000857
  46 C :   -0.005385
  47 C :   -0.076577
  48 C :    0.299734
  49 C :   -0.343489
  50 C :   -0.179262
  51 N :    0.146878
  52 C :   -0.205532
  53 N :    0.162253
  54 C :    0.050991
  55 C :   -0.009124
  56 C :    0.154755
  57 O :   -0.154604
  58 C :   -0.075982
  59 C :    0.095813
  60 C :    0.091988
  61 C :   -0.077997
  62 C :   -0.016567
  63 C :    0.037436
  64 C :    0.032727
  65 C :   -0.012970
  66 H :   -0.013078
  67 H :   -0.006902
  68 H :   -0.008000
  69 H :   -0.004080
  70 H :   -0.003726
  71 H :   -0.018704
  72 H :    0.014375
  73 H :    0.026828
  74 H :    0.010095
  75 H :    0.055967
  76 H :    0.045333
  77 H :    0.044981
  78 H :    0.042626
  79 H :    0.035179
  80 H :    0.016063
  81 H :    0.002146
  82 H :    0.018544
  83 H :    0.026175
  84 H :    0.033788
  85 H :   -0.014897
  86 H :   -0.007874
  87 H :   -0.008410
  88 H :   -0.005152
  89 H :   -0.005201
  90 H :   -0.020535
Sum of atomic charges:   -0.0000000

LOEWDIN ATOMIC CHARGES
----------------------
   0 C :    0.076836
   1 C :   -0.139193
   2 C :   -0.016893
   3 N :   -0.052209
   4 C :   -0.026115
   5 N :   -0.049032
   6 C :   -0.026172
   7 C :   -0.055045
   8 C :    0.032232
   9 C :   -0.008324
  10 C :   -0.006052
  11 C :    0.020543
  12 C :   -0.004557
  13 C :   -0.013023
  14 C :   -0.012444
  15 C :   -0.010400
  16 C :    0.089213
  17 O :   -0.139519
  18 C :   -0.089259
  19 C :    0.048698
  20 C :   -0.181814
  21 S :    0.487794
  22 C :   -0.114152
  23 C :   -0.117901
  24 C :    0.023399
  25 C :   -0.024812
  26 N :   -0.064041
  27 C :   -0.050994
  28 C :    0.035198
  29 C :   -0.016059
  30 C :   -0.221793
  31 C :    0.066757
  32 O :   -0.138862
  33 C :   -0.082370
  34 S :    0.471275
  35 C :   -0.157691
  36 C :   -0.062175
  37 C :    0.020875
  38 C :   -0.053946
  39 C :   -0.141760
  40 S :    0.419038
  41 C :   -0.159847
  42 N :   -0.061578
  43 N :   -0.080153
  44 C :    0.017357
  45 C :   -0.017965
  46 C :    0.068550
  47 C :   -0.086476
  48 C :    0.074642
  49 C :   -0.136113
  50 C :   -0.016285
  51 N :   -0.053149
  52 C :   -0.026567
  53 N :   -0.046885
  54 C :   -0.025846
  55 C :   -0.055500
  56 C :    0.084641
  57 O :   -0.141239
  58 C :    0.031723
  59 C :   -0.008583
  60 C :   -0.006012
  61 C :    0.019590
  62 C :   -0.004799
  63 C :   -0.013306
  64 C :   -0.013261
  65 C :   -0.010208
  66 H :    0.038871
  67 H :    0.039359
  68 H :    0.035264
  69 H :    0.033579
  70 H :    0.032916
  71 H :    0.031441
  72 H :    0.043941
  73 H :    0.042601
  74 H :    0.035694
  75 H :    0.046270
  76 H :    0.042457
  77 H :    0.042887
  78 H :    0.043676
  79 H :    0.031018
  80 H :    0.040879
  81 H :    0.033398
  82 H :    0.036204
  83 H :    0.043407
  84 H :    0.049531
  85 H :    0.038148
  86 H :    0.039089
  87 H :    0.035070
  88 H :    0.033136
  89 H :    0.032356
  90 H :    0.030824

  Mayer bond orders larger than 0.100000
B(  0-C ,  1-C ) :   1.6358 B(  0-C ,  6-C ) :   0.9873 B(  0-C , 18-C ) :   1.0661
B(  1-C ,  2-C ) :   1.1466 B(  1-C ,  4-C ) :   1.1339 B(  2-C ,  3-N ) :   2.9675
B(  4-C ,  5-N ) :   2.9876 B(  6-C ,  7-C ) :   1.2152 B(  6-C , 11-C ) :   1.4497
B(  7-C ,  8-C ) :   1.4710 B(  7-C , 16-C ) :   0.9543 B(  8-C ,  9-C ) :   1.1803
B(  8-C , 66-H ) :   1.0157 B(  9-C , 10-C ) :   1.2560 B(  9-C , 15-C ) :   1.2433
B( 10-C , 11-C ) :   1.2074 B( 10-C , 12-C ) :   1.2405 B( 11-C , 67-H ) :   0.9897
B( 12-C , 13-C ) :   1.4895 B( 12-C , 68-H ) :   0.9970 B( 13-C , 14-C ) :   1.2594
B( 13-C , 69-H ) :   0.9886 B( 14-C , 15-C ) :   1.4887 B( 14-C , 70-H ) :   0.9895
B( 15-C , 71-H ) :   0.9976 B( 16-C , 17-O ) :   2.1717 B( 16-C , 18-C ) :   0.9339
B( 18-C , 19-C ) :   1.6274 B( 19-C , 20-C ) :   1.1845 B( 19-C , 72-H ) :   0.9144
B( 20-C , 21-S ) :   1.0974 B( 20-C , 24-C ) :   1.4568 B( 21-S , 22-C ) :   1.1903
B( 22-C , 23-C ) :   1.4391 B( 22-C , 27-C ) :   1.1067 B( 23-C , 24-C ) :   1.2788
B( 23-C , 25-C ) :   1.1211 B( 24-C , 73-H ) :   0.9799 B( 25-C , 26-N ) :   2.9266
B( 27-C , 28-C ) :   1.7978 B( 27-C , 74-H ) :   0.9516 B( 28-C , 29-C ) :   1.0396
B( 28-C , 75-H ) :   0.9249 B( 29-C , 30-C ) :   1.5409 B( 29-C , 36-C ) :   1.2551
B( 30-C , 31-C ) :   0.9734 B( 30-C , 34-S ) :   1.1183 B( 31-C , 32-O ) :   2.1488
B( 31-C , 33-C ) :   1.0581 B( 33-C , 76-H ) :   0.9523 B( 33-C , 77-H ) :   0.9472
B( 33-C , 78-H ) :   0.9477 B( 34-S , 35-C ) :   1.1965 B( 35-C , 36-C ) :   1.4811
B( 35-C , 79-H ) :   0.9714 B( 36-C , 37-C ) :   1.0536 B( 37-C , 38-C ) :   1.7578
B( 37-C , 80-H ) :   0.9736 B( 38-C , 39-C ) :   1.1095 B( 38-C , 81-H ) :   0.9309
B( 39-C , 40-S ) :   1.1235 B( 39-C , 43-N ) :   1.6675 B( 40-S , 41-C ) :   1.0888
B( 41-C , 42-N ) :   1.6703 B( 41-C , 44-C ) :   1.1244 B( 42-N , 43-N ) :   1.2387
B( 44-C , 45-C ) :   1.7020 B( 44-C , 82-H ) :   0.9277 B( 45-C , 46-C ) :   1.1711
B( 45-C , 83-H ) :   0.9569 B( 46-C , 47-C ) :   1.6020 B( 46-C , 84-H ) :   0.9444
B( 47-C , 48-C ) :   1.0601 B( 47-C , 56-C ) :   0.9351 B( 48-C , 49-C ) :   1.6401
B( 48-C , 54-C ) :   0.9910 B( 49-C , 50-C ) :   1.1442 B( 49-C , 52-C ) :   1.1368
B( 50-C , 51-N ) :   2.9657 B( 52-C , 53-N ) :   2.9967 B( 54-C , 55-C ) :   1.2135
B( 54-C , 61-C ) :   1.4472 B( 55-C , 56-C ) :   0.9504 B( 55-C , 58-C ) :   1.4737
B( 56-C , 57-O ) :   2.1975 B( 58-C , 59-C ) :   1.1801 B( 58-C , 85-H ) :   1.0150
B( 59-C , 60-C ) :   1.2566 B( 59-C , 65-C ) :   1.2448 B( 60-C , 61-C ) :   1.2091
B( 60-C , 62-C ) :   1.2388 B( 61-C , 86-H ) :   0.9897 B( 62-C , 63-C ) :   1.4911
B( 62-C , 87-H ) :   0.9972 B( 63-C , 64-C ) :   1.2589 B( 63-C , 88-H ) :   0.9888
B( 64-C , 65-C ) :   1.4885 B( 64-C , 89-H ) :   0.9895 B( 65-C , 90-H ) :   0.9971

-----------------------------------------------------------------------------
         ABSORPTION SPECTRUM VIA TRANSITION ELECTRIC DIPOLE MOMENTS
-----------------------------------------------------------------------------
State   Energy  Wavelength   fosc         T2         TX        TY        TZ
        (cm-1)    (nm)                  (au**2)     (au)      (au)      (au)
-----------------------------------------------------------------------------
   0   21704.6    460.7   0.763673453  11.58328   0.95777   0.34885   3.24719
   1   23399.7    427.4   1.265029716  17.79777  -3.17339   1.20889   2.50318
   2   26059.0    383.7   0.054609241   0.68990  -0.75393   0.02113   0.34791
   3   26271.9    380.6   0.121366431   1.52084  -0.56249   0.56997   0.93786
   4   26838.7    372.6   0.054188664   0.66470  -0.06080   0.09025   0.80799
   5   27033.1    369.9   0.000428464   0.00522  -0.05545  -0.03747   0.02717
   6   27087.2    369.2   0.266401822   3.23779  -1.15837   0.70174   1.18471
   7   28203.4    354.6   0.070578316   0.82384   0.05376  -0.22479  -0.87774
   8   28482.7    351.1   0.002875154   0.03323  -0.17593  -0.01934   0.04365
   9   28848.5    346.6   0.040271370   0.45957  -0.15908   0.15836   0.63968
  10   29185.4    342.6   0.030810723   0.34755  -0.32558   0.31302   0.37889
  11   30158.1    331.6   0.165615998   1.80790  -1.16058   0.62552   0.26397
  12   30796.8    324.7   0.499869335   5.34350  -0.85297   1.45340   1.58226
  13   31549.5    317.0   0.054331841   0.56694   0.22465   0.44752   0.56232
  14   32614.3    306.6   0.008898173   0.08982  -0.12629   0.13527  -0.23574
  15   33201.3    301.2   0.044911746   0.44533   0.35557  -0.21841   0.52077
  16   33499.0    298.5   0.356325966   3.50180   1.67006  -0.78632  -0.30724
  17   33704.3    296.7   0.350679241   3.42532   0.13531  -0.84579  -1.64062
  18   33805.7    295.8   0.176517080   1.71899  -0.76587   1.06407  -0.01344
  19   33843.9    295.5   0.593454571   5.77275   0.82695  -1.58013  -1.61000
  20   34270.9    291.8   0.074710023   0.71768  -0.33224   0.06421  -0.77664
  21   34323.7    291.3   0.043879040   0.42086  -0.35924   0.46143   0.28088
  22   34480.9    290.0   0.160092435   1.52851  -0.02533   0.30194   1.19862
  23   34699.7    288.2   0.075347383   0.71485   0.46287  -0.44678  -0.54862
  24   35279.9    283.4   0.054500160   0.50856  -0.04213   0.67252  -0.23347
  25   35841.7    279.0   0.071307379   0.65497   0.36338  -0.63091  -0.35338
  26   35934.3    278.3   0.011763980   0.10778   0.31411   0.00797   0.09511
  27   36312.5    275.4   0.122645460   1.11191   0.30992  -0.31193  -0.95842
  28   36478.5    274.1   0.049836148   0.44976   0.23619  -0.30238  -0.55004
  29   36643.5    272.9   0.003913959   0.03516   0.11710  -0.01774  -0.14538
  30   37288.3    268.2   0.041144349   0.36326   0.32413  -0.25020  -0.44226
  31   37869.4    264.1   0.004805049   0.04177  -0.07312  -0.08720   0.16977
  32   38057.0    262.8   0.003860925   0.03340   0.00179  -0.18170  -0.01950
  33   38280.6    261.2   0.036679036   0.31544  -0.20693   0.31523  -0.41623
  34   38434.0    260.2   0.001605822   0.01375   0.03987  -0.06671  -0.08783
  35   38472.4    259.9   0.329057436   2.81578  -0.93345   0.22290  -1.37650
  36   38737.5    258.1   0.011625612   0.09880   0.31043   0.03225   0.03738
  37   38992.6    256.5   0.067592110   0.57068   0.42150   0.55889  -0.28400
  38   39237.8    254.9   0.044245499   0.37123   0.39645   0.43061  -0.16918
  39   40111.9    249.3   0.339523732   2.78658   1.57225  -0.34049   0.44575

FINAL SINGLE POINT ENERGY     -3834.341789430566

DIPOLE MOMENT
-------------
                                X             Y             Z
Electronic contribution:     -8.74734      14.61100       9.16988
Nuclear contribution   :      9.65179     -15.96134      -8.56153
                        -----------------------------------------
Total Dipole Moment    :      0.90445      -1.35034       0.60835
                        -----------------------------------------
Magnitude (a.u.)       :      1.73538
Magnitude (Debye)      :      4.41098

Rotational constants in cm-1:     0.000856     0.000625     0.000381
Rotational constants in MHz :    25.661203    18.738911    11.420315

                             ****ORCA TERMINATED NORMALLY****
TOTAL RUN TIME: 0 days 0 hours 7 minutes 29 seconds 509 msec
