                         Program Version 4.2.0 -  RELEASE  -
|  1> # ORCA input file
|  2> # SCF done       -212.593421673351          0.000649727684
|  3> ! CAM-B3LYP def2-SVP def2/J RIJCOSX Grid4 TightSCF
|  4> %maxcore 5000
|  5> %tddft
|  6>     Mode sTDDFT
|  7>     Ethresh 5.0
|  8>     maxcore 5000
|  9> end
| 10>
| 11> %pal
| 12>   nprocs 6
| 13>   end
| 14> * xyz 0 1
| 15>    C      -15.76424         4.08241         5.34440
| 16>    C      -16.03766         5.41204         5.15139
| 17>    C      -17.12595         6.08232         5.74584
| 18>    N      -17.99007         6.67322         6.21665
| 19>    C      -15.30496         6.23170         4.27097
| 20>    N      -14.74090         6.91508         3.54114
| 21>    C      -16.62549         3.13834         6.04897
| 22>    C      -16.29115         1.81827         5.62670
| 23>    C      -16.95479         0.72417         6.10177
| 24>    C      -17.99050         0.90304         7.04664
| 25>    C      -18.31849         2.21896         7.48425
| 26>    C      -17.62077         3.33511         6.96747
| 27>    C      -19.34657         2.38207         8.43465
| 28>    C      -20.02110         1.29904         8.92913
| 29>    C      -19.69835         0.00402         8.49712
| 30>    C      -18.70545        -0.18963         7.57537
| 31>    C      -15.16389         1.88123         4.68027
| 32>    O      -14.64532         0.97510         4.06988
| 33>    C      -14.73633         3.31179         4.67814
| 34>    C      -13.50488         3.62231         4.19128
| 35>    C      -12.70517         4.76415         4.43617
| 36>    S      -11.31453         5.08067         3.42932
| 37>    C      -10.84530         6.44917         4.37518
| 38>    C      -11.73648         6.62933         5.43912
| 39>    C      -12.77311         5.68473         5.46070
| 40>    C      -11.64959         7.62224         6.42751
| 41>    N      -11.61613         8.40004         7.27206
| 42>    C       -9.66567         7.16581         4.02690
| 43>    C       -9.18096         8.21893         4.71827
| 44>    C       -7.96422         8.93076         4.40321
| 45>    C       -7.50945         9.01948         3.07695
| 46>    C       -6.37070         9.71072         2.72996
| 47>    C       -5.60193        10.33624         3.70636
| 48>    C       -6.01620        10.25744         5.01419
| 49>    C       -7.18760         9.57476         5.37506
| 50>    N       -7.34153         9.63516         6.75415
| 51>    C       -8.31920         8.97589         7.58084
| 52>    C       -6.32480        10.33997         7.34173
| 53>    O       -6.22067        10.53155         8.53195
| 54>    C       -5.34667        10.75976         6.25223
| 55>    C       -4.00577        10.03113         6.52905
| 56>    C       -4.32560         8.54412         6.71133
| 57>    O       -4.78024         7.78541         5.88510
| 58>    N       -4.05567         8.21794         8.00768
| 59>    C       -4.32556         6.92386         8.57176
| 60>    C       -3.54770         9.30001         8.71021
| 61>    C       -3.19941         9.36915        10.04056
| 62>    C       -2.72862        10.58780        10.53735
| 63>    C       -2.59268        11.68106         9.68400
| 64>    C       -2.95074        11.59950         8.34543
| 65>    C       -3.43989        10.40748         7.86128
| 66>    C       -2.43301        10.70428        11.96994
| 67>    C       -2.74359        11.86475        12.66939
| 68>    C       -2.55395        11.94124        14.04102
| 69>    N       -2.97473        13.15437        14.69226
| 70>    O       -3.03104        14.15733        14.01309
| 71>    O       -3.25815        13.10444        15.87146
| 72>    C       -2.04192        10.85993        14.77779
| 73>    C       -1.69915         9.71348        14.05155
| 74>    C       -1.88820         9.63631        12.68970
| 75>    C       -1.84794        10.89447        16.21243
| 76>    C       -2.06812         9.81559        16.99338
| 77>    C       -1.90476         9.85175        18.40472
| 78>    C       -2.18035         8.80661        19.23273
| 79>    C       -2.08563         8.79670        20.68458
| 80>    C       -1.45996         9.72772        21.46949
| 81>    C       -1.39149         9.65485        22.87717
| 82>    N       -1.30271         9.65277        24.02155
| 83>    C       -0.75909        10.85670        20.99383
| 84>    N       -0.14980        11.77928        20.68465
| 85>    C       -2.72574         7.57661        21.16196
| 86>    C       -3.10628         6.79167        20.03620
| 87>    C       -2.74146         7.49755        18.79715
| 88>    O       -2.87628         7.08453        17.66403
| 89>    C       -3.72199         5.58093        20.17452
| 90>    C       -3.99858         5.09273        21.47058
| 91>    C       -3.62958         5.87568        22.60259
| 92>    C       -2.98849         7.12341        22.42818
| 93>    C       -3.91572         5.38127        23.89165
| 94>    C       -4.53503         4.17239        24.05632
| 95>    C       -4.89708         3.40213        22.94089
| 96>    C       -4.63438         3.85238        21.67567
| 97>    H      -16.69145        -0.26708         5.76388
| 98>    H      -17.88209         4.31993         7.32257
| 99>    H      -19.59354         3.38135         8.76190
|100>    H      -20.80777         1.43458         9.65609
|101>    H      -20.23991        -0.83940         8.89856
|102>    H      -18.45241        -1.18451         7.23917
|103>    H      -13.03896         2.83816         3.60169
|104>    H      -13.51466         5.65824         6.23999
|105>    H       -9.12724         6.77796         3.17316
|106>    H       -9.73506         8.56453         5.57391
|107>    H       -8.09884         8.55373         2.30263
|108>    H       -6.06906         9.76246         1.69534
|109>    H       -4.69901        10.86557         3.44289
|110>    H       -9.30605         9.43397         7.49786
|111>    H       -7.97885         9.08467         8.61187
|112>    H       -8.38037         7.91693         7.32666
|113>    H       -5.17797        11.83866         6.25846
|114>    H       -3.32683        10.19290         5.68942
|115>    H       -4.72559         6.29742         7.77514
|116>    H       -5.05888         7.00526         9.37664
|117>    H       -3.40896         6.47605         8.96056
|118>    H       -3.33764         8.52463        10.69631
|119>    H       -2.20061        12.60932        10.06966
|120>    H       -2.85746        12.46310         7.70453
|121>    H       -3.18508        12.71111        12.16530
|122>    H       -1.26162         8.87994        14.57851
|123>    H       -1.59946         8.73663        12.16797
|124>    H       -1.54434        11.82791        16.66746
|125>    H       -2.42722         8.89343        16.56044
|126>    H       -1.57338        10.79140        18.82806
|127>    H       -3.99789         5.00439        19.30394
|128>    H       -2.72652         7.69363        23.30519
|129>    H       -3.63437         5.97726        24.74737
|130>    H       -4.74983         3.80250        25.04765
|131>    H       -5.38541         2.45062        23.08941
|132>    H       -4.91104         3.26413        20.81288
|133> *
|134>
|135>                          ****END OF INPUT****

CARTESIAN COORDINATES (ANGSTROEM)
---------------------------------
  C    -15.764240    4.082410    5.344400
  C    -16.037660    5.412040    5.151390
  C    -17.125950    6.082320    5.745840
  N    -17.990070    6.673220    6.216650
  C    -15.304960    6.231700    4.270970
  N    -14.740900    6.915080    3.541140
  C    -16.625490    3.138340    6.048970
  C    -16.291150    1.818270    5.626700
  C    -16.954790    0.724170    6.101770
  C    -17.990500    0.903040    7.046640
  C    -18.318490    2.218960    7.484250
  C    -17.620770    3.335110    6.967470
  C    -19.346570    2.382070    8.434650
  C    -20.021100    1.299040    8.929130
  C    -19.698350    0.004020    8.497120
  C    -18.705450   -0.189630    7.575370
  C    -15.163890    1.881230    4.680270
  O    -14.645320    0.975100    4.069880
  C    -14.736330    3.311790    4.678140
  C    -13.504880    3.622310    4.191280
  C    -12.705170    4.764150    4.436170
  S    -11.314530    5.080670    3.429320
  C    -10.845300    6.449170    4.375180
  C    -11.736480    6.629330    5.439120
  C    -12.773110    5.684730    5.460700
  C    -11.649590    7.622240    6.427510
  N    -11.616130    8.400040    7.272060
  C     -9.665670    7.165810    4.026900
  C     -9.180960    8.218930    4.718270
  C     -7.964220    8.930760    4.403210
  C     -7.509450    9.019480    3.076950
  C     -6.370700    9.710720    2.729960
  C     -5.601930   10.336240    3.706360
  C     -6.016200   10.257440    5.014190
  C     -7.187600    9.574760    5.375060
  N     -7.341530    9.635160    6.754150
  C     -8.319200    8.975890    7.580840
  C     -6.324800   10.339970    7.341730
  O     -6.220670   10.531550    8.531950
  C     -5.346670   10.759760    6.252230
  C     -4.005770   10.031130    6.529050
  C     -4.325600    8.544120    6.711330
  O     -4.780240    7.785410    5.885100
  N     -4.055670    8.217940    8.007680
  C     -4.325560    6.923860    8.571760
  C     -3.547700    9.300010    8.710210
  C     -3.199410    9.369150   10.040560
  C     -2.728620   10.587800   10.537350
  C     -2.592680   11.681060    9.684000
  C     -2.950740   11.599500    8.345430
  C     -3.439890   10.407480    7.861280
  C     -2.433010   10.704280   11.969940
  C     -2.743590   11.864750   12.669390
  C     -2.553950   11.941240   14.041020
  N     -2.974730   13.154370   14.692260
  O     -3.031040   14.157330   14.013090
  O     -3.258150   13.104440   15.871460
  C     -2.041920   10.859930   14.777790
  C     -1.699150    9.713480   14.051550
  C     -1.888200    9.636310   12.689700
  C     -1.847940   10.894470   16.212430
  C     -2.068120    9.815590   16.993380
  C     -1.904760    9.851750   18.404720
  C     -2.180350    8.806610   19.232730
  C     -2.085630    8.796700   20.684580
  C     -1.459960    9.727720   21.469490
  C     -1.391490    9.654850   22.877170
  N     -1.302710    9.652770   24.021550
  C     -0.759090   10.856700   20.993830
  N     -0.149800   11.779280   20.684650
  C     -2.725740    7.576610   21.161960
  C     -3.106280    6.791670   20.036200
  C     -2.741460    7.497550   18.797150
  O     -2.876280    7.084530   17.664030
  C     -3.721990    5.580930   20.174520
  C     -3.998580    5.092730   21.470580
  C     -3.629580    5.875680   22.602590
  C     -2.988490    7.123410   22.428180
  C     -3.915720    5.381270   23.891650
  C     -4.535030    4.172390   24.056320
  C     -4.897080    3.402130   22.940890
  C     -4.634380    3.852380   21.675670
  H    -16.691450   -0.267080    5.763880
  H    -17.882090    4.319930    7.322570
  H    -19.593540    3.381350    8.761900
  H    -20.807770    1.434580    9.656090
  H    -20.239910   -0.839400    8.898560
  H    -18.452410   -1.184510    7.239170
  H    -13.038960    2.838160    3.601690
  H    -13.514660    5.658240    6.239990
  H     -9.127240    6.777960    3.173160
  H     -9.735060    8.564530    5.573910
  H     -8.098840    8.553730    2.302630
  H     -6.069060    9.762460    1.695340
  H     -4.699010   10.865570    3.442890
  H     -9.306050    9.433970    7.497860
  H     -7.978850    9.084670    8.611870
  H     -8.380370    7.916930    7.326660
  H     -5.177970   11.838660    6.258460
  H     -3.326830   10.192900    5.689420
  H     -4.725590    6.297420    7.775140
  H     -5.058880    7.005260    9.376640
  H     -3.408960    6.476050    8.960560
  H     -3.337640    8.524630   10.696310
  H     -2.200610   12.609320   10.069660
  H     -2.857460   12.463100    7.704530
  H     -3.185080   12.711110   12.165300
  H     -1.261620    8.879940   14.578510
  H     -1.599460    8.736630   12.167970
  H     -1.544340   11.827910   16.667460
  H     -2.427220    8.893430   16.560440
  H     -1.573380   10.791400   18.828060
  H     -3.997890    5.004390   19.303940
  H     -2.726520    7.693630   23.305190
  H     -3.634370    5.977260   24.747370
  H     -4.749830    3.802500   25.047650
  H     -5.385410    2.450620   23.089410
  H     -4.911040    3.264130   20.812880

 Total Charge           Charge          ....    0
 Multiplicity           Mult            ....    1
 Number of Electrons    NEL             ....  558
 Basis Dimension        Dim             .... 1332

ORBITAL ENERGIES
----------------

  NO   OCC          E(Eh)            E(eV)
   0   2.0000     -88.983682     -2421.3691
   1   2.0000     -19.247004      -523.7376
   2   2.0000     -19.245020      -523.6836
   3   2.0000     -19.216722      -522.9136
   4   2.0000     -19.216612      -522.9106
   5   2.0000     -19.195888      -522.3467
   6   2.0000     -19.195695      -522.3414
   7   2.0000     -14.651305      -398.6823
   8   2.0000     -14.458893      -393.4465
   9   2.0000     -14.458304      -393.4305
  10   2.0000     -14.418286      -392.3415
  11   2.0000     -14.417826      -392.3290
  12   2.0000     -14.417587      -392.3225
  13   2.0000     -14.413547      -392.2126
  14   2.0000     -14.412805      -392.1924
  15   2.0000     -10.379298      -282.4351
  16   2.0000     -10.377482      -282.3857
  17   2.0000     -10.368300      -282.1358
  18   2.0000     -10.367308      -282.1088
  19   2.0000     -10.346121      -281.5323
  20   2.0000     -10.344704      -281.4937
  21   2.0000     -10.343931      -281.4727
  22   2.0000     -10.340451      -281.3780
  23   2.0000     -10.338634      -281.3285
  24   2.0000     -10.336129      -281.2604
  25   2.0000     -10.326983      -281.0115
  26   2.0000     -10.325603      -280.9739
  27   2.0000     -10.323942      -280.9287
  28   2.0000     -10.322405      -280.8869
  29   2.0000     -10.320010      -280.8218
  30   2.0000     -10.319841      -280.8171
  31   2.0000     -10.318966      -280.7934
  32   2.0000     -10.317822      -280.7622
  33   2.0000     -10.316002      -280.7127
  34   2.0000     -10.315587      -280.7014
  35   2.0000     -10.313670      -280.6492
  36   2.0000     -10.313591      -280.6471
  37   2.0000     -10.313196      -280.6363
  38   2.0000     -10.311845      -280.5996
  39   2.0000     -10.305848      -280.4364
  40   2.0000     -10.305010      -280.4136
  41   2.0000     -10.304592      -280.4022
  42   2.0000     -10.303313      -280.3674
  43   2.0000     -10.302737      -280.3517
  44   2.0000     -10.302270      -280.3390
  45   2.0000     -10.301914      -280.3293
  46   2.0000     -10.299982      -280.2768
  47   2.0000     -10.299757      -280.2706
  48   2.0000     -10.299712      -280.2694
  49   2.0000     -10.299413      -280.2613
  50   2.0000     -10.299385      -280.2605
  51   2.0000     -10.299179      -280.2549
  52   2.0000     -10.298663      -280.2409
  53   2.0000     -10.297365      -280.2056
  54   2.0000     -10.297078      -280.1977
  55   2.0000     -10.297071      -280.1976
  56   2.0000     -10.297066      -280.1974
  57   2.0000     -10.296716      -280.1879
  58   2.0000     -10.296273      -280.1758
  59   2.0000     -10.296180      -280.1733
  60   2.0000     -10.295759      -280.1619
  61   2.0000     -10.291704      -280.0515
  62   2.0000     -10.290428      -280.0168
  63   2.0000     -10.289784      -279.9993
  64   2.0000     -10.288446      -279.9628
  65   2.0000     -10.288002      -279.9508
  66   2.0000     -10.287802      -279.9453
  67   2.0000     -10.287745      -279.9438
  68   2.0000     -10.287254      -279.9304
  69   2.0000     -10.286460      -279.9088
  70   2.0000     -10.285923      -279.8942
  71   2.0000     -10.285643      -279.8866
  72   2.0000     -10.285046      -279.8703
  73   2.0000     -10.283168      -279.8192
  74   2.0000     -10.281988      -279.7871
  75   2.0000     -10.281358      -279.7700
  76   2.0000     -10.281264      -279.7674
  77   2.0000     -10.280611      -279.7496
  78   2.0000     -10.279833      -279.7285
  79   2.0000     -10.279000      -279.7058
  80   2.0000     -10.274162      -279.5742
  81   2.0000     -10.271477      -279.5011
  82   2.0000      -8.079440      -219.8527
  83   2.0000      -6.048565      -164.5898
  84   2.0000      -6.044520      -164.4797
  85   2.0000      -6.041700      -164.4030
  86   2.0000      -1.327024       -36.1102
  87   2.0000      -1.145652       -31.1748
  88   2.0000      -1.145274       -31.1645
  89   2.0000      -1.135233       -30.8913
  90   2.0000      -1.132153       -30.8074
  91   2.0000      -1.130875       -30.7727
  92   2.0000      -1.065353       -28.9897
  93   2.0000      -1.060100       -28.8468
  94   2.0000      -1.025309       -27.9001
  95   2.0000      -1.018187       -27.7063
  96   2.0000      -1.016048       -27.6481
  97   2.0000      -1.000658       -27.2293
  98   2.0000      -0.997952       -27.1557
  99   2.0000      -0.997082       -27.1320
 100   2.0000      -0.995739       -27.0954
 101   2.0000      -0.995027       -27.0761
 102   2.0000      -0.991623       -26.9834
 103   2.0000      -0.973778       -26.4979
 104   2.0000      -0.970572       -26.4106
 105   2.0000      -0.961973       -26.1766
 106   2.0000      -0.956244       -26.0207
 107   2.0000      -0.939115       -25.5546
 108   2.0000      -0.930568       -25.3220
 109   2.0000      -0.928263       -25.2593
 110   2.0000      -0.920262       -25.0416
 111   2.0000      -0.916686       -24.9443
 112   2.0000      -0.908852       -24.7311
 113   2.0000      -0.900944       -24.5159
 114   2.0000      -0.894549       -24.3419
 115   2.0000      -0.886632       -24.1265
 116   2.0000      -0.883238       -24.0341
 117   2.0000      -0.881120       -23.9765
 118   2.0000      -0.879595       -23.9350
 119   2.0000      -0.873096       -23.7582
 120   2.0000      -0.867981       -23.6190
 121   2.0000      -0.851508       -23.1707
 122   2.0000      -0.847266       -23.0553
 123   2.0000      -0.841249       -22.8915
 124   2.0000      -0.830503       -22.5991
 125   2.0000      -0.827640       -22.5212
 126   2.0000      -0.825435       -22.4612
 127   2.0000      -0.812425       -22.1072
 128   2.0000      -0.807793       -21.9812
 129   2.0000      -0.803708       -21.8700
 130   2.0000      -0.797565       -21.7028
 131   2.0000      -0.789002       -21.4698
 132   2.0000      -0.776445       -21.1281
 133   2.0000      -0.762849       -20.7582
 134   2.0000      -0.760534       -20.6952
 135   2.0000      -0.759809       -20.6755
 136   2.0000      -0.741448       -20.1758
 137   2.0000      -0.734222       -19.9792
 138   2.0000      -0.728943       -19.8356
 139   2.0000      -0.713548       -19.4166
 140   2.0000      -0.708349       -19.2752
 141   2.0000      -0.706768       -19.2321
 142   2.0000      -0.706041       -19.2124
 143   2.0000      -0.703105       -19.1325
 144   2.0000      -0.702978       -19.1290
 145   2.0000      -0.696774       -18.9602
 146   2.0000      -0.692362       -18.8401
 147   2.0000      -0.691299       -18.8112
 148   2.0000      -0.679709       -18.4958
 149   2.0000      -0.677811       -18.4442
 150   2.0000      -0.676945       -18.4206
 151   2.0000      -0.671673       -18.2771
 152   2.0000      -0.660338       -17.9687
 153   2.0000      -0.659214       -17.9381
 154   2.0000      -0.655330       -17.8324
 155   2.0000      -0.646478       -17.5916
 156   2.0000      -0.640354       -17.4249
 157   2.0000      -0.635197       -17.2846
 158   2.0000      -0.634629       -17.2691
 159   2.0000      -0.627172       -17.0662
 160   2.0000      -0.621935       -16.9237
 161   2.0000      -0.618383       -16.8270
 162   2.0000      -0.610218       -16.6049
 163   2.0000      -0.609824       -16.5942
 164   2.0000      -0.607840       -16.5402
 165   2.0000      -0.606144       -16.4940
 166   2.0000      -0.604633       -16.4529
 167   2.0000      -0.600062       -16.3285
 168   2.0000      -0.598115       -16.2755
 169   2.0000      -0.589575       -16.0431
 170   2.0000      -0.588797       -16.0220
 171   2.0000      -0.586436       -15.9577
 172   2.0000      -0.583039       -15.8653
 173   2.0000      -0.575216       -15.6524
 174   2.0000      -0.568932       -15.4814
 175   2.0000      -0.562657       -15.3107
 176   2.0000      -0.557154       -15.1609
 177   2.0000      -0.555764       -15.1231
 178   2.0000      -0.554754       -15.0956
 179   2.0000      -0.553666       -15.0660
 180   2.0000      -0.548457       -14.9243
 181   2.0000      -0.546475       -14.8703
 182   2.0000      -0.545686       -14.8489
 183   2.0000      -0.544659       -14.8209
 184   2.0000      -0.540603       -14.7106
 185   2.0000      -0.538953       -14.6657
 186   2.0000      -0.537518       -14.6266
 187   2.0000      -0.534989       -14.5578
 188   2.0000      -0.534738       -14.5509
 189   2.0000      -0.533563       -14.5190
 190   2.0000      -0.531953       -14.4752
 191   2.0000      -0.529564       -14.4102
 192   2.0000      -0.527906       -14.3650
 193   2.0000      -0.524028       -14.2595
 194   2.0000      -0.521860       -14.2005
 195   2.0000      -0.520168       -14.1545
 196   2.0000      -0.519411       -14.1339
 197   2.0000      -0.517243       -14.0749
 198   2.0000      -0.516355       -14.0507
 199   2.0000      -0.513802       -13.9813
 200   2.0000      -0.513474       -13.9723
 201   2.0000      -0.512825       -13.9547
 202   2.0000      -0.506602       -13.7853
 203   2.0000      -0.502937       -13.6856
 204   2.0000      -0.498158       -13.5556
 205   2.0000      -0.497715       -13.5435
 206   2.0000      -0.495167       -13.4742
 207   2.0000      -0.491878       -13.3847
 208   2.0000      -0.490390       -13.3442
 209   2.0000      -0.488915       -13.3041
 210   2.0000      -0.486648       -13.2424
 211   2.0000      -0.485437       -13.2094
 212   2.0000      -0.483859       -13.1665
 213   2.0000      -0.482296       -13.1239
 214   2.0000      -0.480149       -13.0655
 215   2.0000      -0.477959       -13.0059
 216   2.0000      -0.477204       -12.9854
 217   2.0000      -0.471880       -12.8405
 218   2.0000      -0.470405       -12.8004
 219   2.0000      -0.467333       -12.7168
 220   2.0000      -0.465004       -12.6534
 221   2.0000      -0.462797       -12.5934
 222   2.0000      -0.460330       -12.5262
 223   2.0000      -0.456778       -12.4296
 224   2.0000      -0.455571       -12.3967
 225   2.0000      -0.453200       -12.3322
 226   2.0000      -0.452069       -12.3014
 227   2.0000      -0.450901       -12.2696
 228   2.0000      -0.449249       -12.2247
 229   2.0000      -0.448558       -12.2059
 230   2.0000      -0.446339       -12.1455
 231   2.0000      -0.445441       -12.1211
 232   2.0000      -0.444744       -12.1021
 233   2.0000      -0.442702       -12.0465
 234   2.0000      -0.441832       -12.0229
 235   2.0000      -0.439128       -11.9493
 236   2.0000      -0.438680       -11.9371
 237   2.0000      -0.435713       -11.8563
 238   2.0000      -0.434012       -11.8101
 239   2.0000      -0.432899       -11.7798
 240   2.0000      -0.431655       -11.7459
 241   2.0000      -0.431551       -11.7431
 242   2.0000      -0.429775       -11.6948
 243   2.0000      -0.429641       -11.6911
 244   2.0000      -0.426792       -11.6136
 245   2.0000      -0.424032       -11.5385
 246   2.0000      -0.421679       -11.4745
 247   2.0000      -0.418393       -11.3850
 248   2.0000      -0.417900       -11.3716
 249   2.0000      -0.411426       -11.1955
 250   2.0000      -0.408275       -11.1097
 251   2.0000      -0.405101       -11.0234
 252   2.0000      -0.400815       -10.9067
 253   2.0000      -0.393372       -10.7042
 254   2.0000      -0.389500       -10.5988
 255   2.0000      -0.384845       -10.4722
 256   2.0000      -0.383414       -10.4332
 257   2.0000      -0.378788       -10.3074
 258   2.0000      -0.377999       -10.2859
 259   2.0000      -0.374177       -10.1819
 260   2.0000      -0.369740       -10.0611
 261   2.0000      -0.361437        -9.8352
 262   2.0000      -0.357279        -9.7221
 263   2.0000      -0.348680        -9.4881
 264   2.0000      -0.344754        -9.3812
 265   2.0000      -0.342590        -9.3224
 266   2.0000      -0.339715        -9.2441
 267   2.0000      -0.337778        -9.1914
 268   2.0000      -0.334583        -9.1045
 269   2.0000      -0.323326        -8.7981
 270   2.0000      -0.320605        -8.7241
 271   2.0000      -0.316965        -8.6250
 272   2.0000      -0.315038        -8.5726
 273   2.0000      -0.298973        -8.1355
 274   2.0000      -0.297473        -8.0946
 275   2.0000      -0.290218        -7.8972
 276   2.0000      -0.287337        -7.8188
 277   2.0000      -0.277102        -7.5403
 278   2.0000      -0.264867        -7.2074
 279   0.0000      -0.098530        -2.6811
 280   0.0000      -0.094368        -2.5679
 281   0.0000      -0.061745        -1.6802
 282   0.0000      -0.058228        -1.5845
 283   0.0000      -0.048243        -1.3127

MULLIKEN ATOMIC CHARGES
-----------------------
   0 C :    0.263559
   1 C :   -0.336682
   2 C :   -0.172270
   3 N :    0.158908
   4 C :   -0.199760
   5 N :    0.171991
   6 C :    0.032451
   7 C :    0.013256
   8 C :   -0.078622
   9 C :    0.093038
  10 C :    0.091090
  11 C :   -0.078174
  12 C :   -0.015126
  13 C :    0.033133
  14 C :    0.036187
  15 C :   -0.013228
  16 C :    0.139292
  17 O :   -0.142499
  18 C :   -0.143004
  19 C :    0.102574
  20 C :   -0.112316
  21 S :    0.176165
  22 C :   -0.032462
  23 C :   -0.099470
  24 C :    0.058719
  25 C :   -0.164503
  26 N :    0.112952
  27 C :    0.042425
  28 C :   -0.049464
  29 C :    0.033809
  30 C :   -0.025644
  31 C :    0.036877
  32 C :   -0.037591
  33 C :    0.018513
  34 C :    0.178583
  35 N :   -0.232225
  36 C :    0.103485
  37 C :    0.091645
  38 O :   -0.193724
  39 C :    0.033003
  40 C :    0.017693
  41 C :    0.094780
  42 O :   -0.197463
  43 N :   -0.223711
  44 C :    0.120828
  45 C :    0.227573
  46 C :   -0.148197
  47 C :    0.112089
  48 C :   -0.019756
  49 C :   -0.040746
  50 C :    0.029641
  51 C :    0.082792
  52 C :   -0.061680
  53 C :    0.153229
  54 N :    0.244100
  55 O :   -0.228749
  56 O :   -0.231512
  57 C :    0.041601
  58 C :   -0.023639
  59 C :    0.011710
  60 C :    0.040422
  61 C :   -0.014218
  62 C :   -0.031754
  63 C :   -0.069678
  64 C :    0.322032
  65 C :   -0.341581
  66 C :   -0.182118
  67 N :    0.146897
  68 C :   -0.198459
  69 N :    0.154633
  70 C :    0.044929
  71 C :    0.002795
  72 C :    0.151373
  73 O :   -0.156975
  74 C :   -0.080417
  75 C :    0.098192
  76 C :    0.095564
  77 C :   -0.081912
  78 C :   -0.017724
  79 C :    0.035228
  80 C :    0.037868
  81 C :   -0.016160
  82 H :   -0.011749
  83 H :   -0.005302
  84 H :   -0.010297
  85 H :   -0.002729
  86 H :   -0.004430
  87 H :   -0.017419
  88 H :    0.023486
  89 H :    0.014055
  90 H :   -0.012089
  91 H :    0.007612
  92 H :   -0.021261
  93 H :   -0.017775
  94 H :   -0.030076
  95 H :    0.067976
  96 H :    0.049560
  97 H :    0.039230
  98 H :    0.043281
  99 H :    0.039892
 100 H :    0.055378
 101 H :    0.040085
 102 H :    0.032051
 103 H :   -0.040933
 104 H :   -0.019876
 105 H :   -0.029524
 106 H :    0.007260
 107 H :    0.000278
 108 H :   -0.009452
 109 H :    0.028864
 110 H :    0.031686
 111 H :    0.020778
 112 H :   -0.015663
 113 H :   -0.008359
 114 H :   -0.009007
 115 H :   -0.005188
 116 H :   -0.005809
 117 H :   -0.018949
Sum of atomic charges:   -0.0000000

LOEWDIN ATOMIC CHARGES
----------------------
   0 C :    0.064957
   1 C :   -0.140085
   2 C :   -0.020391
   3 N :   -0.048324
   4 C :   -0.019123
   5 N :   -0.041071
   6 C :   -0.023871
   7 C :   -0.057639
   8 C :    0.033446
   9 C :   -0.009172
  10 C :   -0.005489
  11 C :    0.016621
  12 C :   -0.005738
  13 C :   -0.012441
  14 C :   -0.012448
  15 C :   -0.008977
  16 C :    0.083725
  17 O :   -0.143298
  18 C :   -0.089716
  19 C :    0.047824
  20 C :   -0.188325
  21 S :    0.484585
  22 C :   -0.110697
  23 C :   -0.115485
  24 C :    0.016903
  25 C :   -0.020142
  26 N :   -0.061453
  27 C :   -0.060993
  28 C :    0.027130
  29 C :   -0.057110
  30 C :    0.001459
  31 C :   -0.032801
  32 C :   -0.004546
  33 C :   -0.034938
  34 C :    0.055778
  35 N :   -0.003146
  36 C :    0.028360
  37 C :    0.073365
  38 O :   -0.185108
  39 C :   -0.018649
  40 C :   -0.018242
  41 C :    0.071071
  42 O :   -0.192776
  43 N :   -0.005658
  44 C :    0.033479
  45 C :    0.043273
  46 C :   -0.049142
  47 C :   -0.008743
  48 C :   -0.028823
  49 C :   -0.007395
  50 C :   -0.033246
  51 C :   -0.003178
  52 C :    0.010229
  53 C :   -0.020325
  54 N :    0.285101
  55 O :   -0.196417
  56 O :   -0.190837
  57 C :   -0.015035
  58 C :    0.002116
  59 C :    0.004699
  60 C :    0.040916
  61 C :   -0.031618
  62 C :    0.076168
  63 C :   -0.089846
  64 C :    0.075757
  65 C :   -0.136129
  66 C :   -0.016740
  67 N :   -0.053310
  68 C :   -0.022078
  69 N :   -0.048892
  70 C :   -0.025126
  71 C :   -0.055393
  72 C :    0.087110
  73 O :   -0.147577
  74 C :    0.031612
  75 C :   -0.008383
  76 C :   -0.005920
  77 C :    0.019656
  78 C :   -0.004989
  79 C :   -0.013375
  80 C :   -0.012516
  81 C :   -0.010039
  82 H :    0.039448
  83 H :    0.038840
  84 H :    0.034509
  85 H :    0.033667
  86 H :    0.033039
  87 H :    0.031873
  88 H :    0.046462
  89 H :    0.042599
  90 H :    0.030282
  91 H :    0.036249
  92 H :    0.028842
  93 H :    0.029148
  94 H :    0.027964
  95 H :    0.030407
  96 H :    0.038568
  97 H :    0.028495
  98 H :    0.049819
  99 H :    0.047723
 100 H :    0.040108
 101 H :    0.029457
 102 H :    0.027293
 103 H :    0.026745
 104 H :    0.028593
 105 H :    0.029153
 106 H :    0.042032
 107 H :    0.039091
 108 H :    0.034175
 109 H :    0.036467
 110 H :    0.032620
 111 H :    0.044729
 112 H :    0.038099
 113 H :    0.039065
 114 H :    0.034939
 115 H :    0.033082
 116 H :    0.032589
 117 H :    0.031413

  Mayer bond orders larger than 0.100000
B(  0-C ,  1-C ) :   1.6506 B(  0-C ,  6-C ) :   0.9977 B(  0-C , 18-C ) :   1.0355
B(  1-C ,  2-C ) :   1.1297 B(  1-C ,  4-C ) :   1.1667 B(  2-C ,  3-N ) :   2.9901
B(  4-C ,  5-N ) :   2.9942 B(  6-C ,  7-C ) :   1.2148 B(  6-C , 11-C ) :   1.4605
B(  7-C ,  8-C ) :   1.4737 B(  7-C , 16-C ) :   0.9211 B(  8-C ,  9-C ) :   1.1860
B(  8-C , 82-H ) :   1.0164 B(  9-C , 10-C ) :   1.2580 B(  9-C , 15-C ) :   1.2434
B( 10-C , 11-C ) :   1.2024 B( 10-C , 12-C ) :   1.2435 B( 11-C , 83-H ) :   0.9950
B( 12-C , 13-C ) :   1.4882 B( 12-C , 84-H ) :   0.9980 B( 13-C , 14-C ) :   1.2605
B( 13-C , 85-H ) :   0.9896 B( 14-C , 15-C ) :   1.4892 B( 14-C , 86-H ) :   0.9889
B( 15-C , 87-H ) :   0.9982 B( 16-C , 17-O ) :   2.2687 B( 16-C , 18-C ) :   0.9377
B( 18-C , 19-C ) :   1.6842 B( 19-C , 20-C ) :   1.1155 B( 19-C , 88-H ) :   0.9277
B( 20-C , 21-S ) :   1.1008 B( 20-C , 24-C ) :   1.4445 B( 21-S , 22-C ) :   1.1708
B( 22-C , 23-C ) :   1.4195 B( 22-C , 27-C ) :   1.1375 B( 23-C , 24-C ) :   1.3373
B( 23-C , 25-C ) :   1.1230 B( 24-C , 89-H ) :   0.9930 B( 25-C , 26-N ) :   2.9552
B( 27-C , 28-C ) :   1.7093 B( 27-C , 90-H ) :   0.9485 B( 28-C , 29-C ) :   1.0525
B( 28-C , 91-H ) :   0.9528 B( 29-C , 30-C ) :   1.3203 B( 29-C , 34-C ) :   1.3547
B( 30-C , 31-C ) :   1.4264 B( 30-C , 92-H ) :   0.9892 B( 31-C , 32-C ) :   1.3059
B( 31-C , 93-H ) :   0.9869 B( 32-C , 33-C ) :   1.4468 B( 32-C , 94-H ) :   1.0040
B( 33-C , 34-C ) :   1.3394 B( 33-C , 39-C ) :   0.9816 B( 34-C , 35-N ) :   1.0669
B( 35-N , 36-C ) :   0.9440 B( 35-N , 37-C ) :   1.1383 B( 36-C , 95-H ) :   0.9607
B( 36-C , 96-H ) :   0.9445 B( 36-C , 97-H ) :   0.9668 B( 37-C , 38-O ) :   2.1192
B( 37-C , 39-C ) :   0.9087 B( 39-C , 40-C ) :   1.0362 B( 39-C , 98-H ) :   0.8809
B( 40-C , 41-C ) :   0.9066 B( 40-C , 50-C ) :   0.9822 B( 40-C , 99-H ) :   0.8846
B( 41-C , 42-O ) :   2.1294 B( 41-C , 43-N ) :   1.1411 B( 43-N , 44-C ) :   0.9664
B( 43-N , 45-C ) :   1.0363 B( 44-C ,100-H ) :   0.9576 B( 44-C ,101-H ) :   0.9707
B( 44-C ,102-H ) :   0.9723 B( 45-C , 46-C ) :   1.3696 B( 45-C , 50-C ) :   1.3538
B( 46-C , 47-C ) :   1.3029 B( 46-C ,103-H ) :   1.0015 B( 47-C , 48-C ) :   1.4103
B( 47-C , 51-C ) :   0.9639 B( 48-C , 49-C ) :   1.3390 B( 48-C ,104-H ) :   0.9892
B( 49-C , 50-C ) :   1.4288 B( 49-C ,105-H ) :   1.0026 B( 51-C , 52-C ) :   1.3396
B( 51-C , 59-C ) :   1.3525 B( 52-C , 53-C ) :   1.3709 B( 52-C ,106-H ) :   0.9924
B( 53-C , 54-N ) :   0.8791 B( 53-C , 57-C ) :   1.3556 B( 54-N , 55-O ) :   1.5604
B( 54-N , 56-O ) :   1.5209 B( 55-O , 56-O ) :   0.2662 B( 57-C , 58-C ) :   1.3549
B( 57-C , 60-C ) :   1.0278 B( 58-C , 59-C ) :   1.3826 B( 58-C ,107-H ) :   0.9919
B( 59-C ,108-H ) :   0.9930 B( 60-C , 61-C ) :   1.6629 B( 60-C ,109-H ) :   0.9540
B( 61-C , 62-C ) :   1.1414 B( 61-C ,110-H ) :   0.9725 B( 62-C , 63-C ) :   1.5821
B( 62-C ,111-H ) :   0.9641 B( 63-C , 64-C ) :   1.0462 B( 63-C , 72-C ) :   0.9399
B( 64-C , 65-C ) :   1.6464 B( 64-C , 70-C ) :   0.9899 B( 65-C , 66-C ) :   1.1412
B( 65-C , 68-C ) :   1.1408 B( 66-C , 67-N ) :   2.9674 B( 68-C , 69-N ) :   2.9827
B( 70-C , 71-C ) :   1.2170 B( 70-C , 77-C ) :   1.4477 B( 71-C , 72-C ) :   0.9451
B( 71-C , 74-C ) :   1.4691 B( 72-C , 73-O ) :   2.1923 B( 74-C , 75-C ) :   1.1799
B( 74-C ,112-H ) :   1.0159 B( 75-C , 76-C ) :   1.2580 B( 75-C , 81-C ) :   1.2422
B( 76-C , 77-C ) :   1.2068 B( 76-C , 78-C ) :   1.2376 B( 77-C ,113-H ) :   0.9901
B( 78-C , 79-C ) :   1.4905 B( 78-C ,114-H ) :   0.9975 B( 79-C , 80-C ) :   1.2595
B( 79-C ,115-H ) :   0.9886 B( 80-C , 81-C ) :   1.4888 B( 80-C ,116-H ) :   0.9884
B( 81-C ,117-H ) :   0.9978

-----------------------------------------------------------------------------
         ABSORPTION SPECTRUM VIA TRANSITION ELECTRIC DIPOLE MOMENTS
-----------------------------------------------------------------------------
State   Energy  Wavelength   fosc         T2         TX        TY        TZ
        (cm-1)    (nm)                  (au**2)     (au)      (au)      (au)
-----------------------------------------------------------------------------
   0   20199.8    495.1   0.947931696  15.44917   3.46174   1.86078   0.05481
   1   25159.7    397.5   1.043189405  13.65000   0.30673  -0.89103   3.57239
   2   26521.0    377.1   0.050110471   0.62203   0.25195   0.54416  -0.51229
   3   26664.7    375.0   0.084784311   1.04678   0.27310   0.86450   0.47417
   4   27214.7    367.4   0.210109824   2.54167   0.33243   0.94391  -1.24104
   5   28133.8    355.4   0.000498604   0.00583   0.06438   0.04086  -0.00452
   6   28323.2    353.1   0.055817123   0.64878  -0.76782  -0.16544   0.17852
   7   29153.1    343.0   0.055907316   0.63133  -0.05569   0.17723  -0.77254
   8   29460.0    339.4   0.397565920   4.44275  -1.41827  -1.51099   0.38491
   9   29483.2    339.2   0.034838636   0.38901  -0.28947  -0.37877   0.40219
  10   29801.3    335.6   0.010978869   0.12128   0.25201   0.20883  -0.11900
  11   30134.2    331.8   0.265925119   2.90520  -1.11698  -1.19167   0.48731
  12   30492.0    328.0   0.013594806   0.14678  -0.10273  -0.26501  -0.25690
  13   31585.7    316.6   0.064174597   0.66888   0.45317  -0.63255   0.25180
  14   31612.8    316.3   0.084997246   0.88515  -0.61166  -0.71456   0.02060
  15   32828.5    304.6   0.478526841   4.79878   0.94802   1.72423  -0.96284
  16   33270.0    300.6   0.260719476   2.57986   0.36395   1.44854  -0.59087
  17   33513.4    298.4   0.001459363   0.01434   0.00399   0.00393   0.11960
  18   34047.8    293.7   0.269493325   2.60576  -0.76353  -1.15409   0.83117
  19   34374.6    290.9   0.162462570   1.55593   0.56933   1.10003  -0.14742
  20   34496.0    289.9   0.441492749   4.21337  -1.01172  -1.68496   0.59220
  21   34592.3    289.1   0.190456224   1.81256  -0.73524  -1.00564   0.51056
  22   34676.1    288.4   0.157483993   1.49514  -0.70206  -0.65180   0.75988
  23   34825.4    287.1   0.000333553   0.00315   0.01440  -0.05369   0.00794
  24   35002.4    285.7   0.013594688   0.12786  -0.23497  -0.13130   0.23540
  25   35656.3    280.5   0.121233493   1.11934  -0.72512  -0.31216   0.70434
  26   35810.8    279.2   0.120299714   1.10593  -0.49138  -0.77132   0.51917
  27   36417.2    274.6   0.147633343   1.33461   0.25735   1.12603  -0.02081
  28   37158.9    269.1   0.004490352   0.03978   0.03844   0.00409  -0.19567
  29   37423.8    267.2   0.001054715   0.00928  -0.00632  -0.01316   0.09521
  30   37696.0    265.3   0.020806214   0.18171  -0.14376   0.01165  -0.40113
  31   38389.1    260.5   0.010299056   0.08832   0.11587  -0.25396   0.10199
  32   38581.5    259.2   0.155780916   1.32926   0.21100   0.03871   1.13280
  33   38715.7    258.3   0.030931158   0.26302  -0.28903   0.42126   0.04497
  34   39061.3    256.0   0.000466644   0.00393   0.01042   0.05208   0.03334
  35   39150.1    255.4   0.029672712   0.24952  -0.12231  -0.47072  -0.11394
  36   39277.6    254.6   0.024788804   0.20777   0.28335   0.33606   0.12061
  37   39300.1    254.5   0.018596513   0.15578   0.12349  -0.10349   0.36031
  38   39525.5    253.0   0.279662146   2.32934  -0.21994  -0.26098  -1.48756
  39   39895.4    250.7   0.022559910   0.18616   0.27515  -0.28010   0.17888
  40   40268.4    248.3   0.073637814   0.60202   0.03028   0.20198  -0.74854

FINAL SINGLE POINT ENERGY     -3857.756844684892

DIPOLE MOMENT
-------------
                                X             Y             Z
Electronic contribution:     -8.11629       9.62154      -1.99374
Nuclear contribution   :      7.82030     -14.01238       0.52103
                        -----------------------------------------
Total Dipole Moment    :     -0.29599      -4.39084      -1.47271
                        -----------------------------------------
Magnitude (a.u.)       :      4.64068
Magnitude (Debye)      :     11.79568

Rotational constants in cm-1:     0.000691     0.000221     0.000176
Rotational constants in MHz :    20.704968     6.626506     5.269727

                             ****ORCA TERMINATED NORMALLY****
TOTAL RUN TIME: 0 days 0 hours 11 minutes 58 seconds 566 msec
