                         Program Version 4.2.0 -  RELEASE  -
|  1> # ORCA input file
|  2> # SCF done       -191.561095711862          0.001088946695
|  3> ! CAM-B3LYP def2-SVP def2/J RIJCOSX Grid4 TightSCF
|  4> %maxcore 5000
|  5> %tddft
|  6>     Mode sTDDFT
|  7>     Ethresh 5.0
|  8>     maxcore 5000
|  9> end
| 10>
| 11> %pal
| 12>   nprocs 6
| 13>   end
| 14> * xyz 0 1
| 15>    C        0.26074         0.51605         2.10587
| 16>    C       -1.05678         0.28901         1.80063
| 17>    C       -1.51240        -0.83866         1.08842
| 18>    N       -1.92542        -1.73251         0.49916
| 19>    C       -2.10650         1.11466         2.24822
| 20>    N       -2.98307         1.75084         2.62826
| 21>    C        1.34789        -0.43633         1.90403
| 22>    C        2.42326        -0.08686         2.77276
| 23>    C        3.56622        -0.83062         2.83370
| 24>    C        3.69296        -1.96850         2.00524
| 25>    C        2.63006        -2.31066         1.12006
| 26>    C        1.45357        -1.52698         1.08428
| 27>    C        2.77329        -3.44253         0.29253
| 28>    C        3.90920        -4.20404         0.33846
| 29>    C        4.95406        -3.86809         1.21187
| 30>    C        4.84831        -2.77422         2.02739
| 31>    C        2.07641         1.14244         3.50550
| 32>    O        2.71153         1.70929         4.36470
| 33>    C        0.77935         1.59457         2.91947
| 34>    C        0.37234         2.87264         3.14592
| 35>    C       -0.56642         3.65699         2.43452
| 36>    S       -1.19858         5.10656         3.16924
| 37>    C       -2.13082         5.49580         1.75785
| 38>    C       -1.91602         4.53781         0.75926
| 39>    C       -1.04484         3.51443         1.14573
| 40>    C       -2.49395         4.59699        -0.52237
| 41>    N       -2.92211         4.61670        -1.58536
| 42>    C       -2.96258         6.63187         1.66967
| 43>    C       -3.05288         7.56930         2.65319
| 44>    C       -3.86598         8.71946         2.55175
| 45>    N       -3.92683         9.70542         3.51118
| 46>    C       -3.27103         9.69898         4.79580
| 47>    C       -3.98361         8.78688         5.79177
| 48>    C       -4.78633        10.75781         3.13670
| 49>    O       -4.98694        11.73913         3.82030
| 50>    C       -5.28719        10.35331         1.84213
| 51>    C       -4.70849         9.10843         1.50964
| 52>    C       -5.23796         8.71275         0.22363
| 53>    O       -5.06199         7.72344        -0.45739
| 54>    N       -6.09960         9.76521        -0.14670
| 55>    C       -6.90361         9.64216        -1.33928
| 56>    C       -6.21129        10.23537        -2.56566
| 57>    C       -6.12713        10.75743         0.80426
| 58>    C       -6.83007        11.98853         0.80795
| 59>    C       -7.44931        12.61806        -0.22008
| 60>    C       -8.11659        13.86335        -0.08771
| 61>    C       -8.77042        14.55320        -1.09522
| 62>    C       -9.33928        15.78326        -0.63639
| 63>    C      -10.16809        16.67522        -1.31777
| 64>    C      -10.62874        17.80564        -0.65838
| 65>    C      -10.28827        18.05623         0.68249
| 66>    C       -9.51205        17.15886         1.37912
| 67>    C       -9.05131        16.02351         0.72419
| 68>    S       -8.12286        14.73928         1.42721
| 69>    C      -11.45989        18.72211        -1.34391
| 70>    N      -12.12709        19.46858        -1.90186
| 71>    C       -8.91427        14.05274        -2.44227
| 72>    N       -8.66404        14.80244        -3.56617
| 73>    C       -7.88505        16.01730        -3.62835
| 74>    C       -6.42003        15.75257        -3.29006
| 75>    C       -8.95765        14.07842        -4.74709
| 76>    O       -8.78690        14.53422        -5.85928
| 77>    C       -9.44800        12.80728        -4.27568
| 78>    C       -9.37700        12.81874        -2.84714
| 79>    C       -9.87202        11.55157        -2.36779
| 80>    O       -9.95587        11.07642        -1.25104
| 81>    N      -10.21786        10.85201        -3.53770
| 82>    C      -10.80354         9.53514        -3.46554
| 83>    C      -12.32195         9.58005        -3.61791
| 84>    C       -9.97956        11.59297        -4.67364
| 85>    C      -10.25139        11.11227        -5.99902
| 86>    C      -10.02645        11.84103        -7.09374
| 87>    H        4.36560        -0.55427         3.50501
| 88>    H        0.66684        -1.80389         0.39983
| 89>    H        1.96452        -3.69936        -0.37554
| 90>    H        4.00848        -5.07036        -0.29799
| 91>    H        5.84339        -4.47982         1.23492
| 92>    H        5.65001        -2.51021         2.70135
| 93>    H        0.90194         3.38136         3.94630
| 94>    H       -0.74325         2.72228         0.48292
| 95>    H       -3.53966         6.74019         0.75916
| 96>    H       -2.46129         7.44294         3.55056
| 97>    H       -3.30538        10.73142         5.15509
| 98>    H       -2.22514         9.40257         4.67446
| 99>    H       -5.00820         9.12203         5.93262
|100>    H       -3.47297         8.81812         6.75017
|101>    H       -4.00209         7.75859         5.43769
|102>    H       -7.87822        10.09774        -1.15420
|103>    H       -7.04204         8.56890        -1.50391
|104>    H       -5.91482        11.26869        -2.39682
|105>    H       -6.87944        10.19826        -3.42257
|106>    H       -5.31877         9.65857        -2.79530
|107>    H       -6.80774        12.47802         1.77544
|108>    H       -7.45677        12.20332        -1.21379
|109>    H      -10.47199        16.48000        -2.33552
|110>    H      -10.65922        18.94903         1.16192
|111>    H       -9.26831        17.32241         2.41675
|112>    H       -8.29412        16.77192        -2.95329
|113>    H       -7.97324        16.37461        -4.65800
|114>    H       -6.31966        15.38929        -2.26886
|115>    H       -5.84850        16.67079        -3.38992
|116>    H       -6.00574        15.00968        -3.96792
|117>    H      -10.54743         9.14510        -2.47615
|118>    H      -10.35294         8.88973        -4.22432
|119>    H      -12.75499        10.18919        -2.82826
|120>    H      -12.72911         8.57559        -3.54445
|121>    H      -12.60637        10.00533        -4.57787
|122>    H      -10.65270        10.11200        -6.08251
|123>    H       -9.62671        12.83952        -7.03582
|124>    H      -10.23973        11.45219        -8.07431
|125> *
|126>
|127>                          ****END OF INPUT****

CARTESIAN COORDINATES (ANGSTROEM)
---------------------------------
  C      0.260740    0.516050    2.105870
  C     -1.056780    0.289010    1.800630
  C     -1.512400   -0.838660    1.088420
  N     -1.925420   -1.732510    0.499160
  C     -2.106500    1.114660    2.248220
  N     -2.983070    1.750840    2.628260
  C      1.347890   -0.436330    1.904030
  C      2.423260   -0.086860    2.772760
  C      3.566220   -0.830620    2.833700
  C      3.692960   -1.968500    2.005240
  C      2.630060   -2.310660    1.120060
  C      1.453570   -1.526980    1.084280
  C      2.773290   -3.442530    0.292530
  C      3.909200   -4.204040    0.338460
  C      4.954060   -3.868090    1.211870
  C      4.848310   -2.774220    2.027390
  C      2.076410    1.142440    3.505500
  O      2.711530    1.709290    4.364700
  C      0.779350    1.594570    2.919470
  C      0.372340    2.872640    3.145920
  C     -0.566420    3.656990    2.434520
  S     -1.198580    5.106560    3.169240
  C     -2.130820    5.495800    1.757850
  C     -1.916020    4.537810    0.759260
  C     -1.044840    3.514430    1.145730
  C     -2.493950    4.596990   -0.522370
  N     -2.922110    4.616700   -1.585360
  C     -2.962580    6.631870    1.669670
  C     -3.052880    7.569300    2.653190
  C     -3.865980    8.719460    2.551750
  N     -3.926830    9.705420    3.511180
  C     -3.271030    9.698980    4.795800
  C     -3.983610    8.786880    5.791770
  C     -4.786330   10.757810    3.136700
  O     -4.986940   11.739130    3.820300
  C     -5.287190   10.353310    1.842130
  C     -4.708490    9.108430    1.509640
  C     -5.237960    8.712750    0.223630
  O     -5.061990    7.723440   -0.457390
  N     -6.099600    9.765210   -0.146700
  C     -6.903610    9.642160   -1.339280
  C     -6.211290   10.235370   -2.565660
  C     -6.127130   10.757430    0.804260
  C     -6.830070   11.988530    0.807950
  C     -7.449310   12.618060   -0.220080
  C     -8.116590   13.863350   -0.087710
  C     -8.770420   14.553200   -1.095220
  C     -9.339280   15.783260   -0.636390
  C    -10.168090   16.675220   -1.317770
  C    -10.628740   17.805640   -0.658380
  C    -10.288270   18.056230    0.682490
  C     -9.512050   17.158860    1.379120
  C     -9.051310   16.023510    0.724190
  S     -8.122860   14.739280    1.427210
  C    -11.459890   18.722110   -1.343910
  N    -12.127090   19.468580   -1.901860
  C     -8.914270   14.052740   -2.442270
  N     -8.664040   14.802440   -3.566170
  C     -7.885050   16.017300   -3.628350
  C     -6.420030   15.752570   -3.290060
  C     -8.957650   14.078420   -4.747090
  O     -8.786900   14.534220   -5.859280
  C     -9.448000   12.807280   -4.275680
  C     -9.377000   12.818740   -2.847140
  C     -9.872020   11.551570   -2.367790
  O     -9.955870   11.076420   -1.251040
  N    -10.217860   10.852010   -3.537700
  C    -10.803540    9.535140   -3.465540
  C    -12.321950    9.580050   -3.617910
  C     -9.979560   11.592970   -4.673640
  C    -10.251390   11.112270   -5.999020
  C    -10.026450   11.841030   -7.093740
  H      4.365600   -0.554270    3.505010
  H      0.666840   -1.803890    0.399830
  H      1.964520   -3.699360   -0.375540
  H      4.008480   -5.070360   -0.297990
  H      5.843390   -4.479820    1.234920
  H      5.650010   -2.510210    2.701350
  H      0.901940    3.381360    3.946300
  H     -0.743250    2.722280    0.482920
  H     -3.539660    6.740190    0.759160
  H     -2.461290    7.442940    3.550560
  H     -3.305380   10.731420    5.155090
  H     -2.225140    9.402570    4.674460
  H     -5.008200    9.122030    5.932620
  H     -3.472970    8.818120    6.750170
  H     -4.002090    7.758590    5.437690
  H     -7.878220   10.097740   -1.154200
  H     -7.042040    8.568900   -1.503910
  H     -5.914820   11.268690   -2.396820
  H     -6.879440   10.198260   -3.422570
  H     -5.318770    9.658570   -2.795300
  H     -6.807740   12.478020    1.775440
  H     -7.456770   12.203320   -1.213790
  H    -10.471990   16.480000   -2.335520
  H    -10.659220   18.949030    1.161920
  H     -9.268310   17.322410    2.416750
  H     -8.294120   16.771920   -2.953290
  H     -7.973240   16.374610   -4.658000
  H     -6.319660   15.389290   -2.268860
  H     -5.848500   16.670790   -3.389920
  H     -6.005740   15.009680   -3.967920
  H    -10.547430    9.145100   -2.476150
  H    -10.352940    8.889730   -4.224320
  H    -12.754990   10.189190   -2.828260
  H    -12.729110    8.575590   -3.544450
  H    -12.606370   10.005330   -4.577870
  H    -10.652700   10.112000   -6.082510
  H     -9.626710   12.839520   -7.035820
  H    -10.239730   11.452190   -8.074310

 Total Charge           Charge          ....    0
 Multiplicity           Mult            ....    1
 Number of Electrons    NEL             ....  508
 Basis Dimension        Dim             .... 1206

ORBITAL ENERGIES
----------------

  NO   OCC          E(Eh)            E(eV)
   0   2.0000     -88.984409     -2421.3889
   1   2.0000     -88.970611     -2421.0134
   2   2.0000     -19.219249      -522.9824
   3   2.0000     -19.197732      -522.3968
   4   2.0000     -19.195286      -522.3303
   5   2.0000     -19.194273      -522.3027
   6   2.0000     -19.189663      -522.1773
   7   2.0000     -14.460533      -393.4911
   8   2.0000     -14.459587      -393.4654
   9   2.0000     -14.454467      -393.3261
  10   2.0000     -14.454108      -393.3163
  11   2.0000     -14.419744      -392.3812
  12   2.0000     -14.419164      -392.3654
  13   2.0000     -14.406524      -392.0214
  14   2.0000     -14.403827      -391.9481
  15   2.0000     -10.381184      -282.4864
  16   2.0000     -10.378329      -282.4087
  17   2.0000     -10.375240      -282.3246
  18   2.0000     -10.374393      -282.3016
  19   2.0000     -10.370405      -282.1931
  20   2.0000     -10.348468      -281.5961
  21   2.0000     -10.348275      -281.5909
  22   2.0000     -10.346599      -281.5453
  23   2.0000     -10.345900      -281.5262
  24   2.0000     -10.343524      -281.4616
  25   2.0000     -10.341259      -281.4000
  26   2.0000     -10.339595      -281.3547
  27   2.0000     -10.331294      -281.1288
  28   2.0000     -10.330108      -281.0965
  29   2.0000     -10.328768      -281.0601
  30   2.0000     -10.325564      -280.9729
  31   2.0000     -10.324781      -280.9516
  32   2.0000     -10.321324      -280.8575
  33   2.0000     -10.320351      -280.8310
  34   2.0000     -10.319448      -280.8064
  35   2.0000     -10.313486      -280.6442
  36   2.0000     -10.312725      -280.6235
  37   2.0000     -10.310922      -280.5744
  38   2.0000     -10.309262      -280.5293
  39   2.0000     -10.308126      -280.4984
  40   2.0000     -10.307350      -280.4773
  41   2.0000     -10.306958      -280.4666
  42   2.0000     -10.306208      -280.4462
  43   2.0000     -10.305737      -280.4334
  44   2.0000     -10.305587      -280.4293
  45   2.0000     -10.305498      -280.4268
  46   2.0000     -10.304230      -280.3924
  47   2.0000     -10.303240      -280.3654
  48   2.0000     -10.302234      -280.3380
  49   2.0000     -10.301634      -280.3217
  50   2.0000     -10.301030      -280.3053
  51   2.0000     -10.300840      -280.3001
  52   2.0000     -10.300760      -280.2979
  53   2.0000     -10.300522      -280.2915
  54   2.0000     -10.300188      -280.2824
  55   2.0000     -10.298881      -280.2468
  56   2.0000     -10.298046      -280.2241
  57   2.0000     -10.293185      -280.0918
  58   2.0000     -10.292750      -280.0800
  59   2.0000     -10.289207      -279.9836
  60   2.0000     -10.288793      -279.9723
  61   2.0000     -10.288551      -279.9657
  62   2.0000     -10.287995      -279.9506
  63   2.0000     -10.285174      -279.8738
  64   2.0000     -10.269250      -279.4405
  65   2.0000     -10.267531      -279.3937
  66   2.0000     -10.266091      -279.3545
  67   2.0000     -10.265719      -279.3444
  68   2.0000     -10.265068      -279.3267
  69   2.0000     -10.264011      -279.2980
  70   2.0000     -10.263803      -279.2923
  71   2.0000     -10.259502      -279.1753
  72   2.0000      -8.079956      -219.8668
  73   2.0000      -8.066350      -219.4965
  74   2.0000      -6.049067      -164.6035
  75   2.0000      -6.045117      -164.4960
  76   2.0000      -6.042187      -164.4163
  77   2.0000      -6.035753      -164.2412
  78   2.0000      -6.031823      -164.1342
  79   2.0000      -6.027856      -164.0263
  80   2.0000      -1.139512       -31.0077
  81   2.0000      -1.134849       -30.8808
  82   2.0000      -1.134379       -30.8680
  83   2.0000      -1.132378       -30.8136
  84   2.0000      -1.127689       -30.6860
  85   2.0000      -1.070139       -29.1200
  86   2.0000      -1.064809       -28.9749
  87   2.0000      -1.062021       -28.8991
  88   2.0000      -1.055939       -28.7336
  89   2.0000      -1.025859       -27.9150
  90   2.0000      -1.017948       -27.6998
  91   2.0000      -1.016392       -27.6574
  92   2.0000      -1.002135       -27.2695
  93   2.0000      -0.997493       -27.1432
  94   2.0000      -0.990917       -26.9642
  95   2.0000      -0.986053       -26.8319
  96   2.0000      -0.975086       -26.5334
  97   2.0000      -0.957219       -26.0473
  98   2.0000      -0.935559       -25.4579
  99   2.0000      -0.932975       -25.3875
 100   2.0000      -0.929416       -25.2907
 101   2.0000      -0.923355       -25.1258
 102   2.0000      -0.910209       -24.7681
 103   2.0000      -0.906753       -24.6740
 104   2.0000      -0.901811       -24.5395
 105   2.0000      -0.895227       -24.3604
 106   2.0000      -0.887762       -24.1572
 107   2.0000      -0.884039       -24.0559
 108   2.0000      -0.875510       -23.8238
 109   2.0000      -0.874859       -23.8061
 110   2.0000      -0.867183       -23.5973
 111   2.0000      -0.853457       -23.2237
 112   2.0000      -0.849678       -23.1209
 113   2.0000      -0.845883       -23.0177
 114   2.0000      -0.831615       -22.6294
 115   2.0000      -0.823957       -22.4210
 116   2.0000      -0.820611       -22.3300
 117   2.0000      -0.811430       -22.0801
 118   2.0000      -0.804244       -21.8846
 119   2.0000      -0.795417       -21.6444
 120   2.0000      -0.780101       -21.2276
 121   2.0000      -0.771147       -20.9840
 122   2.0000      -0.764974       -20.8160
 123   2.0000      -0.763801       -20.7841
 124   2.0000      -0.760704       -20.6998
 125   2.0000      -0.736599       -20.0439
 126   2.0000      -0.733572       -19.9615
 127   2.0000      -0.722868       -19.6703
 128   2.0000      -0.719715       -19.5844
 129   2.0000      -0.713591       -19.4178
 130   2.0000      -0.710160       -19.3244
 131   2.0000      -0.709565       -19.3083
 132   2.0000      -0.708079       -19.2678
 133   2.0000      -0.704108       -19.1598
 134   2.0000      -0.691769       -18.8240
 135   2.0000      -0.688955       -18.7474
 136   2.0000      -0.680900       -18.5282
 137   2.0000      -0.668349       -18.1867
 138   2.0000      -0.664385       -18.0788
 139   2.0000      -0.663475       -18.0541
 140   2.0000      -0.659437       -17.9442
 141   2.0000      -0.653314       -17.7776
 142   2.0000      -0.649611       -17.6768
 143   2.0000      -0.638510       -17.3747
 144   2.0000      -0.637381       -17.3440
 145   2.0000      -0.627250       -17.0683
 146   2.0000      -0.612875       -16.6772
 147   2.0000      -0.612482       -16.6665
 148   2.0000      -0.610661       -16.6169
 149   2.0000      -0.605721       -16.4825
 150   2.0000      -0.601919       -16.3790
 151   2.0000      -0.591208       -16.0876
 152   2.0000      -0.589366       -16.0375
 153   2.0000      -0.587386       -15.9836
 154   2.0000      -0.582119       -15.8403
 155   2.0000      -0.577820       -15.7233
 156   2.0000      -0.575233       -15.6529
 157   2.0000      -0.571724       -15.5574
 158   2.0000      -0.564327       -15.3561
 159   2.0000      -0.561898       -15.2900
 160   2.0000      -0.561635       -15.2829
 161   2.0000      -0.556809       -15.1515
 162   2.0000      -0.555052       -15.1037
 163   2.0000      -0.549383       -14.9495
 164   2.0000      -0.542653       -14.7663
 165   2.0000      -0.540815       -14.7163
 166   2.0000      -0.536759       -14.6059
 167   2.0000      -0.536556       -14.6004
 168   2.0000      -0.535736       -14.5781
 169   2.0000      -0.533638       -14.5210
 170   2.0000      -0.531892       -14.4735
 171   2.0000      -0.530634       -14.4393
 172   2.0000      -0.529278       -14.4024
 173   2.0000      -0.524574       -14.2744
 174   2.0000      -0.523706       -14.2508
 175   2.0000      -0.522266       -14.2116
 176   2.0000      -0.521844       -14.2001
 177   2.0000      -0.520940       -14.1755
 178   2.0000      -0.520703       -14.1691
 179   2.0000      -0.519148       -14.1267
 180   2.0000      -0.514511       -14.0005
 181   2.0000      -0.514161       -13.9910
 182   2.0000      -0.513519       -13.9736
 183   2.0000      -0.509215       -13.8565
 184   2.0000      -0.506258       -13.7760
 185   2.0000      -0.504612       -13.7312
 186   2.0000      -0.503453       -13.6996
 187   2.0000      -0.499955       -13.6045
 188   2.0000      -0.494074       -13.4444
 189   2.0000      -0.490998       -13.3607
 190   2.0000      -0.486037       -13.2257
 191   2.0000      -0.485555       -13.2126
 192   2.0000      -0.479893       -13.0585
 193   2.0000      -0.477556       -12.9950
 194   2.0000      -0.474428       -12.9098
 195   2.0000      -0.472033       -12.8447
 196   2.0000      -0.471585       -12.8325
 197   2.0000      -0.469898       -12.7866
 198   2.0000      -0.468154       -12.7391
 199   2.0000      -0.466618       -12.6973
 200   2.0000      -0.464449       -12.6383
 201   2.0000      -0.460843       -12.5402
 202   2.0000      -0.458334       -12.4719
 203   2.0000      -0.456798       -12.4301
 204   2.0000      -0.455991       -12.4082
 205   2.0000      -0.453527       -12.3411
 206   2.0000      -0.453434       -12.3386
 207   2.0000      -0.451224       -12.2784
 208   2.0000      -0.449599       -12.2342
 209   2.0000      -0.445729       -12.1289
 210   2.0000      -0.445041       -12.1102
 211   2.0000      -0.443568       -12.0701
 212   2.0000      -0.442644       -12.0449
 213   2.0000      -0.441717       -12.0197
 214   2.0000      -0.439086       -11.9482
 215   2.0000      -0.437409       -11.9025
 216   2.0000      -0.435442       -11.8490
 217   2.0000      -0.434330       -11.8187
 218   2.0000      -0.434027       -11.8105
 219   2.0000      -0.432620       -11.7722
 220   2.0000      -0.432016       -11.7557
 221   2.0000      -0.430872       -11.7246
 222   2.0000      -0.429244       -11.6803
 223   2.0000      -0.427759       -11.6399
 224   2.0000      -0.426473       -11.6049
 225   2.0000      -0.421738       -11.4761
 226   2.0000      -0.419393       -11.4123
 227   2.0000      -0.417104       -11.3500
 228   2.0000      -0.414990       -11.2924
 229   2.0000      -0.409886       -11.1536
 230   2.0000      -0.409024       -11.1301
 231   2.0000      -0.406913       -11.0727
 232   2.0000      -0.405948       -11.0464
 233   2.0000      -0.387411       -10.5420
 234   2.0000      -0.376171       -10.2361
 235   2.0000      -0.374585       -10.1930
 236   2.0000      -0.366898        -9.9838
 237   2.0000      -0.354450        -9.6451
 238   2.0000      -0.352603        -9.5948
 239   2.0000      -0.351196        -9.5565
 240   2.0000      -0.349363        -9.5066
 241   2.0000      -0.341413        -9.2903
 242   2.0000      -0.338793        -9.2190
 243   2.0000      -0.336942        -9.1687
 244   2.0000      -0.332816        -9.0564
 245   2.0000      -0.321315        -8.7434
 246   2.0000      -0.320035        -8.7086
 247   2.0000      -0.317201        -8.6315
 248   2.0000      -0.310902        -8.4601
 249   2.0000      -0.304032        -8.2731
 250   2.0000      -0.299936        -8.1617
 251   2.0000      -0.292432        -7.9575
 252   2.0000      -0.258075        -7.0226
 253   2.0000      -0.235721        -6.4143
 254   0.0000      -0.112952        -3.0736
 255   0.0000      -0.087062        -2.3691
 256   0.0000      -0.067781        -1.8444
 257   0.0000      -0.057926        -1.5763
 258   0.0000      -0.043876        -1.1939

MULLIKEN ATOMIC CHARGES
-----------------------
   0 C :    0.263803
   1 C :   -0.330680
   2 C :   -0.169157
   3 N :    0.157620
   4 C :   -0.200303
   5 N :    0.173239
   6 C :    0.030125
   7 C :    0.018390
   8 C :   -0.081044
   9 C :    0.094037
  10 C :    0.093522
  11 C :   -0.077652
  12 C :   -0.017683
  13 C :    0.035953
  14 C :    0.036498
  15 C :   -0.014501
  16 C :    0.136187
  17 O :   -0.143270
  18 C :   -0.130108
  19 C :    0.093519
  20 C :   -0.103446
  21 S :    0.154510
  22 C :   -0.020868
  23 C :   -0.074243
  24 C :    0.057541
  25 C :   -0.182083
  26 N :    0.157628
  27 C :   -0.002753
  28 C :   -0.029524
  29 C :    0.136505
  30 N :   -0.264495
  31 C :    0.098772
  32 C :    0.003073
  33 C :    0.144117
  34 O :   -0.193436
  35 C :   -0.037279
  36 C :   -0.052037
  37 C :    0.161037
  38 O :   -0.193437
  39 N :   -0.260980
  40 C :    0.087563
  41 C :    0.004155
  42 C :    0.113834
  43 C :   -0.041359
  44 C :    0.034700
  45 C :   -0.070342
  46 C :    0.068198
  47 C :    0.112845
  48 C :   -0.051861
  49 C :   -0.103091
  50 C :    0.045359
  51 C :    0.002071
  52 C :   -0.057658
  53 S :    0.150496
  54 C :   -0.142373
  55 N :    0.107123
  56 C :   -0.007604
  57 N :   -0.264078
  58 C :    0.099417
  59 C :   -0.002859
  60 C :    0.169070
  61 O :   -0.200518
  62 C :   -0.087319
  63 C :    0.008624
  64 C :    0.125294
  65 O :   -0.204297
  66 N :   -0.267097
  67 C :    0.095786
  68 C :    0.007560
  69 C :    0.124046
  70 C :   -0.039452
  71 C :    0.021428
  72 H :   -0.010829
  73 H :   -0.003824
  74 H :   -0.009250
  75 H :   -0.002987
  76 H :   -0.003733
  77 H :   -0.016059
  78 H :    0.025828
  79 H :    0.013992
  80 H :    0.043936
  81 H :   -0.017592
  82 H :    0.044130
  83 H :    0.021675
  84 H :    0.030965
  85 H :    0.024254
  86 H :    0.016823
  87 H :    0.044950
  88 H :    0.035508
  89 H :    0.017411
  90 H :    0.018857
  91 H :    0.032254
  92 H :    0.018090
  93 H :   -0.010268
  94 H :    0.012721
  95 H :    0.001486
  96 H :   -0.007703
  97 H :    0.028966
  98 H :    0.048626
  99 H :    0.023639
 100 H :    0.026239
 101 H :    0.026719
 102 H :    0.044170
 103 H :    0.027624
 104 H :    0.030189
 105 H :    0.025721
 106 H :    0.016133
 107 H :   -0.015766
 108 H :    0.058206
 109 H :    0.034141
Sum of atomic charges:   -0.0000000

LOEWDIN ATOMIC CHARGES
----------------------
   0 C :    0.064256
   1 C :   -0.136471
   2 C :   -0.019941
   3 N :   -0.045915
   4 C :   -0.019452
   5 N :   -0.038494
   6 C :   -0.023775
   7 C :   -0.057887
   8 C :    0.034080
   9 C :   -0.008876
  10 C :   -0.004875
  11 C :    0.016948
  12 C :   -0.005828
  13 C :   -0.011435
  14 C :   -0.011921
  15 C :   -0.008814
  16 C :    0.084034
  17 O :   -0.141762
  18 C :   -0.082878
  19 C :    0.043856
  20 C :   -0.174158
  21 S :    0.473594
  22 C :   -0.124602
  23 C :   -0.088731
  24 C :    0.010066
  25 C :   -0.032877
  26 N :   -0.034298
  27 C :    0.005479
  28 C :   -0.032820
  29 C :    0.071310
  30 N :   -0.005322
  31 C :    0.035721
  32 C :   -0.060837
  33 C :    0.077611
  34 O :   -0.198214
  35 C :   -0.112930
  36 C :   -0.113201
  37 C :    0.082031
  38 O :   -0.184236
  39 N :    0.003691
  40 C :    0.030725
  41 C :   -0.063708
  42 C :    0.076154
  43 C :   -0.022988
  44 C :   -0.010407
  45 C :   -0.123670
  46 C :   -0.065816
  47 C :   -0.038457
  48 C :    0.013446
  49 C :   -0.071728
  50 C :    0.008409
  51 C :   -0.028910
  52 C :   -0.139522
  53 S :    0.442967
  54 C :   -0.030529
  55 N :   -0.055499
  56 C :    0.072326
  57 N :   -0.000763
  58 C :    0.034079
  59 C :   -0.060652
  60 C :    0.082259
  61 O :   -0.192258
  62 C :   -0.131945
  63 C :   -0.122562
  64 C :    0.078296
  65 O :   -0.198341
  66 N :   -0.000360
  67 C :    0.035639
  68 C :   -0.059727
  69 C :    0.086629
  70 C :   -0.055755
  71 C :    0.032929
  72 H :    0.039888
  73 H :    0.039327
  74 H :    0.034922
  75 H :    0.033833
  76 H :    0.033302
  77 H :    0.032312
  78 H :    0.047018
  79 H :    0.043164
  80 H :    0.049151
  81 H :    0.023677
  82 H :    0.038297
  83 H :    0.021927
  84 H :    0.033206
  85 H :    0.031043
  86 H :    0.022068
  87 H :    0.024605
  88 H :    0.036151
  89 H :    0.019184
  90 H :    0.028572
  91 H :    0.033863
  92 H :    0.039141
  93 H :    0.037525
  94 H :    0.042222
  95 H :    0.041694
  96 H :    0.037462
  97 H :    0.024166
  98 H :    0.037958
  99 H :    0.024132
 100 H :    0.032549
 101 H :    0.029603
 102 H :    0.037277
 103 H :    0.024316
 104 H :    0.032820
 105 H :    0.032022
 106 H :    0.022653
 107 H :    0.030918
 108 H :    0.033970
 109 H :    0.031679

  Mayer bond orders larger than 0.100000
B(  0-C ,  1-C ) :   1.6524 B(  0-C ,  6-C ) :   0.9997 B(  0-C , 18-C ) :   1.0311
B(  1-C ,  2-C ) :   1.1285 B(  1-C ,  4-C ) :   1.1662 B(  2-C ,  3-N ) :   2.9878
B(  4-C ,  5-N ) :   2.9941 B(  6-C ,  7-C ) :   1.2145 B(  6-C , 11-C ) :   1.4585
B(  7-C ,  8-C ) :   1.4734 B(  7-C , 16-C ) :   0.9227 B(  8-C ,  9-C ) :   1.1838
B(  8-C , 72-H ) :   1.0162 B(  9-C , 10-C ) :   1.2572 B(  9-C , 15-C ) :   1.2454
B( 10-C , 11-C ) :   1.2042 B( 10-C , 12-C ) :   1.2408 B( 11-C , 73-H ) :   0.9934
B( 12-C , 13-C ) :   1.4894 B( 12-C , 74-H ) :   0.9976 B( 13-C , 14-C ) :   1.2617
B( 13-C , 75-H ) :   0.9889 B( 14-C , 15-C ) :   1.4878 B( 14-C , 76-H ) :   0.9888
B( 15-C , 77-H ) :   0.9976 B( 16-C , 17-O ) :   2.2666 B( 16-C , 18-C ) :   0.9360
B( 18-C , 19-C ) :   1.6904 B( 19-C , 20-C ) :   1.1080 B( 19-C , 78-H ) :   0.9273
B( 20-C , 21-S ) :   1.1152 B( 20-C , 24-C ) :   1.4396 B( 21-S , 22-C ) :   1.1354
B( 22-C , 23-C ) :   1.4125 B( 22-C , 27-C ) :   1.1955 B( 23-C , 24-C ) :   1.3356
B( 23-C , 25-C ) :   1.1063 B( 24-C , 79-H ) :   0.9947 B( 25-C , 26-N ) :   3.0267
B( 27-C , 28-C ) :   1.5646 B( 27-C , 80-H ) :   0.9424 B( 28-C , 29-C ) :   1.1727
B( 28-C , 81-H ) :   0.9606 B( 29-C , 30-N ) :   1.1597 B( 29-C , 36-C ) :   1.3386
B( 30-N , 31-C ) :   0.9456 B( 30-N , 33-C ) :   1.0339 B( 31-C , 32-C ) :   1.1209
B( 31-C , 82-H ) :   0.9273 B( 31-C , 83-H ) :   0.9498 B( 32-C , 84-H ) :   0.9637
B( 32-C , 85-H ) :   0.9679 B( 32-C , 86-H ) :   0.9685 B( 33-C , 34-O ) :   2.1337
B( 33-C , 35-C ) :   0.9772 B( 35-C , 36-C ) :   1.2523 B( 35-C , 42-C ) :   1.3278
B( 36-C , 37-C ) :   0.9794 B( 37-C , 38-O ) :   2.0410 B( 37-C , 39-N ) :   1.0565
B( 38-O , 80-H ) :   0.1060 B( 39-N , 40-C ) :   0.9293 B( 39-N , 42-C ) :   1.1850
B( 40-C , 41-C ) :   1.1132 B( 40-C , 87-H ) :   0.9392 B( 40-C , 88-H ) :   0.9258
B( 41-C , 89-H ) :   0.9632 B( 41-C , 90-H ) :   0.9689 B( 41-C , 91-H ) :   0.9578
B( 42-C , 43-C ) :   1.1907 B( 43-C , 44-C ) :   1.5750 B( 43-C , 92-H ) :   0.9446
B( 44-C , 45-C ) :   1.1870 B( 44-C , 93-H ) :   0.9620 B( 45-C , 46-C ) :   1.5118
B( 45-C , 53-S ) :   1.0757 B( 46-C , 47-C ) :   1.1483 B( 46-C , 56-C ) :   0.9863
B( 47-C , 48-C ) :   1.2976 B( 47-C , 52-C ) :   1.3098 B( 48-C , 49-C ) :   1.4157
B( 48-C , 94-H ) :   0.9886 B( 49-C , 50-C ) :   1.3268 B( 49-C , 54-C ) :   1.0565
B( 50-C , 51-C ) :   1.4277 B( 50-C , 95-H ) :   0.9926 B( 51-C , 52-C ) :   1.3345
B( 51-C , 96-H ) :   0.9936 B( 52-C , 53-S ) :   1.0748 B( 54-C , 55-N ) :   3.0548
B( 56-C , 57-N ) :   1.2098 B( 56-C , 63-C ) :   1.4549 B( 57-N , 58-C ) :   0.9456
B( 57-N , 60-C ) :   1.0233 B( 58-C , 59-C ) :   1.1184 B( 58-C , 97-H ) :   0.9425
B( 58-C , 98-H ) :   0.9285 B( 59-C , 99-H ) :   0.9686 B( 59-C ,100-H ) :   0.9669
B( 59-C ,101-H ) :   0.9659 B( 60-C , 61-O ) :   2.0573 B( 60-C , 62-C ) :   0.9944
B( 62-C , 63-C ) :   1.1904 B( 62-C , 69-C ) :   1.3910 B( 63-C , 64-C ) :   0.9541
B( 64-C , 65-O ) :   2.0654 B( 64-C , 66-N ) :   1.0503 B( 66-N , 67-C ) :   0.9427
B( 66-N , 69-C ) :   1.1564 B( 67-C , 68-C ) :   1.1218 B( 67-C ,102-H ) :   0.9280
B( 67-C ,103-H ) :   0.9504 B( 68-C ,104-H ) :   0.9631 B( 68-C ,105-H ) :   0.9677
B( 68-C ,106-H ) :   0.9691 B( 69-C , 70-C ) :   1.1234 B( 70-C , 71-C ) :   1.8893
B( 70-C ,107-H ) :   0.9539 B( 71-C ,108-H ) :   0.9276 B( 71-C ,109-H ) :   0.9447

-----------------------------------------------------------------------------
         ABSORPTION SPECTRUM VIA TRANSITION ELECTRIC DIPOLE MOMENTS
-----------------------------------------------------------------------------
State   Energy  Wavelength   fosc         T2         TX        TY        TZ
        (cm-1)    (nm)                  (au**2)     (au)      (au)      (au)
-----------------------------------------------------------------------------
   0   12517.0    798.9   1.095485272  28.81266  -3.23636   3.95988  -1.63034
   1   18246.0    548.1   0.165434678   2.98494   0.47805   1.23579   1.10871
   2   19067.3    524.5   0.056977937   0.98377  -0.64367   0.12505  -0.74419
   3   22213.1    450.2   0.024458939   0.36250   0.36541  -0.39573   0.26902
   4   23646.6    422.9   0.552363616   7.69011  -0.65408   2.67480   0.32822
   5   24919.9    401.3   0.123510511   1.63167   0.25739   1.22541   0.25256
   6   25249.8    396.0   0.034010527   0.44344  -0.65565  -0.11009  -0.03786
   7   25524.0    391.8   0.088045599   1.13562   0.50702  -0.90759  -0.23415
   8   26378.9    379.1   0.170025668   2.12194  -0.89859   1.13242   0.17913
   9   27240.2    367.1   0.005403123   0.06530  -0.08803   0.10331  -0.21651
  10   27595.0    362.4   0.033522446   0.39993  -0.60543   0.03841  -0.17863
  11   27830.1    359.3   0.045131482   0.53388  -0.24452   0.68315   0.08601
  12   28259.7    353.9   0.040831735   0.47567   0.41527   0.50439  -0.22095
  13   28808.0    347.1   0.358141238   4.09277  -1.11611   1.59954  -0.53714
  14   29117.7    343.4   0.063618680   0.71929  -0.65040   0.53561  -0.09686
  15   29180.3    342.7   0.053584416   0.60454  -0.28043   0.72511  -0.01048
  16   30044.7    332.8   0.073982280   0.81065   0.66751  -0.33281  -0.50430
  17   30192.2    331.2   0.024255914   0.26448   0.10600  -0.27710  -0.42007
  18   31101.5    321.5   0.007303301   0.07731  -0.12402  -0.12701  -0.21400
  19   31123.1    321.3   0.002605114   0.02756  -0.06662  -0.12317  -0.08914
  20   32139.0    311.1   0.038870272   0.39816   0.09718  -0.13254  -0.60922
  21   32547.2    307.2   0.026372699   0.26676  -0.02022   0.51336  -0.05305
  22   33031.2    302.7   0.695559658   6.93243  -2.13497   1.50942   0.30980
  23   33415.9    299.3   0.028111156   0.27695   0.14720  -0.27733  -0.42234
  24   33751.4    296.3   0.039583271   0.38610  -0.07799  -0.05876   0.61365
  25   34124.3    293.0   0.199503556   1.92470  -0.31801   1.17064   0.67318
  26   34249.1    292.0   0.011820441   0.11362  -0.11068   0.31384  -0.05364
  27   34350.1    291.1   0.010643047   0.10200  -0.02047   0.31489   0.04929
  28   34391.9    290.8   0.008783023   0.08407   0.06421  -0.26181  -0.10682
  29   34763.7    287.7   0.106430527   1.00790  -0.23822   0.90234   0.37005
  30   35544.4    281.3   0.101268891   0.93795  -0.80312   0.46522  -0.27664
  31   35636.1    280.6   0.087063049   0.80430  -0.32687   0.73684   0.39310
  32   36177.3    276.4   0.036744047   0.33437   0.27943  -0.45427  -0.22344
  33   36516.6    273.8   0.013009088   0.11728   0.00188  -0.00670   0.34239
  34   36630.6    273.0   0.053822576   0.48372  -0.42147   0.54114   0.11512
  35   37162.6    269.1   0.052625057   0.46619  -0.49763   0.40182  -0.23894
  36   37375.7    267.6   0.171093668   1.50703  -0.18463   1.07310   0.56692
  37   37531.4    266.4   0.063063402   0.55317   0.53955  -0.32095   0.39880
  38   37657.8    265.5   0.030060265   0.26279  -0.33490   0.37924  -0.08251
  39   38191.7    261.8   0.089605488   0.77240  -0.78982   0.37336   0.09581
  40   38276.1    261.3   0.141288424   1.21522   1.08581   0.10998   0.15535
  41   38454.6    260.0   0.011182253   0.09573  -0.01817   0.29874   0.07846
  42   38618.8    258.9   0.029142754   0.24843  -0.14509  -0.34572  -0.32842
  43   39131.7    255.5   0.096615259   0.81282   0.55238  -0.10280   0.70507
  44   39273.2    254.6   0.012002898   0.10062  -0.08695   0.08736  -0.29227
  45   40045.0    249.7   0.010787516   0.08868  -0.10186  -0.07979   0.26822
  46   40289.1    248.2   0.045412641   0.37108  -0.26371   0.47279   0.27928

FINAL SINGLE POINT ENERGY     -3801.416229001151

DIPOLE MOMENT
-------------
                                X             Y             Z
Electronic contribution:     25.25903     -25.62760      27.83993
Nuclear contribution   :    -22.77041      24.45471     -27.21388
                        -----------------------------------------
Total Dipole Moment    :      2.48862      -1.17290       0.62605
                        -----------------------------------------
Magnitude (a.u.)       :      2.82150
Magnitude (Debye)      :      7.17168

Rotational constants in cm-1:     0.002171     0.000267     0.000248
Rotational constants in MHz :    65.077412     8.003046     7.429317

                             ****ORCA TERMINATED NORMALLY****
TOTAL RUN TIME: 0 days 0 hours 11 minutes 21 seconds 376 msec
