                         Program Version 4.2.0 -  RELEASE  -
|  1> # ORCA input file
|  2> # SCF done       -140.422657150178          0.000393731565
|  3> ! CAM-B3LYP def2-SVP def2/J RIJCOSX Grid4 TightSCF
|  4> %maxcore 5000
|  5> %tddft
|  6>     Mode sTDDFT
|  7>     Ethresh 5.0
|  8>     maxcore 5000
|  9> end
| 10>
| 11> %pal
| 12>   nprocs 6
| 13>   end
| 14> * xyz 0 1
| 15>    C        2.11954        -0.60974         1.33165
| 16>    N        2.71327         0.53176         0.88818
| 17>    C        4.11504         0.69320         0.59450
| 18>    C        4.93352         0.89244         1.86785
| 19>    C        1.79243         1.59777         0.81763
| 20>    O        2.09260         2.71540         0.43602
| 21>    C        0.54863         1.01690         1.25717
| 22>    C        0.79694        -0.36260         1.56114
| 23>    C       -0.44923        -0.95236         2.00456
| 24>    O       -0.74405        -2.06983         2.36369
| 25>    N       -1.36904         0.11625         1.95217
| 26>    C       -2.76124        -0.08826         2.26972
| 27>    C       -3.62321        -0.19132         1.01357
| 28>    C       -0.78744         1.28360         1.51100
| 29>    C       -1.49346         2.51828         1.40180
| 30>    C       -0.90980         3.63577         0.91994
| 31>    C       -1.52631         4.93414         0.79679
| 32>    C       -2.78396         5.24471         1.30576
| 33>    C       -3.31126         6.52624         1.21200
| 34>    N       -4.65842         6.68037         1.69984
| 35>    O       -5.35387         5.68256         1.68684
| 36>    O       -5.03756         7.76667         2.08063
| 37>    C       -2.60372         7.56098         0.57636
| 38>    C       -1.37372         7.21210        -0.00170
| 39>    C       -0.83493         5.95536         0.12455
| 40>    C       -3.03611         8.94149         0.42190
| 41>    C       -3.37898         9.77066         1.42248
| 42>    C       -3.73445        11.14307         1.25570
| 43>    S       -3.85353        12.15903         2.65896
| 44>    C       -4.28749        13.53071         1.69533
| 45>    C       -4.34623        13.19000         0.34686
| 46>    C       -4.02630        11.84609         0.10599
| 47>    O       -4.68480        14.14242        -0.55013
| 48>    C       -4.76050        13.76890        -1.90648
| 49>    C       -4.53465        14.81025         2.25796
| 50>    S       -5.00093        16.14754         1.25547
| 51>    C       -5.08109        17.20335         2.63856
| 52>    C       -5.44818        18.57481         2.44669
| 53>    O       -5.54280        19.42345         3.31019
| 54>    C       -4.75252        16.52614         3.81706
| 55>    C       -4.44771        15.17310         3.58100
| 56>    C       -4.72448        17.13796         5.11095
| 57>    N       -4.36843        16.45320         6.13621
| 58>    N       -4.34254        17.02210         7.32358
| 59>    C       -3.94673        16.34029         8.45649
| 60>    C       -3.55209        15.00440         8.38593
| 61>    C       -3.15777        14.34436         9.53203
| 62>    C       -3.15086        14.99839        10.75436
| 63>    C       -3.54371        16.32516        10.82521
| 64>    C       -3.94038        16.99788         9.68599
| 65>    H        2.68326        -1.51715         1.44551
| 66>    H        4.20153         1.57618        -0.04444
| 67>    H        4.46840        -0.18479         0.04631
| 68>    H        4.59522         1.78270         2.39241
| 69>    H        5.98386         1.01286         1.61791
| 70>    H        4.82675         0.03604         2.53024
| 71>    H       -3.11525         0.71684         2.92013
| 72>    H       -2.80609        -1.03075         2.82293
| 73>    H       -3.56360         0.71929         0.42131
| 74>    H       -4.65980        -0.36033         1.29154
| 75>    H       -3.28688        -1.02449         0.40132
| 76>    H       -2.52371         2.52526         1.72529
| 77>    H        0.11718         3.57818         0.58412
| 78>    H       -3.38379         4.49535         1.79874
| 79>    H       -0.82564         7.97875        -0.52916
| 80>    H        0.13369         5.73738        -0.29959
| 81>    H       -2.94634         9.32947        -0.58468
| 82>    H       -3.36795         9.41967         2.44345
| 83>    H       -4.02653        11.39282        -0.86784
| 84>    H       -5.05610        14.66841        -2.44290
| 85>    H       -5.51107        12.98799        -2.06226
| 86>    H       -3.79077        13.42447        -2.27903
| 87>    H       -5.65248        18.82279         1.38596
| 88>    H       -4.17346        14.49032         4.36406
| 89>    H       -5.00696        18.18913         5.18213
| 90>    H       -4.61040        18.00499         7.42272
| 91>    H       -3.56274        14.51004         7.42826
| 92>    H       -2.85232        13.31024         9.47245
| 93>    H       -2.84078        14.47751        11.64733
| 94>    H       -3.54081        16.84010        11.77449
| 95>    H       -4.24658        18.03312         9.74128
| 96> *
| 97>
| 98>                          ****END OF INPUT****

CARTESIAN COORDINATES (ANGSTROEM)
---------------------------------
  C      2.119540   -0.609740    1.331650
  N      2.713270    0.531760    0.888180
  C      4.115040    0.693200    0.594500
  C      4.933520    0.892440    1.867850
  C      1.792430    1.597770    0.817630
  O      2.092600    2.715400    0.436020
  C      0.548630    1.016900    1.257170
  C      0.796940   -0.362600    1.561140
  C     -0.449230   -0.952360    2.004560
  O     -0.744050   -2.069830    2.363690
  N     -1.369040    0.116250    1.952170
  C     -2.761240   -0.088260    2.269720
  C     -3.623210   -0.191320    1.013570
  C     -0.787440    1.283600    1.511000
  C     -1.493460    2.518280    1.401800
  C     -0.909800    3.635770    0.919940
  C     -1.526310    4.934140    0.796790
  C     -2.783960    5.244710    1.305760
  C     -3.311260    6.526240    1.212000
  N     -4.658420    6.680370    1.699840
  O     -5.353870    5.682560    1.686840
  O     -5.037560    7.766670    2.080630
  C     -2.603720    7.560980    0.576360
  C     -1.373720    7.212100   -0.001700
  C     -0.834930    5.955360    0.124550
  C     -3.036110    8.941490    0.421900
  C     -3.378980    9.770660    1.422480
  C     -3.734450   11.143070    1.255700
  S     -3.853530   12.159030    2.658960
  C     -4.287490   13.530710    1.695330
  C     -4.346230   13.190000    0.346860
  C     -4.026300   11.846090    0.105990
  O     -4.684800   14.142420   -0.550130
  C     -4.760500   13.768900   -1.906480
  C     -4.534650   14.810250    2.257960
  S     -5.000930   16.147540    1.255470
  C     -5.081090   17.203350    2.638560
  C     -5.448180   18.574810    2.446690
  O     -5.542800   19.423450    3.310190
  C     -4.752520   16.526140    3.817060
  C     -4.447710   15.173100    3.581000
  C     -4.724480   17.137960    5.110950
  N     -4.368430   16.453200    6.136210
  N     -4.342540   17.022100    7.323580
  C     -3.946730   16.340290    8.456490
  C     -3.552090   15.004400    8.385930
  C     -3.157770   14.344360    9.532030
  C     -3.150860   14.998390   10.754360
  C     -3.543710   16.325160   10.825210
  C     -3.940380   16.997880    9.685990
  H      2.683260   -1.517150    1.445510
  H      4.201530    1.576180   -0.044440
  H      4.468400   -0.184790    0.046310
  H      4.595220    1.782700    2.392410
  H      5.983860    1.012860    1.617910
  H      4.826750    0.036040    2.530240
  H     -3.115250    0.716840    2.920130
  H     -2.806090   -1.030750    2.822930
  H     -3.563600    0.719290    0.421310
  H     -4.659800   -0.360330    1.291540
  H     -3.286880   -1.024490    0.401320
  H     -2.523710    2.525260    1.725290
  H      0.117180    3.578180    0.584120
  H     -3.383790    4.495350    1.798740
  H     -0.825640    7.978750   -0.529160
  H      0.133690    5.737380   -0.299590
  H     -2.946340    9.329470   -0.584680
  H     -3.367950    9.419670    2.443450
  H     -4.026530   11.392820   -0.867840
  H     -5.056100   14.668410   -2.442900
  H     -5.511070   12.987990   -2.062260
  H     -3.790770   13.424470   -2.279030
  H     -5.652480   18.822790    1.385960
  H     -4.173460   14.490320    4.364060
  H     -5.006960   18.189130    5.182130
  H     -4.610400   18.004990    7.422720
  H     -3.562740   14.510040    7.428260
  H     -2.852320   13.310240    9.472450
  H     -2.840780   14.477510   11.647330
  H     -3.540810   16.840100   11.774490
  H     -4.246580   18.033120    9.741280

 Total Charge           Charge          ....    0
 Multiplicity           Mult            ....    1
 Number of Electrons    NEL             ....  368
 Basis Dimension        Dim             ....  863

ORBITAL ENERGIES
----------------

  NO   OCC          E(Eh)            E(eV)
   0   2.0000     -88.962912     -2420.8039
   1   2.0000     -88.950817     -2420.4748
   2   2.0000     -19.262477      -524.1587
   3   2.0000     -19.244551      -523.6709
   4   2.0000     -19.241751      -523.5947
   5   2.0000     -19.191437      -522.2255
   6   2.0000     -19.188532      -522.1465
   7   2.0000     -19.185161      -522.0548
   8   2.0000     -14.649222      -398.6256
   9   2.0000     -14.461043      -393.5050
  10   2.0000     -14.452295      -393.2669
  11   2.0000     -14.450139      -393.2083
  12   2.0000     -14.442259      -392.9938
  13   2.0000     -10.371092      -282.2118
  14   2.0000     -10.370694      -282.2009
  15   2.0000     -10.343425      -281.4589
  16   2.0000     -10.342694      -281.4390
  17   2.0000     -10.341298      -281.4010
  18   2.0000     -10.336099      -281.2596
  19   2.0000     -10.334970      -281.2288
  20   2.0000     -10.327041      -281.0131
  21   2.0000     -10.316862      -280.7361
  22   2.0000     -10.311373      -280.5867
  23   2.0000     -10.311026      -280.5773
  24   2.0000     -10.309127      -280.5256
  25   2.0000     -10.306460      -280.4530
  26   2.0000     -10.302888      -280.3558
  27   2.0000     -10.302822      -280.3540
  28   2.0000     -10.301731      -280.3243
  29   2.0000     -10.300558      -280.2924
  30   2.0000     -10.296558      -280.1836
  31   2.0000     -10.294030      -280.1148
  32   2.0000     -10.293981      -280.1135
  33   2.0000     -10.293649      -280.1044
  34   2.0000     -10.292232      -280.0659
  35   2.0000     -10.288923      -279.9758
  36   2.0000     -10.286798      -279.9180
  37   2.0000     -10.283798      -279.8364
  38   2.0000     -10.282469      -279.8002
  39   2.0000     -10.279667      -279.7240
  40   2.0000     -10.265610      -279.3414
  41   2.0000     -10.264596      -279.3138
  42   2.0000     -10.262476      -279.2562
  43   2.0000     -10.259536      -279.1762
  44   2.0000     -10.258052      -279.1358
  45   2.0000     -10.257497      -279.1207
  46   2.0000     -10.257421      -279.1186
  47   2.0000     -10.256184      -279.0850
  48   2.0000     -10.250272      -278.9241
  49   2.0000     -10.248967      -278.8886
  50   2.0000      -8.058247      -219.2760
  51   2.0000      -8.045643      -218.9331
  52   2.0000      -6.027512      -164.0169
  53   2.0000      -6.023544      -163.9090
  54   2.0000      -6.020267      -163.8198
  55   2.0000      -6.014997      -163.6764
  56   2.0000      -6.010720      -163.5600
  57   2.0000      -6.007793      -163.4804
  58   2.0000      -1.324249       -36.0346
  59   2.0000      -1.167495       -31.7691
  60   2.0000      -1.141942       -31.0738
  61   2.0000      -1.129790       -30.7432
  62   2.0000      -1.123133       -30.5620
  63   2.0000      -1.112594       -30.2752
  64   2.0000      -1.103037       -30.0152
  65   2.0000      -1.060599       -28.8604
  66   2.0000      -1.052217       -28.6323
  67   2.0000      -0.996325       -27.1114
  68   2.0000      -0.992594       -27.0099
  69   2.0000      -0.975418       -26.5425
  70   2.0000      -0.954138       -25.9634
  71   2.0000      -0.930775       -25.3277
  72   2.0000      -0.923389       -25.1267
  73   2.0000      -0.909917       -24.7601
  74   2.0000      -0.904186       -24.6041
  75   2.0000      -0.894543       -24.3418
  76   2.0000      -0.875953       -23.8359
  77   2.0000      -0.867692       -23.6111
  78   2.0000      -0.851108       -23.1598
  79   2.0000      -0.845423       -23.0051
  80   2.0000      -0.835436       -22.7334
  81   2.0000      -0.821947       -22.3663
  82   2.0000      -0.818924       -22.2840
  83   2.0000      -0.813359       -22.1326
  84   2.0000      -0.804682       -21.8965
  85   2.0000      -0.795910       -21.6578
  86   2.0000      -0.792578       -21.5671
  87   2.0000      -0.784759       -21.3544
  88   2.0000      -0.764876       -20.8133
  89   2.0000      -0.759786       -20.6748
  90   2.0000      -0.735594       -20.0165
  91   2.0000      -0.732516       -19.9328
  92   2.0000      -0.712040       -19.3756
  93   2.0000      -0.708882       -19.2897
  94   2.0000      -0.704425       -19.1684
  95   2.0000      -0.693641       -18.8749
  96   2.0000      -0.688344       -18.7308
  97   2.0000      -0.679190       -18.4817
  98   2.0000      -0.670247       -18.2383
  99   2.0000      -0.654648       -17.8139
 100   2.0000      -0.652087       -17.7442
 101   2.0000      -0.649483       -17.6733
 102   2.0000      -0.646506       -17.5923
 103   2.0000      -0.635261       -17.2863
 104   2.0000      -0.626100       -17.0370
 105   2.0000      -0.624493       -16.9933
 106   2.0000      -0.623341       -16.9620
 107   2.0000      -0.607529       -16.5317
 108   2.0000      -0.601446       -16.3662
 109   2.0000      -0.595657       -16.2087
 110   2.0000      -0.595091       -16.1932
 111   2.0000      -0.590681       -16.0732
 112   2.0000      -0.584280       -15.8991
 113   2.0000      -0.580910       -15.8074
 114   2.0000      -0.578649       -15.7458
 115   2.0000      -0.572967       -15.5912
 116   2.0000      -0.568219       -15.4620
 117   2.0000      -0.565435       -15.3863
 118   2.0000      -0.560627       -15.2554
 119   2.0000      -0.557590       -15.1728
 120   2.0000      -0.550501       -14.9799
 121   2.0000      -0.547754       -14.9052
 122   2.0000      -0.539625       -14.6839
 123   2.0000      -0.539068       -14.6688
 124   2.0000      -0.530109       -14.4250
 125   2.0000      -0.528215       -14.3735
 126   2.0000      -0.526153       -14.3174
 127   2.0000      -0.520672       -14.1682
 128   2.0000      -0.517455       -14.0807
 129   2.0000      -0.514055       -13.9881
 130   2.0000      -0.510752       -13.8983
 131   2.0000      -0.509115       -13.8537
 132   2.0000      -0.503335       -13.6964
 133   2.0000      -0.503245       -13.6940
 134   2.0000      -0.499549       -13.5934
 135   2.0000      -0.498868       -13.5749
 136   2.0000      -0.496665       -13.5150
 137   2.0000      -0.489167       -13.3109
 138   2.0000      -0.488929       -13.3044
 139   2.0000      -0.488184       -13.2842
 140   2.0000      -0.480738       -13.0816
 141   2.0000      -0.477903       -13.0044
 142   2.0000      -0.471830       -12.8391
 143   2.0000      -0.468190       -12.7401
 144   2.0000      -0.465467       -12.6660
 145   2.0000      -0.464375       -12.6363
 146   2.0000      -0.458710       -12.4821
 147   2.0000      -0.456165       -12.4129
 148   2.0000      -0.452530       -12.3140
 149   2.0000      -0.451120       -12.2756
 150   2.0000      -0.446955       -12.1623
 151   2.0000      -0.443928       -12.0799
 152   2.0000      -0.442597       -12.0437
 153   2.0000      -0.440570       -11.9885
 154   2.0000      -0.435738       -11.8570
 155   2.0000      -0.434933       -11.8351
 156   2.0000      -0.431294       -11.7361
 157   2.0000      -0.425785       -11.5862
 158   2.0000      -0.423770       -11.5314
 159   2.0000      -0.422972       -11.5097
 160   2.0000      -0.421450       -11.4682
 161   2.0000      -0.408563       -11.1176
 162   2.0000      -0.403585       -10.9821
 163   2.0000      -0.397892       -10.8272
 164   2.0000      -0.396558       -10.7909
 165   2.0000      -0.387215       -10.5367
 166   2.0000      -0.384659       -10.4671
 167   2.0000      -0.380103       -10.3431
 168   2.0000      -0.372772       -10.1437
 169   2.0000      -0.357617        -9.7312
 170   2.0000      -0.355917        -9.6850
 171   2.0000      -0.346179        -9.4200
 172   2.0000      -0.344411        -9.3719
 173   2.0000      -0.329673        -8.9709
 174   2.0000      -0.327812        -8.9202
 175   2.0000      -0.313495        -8.5306
 176   2.0000      -0.313248        -8.5239
 177   2.0000      -0.311790        -8.4842
 178   2.0000      -0.311654        -8.4805
 179   2.0000      -0.309120        -8.4116
 180   2.0000      -0.305117        -8.3026
 181   2.0000      -0.254062        -6.9134
 182   2.0000      -0.246205        -6.6996
 183   2.0000      -0.238927        -6.5015
 184   0.0000      -0.075526        -2.0552
 185   0.0000      -0.054364        -1.4793
 186   0.0000      -0.041374        -1.1258
 187   0.0000      -0.019953        -0.5430
 188   0.0000      -0.000526        -0.0143

MULLIKEN ATOMIC CHARGES
-----------------------
   0 C :    0.035641
   1 N :   -0.254518
   2 C :    0.113562
   3 C :   -0.000976
   4 C :    0.168734
   5 O :   -0.222220
   6 C :   -0.104180
   7 C :    0.006766
   8 C :    0.158504
   9 O :   -0.183043
  10 N :   -0.269291
  11 C :    0.099052
  12 C :    0.002409
  13 C :    0.149725
  14 C :    0.002395
  15 C :    0.008361
  16 C :    0.105592
  17 C :   -0.054874
  18 C :    0.134676
  19 N :    0.245911
  20 O :   -0.238415
  21 O :   -0.228042
  22 C :    0.049241
  23 C :   -0.018357
  24 C :    0.016179
  25 C :   -0.098092
  26 C :    0.161340
  27 C :   -0.077642
  28 S :    0.160684
  29 C :   -0.122990
  30 C :    0.229115
  31 C :   -0.093383
  32 O :   -0.320670
  33 C :    0.178853
  34 C :   -0.020369
  35 S :    0.156413
  36 C :   -0.193903
  37 C :    0.171451
  38 O :   -0.212181
  39 C :    0.147062
  40 C :   -0.077284
  41 C :   -0.078202
  42 N :    0.011205
  43 N :   -0.046199
  44 C :    0.146364
  45 C :   -0.040824
  46 C :    0.033510
  47 C :    0.015841
  48 C :    0.018434
  49 C :   -0.047183
  50 H :    0.014182
  51 H :    0.039450
  52 H :    0.017307
  53 H :    0.030634
  54 H :    0.023033
  55 H :    0.015612
  56 H :    0.023679
  57 H :    0.043885
  58 H :    0.016141
  59 H :    0.025079
  60 H :    0.029025
  61 H :   -0.026052
  62 H :    0.008161
  63 H :   -0.003837
  64 H :   -0.011944
  65 H :    0.006142
  66 H :    0.006909
  67 H :   -0.002021
  68 H :   -0.024172
  69 H :    0.045744
  70 H :    0.029919
  71 H :    0.025594
  72 H :   -0.027716
  73 H :   -0.009168
  74 H :   -0.007518
  75 H :    0.109422
  76 H :   -0.021387
  77 H :   -0.018683
  78 H :   -0.024091
  79 H :   -0.017987
  80 H :   -0.039525
Sum of atomic charges:   -0.0000000

LOEWDIN ATOMIC CHARGES
----------------------
   0 C :    0.086703
   1 N :    0.001340
   2 C :    0.038631
   3 C :   -0.060739
   4 C :    0.075901
   5 O :   -0.213388
   6 C :   -0.135105
   7 C :   -0.127192
   8 C :    0.082168
   9 O :   -0.188389
  10 N :   -0.008747
  11 C :    0.035071
  12 C :   -0.061203
  13 C :    0.088109
  14 C :   -0.046936
  15 C :    0.038157
  16 C :   -0.033629
  17 C :    0.017461
  18 C :   -0.030074
  19 N :    0.284177
  20 O :   -0.208161
  21 O :   -0.185952
  22 C :    0.001433
  23 C :   -0.011213
  24 C :    0.018353
  25 C :   -0.043480
  26 C :   -0.001774
  27 C :   -0.161009
  28 S :    0.464225
  29 C :   -0.225411
  30 C :    0.021525
  31 C :   -0.089391
  32 O :   -0.100011
  33 C :    0.082046
  34 C :   -0.157419
  35 S :    0.461018
  36 C :   -0.255209
  37 C :    0.075967
  38 O :   -0.170457
  39 C :   -0.025847
  40 C :   -0.057307
  41 C :   -0.036980
  42 N :   -0.005653
  43 N :    0.057696
  44 C :    0.020823
  45 C :   -0.050953
  46 C :   -0.012013
  47 C :   -0.052637
  48 C :   -0.014636
  49 C :   -0.063053
  50 H :    0.032356
  51 H :    0.035382
  52 H :    0.024655
  53 H :    0.031659
  54 H :    0.029738
  55 H :    0.022947
  56 H :    0.022209
  57 H :    0.038106
  58 H :    0.021914
  59 H :    0.031365
  60 H :    0.032074
  61 H :    0.027782
  62 H :    0.038337
  63 H :    0.035784
  64 H :    0.035236
  65 H :    0.041190
  66 H :    0.030714
  67 H :    0.030241
  68 H :    0.028308
  69 H :    0.032777
  70 H :    0.018894
  71 H :    0.017231
  72 H :   -0.009377
  73 H :    0.027397
  74 H :    0.010022
  75 H :    0.069622
  76 H :    0.026280
  77 H :    0.027492
  78 H :    0.023441
  79 H :    0.027581
  80 H :    0.021807

  Mayer bond orders larger than 0.100000
B(  0-C ,  1-N ) :   1.1835 B(  0-C ,  7-C ) :   1.4635 B(  0-C , 50-H ) :   0.9910
B(  1-N ,  2-C ) :   0.9443 B(  1-N ,  4-C ) :   1.0658 B(  2-C ,  3-C ) :   1.1181
B(  2-C , 51-H ) :   0.9351 B(  2-C , 52-H ) :   0.9534 B(  3-C , 53-H ) :   0.9676
B(  3-C , 54-H ) :   0.9689 B(  3-C , 55-H ) :   0.9691 B(  4-C ,  5-O ) :   2.0083
B(  4-C ,  6-C ) :   1.0062 B(  5-O , 62-H ) :   0.1173 B(  6-C ,  7-C ) :   1.1968
B(  6-C , 13-C ) :   1.3910 B(  7-C ,  8-C ) :   0.9489 B(  8-C ,  9-O ) :   2.1797
B(  8-C , 10-N ) :   1.0158 B( 10-N , 11-C ) :   0.9466 B( 10-N , 13-C ) :   1.1601
B( 11-C , 12-C ) :   1.1191 B( 11-C , 56-H ) :   0.9496 B( 11-C , 57-H ) :   0.9270
B( 12-C , 58-H ) :   0.9685 B( 12-C , 59-H ) :   0.9678 B( 12-C , 60-H ) :   0.9642
B( 13-C , 14-C ) :   1.1357 B( 14-C , 15-C ) :   1.6377 B( 14-C , 61-H ) :   0.9572
B( 15-C , 16-C ) :   1.0643 B( 15-C , 62-H ) :   0.9641 B( 16-C , 17-C ) :   1.3101
B( 16-C , 24-C ) :   1.3037 B( 17-C , 18-C ) :   1.3687 B( 17-C , 63-H ) :   0.9861
B( 18-C , 19-N ) :   0.8811 B( 18-C , 22-C ) :   1.3807 B( 19-N , 20-O ) :   1.5465
B( 19-N , 21-O ) :   1.5404 B( 20-O , 21-O ) :   0.2651 B( 22-C , 23-C ) :   1.3472
B( 22-C , 25-C ) :   1.0157 B( 23-C , 24-C ) :   1.4003 B( 23-C , 64-H ) :   0.9922
B( 24-C , 65-H ) :   1.0034 B( 25-C , 26-C ) :   1.7912 B( 25-C , 66-H ) :   0.9534
B( 26-C , 27-C ) :   1.1183 B( 26-C , 67-H ) :   0.9486 B( 27-C , 28-S ) :   1.1345
B( 27-C , 29-C ) :   0.1099 B( 27-C , 31-C ) :   1.4700 B( 28-S , 29-C ) :   1.1234
B( 29-C , 30-C ) :   1.4535 B( 29-C , 34-C ) :   1.1624 B( 30-C , 31-C ) :   1.2189
B( 30-C , 32-O ) :   1.1471 B( 31-C , 68-H ) :   0.9994 B( 32-O , 33-C ) :   0.9509
B( 33-C , 69-H ) :   0.9796 B( 33-C , 70-H ) :   0.9714 B( 33-C , 71-H ) :   0.9711
B( 34-C , 35-S ) :   1.1590 B( 34-C , 40-C ) :   1.4481 B( 35-S , 36-C ) :   1.0577
B( 36-C , 37-C ) :   1.0582 B( 36-C , 39-C ) :   1.4169 B( 37-C , 38-O ) :   2.0923
B( 37-C , 72-H ) :   0.9534 B( 39-C , 40-C ) :   1.2765 B( 39-C , 41-C ) :   1.1040
B( 40-C , 73-H ) :   1.0031 B( 41-C , 42-N ) :   1.8223 B( 41-C , 74-H ) :   0.9370
B( 42-N , 43-N ) :   1.0946 B( 43-N , 44-C ) :   1.0984 B( 43-N , 75-H ) :   0.9168
B( 44-C , 45-C ) :   1.3713 B( 44-C , 49-C ) :   1.3422 B( 45-C , 46-C ) :   1.3828
B( 45-C , 76-H ) :   0.9917 B( 46-C , 47-C ) :   1.3781 B( 46-C , 77-H ) :   0.9877
B( 47-C , 48-C ) :   1.3898 B( 47-C , 78-H ) :   0.9936 B( 48-C , 49-C ) :   1.4008
B( 48-C , 79-H ) :   0.9868 B( 49-C , 80-H ) :   0.9940

-----------------------------------------------------------------------------
         ABSORPTION SPECTRUM VIA TRANSITION ELECTRIC DIPOLE MOMENTS
-----------------------------------------------------------------------------
State   Energy  Wavelength   fosc         T2         TX        TY        TZ
        (cm-1)    (nm)                  (au**2)     (au)      (au)      (au)
-----------------------------------------------------------------------------
   0   21234.2    470.9   0.895642626  13.88594   2.07238  -3.04155  -0.58324
   1   23649.7    422.8   0.532056244   7.40640  -0.37377  -2.65985  -0.43806
   2   25486.6    392.4   0.201290365   2.60008  -0.45564  -0.09297  -1.54397
   3   26556.6    376.6   0.159218360   1.97377  -0.60609   0.93872   0.85160
   4   28830.4    346.9   0.050206046   0.57330  -0.06069  -0.75459   0.01422
   5   28995.6    344.9   0.315372887   3.58070  -0.40427   1.84166   0.15985
   6   29150.1    343.1   0.077427343   0.87444   0.50207  -0.64244   0.45785
   7   29580.7    338.1   0.419993287   4.67423   0.28603  -0.10665   2.14034
   8   30778.3    324.9   0.001423924   0.01523  -0.04548  -0.01820  -0.11327
   9   31731.9    315.1   0.162817142   1.68920   0.22627   0.10781   1.27529
  10   32864.4    304.3   0.032659507   0.32716   0.54082  -0.00138  -0.18621
  11   33540.8    298.1   0.108130264   1.06133   0.30657  -0.05408  -0.98205
  12   34079.9    293.4   0.210144687   2.03000  -0.04354   1.39647  -0.27925
  13   34803.3    287.3   0.004528009   0.04283  -0.16096   0.12194  -0.04533
  14   35234.8    283.8   0.290935829   2.71832  -0.81637   1.41369  -0.23095
  15   36275.2    275.7   0.056529649   0.51303   0.18467  -0.59310   0.35659
  16   37260.3    268.4   0.088079949   0.77823  -0.17108   0.83324  -0.23382
  17   37541.9    266.4   0.230937170   2.02513   0.18300   1.33276  -0.46410
  18   38190.4    261.8   0.040500304   0.34912   0.25138  -0.03490   0.53358
  19   40081.3    249.5   0.069440290   0.57036  -0.11060  -0.71429   0.21890
  20   40216.0    248.7   0.009670952   0.07917   0.07736   0.10643   0.24871

FINAL SINGLE POINT ENERGY     -2947.042479680144

DIPOLE MOMENT
-------------
                                X             Y             Z
Electronic contribution:    -20.12945      32.84607      -3.11810
Nuclear contribution   :     21.65526     -33.66487       1.37881
                        -----------------------------------------
Total Dipole Moment    :      1.52581      -0.81880      -1.73929
                        -----------------------------------------
Magnitude (a.u.)       :      2.45431
Magnitude (Debye)      :      6.23836

Rotational constants in cm-1:     0.002578     0.000450     0.000416
Rotational constants in MHz :    77.286421    13.494038    12.480759

                             ****ORCA TERMINATED NORMALLY****
TOTAL RUN TIME: 0 days 0 hours 4 minutes 43 seconds 600 msec
