                         Program Version 4.2.0 -  RELEASE  -
|  1> # ORCA input file
|  2> # SCF done       -221.290729440181          0.000839844816
|  3> ! CAM-B3LYP def2-SVP def2/J RIJCOSX Grid4 TightSCF
|  4> %maxcore 5000
|  5> %tddft
|  6>     Mode sTDDFT
|  7>     Ethresh 5.0
|  8>     maxcore 5000
|  9> end
| 10>
| 11> %pal
| 12>   nprocs 6
| 13>   end
| 14> * xyz 0 1
| 15>    C       -3.62000         1.44521         6.77888
| 16>    N       -2.88067         2.56008         7.00790
| 17>    C       -1.94151         2.74604         8.08600
| 18>    C       -2.65387         3.01440         9.40897
| 19>    C       -3.19054         3.58617         6.07951
| 20>    O       -2.64954         4.67055         6.07205
| 21>    C       -4.20773         2.99109         5.24300
| 22>    C       -4.43992         1.66029         5.70414
| 23>    C       -5.45066         1.07481         4.84667
| 24>    O       -5.98167        -0.01115         4.83716
| 25>    N       -5.74785         2.09379         3.90755
| 26>    C       -6.81028         1.88985         2.95147
| 27>    C       -8.04848         2.71483         3.29262
| 28>    C       -5.02021         3.23507         4.14794
| 29>    C       -5.02332         4.48640         3.46184
| 30>    C       -5.55210         4.79564         2.26096
| 31>    C       -5.44476         6.11226         1.68594
| 32>    C       -5.17832         6.32533         0.31951
| 33>    C       -5.06560         5.22528        -0.65615
| 34>    O       -5.16632         4.04985        -0.46193
| 35>    S       -4.75111         5.91331        -2.28163
| 36>    C       -4.76207         7.59300        -1.67616
| 37>    O       -4.63086         8.53374        -2.41141
| 38>    C       -4.97992         7.59652        -0.21568
| 39>    C       -5.04575         8.78462         0.55642
| 40>    C       -5.42969         8.57090         1.89739
| 41>    C       -5.60948         7.29481         2.42515
| 42>    C       -6.10710         7.45101         3.81599
| 43>    O       -6.51517         6.64135         4.58824
| 44>    O       -6.10071         8.79287         4.09184
| 45>    C       -5.70454         9.52751         3.00301
| 46>    O       -5.63938        10.71614         3.04612
| 47>    C       -4.72144        10.03089        -0.07448
| 48>    C       -5.19490        11.26433         0.20742
| 49>    C       -4.91515        12.40367        -0.59630
| 50>    O       -5.18001        13.62572        -0.06974
| 51>    C       -4.89259        14.55501        -0.98410
| 52>    C       -4.44645        13.96284        -2.15585
| 53>    C       -4.47182        12.56084        -1.91644
| 54>    O       -4.11862        11.66417        -2.82646
| 55>    C       -4.05655        14.63092        -3.42226
| 56>    O       -4.25129        14.18977        -4.51034
| 57>    O       -3.45261        15.83652        -3.25338
| 58>    C       -5.05502        15.94906        -0.60239
| 59>    C       -5.74499        16.91046        -1.35709
| 60>    C       -6.47568        16.59166        -2.60733
| 61>    O       -6.65956        15.51617        -3.08861
| 62>    S       -7.15906        18.09972        -3.28132
| 63>    C       -6.63129        19.08301        -1.87808
| 64>    O       -6.88818        20.24715        -1.77727
| 65>    C       -5.87863        18.23127        -0.93428
| 66>    C       -5.38983        18.69566         0.31123
| 67>    C       -4.66601        17.73016         1.04115
| 68>    C       -4.50357        16.42622         0.59204
| 69>    C       -3.55779        15.74259         1.51289
| 70>    O       -3.08323        14.65317         1.44619
| 71>    O       -3.21925        16.65283         2.47687
| 72>    C       -3.81342        17.87519         2.25106
| 73>    O       -3.56961        18.82718         2.92242
| 74>    C       -5.61176        20.03613         0.76909
| 75>    C       -5.84036        20.33287         2.06989
| 76>    C       -6.08083        21.59477         2.67526
| 77>    N       -5.89557        22.86599         2.18732
| 78>    C       -5.40544        23.27447         0.89213
| 79>    C       -6.53133        23.40715        -0.13098
| 80>    C       -6.21640        23.84616         3.14982
| 81>    O       -6.10845        25.03781         2.94669
| 82>    C       -6.63897        23.09391         4.31135
| 83>    C       -6.53839        21.72082         3.98273
| 84>    C       -6.95398        20.94666         5.13183
| 85>    O       -7.05938        19.75560         5.32056
| 86>    N       -7.27347        21.92615         6.10127
| 87>    C       -7.67212        21.54410         7.43458
| 88>    C       -6.51216        21.64649         8.42202
| 89>    C       -7.08676        23.19742         5.62536
| 90>    C       -7.34433        24.37895         6.39654
| 91>    C       -7.13273        25.60922         5.92196
| 92>    H       -3.50524         0.57064         7.39283
| 93>    H       -1.32387         3.60608         7.81392
| 94>    H       -1.30731         1.85842         8.16626
| 95>    H       -3.26437         3.91040         9.32933
| 96>    H       -1.92234         3.16049        10.19855
| 97>    H       -3.29566         2.17804         9.67695
| 98>    H       -7.05231         0.82400         3.01055
| 99>    H       -6.45152         2.10126         1.94093
|100>    H       -8.44336         2.40697         4.25766
|101>    H       -8.81420         2.55564         2.53842
|102>    H       -7.81554         3.77589         3.34119
|103>    H       -4.45913         5.23936         3.99757
|104>    H       -5.99943         4.04502         1.62979
|105>    H       -4.04277         9.92666        -0.90647
|106>    H       -5.81891        11.45598         1.06648
|107>    H       -4.38174        10.75573        -2.61101
|108>    H       -3.18992        15.99740        -2.33906
|109>    H       -5.68807        20.78771         0.00088
|110>    H       -5.91846        19.52426         2.78497
|111>    H       -4.63688        22.57325         0.56061
|112>    H       -4.94554        24.25665         1.04061
|113>    H       -7.06155        22.46902        -0.27408
|114>    H       -6.12122        23.72107        -1.08667
|115>    H       -7.24190        24.15843         0.20453
|116>    H       -8.00142        20.50360         7.36361
|117>    H       -8.51669        22.15891         7.75750
|118>    H       -5.69864        20.99825         8.10599
|119>    H       -6.84112        21.33461         9.40934
|120>    H       -6.13841        22.66632         8.48208
|121>    H       -7.72691        24.23726         7.39772
|122>    H       -6.74992        25.77323         4.92811
|123>    H       -7.33689        26.47940         6.52164
|124> *
|125>
|126>                          ****END OF INPUT****

CARTESIAN COORDINATES (ANGSTROEM)
---------------------------------
  C     -3.620000    1.445210    6.778880
  N     -2.880670    2.560080    7.007900
  C     -1.941510    2.746040    8.086000
  C     -2.653870    3.014400    9.408970
  C     -3.190540    3.586170    6.079510
  O     -2.649540    4.670550    6.072050
  C     -4.207730    2.991090    5.243000
  C     -4.439920    1.660290    5.704140
  C     -5.450660    1.074810    4.846670
  O     -5.981670   -0.011150    4.837160
  N     -5.747850    2.093790    3.907550
  C     -6.810280    1.889850    2.951470
  C     -8.048480    2.714830    3.292620
  C     -5.020210    3.235070    4.147940
  C     -5.023320    4.486400    3.461840
  C     -5.552100    4.795640    2.260960
  C     -5.444760    6.112260    1.685940
  C     -5.178320    6.325330    0.319510
  C     -5.065600    5.225280   -0.656150
  O     -5.166320    4.049850   -0.461930
  S     -4.751110    5.913310   -2.281630
  C     -4.762070    7.593000   -1.676160
  O     -4.630860    8.533740   -2.411410
  C     -4.979920    7.596520   -0.215680
  C     -5.045750    8.784620    0.556420
  C     -5.429690    8.570900    1.897390
  C     -5.609480    7.294810    2.425150
  C     -6.107100    7.451010    3.815990
  O     -6.515170    6.641350    4.588240
  O     -6.100710    8.792870    4.091840
  C     -5.704540    9.527510    3.003010
  O     -5.639380   10.716140    3.046120
  C     -4.721440   10.030890   -0.074480
  C     -5.194900   11.264330    0.207420
  C     -4.915150   12.403670   -0.596300
  O     -5.180010   13.625720   -0.069740
  C     -4.892590   14.555010   -0.984100
  C     -4.446450   13.962840   -2.155850
  C     -4.471820   12.560840   -1.916440
  O     -4.118620   11.664170   -2.826460
  C     -4.056550   14.630920   -3.422260
  O     -4.251290   14.189770   -4.510340
  O     -3.452610   15.836520   -3.253380
  C     -5.055020   15.949060   -0.602390
  C     -5.744990   16.910460   -1.357090
  C     -6.475680   16.591660   -2.607330
  O     -6.659560   15.516170   -3.088610
  S     -7.159060   18.099720   -3.281320
  C     -6.631290   19.083010   -1.878080
  O     -6.888180   20.247150   -1.777270
  C     -5.878630   18.231270   -0.934280
  C     -5.389830   18.695660    0.311230
  C     -4.666010   17.730160    1.041150
  C     -4.503570   16.426220    0.592040
  C     -3.557790   15.742590    1.512890
  O     -3.083230   14.653170    1.446190
  O     -3.219250   16.652830    2.476870
  C     -3.813420   17.875190    2.251060
  O     -3.569610   18.827180    2.922420
  C     -5.611760   20.036130    0.769090
  C     -5.840360   20.332870    2.069890
  C     -6.080830   21.594770    2.675260
  N     -5.895570   22.865990    2.187320
  C     -5.405440   23.274470    0.892130
  C     -6.531330   23.407150   -0.130980
  C     -6.216400   23.846160    3.149820
  O     -6.108450   25.037810    2.946690
  C     -6.638970   23.093910    4.311350
  C     -6.538390   21.720820    3.982730
  C     -6.953980   20.946660    5.131830
  O     -7.059380   19.755600    5.320560
  N     -7.273470   21.926150    6.101270
  C     -7.672120   21.544100    7.434580
  C     -6.512160   21.646490    8.422020
  C     -7.086760   23.197420    5.625360
  C     -7.344330   24.378950    6.396540
  C     -7.132730   25.609220    5.921960
  H     -3.505240    0.570640    7.392830
  H     -1.323870    3.606080    7.813920
  H     -1.307310    1.858420    8.166260
  H     -3.264370    3.910400    9.329330
  H     -1.922340    3.160490   10.198550
  H     -3.295660    2.178040    9.676950
  H     -7.052310    0.824000    3.010550
  H     -6.451520    2.101260    1.940930
  H     -8.443360    2.406970    4.257660
  H     -8.814200    2.555640    2.538420
  H     -7.815540    3.775890    3.341190
  H     -4.459130    5.239360    3.997570
  H     -5.999430    4.045020    1.629790
  H     -4.042770    9.926660   -0.906470
  H     -5.818910   11.455980    1.066480
  H     -4.381740   10.755730   -2.611010
  H     -3.189920   15.997400   -2.339060
  H     -5.688070   20.787710    0.000880
  H     -5.918460   19.524260    2.784970
  H     -4.636880   22.573250    0.560610
  H     -4.945540   24.256650    1.040610
  H     -7.061550   22.469020   -0.274080
  H     -6.121220   23.721070   -1.086670
  H     -7.241900   24.158430    0.204530
  H     -8.001420   20.503600    7.363610
  H     -8.516690   22.158910    7.757500
  H     -5.698640   20.998250    8.105990
  H     -6.841120   21.334610    9.409340
  H     -6.138410   22.666320    8.482080
  H     -7.726910   24.237260    7.397720
  H     -6.749920   25.773230    4.928110
  H     -7.336890   26.479400    6.521640

 Total Charge           Charge          ....    0
 Multiplicity           Mult            ....    1
 Number of Electrons    NEL             ....  554
 Basis Dimension        Dim             .... 1246

ORBITAL ENERGIES
----------------

  NO   OCC          E(Eh)            E(eV)
   0   2.0000     -88.966960     -2420.9141
   1   2.0000     -88.964192     -2420.8387
   2   2.0000     -19.312619      -525.5231
   3   2.0000     -19.301974      -525.2334
   4   2.0000     -19.300242      -525.1863
   5   2.0000     -19.264432      -524.2119
   6   2.0000     -19.262770      -524.1666
   7   2.0000     -19.262314      -524.1542
   8   2.0000     -19.258907      -524.0615
   9   2.0000     -19.257893      -524.0339
  10   2.0000     -19.254848      -523.9511
  11   2.0000     -19.248797      -523.7864
  12   2.0000     -19.248692      -523.7835
  13   2.0000     -19.248531      -523.7792
  14   2.0000     -19.245895      -523.7074
  15   2.0000     -19.203140      -522.5440
  16   2.0000     -19.201510      -522.4996
  17   2.0000     -19.195683      -522.3411
  18   2.0000     -19.191464      -522.2263
  19   2.0000     -19.186566      -522.0930
  20   2.0000     -14.462159      -393.5354
  21   2.0000     -14.457192      -393.4002
  22   2.0000     -14.456240      -393.3743
  23   2.0000     -14.451689      -393.2505
  24   2.0000     -10.444200      -284.2011
  25   2.0000     -10.443782      -284.1898
  26   2.0000     -10.443238      -284.1749
  27   2.0000     -10.440781      -284.1081
  28   2.0000     -10.424016      -283.6519
  29   2.0000     -10.420264      -283.5498
  30   2.0000     -10.420080      -283.5448
  31   2.0000     -10.418171      -283.4928
  32   2.0000     -10.408367      -283.2261
  33   2.0000     -10.384308      -282.5714
  34   2.0000     -10.377833      -282.3952
  35   2.0000     -10.375664      -282.3362
  36   2.0000     -10.373236      -282.2701
  37   2.0000     -10.370259      -282.1891
  38   2.0000     -10.361430      -281.9488
  39   2.0000     -10.354038      -281.7477
  40   2.0000     -10.352905      -281.7169
  41   2.0000     -10.351911      -281.6898
  42   2.0000     -10.348741      -281.6036
  43   2.0000     -10.348673      -281.6017
  44   2.0000     -10.345612      -281.5184
  45   2.0000     -10.343085      -281.4496
  46   2.0000     -10.342788      -281.4416
  47   2.0000     -10.341909      -281.4177
  48   2.0000     -10.341898      -281.4174
  49   2.0000     -10.341755      -281.4135
  50   2.0000     -10.340766      -281.3866
  51   2.0000     -10.339299      -281.3466
  52   2.0000     -10.339199      -281.3439
  53   2.0000     -10.338318      -281.3199
  54   2.0000     -10.337897      -281.3085
  55   2.0000     -10.337840      -281.3069
  56   2.0000     -10.315204      -280.6910
  57   2.0000     -10.311736      -280.5966
  58   2.0000     -10.310966      -280.5756
  59   2.0000     -10.308119      -280.4982
  60   2.0000     -10.306910      -280.4653
  61   2.0000     -10.305342      -280.4226
  62   2.0000     -10.303321      -280.3676
  63   2.0000     -10.301261      -280.3116
  64   2.0000     -10.301224      -280.3105
  65   2.0000     -10.301051      -280.3058
  66   2.0000     -10.296443      -280.1804
  67   2.0000     -10.295573      -280.1568
  68   2.0000     -10.290152      -280.0093
  69   2.0000     -10.271904      -279.5127
  70   2.0000     -10.269069      -279.4356
  71   2.0000     -10.266573      -279.3677
  72   2.0000     -10.265487      -279.3381
  73   2.0000     -10.264446      -279.3098
  74   2.0000     -10.261980      -279.2427
  75   2.0000     -10.259443      -279.1736
  76   2.0000     -10.257849      -279.1303
  77   2.0000      -8.066275      -219.4945
  78   2.0000      -8.063368      -219.4154
  79   2.0000      -6.035195      -164.2260
  80   2.0000      -6.032267      -164.1463
  81   2.0000      -6.031835      -164.1346
  82   2.0000      -6.028928      -164.0555
  83   2.0000      -6.027262      -164.0101
  84   2.0000      -6.024391      -163.9320
  85   2.0000      -1.252269       -34.0760
  86   2.0000      -1.251917       -34.0664
  87   2.0000      -1.236286       -33.6411
  88   2.0000      -1.185404       -32.2565
  89   2.0000      -1.184965       -32.2445
  90   2.0000      -1.181536       -32.1512
  91   2.0000      -1.180376       -32.1197
  92   2.0000      -1.177358       -32.0375
  93   2.0000      -1.177143       -32.0317
  94   2.0000      -1.176462       -32.0132
  95   2.0000      -1.162585       -31.6355
  96   2.0000      -1.141855       -31.0715
  97   2.0000      -1.139482       -31.0069
  98   2.0000      -1.137998       -30.9665
  99   2.0000      -1.134876       -30.8815
 100   2.0000      -1.130962       -30.7750
 101   2.0000      -1.126444       -30.6521
 102   2.0000      -1.101091       -29.9622
 103   2.0000      -1.071624       -29.1604
 104   2.0000      -1.065633       -28.9973
 105   2.0000      -1.058902       -28.8142
 106   2.0000      -1.054585       -28.6967
 107   2.0000      -1.033271       -28.1167
 108   2.0000      -1.027511       -27.9600
 109   2.0000      -0.967901       -26.3379
 110   2.0000      -0.966162       -26.2906
 111   2.0000      -0.954770       -25.9806
 112   2.0000      -0.948201       -25.8019
 113   2.0000      -0.934060       -25.4171
 114   2.0000      -0.929018       -25.2799
 115   2.0000      -0.920860       -25.0579
 116   2.0000      -0.918379       -24.9904
 117   2.0000      -0.904949       -24.6249
 118   2.0000      -0.901116       -24.5206
 119   2.0000      -0.891589       -24.2614
 120   2.0000      -0.889017       -24.1914
 121   2.0000      -0.885636       -24.0994
 122   2.0000      -0.873573       -23.7711
 123   2.0000      -0.871268       -23.7084
 124   2.0000      -0.845532       -23.0081
 125   2.0000      -0.823531       -22.4094
 126   2.0000      -0.821955       -22.3665
 127   2.0000      -0.820575       -22.3290
 128   2.0000      -0.812625       -22.1127
 129   2.0000      -0.811666       -22.0866
 130   2.0000      -0.809680       -22.0325
 131   2.0000      -0.796643       -21.6778
 132   2.0000      -0.790353       -21.5066
 133   2.0000      -0.779836       -21.2204
 134   2.0000      -0.776285       -21.1238
 135   2.0000      -0.769845       -20.9485
 136   2.0000      -0.766047       -20.8452
 137   2.0000      -0.763258       -20.7693
 138   2.0000      -0.760759       -20.7013
 139   2.0000      -0.756100       -20.5745
 140   2.0000      -0.743087       -20.2204
 141   2.0000      -0.723703       -19.6930
 142   2.0000      -0.720771       -19.6132
 143   2.0000      -0.717729       -19.5304
 144   2.0000      -0.711822       -19.3697
 145   2.0000      -0.709436       -19.3047
 146   2.0000      -0.706381       -19.2216
 147   2.0000      -0.700386       -19.0585
 148   2.0000      -0.699460       -19.0333
 149   2.0000      -0.684321       -18.6213
 150   2.0000      -0.681888       -18.5551
 151   2.0000      -0.669748       -18.2248
 152   2.0000      -0.663110       -18.0441
 153   2.0000      -0.655159       -17.8278
 154   2.0000      -0.653732       -17.7890
 155   2.0000      -0.652026       -17.7425
 156   2.0000      -0.651038       -17.7156
 157   2.0000      -0.645352       -17.5609
 158   2.0000      -0.643055       -17.4984
 159   2.0000      -0.641112       -17.4455
 160   2.0000      -0.637348       -17.3431
 161   2.0000      -0.633304       -17.2331
 162   2.0000      -0.626723       -17.0540
 163   2.0000      -0.618099       -16.8193
 164   2.0000      -0.613106       -16.6835
 165   2.0000      -0.611116       -16.6293
 166   2.0000      -0.604251       -16.4425
 167   2.0000      -0.603021       -16.4090
 168   2.0000      -0.594354       -16.1732
 169   2.0000      -0.590828       -16.0773
 170   2.0000      -0.588837       -16.0231
 171   2.0000      -0.586335       -15.9550
 172   2.0000      -0.585427       -15.9303
 173   2.0000      -0.581720       -15.8294
 174   2.0000      -0.579353       -15.7650
 175   2.0000      -0.577937       -15.7265
 176   2.0000      -0.576608       -15.6903
 177   2.0000      -0.575185       -15.6516
 178   2.0000      -0.572791       -15.5864
 179   2.0000      -0.569517       -15.4973
 180   2.0000      -0.567491       -15.4422
 181   2.0000      -0.565231       -15.3807
 182   2.0000      -0.560809       -15.2604
 183   2.0000      -0.557413       -15.1680
 184   2.0000      -0.556817       -15.1518
 185   2.0000      -0.555091       -15.1048
 186   2.0000      -0.553224       -15.0540
 187   2.0000      -0.551736       -15.0135
 188   2.0000      -0.548923       -14.9369
 189   2.0000      -0.546729       -14.8773
 190   2.0000      -0.545151       -14.8343
 191   2.0000      -0.540089       -14.6966
 192   2.0000      -0.536822       -14.6077
 193   2.0000      -0.536452       -14.5976
 194   2.0000      -0.534974       -14.5574
 195   2.0000      -0.532512       -14.4904
 196   2.0000      -0.530576       -14.4377
 197   2.0000      -0.528890       -14.3918
 198   2.0000      -0.527196       -14.3457
 199   2.0000      -0.525666       -14.3041
 200   2.0000      -0.525037       -14.2870
 201   2.0000      -0.524463       -14.2714
 202   2.0000      -0.519446       -14.1349
 203   2.0000      -0.519158       -14.1270
 204   2.0000      -0.518112       -14.0985
 205   2.0000      -0.517470       -14.0811
 206   2.0000      -0.514796       -14.0083
 207   2.0000      -0.513760       -13.9801
 208   2.0000      -0.510325       -13.8866
 209   2.0000      -0.508054       -13.8249
 210   2.0000      -0.507481       -13.8093
 211   2.0000      -0.506521       -13.7831
 212   2.0000      -0.505001       -13.7418
 213   2.0000      -0.503747       -13.7077
 214   2.0000      -0.503318       -13.6960
 215   2.0000      -0.502427       -13.6717
 216   2.0000      -0.494888       -13.4666
 217   2.0000      -0.494323       -13.4512
 218   2.0000      -0.491207       -13.3664
 219   2.0000      -0.486430       -13.2364
 220   2.0000      -0.486080       -13.2269
 221   2.0000      -0.481679       -13.1072
 222   2.0000      -0.478252       -13.0139
 223   2.0000      -0.476603       -12.9690
 224   2.0000      -0.471589       -12.8326
 225   2.0000      -0.470096       -12.7920
 226   2.0000      -0.468344       -12.7443
 227   2.0000      -0.466928       -12.7058
 228   2.0000      -0.465927       -12.6785
 229   2.0000      -0.463954       -12.6248
 230   2.0000      -0.459476       -12.5030
 231   2.0000      -0.458956       -12.4888
 232   2.0000      -0.455452       -12.3935
 233   2.0000      -0.455110       -12.3842
 234   2.0000      -0.450044       -12.2463
 235   2.0000      -0.447594       -12.1797
 236   2.0000      -0.442068       -12.0293
 237   2.0000      -0.441208       -12.0059
 238   2.0000      -0.440543       -11.9878
 239   2.0000      -0.434580       -11.8255
 240   2.0000      -0.434096       -11.8123
 241   2.0000      -0.429557       -11.6888
 242   2.0000      -0.425091       -11.5673
 243   2.0000      -0.423834       -11.5331
 244   2.0000      -0.421972       -11.4824
 245   2.0000      -0.421458       -11.4685
 246   2.0000      -0.417859       -11.3705
 247   2.0000      -0.410556       -11.1718
 248   2.0000      -0.408302       -11.1105
 249   2.0000      -0.405610       -11.0372
 250   2.0000      -0.402680       -10.9575
 251   2.0000      -0.398286       -10.8379
 252   2.0000      -0.390185       -10.6175
 253   2.0000      -0.387781       -10.5521
 254   2.0000      -0.387207       -10.5364
 255   2.0000      -0.383327       -10.4309
 256   2.0000      -0.382563       -10.4101
 257   2.0000      -0.381648       -10.3852
 258   2.0000      -0.375434       -10.2161
 259   2.0000      -0.364318        -9.9136
 260   2.0000      -0.361344        -9.8327
 261   2.0000      -0.360884        -9.8201
 262   2.0000      -0.358316        -9.7503
 263   2.0000      -0.357063        -9.7162
 264   2.0000      -0.355799        -9.6818
 265   2.0000      -0.355019        -9.6606
 266   2.0000      -0.348706        -9.4888
 267   2.0000      -0.345538        -9.4026
 268   2.0000      -0.336449        -9.1553
 269   2.0000      -0.334947        -9.1144
 270   2.0000      -0.331189        -9.0121
 271   2.0000      -0.330841        -9.0026
 272   2.0000      -0.320940        -8.7332
 273   2.0000      -0.316162        -8.6032
 274   2.0000      -0.276994        -7.5374
 275   2.0000      -0.252771        -6.8782
 276   2.0000      -0.249477        -6.7886
 277   0.0000      -0.107352        -2.9212
 278   0.0000      -0.106834        -2.9071
 279   0.0000      -0.103950        -2.8286
 280   0.0000      -0.091585        -2.4921
 281   0.0000      -0.066368        -1.8060

MULLIKEN ATOMIC CHARGES
-----------------------
   0 C :    0.060183
   1 N :   -0.268472
   2 C :    0.107362
   3 C :   -0.002046
   4 C :    0.169694
   5 O :   -0.187888
   6 C :   -0.069950
   7 C :   -0.008350
   8 C :    0.170951
   9 O :   -0.183061
  10 N :   -0.277779
  11 C :    0.094252
  12 C :   -0.007838
  13 C :    0.107770
  14 C :    0.027467
  15 C :   -0.032665
  16 C :    0.028047
  17 C :    0.032283
  18 C :    0.040065
  19 O :   -0.125429
  20 S :    0.044836
  21 C :    0.057270
  22 O :   -0.163282
  23 C :    0.014806
  24 C :    0.073470
  25 C :   -0.072140
  26 C :   -0.079402
  27 C :    0.227617
  28 O :   -0.091118
  29 O :   -0.219837
  30 C :    0.242102
  31 O :   -0.101709
  32 C :   -0.106038
  33 C :    0.041792
  34 C :    0.084417
  35 O :   -0.173903
  36 C :    0.081544
  37 C :   -0.042451
  38 C :    0.072870
  39 O :   -0.141478
  40 C :    0.150304
  41 O :   -0.126290
  42 O :   -0.184036
  43 C :   -0.106287
  44 C :    0.065888
  45 C :    0.053552
  46 O :   -0.110403
  47 S :    0.050561
  48 C :    0.037396
  49 O :   -0.125623
  50 C :    0.025897
  51 C :    0.056154
  52 C :   -0.085103
  53 C :   -0.049941
  54 C :    0.241210
  55 O :   -0.088770
  56 O :   -0.225717
  57 C :    0.231554
  58 O :   -0.088540
  59 C :   -0.064326
  60 C :    0.041971
  61 C :    0.085814
  62 N :   -0.266970
  63 C :    0.102966
  64 C :    0.006554
  65 C :    0.166321
  66 O :   -0.210972
  67 C :   -0.067387
  68 C :   -0.033213
  69 C :    0.160435
  70 O :   -0.179918
  71 N :   -0.269308
  72 C :    0.094094
  73 C :    0.005892
  74 C :    0.126327
  75 C :   -0.040246
  76 C :    0.025330
  77 H :    0.020592
  78 H :    0.044191
  79 H :    0.020381
  80 H :    0.033532
  81 H :    0.025463
  82 H :    0.015564
  83 H :    0.045318
  84 H :    0.033726
  85 H :    0.025598
  86 H :    0.021126
  87 H :    0.029188
  88 H :    0.012516
  89 H :    0.023529
  90 H :    0.005748
  91 H :    0.027132
  92 H :    0.200507
  93 H :    0.182210
  94 H :    0.024822
  95 H :    0.014744
  96 H :    0.022750
  97 H :    0.037778
  98 H :    0.028016
  99 H :    0.021249
 100 H :    0.025396
 101 H :    0.046290
 102 H :    0.025871
 103 H :    0.032775
 104 H :    0.024997
 105 H :    0.016318
 106 H :   -0.014784
 107 H :    0.061952
 108 H :    0.036373
Sum of atomic charges:   -0.0000000

LOEWDIN ATOMIC CHARGES
----------------------
   0 C :    0.105488
   1 N :   -0.003003
   2 C :    0.038145
   3 C :   -0.060255
   4 C :    0.081114
   5 O :   -0.187982
   6 C :   -0.108502
   7 C :   -0.133406
   8 C :    0.084476
   9 O :   -0.185636
  10 N :   -0.009303
  11 C :    0.034235
  12 C :   -0.063649
  13 C :    0.074760
  14 C :    0.014241
  15 C :   -0.023500
  16 C :    0.022731
  17 C :   -0.049456
  18 C :   -0.040419
  19 O :   -0.107773
  20 S :    0.326352
  21 C :   -0.033893
  22 O :   -0.132748
  23 C :   -0.059578
  24 C :    0.034385
  25 C :   -0.046223
  26 C :   -0.039751
  27 C :    0.104623
  28 O :   -0.090292
  29 O :   -0.048256
  30 C :    0.111977
  31 O :   -0.091076
  32 C :   -0.066357
  33 C :    0.023741
  34 C :   -0.026705
  35 O :    0.042887
  36 C :    0.039187
  37 C :   -0.119180
  38 C :    0.053090
  39 O :   -0.006402
  40 C :    0.077919
  41 O :   -0.114721
  42 O :   -0.046206
  43 C :   -0.020851
  44 C :   -0.040675
  45 C :   -0.046727
  46 O :   -0.089251
  47 S :    0.329825
  48 C :   -0.040633
  49 O :   -0.111126
  50 C :   -0.055363
  51 C :    0.040397
  52 C :   -0.050453
  53 C :   -0.032684
  54 C :    0.100776
  55 O :   -0.088767
  56 O :   -0.051007
  57 C :    0.108254
  58 O :   -0.086025
  59 C :   -0.042252
  60 C :    0.026931
  61 C :    0.057907
  62 N :    0.001172
  63 C :    0.035693
  64 C :   -0.062247
  65 C :    0.081583
  66 O :   -0.200465
  67 C :   -0.132632
  68 C :   -0.094686
  69 C :    0.085954
  70 O :   -0.178880
  71 N :   -0.002223
  72 C :    0.036168
  73 C :   -0.060032
  74 C :    0.098479
  75 C :   -0.056216
  76 C :    0.040596
  77 H :    0.035003
  78 H :    0.037129
  79 H :    0.025310
  80 H :    0.032843
  81 H :    0.031073
  82 H :    0.022662
  83 H :    0.037989
  84 H :    0.022995
  85 H :    0.031575
  86 H :    0.030106
  87 H :    0.023277
  88 H :    0.043923
  89 H :    0.033928
  90 H :    0.024486
  91 H :    0.040162
  92 H :    0.092998
  93 H :    0.084475
  94 H :    0.035205
  95 H :    0.044898
  96 H :    0.023296
  97 H :    0.036142
  98 H :    0.022772
  99 H :    0.031332
 100 H :    0.031715
 101 H :    0.038655
 102 H :    0.023864
 103 H :    0.033644
 104 H :    0.031591
 105 H :    0.022612
 106 H :    0.031197
 107 H :    0.035118
 108 H :    0.032401

  Mayer bond orders larger than 0.100000
B(  0-C ,  1-N ) :   1.2025 B(  0-C ,  7-C ) :   1.4498 B(  0-C , 77-H ) :   0.9883
B(  1-N ,  2-C ) :   0.9398 B(  1-N ,  4-C ) :   1.0269 B(  2-C ,  3-C ) :   1.1180
B(  2-C , 78-H ) :   0.9350 B(  2-C , 79-H ) :   0.9543 B(  3-C , 80-H ) :   0.9677
B(  3-C , 81-H ) :   0.9687 B(  3-C , 82-H ) :   0.9690 B(  4-C ,  5-O ) :   2.1286
B(  4-C ,  6-C ) :   0.9812 B(  6-C ,  7-C ) :   1.1979 B(  6-C , 13-C ) :   1.4096
B(  7-C ,  8-C ) :   0.9546 B(  8-C ,  9-O ) :   2.1709 B(  8-C , 10-N ) :   1.0151
B( 10-N , 11-C ) :   0.9425 B( 10-N , 13-C ) :   1.1660 B( 11-C , 12-C ) :   1.1138
B( 11-C , 83-H ) :   0.9227 B( 11-C , 84-H ) :   0.9512 B( 12-C , 85-H ) :   0.9624
B( 12-C , 86-H ) :   0.9674 B( 12-C , 87-H ) :   0.9670 B( 13-C , 14-C ) :   1.1900
B( 14-C , 15-C ) :   1.6415 B( 14-C , 88-H ) :   0.9379 B( 15-C , 16-C ) :   1.0905
B( 15-C , 89-H ) :   0.9439 B( 16-C , 17-C ) :   1.3682 B( 16-C , 26-C ) :   1.3228
B( 17-C , 18-C ) :   0.8528 B( 17-C , 23-C ) :   1.3129 B( 18-C , 19-O ) :   2.1616
B( 18-C , 20-S ) :   1.0290 B( 19-O , 20-S ) :   0.1035 B( 20-S , 21-C ) :   1.0529
B( 20-S , 22-O ) :   0.1002 B( 21-C , 22-O ) :   2.0715 B( 21-C , 23-C ) :   0.8741
B( 23-C , 24-C ) :   1.3389 B( 24-C , 25-C ) :   1.2883 B( 24-C , 32-C ) :   1.1531
B( 25-C , 26-C ) :   1.3847 B( 25-C , 30-C ) :   0.9033 B( 26-C , 27-C ) :   0.8985
B( 27-C , 28-O ) :   2.2592 B( 27-C , 29-O ) :   1.0558 B( 29-O , 30-C ) :   1.0591
B( 30-C , 31-O ) :   2.2195 B( 32-C , 33-C ) :   1.6553 B( 32-C , 90-H ) :   0.9432
B( 33-C , 34-C ) :   1.1666 B( 33-C , 91-H ) :   0.9357 B( 34-C , 35-O ) :   1.0740
B( 34-C , 36-C ) :   0.1198 B( 34-C , 38-C ) :   1.3377 B( 35-O , 36-C ) :   1.2102
B( 36-C , 37-C ) :   1.4900 B( 36-C , 43-C ) :   0.9838 B( 37-C , 38-C ) :   1.2508
B( 37-C , 40-C ) :   0.8565 B( 38-C , 39-O ) :   1.3436 B( 39-O , 92-H ) :   0.9205
B( 40-C , 41-O ) :   2.2689 B( 40-C , 42-O ) :   1.1813 B( 42-O , 93-H ) :   0.9546
B( 43-C , 44-C ) :   1.4119 B( 43-C , 53-C ) :   1.3697 B( 44-C , 45-C ) :   0.8272
B( 44-C , 50-C ) :   1.3219 B( 45-C , 46-O ) :   2.1779 B( 45-C , 47-S ) :   1.0265
B( 46-O , 47-S ) :   0.1096 B( 47-S , 48-C ) :   1.0432 B( 47-S , 49-O ) :   0.1051
B( 48-C , 49-O ) :   2.1439 B( 48-C , 50-C ) :   0.8525 B( 50-C , 51-C ) :   1.3381
B( 51-C , 52-C ) :   1.3005 B( 51-C , 59-C ) :   1.1237 B( 52-C , 53-C ) :   1.3634
B( 52-C , 57-C ) :   0.9026 B( 53-C , 54-C ) :   0.8908 B( 54-C , 55-O ) :   2.2685
B( 54-C , 56-O ) :   1.0641 B( 56-O , 57-C ) :   1.0450 B( 57-C , 58-O ) :   2.2628
B( 59-C , 60-C ) :   1.5956 B( 59-C , 94-H ) :   0.9483 B( 60-C , 61-C ) :   1.2061
B( 60-C , 95-H ) :   0.9351 B( 61-C , 62-N ) :   1.1655 B( 61-C , 68-C ) :   1.3645
B( 62-N , 63-C ) :   0.9386 B( 62-N , 65-C ) :   1.0566 B( 63-C , 64-C ) :   1.1209
B( 63-C , 96-H ) :   0.9493 B( 63-C , 97-H ) :   0.9256 B( 64-C , 98-H ) :   0.9637
B( 64-C , 99-H ) :   0.9680 B( 64-C ,100-H ) :   0.9592 B( 65-C , 66-O ) :   2.0393
B( 65-C , 67-C ) :   0.9884 B( 67-C , 68-C ) :   1.2457 B( 67-C , 74-C ) :   1.3428
B( 68-C , 69-C ) :   0.9681 B( 69-C , 70-O ) :   2.1389 B( 69-C , 71-N ) :   1.0213
B( 71-N , 72-C ) :   0.9417 B( 71-N , 74-C ) :   1.1877 B( 72-C , 73-C ) :   1.1203
B( 72-C ,101-H ) :   0.9287 B( 72-C ,102-H ) :   0.9510 B( 73-C ,103-H ) :   0.9638
B( 73-C ,104-H ) :   0.9679 B( 73-C ,105-H ) :   0.9686 B( 74-C , 75-C ) :   1.1307
B( 75-C , 76-C ) :   1.8805 B( 75-C ,106-H ) :   0.9540 B( 76-C ,107-H ) :   0.9249
B( 76-C ,108-H ) :   0.9447

-----------------------------------------------------------------------------
         ABSORPTION SPECTRUM VIA TRANSITION ELECTRIC DIPOLE MOMENTS
-----------------------------------------------------------------------------
State   Energy  Wavelength   fosc         T2         TX        TY        TZ
        (cm-1)    (nm)                  (au**2)     (au)      (au)      (au)
-----------------------------------------------------------------------------
   0   15262.1    655.2   0.019448101   0.41951  -0.40771   0.45243  -0.22041
   1   15657.0    638.7   0.031023493   0.65231  -0.14581   0.48378   0.63009
   2   16242.0    615.7   0.751298039  15.22816   0.97144  -3.09872  -2.16388
   3   18599.6    537.6   0.166462022   2.94637   0.35287  -1.36326   0.98152
   4   18916.4    528.6   0.588192779  10.23662  -0.64604   1.67990  -2.64522
   5   19309.2    517.9   0.000332063   0.00566   0.04176   0.06258  -0.00115
   6   21960.3    455.4   0.489935078   7.34472   0.56735   2.63330  -0.29760
   7   23924.1    418.0   0.003396830   0.04674   0.05034   0.01863  -0.20943
   8   24418.9    409.5   0.178462154   2.40600  -0.24499  -1.07373   1.09228
   9   25045.6    399.3   0.002531568   0.03328  -0.15255  -0.09745  -0.02256
  10   25589.1    390.8   0.017495613   0.22509  -0.24079   0.40658  -0.04243
  11   26388.8    378.9   0.023248191   0.29003   0.49099   0.22035   0.02015
  12   26722.8    374.2   0.006396956   0.07881  -0.10534  -0.22627   0.12851
  13   27458.4    364.2   0.001408723   0.01689  -0.09031  -0.04811  -0.08012
  14   27702.7    361.0   0.081238167   0.96541  -0.44200  -0.83114   0.28152
  15   27890.2    358.5   0.011315266   0.13356   0.11453  -0.02059  -0.34644
  16   27971.0    357.5   0.014046945   0.16533  -0.15682  -0.37417   0.02707
  17   28474.4    351.2   0.055733843   0.64438  -0.39601  -0.05372  -0.69618
  18   28600.5    349.6   0.010092855   0.11618   0.07272   0.13055   0.30634
  19   29505.5    338.9   0.001000027   0.01116   0.06505   0.04799  -0.06799
  20   29875.3    334.7   0.035265476   0.38861   0.20517   0.58853  -0.01195
  21   30530.2    327.5   0.022298113   0.24044   0.33769  -0.16844   0.31312
  22   30612.6    326.7   0.022392048   0.24081   0.02326   0.20181   0.44670
  23   30808.9    324.6   0.024857569   0.26562   0.34795   0.28099   0.25611
  24   31241.6    320.1   0.009993330   0.10531  -0.19531  -0.15997  -0.20389
  25   31250.0    320.0   0.007627240   0.08035   0.25945   0.11412  -0.00399
  26   31307.9    319.4   0.054567096   0.57379   0.07964   0.45093   0.60342
  27   31745.5    315.0   0.058817882   0.60996   0.53808   0.56604  -0.00554
  28   32255.0    310.0   0.004662593   0.04759   0.02477   0.04056   0.21291
  29   32333.0    309.3   0.000044261   0.00045   0.00965  -0.00718  -0.01749
  30   32688.0    305.9   0.122742367   1.23618  -0.06510   0.71093   0.85236
  31   33285.3    300.4   0.034498726   0.34121   0.18891  -0.47180  -0.28798
  32   33345.6    299.9   0.013011574   0.12846  -0.06290   0.02622  -0.35188
  33   33493.4    298.6   0.063622768   0.62536  -0.08197   0.76639   0.17690
  34   33780.4    296.0   0.070659508   0.68862   0.03802  -0.47257   0.68107
  35   34011.7    294.0   0.052206825   0.50533  -0.16466   0.64452   0.25062
  36   34069.3    293.5   0.058608085   0.56633  -0.02539   0.33792  -0.67193
  37   34377.1    290.9   0.110040787   1.05380  -0.22869   0.86179   0.50875
  38   34473.4    290.1   0.015457958   0.14762  -0.12798   0.36200   0.01410
  39   34601.3    289.0   0.016303789   0.15512  -0.01266   0.24778  -0.30588
  40   34719.4    288.0   0.047437173   0.44980   0.17544   0.37934   0.52453
  41   35189.0    284.2   0.112558120   1.05304   0.12118  -0.87193   0.52734
  42   35355.1    282.8   0.017032596   0.15860   0.01831  -0.18187   0.35382
  43   35900.5    278.5   0.004224845   0.03874   0.03246  -0.10078  -0.16593
  44   36094.5    277.1   0.002193548   0.02001  -0.04572  -0.06864  -0.11491
  45   36203.3    276.2   0.003637153   0.03307   0.04972  -0.14256   0.10138
  46   36728.0    272.3   0.069576741   0.62365   0.12674  -0.64377  -0.43948
  47   37707.8    265.2   0.060803325   0.53085   0.17780  -0.48232  -0.51634
  48   37947.3    263.5   0.033612056   0.29160  -0.13558   0.52269   0.00326
  49   38201.1    261.8   0.002742338   0.02363   0.01174   0.10863  -0.10814
  50   38244.6    261.5   0.011163540   0.09610   0.04251   0.10363  -0.28905
  51   38363.5    260.7   0.033899483   0.29090   0.02658  -0.49154   0.22043
  52   38605.0    259.0   0.002324285   0.01982   0.02893   0.09473  -0.10004
  53   38684.3    258.5   0.008134492   0.06923   0.10055  -0.17266   0.17119
  54   38984.0    256.5   0.000751034   0.00634   0.01229   0.07516  -0.02329
  55   39087.6    255.8   0.028457810   0.23968   0.23928  -0.36003   0.22980
  56   39158.7    255.4   0.011190872   0.09408   0.22719  -0.00313   0.20605
  57   39298.2    254.5   0.009139620   0.07657   0.17699  -0.15711   0.14338
  58   39545.2    252.9   0.082441812   0.68632  -0.49856   0.28648  -0.59640
  59   39611.7    252.5   0.000488145   0.00406   0.02858  -0.05689   0.00203
  60   39687.4    252.0   0.000101930   0.00085   0.00629  -0.02504  -0.01338
  61   39799.8    251.3   0.042320511   0.35006   0.19427  -0.48752  -0.27322
  62   40130.8    249.2   0.112499358   0.92289   0.02063  -0.82844  -0.48595
  63   40322.0    248.0   0.040903951   0.33396  -0.16325   0.55323   0.03536

FINAL SINGLE POINT ENERGY     -4403.842027753302

DIPOLE MOMENT
-------------
                                X             Y             Z
Electronic contribution:      8.08396     -14.31688     -66.54252
Nuclear contribution   :     -8.50491      15.16155      68.83751
                        -----------------------------------------
Total Dipole Moment    :     -0.42095       0.84467       2.29499
                        -----------------------------------------
Magnitude (a.u.)       :      2.48146
Magnitude (Debye)      :      6.30738

Rotational constants in cm-1:     0.001243     0.000273     0.000234
Rotational constants in MHz :    37.269480     8.180426     7.004324

                             ****ORCA TERMINATED NORMALLY****
TOTAL RUN TIME: 0 days 0 hours 10 minutes 51 seconds 331 msec
