                         Program Version 4.2.0 -  RELEASE  -
|  1> # ORCA input file
|  2> # SCF done       -118.977459321276          0.000815963582
|  3> ! CAM-B3LYP def2-SVP def2/J RIJCOSX Grid4 TightSCF
|  4> %maxcore 5000
|  5> %tddft
|  6>     Mode sTDDFT
|  7>     Ethresh 5.0
|  8>     maxcore 5000
|  9> end
| 10>
| 11> %pal
| 12>   nprocs 6
| 13>   end
| 14> * xyz 0 1
| 15>    C        0.39740         2.14190         0.14100
| 16>    S        0.14009         2.88612         1.66043
| 17>    C        1.50695         2.06035         2.33759
| 18>    C        1.83069         2.33920         3.71597
| 19>    O        1.19587         3.08357         4.42391
| 20>    C        2.12119         1.24254         1.39434
| 21>    C        1.46765         1.30652         0.13634
| 22>    C        3.26908         0.39868         1.55929
| 23>    S        4.10206         0.05125         3.06607
| 24>    C        5.16188        -0.96815         2.09679
| 25>    N        4.83258        -0.96419         0.83514
| 26>    N        3.80215        -0.22493         0.54541
| 27>    C        6.24237        -1.69055         2.66930
| 28>    C        7.07563        -2.44569         1.91263
| 29>    C        8.15678        -3.18057         2.46310
| 30>    N        9.03368        -3.92792         1.70999
| 31>    C        9.05696        -4.03481         0.27121
| 32>    C        9.66265        -2.79427        -0.38054
| 33>    C        9.99923        -4.56635         2.50434
| 34>    O       10.87294        -5.28265         2.05360
| 35>    C        9.66876        -4.17378         3.85601
| 36>    C        8.53493        -3.32134         3.79510
| 37>    C        8.19992        -2.93061         5.14526
| 38>    O        7.32747        -2.21439         5.59623
| 39>    N        9.16278        -3.57374         5.94204
| 40>    C        9.12468        -3.47221         7.38063
| 41>    C        8.49642        -4.70821         8.02051
| 42>    C       10.04054        -4.32055         5.18938
| 43>    C       11.11536        -5.06485         5.74718
| 44>    C       11.95145        -5.80872         4.98687
| 45>    C       13.05617        -6.58477         5.47425
| 46>    C       13.46865        -6.66906         6.81488
| 47>    N       14.48902        -7.39691         7.20494
| 48>    C       15.15136        -8.07973         6.26621
| 49>    N       14.85217        -8.07533         4.96403
| 50>    C       13.83226        -7.34669         4.58064
| 51>    C       16.27087        -8.87902         6.68335
| 52>    S       17.16021        -9.79301         5.52497
| 53>    C       18.21392       -10.38321         6.76724
| 54>    C       19.29993       -11.29072         6.46040
| 55>    O       20.07093       -11.74049         7.27255
| 56>    C       17.87046        -9.88061         8.00846
| 57>    C       16.77036        -9.02888         7.96163
| 58>    H       -0.26204         2.36329        -0.67498
| 59>    H        2.72842         1.81609         4.09429
| 60>    H        1.80538         0.74091        -0.71198
| 61>    H        6.37776        -1.61404         3.73906
| 62>    H        6.90442        -2.49026         0.84713
| 63>    H        8.04370        -4.21240        -0.09910
| 64>    H        9.67485        -4.90822         0.04425
| 65>    H        9.08400        -1.90540        -0.13969
| 66>    H        9.68001        -2.91820        -1.45966
| 67>    H       10.68206        -2.65059        -0.03061
| 68>    H        8.51276        -2.59373         7.60430
| 69>    H       10.13460        -3.30268         7.76479
| 70>    H        7.47686        -4.83154         7.66372
| 71>    H        8.47456        -4.59317         9.10069
| 72>    H        9.05888        -5.60635         7.77395
| 73>    H       11.24558        -5.01465         6.81822
| 74>    H       11.79467        -5.84312         3.91625
| 75>    H       12.96183        -6.12972         7.60497
| 76>    H       13.60521        -7.35590         3.52177
| 77>    H       19.36802       -11.55380         5.38745
| 78>    H       18.41503       -10.13832         8.89902
| 79>    H       16.33451        -8.52795         8.80638
| 80> *
| 81>
| 82>                          ****END OF INPUT****

CARTESIAN COORDINATES (ANGSTROEM)
---------------------------------
  C      0.397400    2.141900    0.141000
  S      0.140090    2.886120    1.660430
  C      1.506950    2.060350    2.337590
  C      1.830690    2.339200    3.715970
  O      1.195870    3.083570    4.423910
  C      2.121190    1.242540    1.394340
  C      1.467650    1.306520    0.136340
  C      3.269080    0.398680    1.559290
  S      4.102060    0.051250    3.066070
  C      5.161880   -0.968150    2.096790
  N      4.832580   -0.964190    0.835140
  N      3.802150   -0.224930    0.545410
  C      6.242370   -1.690550    2.669300
  C      7.075630   -2.445690    1.912630
  C      8.156780   -3.180570    2.463100
  N      9.033680   -3.927920    1.709990
  C      9.056960   -4.034810    0.271210
  C      9.662650   -2.794270   -0.380540
  C      9.999230   -4.566350    2.504340
  O     10.872940   -5.282650    2.053600
  C      9.668760   -4.173780    3.856010
  C      8.534930   -3.321340    3.795100
  C      8.199920   -2.930610    5.145260
  O      7.327470   -2.214390    5.596230
  N      9.162780   -3.573740    5.942040
  C      9.124680   -3.472210    7.380630
  C      8.496420   -4.708210    8.020510
  C     10.040540   -4.320550    5.189380
  C     11.115360   -5.064850    5.747180
  C     11.951450   -5.808720    4.986870
  C     13.056170   -6.584770    5.474250
  C     13.468650   -6.669060    6.814880
  N     14.489020   -7.396910    7.204940
  C     15.151360   -8.079730    6.266210
  N     14.852170   -8.075330    4.964030
  C     13.832260   -7.346690    4.580640
  C     16.270870   -8.879020    6.683350
  S     17.160210   -9.793010    5.524970
  C     18.213920  -10.383210    6.767240
  C     19.299930  -11.290720    6.460400
  O     20.070930  -11.740490    7.272550
  C     17.870460   -9.880610    8.008460
  C     16.770360   -9.028880    7.961630
  H     -0.262040    2.363290   -0.674980
  H      2.728420    1.816090    4.094290
  H      1.805380    0.740910   -0.711980
  H      6.377760   -1.614040    3.739060
  H      6.904420   -2.490260    0.847130
  H      8.043700   -4.212400   -0.099100
  H      9.674850   -4.908220    0.044250
  H      9.084000   -1.905400   -0.139690
  H      9.680010   -2.918200   -1.459660
  H     10.682060   -2.650590   -0.030610
  H      8.512760   -2.593730    7.604300
  H     10.134600   -3.302680    7.764790
  H      7.476860   -4.831540    7.663720
  H      8.474560   -4.593170    9.100690
  H      9.058880   -5.606350    7.773950
  H     11.245580   -5.014650    6.818220
  H     11.794670   -5.843120    3.916250
  H     12.961830   -6.129720    7.604970
  H     13.605210   -7.355900    3.521770
  H     19.368020  -11.553800    5.387450
  H     18.415030  -10.138320    8.899020
  H     16.334510   -8.527950    8.806380

 Total Charge           Charge          ....    0
 Multiplicity           Mult            ....    1
 Number of Electrons    NEL             ....  324
 Basis Dimension        Dim             ....  724

ORBITAL ENERGIES
----------------

  NO   OCC          E(Eh)            E(eV)
   0   2.0000     -88.982006     -2421.3235
   1   2.0000     -88.969217     -2420.9755
   2   2.0000     -88.967203     -2420.9207
   3   2.0000     -19.213926      -522.8375
   4   2.0000     -19.206357      -522.6316
   5   2.0000     -19.199722      -522.4510
   6   2.0000     -19.195548      -522.3374
   7   2.0000     -14.460746      -393.4969
   8   2.0000     -14.458147      -393.4262
   9   2.0000     -14.445376      -393.0787
  10   2.0000     -14.443620      -393.0309
  11   2.0000     -14.425320      -392.5329
  12   2.0000     -14.424062      -392.4987
  13   2.0000     -10.381441      -282.4934
  14   2.0000     -10.378634      -282.4170
  15   2.0000     -10.363970      -282.0180
  16   2.0000     -10.361064      -281.9389
  17   2.0000     -10.355890      -281.7981
  18   2.0000     -10.352491      -281.7056
  19   2.0000     -10.347516      -281.5702
  20   2.0000     -10.346818      -281.5512
  21   2.0000     -10.342971      -281.4465
  22   2.0000     -10.337287      -281.2919
  23   2.0000     -10.333496      -281.1887
  24   2.0000     -10.315992      -280.7124
  25   2.0000     -10.312352      -280.6134
  26   2.0000     -10.310972      -280.5758
  27   2.0000     -10.310116      -280.5525
  28   2.0000     -10.310054      -280.5508
  29   2.0000     -10.308913      -280.5198
  30   2.0000     -10.303967      -280.3852
  31   2.0000     -10.301597      -280.3207
  32   2.0000     -10.300391      -280.2879
  33   2.0000     -10.299756      -280.2706
  34   2.0000     -10.299617      -280.2668
  35   2.0000     -10.298594      -280.2390
  36   2.0000     -10.284936      -279.8673
  37   2.0000     -10.284365      -279.8518
  38   2.0000     -10.283037      -279.8157
  39   2.0000     -10.271140      -279.4919
  40   2.0000     -10.267993      -279.4063
  41   2.0000     -10.266360      -279.3619
  42   2.0000     -10.265589      -279.3409
  43   2.0000      -8.077731      -219.8062
  44   2.0000      -8.065037      -219.4608
  45   2.0000      -8.062367      -219.3882
  46   2.0000      -6.046451      -164.5323
  47   2.0000      -6.042990      -164.4381
  48   2.0000      -6.040138      -164.3605
  49   2.0000      -6.034200      -164.1989
  50   2.0000      -6.031356      -164.1216
  51   2.0000      -6.029734      -164.0774
  52   2.0000      -6.027603      -164.0194
  53   2.0000      -6.027259      -164.0101
  54   2.0000      -6.025087      -163.9510
  55   2.0000      -1.149222       -31.2719
  56   2.0000      -1.140399       -31.0318
  57   2.0000      -1.132954       -30.8292
  58   2.0000      -1.128641       -30.7119
  59   2.0000      -1.119212       -30.4553
  60   2.0000      -1.098581       -29.8939
  61   2.0000      -1.070244       -29.1228
  62   2.0000      -1.061479       -28.8843
  63   2.0000      -0.999378       -27.1944
  64   2.0000      -0.993834       -27.0436
  65   2.0000      -0.989699       -26.9311
  66   2.0000      -0.949919       -25.8486
  67   2.0000      -0.939411       -25.5627
  68   2.0000      -0.931636       -25.3511
  69   2.0000      -0.925270       -25.1779
  70   2.0000      -0.896634       -24.3986
  71   2.0000      -0.887623       -24.1535
  72   2.0000      -0.874722       -23.8024
  73   2.0000      -0.847834       -23.0707
  74   2.0000      -0.847401       -23.0590
  75   2.0000      -0.843481       -22.9523
  76   2.0000      -0.840308       -22.8659
  77   2.0000      -0.825636       -22.4667
  78   2.0000      -0.807196       -21.9649
  79   2.0000      -0.792747       -21.5717
  80   2.0000      -0.766072       -20.8459
  81   2.0000      -0.765278       -20.8243
  82   2.0000      -0.751471       -20.4486
  83   2.0000      -0.743758       -20.2387
  84   2.0000      -0.726443       -19.7675
  85   2.0000      -0.716118       -19.4866
  86   2.0000      -0.713234       -19.4081
  87   2.0000      -0.711085       -19.3496
  88   2.0000      -0.699733       -19.0407
  89   2.0000      -0.674009       -18.3407
  90   2.0000      -0.666537       -18.1374
  91   2.0000      -0.664632       -18.0855
  92   2.0000      -0.655566       -17.8389
  93   2.0000      -0.637898       -17.3581
  94   2.0000      -0.636968       -17.3328
  95   2.0000      -0.624678       -16.9983
  96   2.0000      -0.617127       -16.7929
  97   2.0000      -0.614212       -16.7136
  98   2.0000      -0.603791       -16.4300
  99   2.0000      -0.590797       -16.0764
 100   2.0000      -0.589765       -16.0483
 101   2.0000      -0.586654       -15.9637
 102   2.0000      -0.576795       -15.6954
 103   2.0000      -0.575726       -15.6663
 104   2.0000      -0.570474       -15.5234
 105   2.0000      -0.550451       -14.9785
 106   2.0000      -0.545787       -14.8516
 107   2.0000      -0.541225       -14.7275
 108   2.0000      -0.540937       -14.7196
 109   2.0000      -0.537494       -14.6260
 110   2.0000      -0.536444       -14.5974
 111   2.0000      -0.534364       -14.5408
 112   2.0000      -0.532777       -14.4976
 113   2.0000      -0.526187       -14.3183
 114   2.0000      -0.521104       -14.1800
 115   2.0000      -0.518078       -14.0976
 116   2.0000      -0.515816       -14.0361
 117   2.0000      -0.511683       -13.9236
 118   2.0000      -0.507375       -13.8064
 119   2.0000      -0.506332       -13.7780
 120   2.0000      -0.504797       -13.7362
 121   2.0000      -0.503065       -13.6891
 122   2.0000      -0.495252       -13.4765
 123   2.0000      -0.485851       -13.2207
 124   2.0000      -0.483927       -13.1683
 125   2.0000      -0.482430       -13.1276
 126   2.0000      -0.476915       -12.9775
 127   2.0000      -0.473046       -12.8722
 128   2.0000      -0.471676       -12.8350
 129   2.0000      -0.467707       -12.7270
 130   2.0000      -0.462530       -12.5861
 131   2.0000      -0.461199       -12.5499
 132   2.0000      -0.458621       -12.4797
 133   2.0000      -0.457369       -12.4456
 134   2.0000      -0.455810       -12.4032
 135   2.0000      -0.451564       -12.2877
 136   2.0000      -0.445437       -12.1210
 137   2.0000      -0.442394       -12.0382
 138   2.0000      -0.435259       -11.8440
 139   2.0000      -0.432620       -11.7722
 140   2.0000      -0.431181       -11.7330
 141   2.0000      -0.429015       -11.6741
 142   2.0000      -0.408080       -11.1044
 143   2.0000      -0.407350       -11.0845
 144   2.0000      -0.402420       -10.9504
 145   2.0000      -0.396995       -10.8028
 146   2.0000      -0.394269       -10.7286
 147   2.0000      -0.383219       -10.4279
 148   2.0000      -0.355786        -9.6814
 149   2.0000      -0.348899        -9.4940
 150   2.0000      -0.341612        -9.2957
 151   2.0000      -0.340985        -9.2787
 152   2.0000      -0.338930        -9.2227
 153   2.0000      -0.334565        -9.1040
 154   2.0000      -0.331376        -9.0172
 155   2.0000      -0.328331        -8.9343
 156   2.0000      -0.327431        -8.9099
 157   2.0000      -0.323309        -8.7977
 158   2.0000      -0.321174        -8.7396
 159   2.0000      -0.302654        -8.2356
 160   2.0000      -0.294515        -8.0142
 161   2.0000      -0.243475        -6.6253
 162   0.0000      -0.098929        -2.6920
 163   0.0000      -0.066633        -1.8132
 164   0.0000      -0.046347        -1.2612
 165   0.0000      -0.021457        -0.5839
 166   0.0000      -0.010990        -0.2990

MULLIKEN ATOMIC CHARGES
-----------------------
   0 C :   -0.046950
   1 S :    0.183668
   2 C :   -0.245059
   3 C :    0.164212
   4 O :   -0.189272
   5 C :    0.172732
   6 C :    0.021661
   7 C :   -0.132937
   8 S :    0.103731
   9 C :   -0.084494
  10 N :   -0.042580
  11 N :   -0.049449
  12 C :    0.066559
  13 C :   -0.023874
  14 C :    0.134696
  15 N :   -0.254887
  16 C :    0.095758
  17 C :    0.003317
  18 C :    0.166239
  19 O :   -0.216009
  20 C :   -0.068031
  21 C :   -0.059074
  22 C :    0.166571
  23 O :   -0.209172
  24 N :   -0.258137
  25 C :    0.097810
  26 C :    0.003273
  27 C :    0.130367
  28 C :   -0.001225
  29 C :    0.011961
  30 C :    0.012659
  31 C :    0.040673
  32 N :   -0.045881
  33 C :   -0.056235
  34 N :   -0.053713
  35 C :    0.038894
  36 C :   -0.058683
  37 S :    0.199785
  38 C :   -0.154061
  39 C :    0.189437
  40 O :   -0.183179
  41 C :    0.051941
  42 C :    0.019238
  43 H :    0.040636
  44 H :   -0.007924
  45 H :    0.013002
  46 H :    0.013995
  47 H :    0.004951
  48 H :    0.028888
  49 H :    0.043306
  50 H :    0.020680
  51 H :    0.027049
  52 H :    0.027051
  53 H :    0.045082
  54 H :    0.023672
  55 H :    0.030865
  56 H :    0.026934
  57 H :    0.015116
  58 H :   -0.028417
  59 H :    0.016869
  60 H :    0.005109
  61 H :    0.026863
  62 H :   -0.022812
  63 H :    0.005053
  64 H :    0.001753
Sum of atomic charges:   -0.0000000

LOEWDIN ATOMIC CHARGES
----------------------
   0 C :   -0.158841
   1 S :    0.495019
   2 C :   -0.234549
   3 C :    0.072269
   4 O :   -0.141235
   5 C :   -0.060975
   6 C :   -0.039090
   7 C :   -0.143642
   8 S :    0.414605
   9 C :   -0.146609
  10 N :   -0.076119
  11 N :   -0.068933
  12 C :   -0.013812
  13 C :   -0.009635
  14 C :    0.069765
  15 N :    0.002958
  16 C :    0.036685
  17 C :   -0.060283
  18 C :    0.079594
  19 O :   -0.205879
  20 C :   -0.123889
  21 C :   -0.115623
  22 C :    0.081904
  23 O :   -0.199003
  24 N :   -0.000062
  25 C :    0.035969
  26 C :   -0.061006
  27 C :    0.080222
  28 C :   -0.048315
  29 C :    0.034333
  30 C :   -0.081600
  31 C :    0.062769
  32 N :   -0.076681
  33 C :    0.018169
  34 N :   -0.087947
  35 C :    0.066281
  36 C :   -0.183450
  37 S :    0.493431
  38 C :   -0.234769
  39 C :    0.085166
  40 O :   -0.139355
  41 C :   -0.013322
  42 C :   -0.027882
  43 H :    0.030157
  44 H :   -0.013150
  45 H :    0.039244
  46 H :    0.037464
  47 H :    0.038112
  48 H :    0.025672
  49 H :    0.037439
  50 H :    0.024240
  51 H :    0.032278
  52 H :    0.031188
  53 H :    0.038594
  54 H :    0.022748
  55 H :    0.033028
  56 H :    0.031830
  57 H :    0.021685
  58 H :    0.026349
  59 H :    0.039314
  60 H :    0.024346
  61 H :    0.034838
  62 H :   -0.007993
  63 H :    0.039053
  64 H :    0.036932

  Mayer bond orders larger than 0.100000
B(  0-C ,  1-S ) :   1.1971 B(  0-C ,  6-C ) :   1.5331 B(  0-C , 43-H ) :   0.9689
B(  1-S ,  2-C ) :   1.1380 B(  2-C ,  3-C ) :   1.0156 B(  2-C ,  5-C ) :   1.4179
B(  3-C ,  4-O ) :   2.1666 B(  3-C , 44-H ) :   0.9549 B(  5-C ,  6-C ) :   1.2919
B(  5-C ,  7-C ) :   1.0544 B(  6-C , 45-H ) :   0.9994 B(  7-C ,  8-S ) :   1.1079
B(  7-C , 11-N ) :   1.7215 B(  8-S ,  9-C ) :   1.0892 B(  9-C , 10-N ) :   1.6675
B(  9-C , 12-C ) :   1.1073 B( 10-N , 11-N ) :   1.2245 B( 12-C , 13-C ) :   1.6594
B( 12-C , 46-H ) :   0.9244 B( 13-C , 14-C ) :   1.1297 B( 13-C , 47-H ) :   0.9711
B( 14-C , 15-N ) :   1.1579 B( 14-C , 21-C ) :   1.3524 B( 15-N , 16-C ) :   0.9426
B( 15-N , 18-C ) :   1.0672 B( 16-C , 17-C ) :   1.1227 B( 16-C , 48-H ) :   0.9498
B( 16-C , 49-H ) :   0.9285 B( 17-C , 50-H ) :   0.9684 B( 17-C , 51-H ) :   0.9677
B( 17-C , 52-H ) :   0.9636 B( 18-C , 19-O ) :   2.0171 B( 18-C , 20-C ) :   0.9881
B( 19-O , 59-H ) :   0.1169 B( 20-C , 21-C ) :   1.2489 B( 20-C , 27-C ) :   1.3494
B( 21-C , 22-C ) :   0.9843 B( 22-C , 23-O ) :   2.0301 B( 22-C , 24-N ) :   1.0582
B( 23-O , 46-H ) :   0.1091 B( 24-N , 25-C ) :   0.9451 B( 24-N , 27-C ) :   1.1607
B( 25-C , 26-C ) :   1.1214 B( 25-C , 53-H ) :   0.9273 B( 25-C , 54-H ) :   0.9495
B( 26-C , 55-H ) :   0.9634 B( 26-C , 56-H ) :   0.9678 B( 26-C , 57-H ) :   0.9683
B( 27-C , 28-C ) :   1.1541 B( 28-C , 29-C ) :   1.6211 B( 28-C , 58-H ) :   0.9557
B( 29-C , 30-C ) :   1.0775 B( 29-C , 59-H ) :   0.9608 B( 30-C , 31-C ) :   1.2924
B( 30-C , 35-C ) :   1.3004 B( 31-C , 32-N ) :   1.5872 B( 31-C , 60-H ) :   0.9838
B( 32-N , 33-C ) :   1.5721 B( 33-C , 34-N ) :   1.5810 B( 33-C , 36-C ) :   1.0325
B( 34-N , 35-C ) :   1.5732 B( 35-C , 61-H ) :   0.9868 B( 36-C , 37-S ) :   1.1704
B( 36-C , 38-C ) :   0.1048 B( 36-C , 42-C ) :   1.4909 B( 37-S , 38-C ) :   1.1210
B( 38-C , 39-C ) :   1.0020 B( 38-C , 41-C ) :   1.4714 B( 39-C , 40-O ) :   2.1831
B( 39-C , 62-H ) :   0.9550 B( 41-C , 42-C ) :   1.2767 B( 41-C , 63-H ) :   1.0046
B( 42-C , 64-H ) :   1.0027

-----------------------------------------------------------------------------
         ABSORPTION SPECTRUM VIA TRANSITION ELECTRIC DIPOLE MOMENTS
-----------------------------------------------------------------------------
State   Energy  Wavelength   fosc         T2         TX        TY        TZ
        (cm-1)    (nm)                  (au**2)     (au)      (au)      (au)
-----------------------------------------------------------------------------
   0   15837.5    631.4   1.011663033  21.02936   3.33779  -2.31987   2.12290
   1   24015.7    416.4   0.008552170   0.11723   0.14482  -0.05549   0.30526
   2   27031.2    369.9   0.004355624   0.05305  -0.15551   0.08863  -0.14495
   3   28262.3    353.8   0.016415790   0.19122  -0.30958   0.29347  -0.09618
   4   28271.9    353.7   1.069627605  12.45525   2.80960  -2.10473   0.36263
   5   28845.9    346.7   0.201217393   2.29645  -1.13433   0.96691   0.27354
   6   29165.8    342.9   0.009177700   0.10359   0.29256  -0.13178   0.02525
   7   29660.3    337.2   0.453246663   5.03078  -1.68787   1.37010   0.55198
   8   30523.3    327.6   0.000103751   0.00112   0.02832  -0.01686  -0.00570
   9   31263.9    319.9   0.001252885   0.01319  -0.04721   0.10460  -0.00472
  10   32110.1    311.4   0.000016325   0.00017  -0.01019  -0.00732  -0.00316
  11   32783.1    305.0   0.000071260   0.00072   0.01078  -0.01305  -0.02072
  12   33671.5    297.0   0.111619359   1.09132  -0.80076   0.64135   0.19692
  13   34472.3    290.1   0.002146602   0.02050  -0.01417  -0.00981  -0.14214
  14   35250.7    283.7   0.090659478   0.84668  -0.57320   0.17824  -0.69739
  15   36729.7    272.3   0.118743937   1.06431  -0.81652   0.63006  -0.02509
  16   37670.3    265.5   0.032407201   0.28322  -0.03310  -0.13794  -0.51293
  17   37857.9    264.1   0.019606447   0.17050  -0.22758   0.14918  -0.31056
  18   38354.1    260.7   0.083556997   0.71721  -0.55255   0.61975   0.16676
  19   38561.9    259.3   0.044678812   0.38143   0.49990  -0.32375  -0.16346
  20   39801.1    251.2   0.053415477   0.44182  -0.50379   0.36773  -0.22976

FINAL SINGLE POINT ENERGY     -2977.826349735313

DIPOLE MOMENT
-------------
                                X             Y             Z
Electronic contribution:    -10.28062       7.98904      -2.63017
Nuclear contribution   :      9.33639      -7.54335       2.12788
                        -----------------------------------------
Total Dipole Moment    :     -0.94423       0.44569      -0.50229
                        -----------------------------------------
Magnitude (a.u.)       :      1.15866
Magnitude (Debye)      :      2.94508

Rotational constants in cm-1:     0.008720     0.000501     0.000476
Rotational constants in MHz :   261.412797    15.012105    14.259659

                             ****ORCA TERMINATED NORMALLY****
TOTAL RUN TIME: 0 days 0 hours 3 minutes 34 seconds 927 msec
