                         Program Version 4.2.0 -  RELEASE  -
|  1> # ORCA input file
|  2> # SCF done       -205.653727607304          0.000487848905
|  3> ! CAM-B3LYP def2-SVP def2/J RIJCOSX Grid4 TightSCF
|  4> %maxcore 5000
|  5> %tddft
|  6>     Mode sTDDFT
|  7>     Ethresh 5.0
|  8>     maxcore 5000
|  9> end
| 10>
| 11> %pal
| 12>   nprocs 6
| 13>   end
| 14> * xyz 0 1
| 15>    C        9.91654        -8.54278        -1.94610
| 16>    C       11.15912        -7.98881        -2.20611
| 17>    C       12.29831        -8.68672        -1.79906
| 18>    C       13.57833        -8.13454        -2.05193
| 19>    N       14.61026        -7.68333        -2.25744
| 20>    C       12.20041        -9.92714        -1.14060
| 21>    C       13.37205       -10.61239        -0.74018
| 22>    N       14.30551       -11.18610        -0.40679
| 23>    C       10.94609       -10.48122        -0.88081
| 24>    C        9.83079        -9.78019        -1.28533
| 25>    C        8.40829       -10.15792        -1.11449
| 26>    O        8.02533       -11.18374        -0.58899
| 27>    C        7.62966        -9.05768        -1.70909
| 28>    C        8.55879        -8.07263        -2.23128
| 29>    C        8.27142        -6.89647        -2.87676
| 30>    C        9.24855        -5.99408        -3.35049
| 31>    N        9.98560        -5.21634        -3.76192
| 32>    C        6.98987        -6.38727        -3.17846
| 33>    N        5.99833        -5.88481        -3.46874
| 34>    C        6.26118        -8.91680        -1.78193
| 35>    C        5.20929        -9.70679        -1.30465
| 36>    C        5.15362       -10.91100        -0.59960
| 37>    C        3.87371       -11.31827        -0.27585
| 38>    C        2.90450       -10.40394        -0.74914
| 39>    S        3.58311        -9.07816        -1.58562
| 40>    C        1.57122       -10.71210        -0.41918
| 41>    C        1.38355       -11.88116         0.34164
| 42>   Si        3.03569       -12.72324         0.64885
| 43>    C        3.18644       -14.36158        -0.23971
| 44>    C        3.48205       -12.79017         2.46223
| 45>    C        0.05094       -12.06026         0.67676
| 46>    C       -0.78317       -11.05719         0.18771
| 47>    S        0.10635        -9.86562        -0.73201
| 48>    C       -2.16182       -10.93116         0.42782
| 49>    C       -2.94194       -11.73120         1.27714
| 50>    C       -4.29898       -11.27175         1.38050
| 51>    N       -5.19227       -11.88974         2.14996
| 52>    C       -4.77754       -12.94483         2.81876
| 53>    C       -5.77010       -13.64319         3.67062
| 54>    O       -6.92661       -13.28613         3.75764
| 55>    C       -5.24661       -14.80802         4.40523
| 56>    C       -3.98230       -15.23553         4.31776
| 57>    C       -2.95951       -14.59183         3.47760
| 58>    O       -1.81896       -15.00293         3.40832
| 59>    C       -3.42529       -13.40290         2.72230
| 60>    N       -2.53457       -12.80084         1.96281
| 61>    C       -4.56813       -10.13903         0.60119
| 62>    S       -3.13611        -9.65743        -0.25228
| 63>    C       -5.79830        -9.46641         0.54759
| 64>    C       -6.18038        -8.41650        -0.28341
| 65>    C       -7.46812        -7.96437        -0.04263
| 66>    C       -8.06137        -8.68265         1.01499
| 67>    S       -7.06214        -9.92211         1.66205
| 68>    C       -9.34608        -8.24546         1.39289
| 69>    C       -9.89561        -7.19879         0.63015
| 70>   Si       -8.66086        -6.65934        -0.67609
| 71>    C       -8.05864        -4.91102        -0.40283
| 72>    C       -9.23696        -7.00644        -2.42304
| 73>    C      -11.14318        -6.83286         1.11089
| 74>    C      -11.53285        -7.52034         2.25627
| 75>    S      -10.34343        -8.73194         2.69713
| 76>    C      -12.72324        -7.33127         2.98446
| 77>    C      -12.96950        -7.64485         4.29219
| 78>    C      -14.36010        -7.82636         4.76981
| 79>    O      -15.38072        -7.54399         4.18661
| 80>    C      -14.22781        -8.48150         6.09550
| 81>    C      -15.21916        -8.97074         6.91861
| 82>    C      -14.83961        -9.57778         8.11780
| 83>    C      -13.47757        -9.68551         8.45807
| 84>    C      -12.48138        -9.17694         7.62197
| 85>    C      -12.86440        -8.56836         6.44019
| 86>    C      -12.07639        -7.91376         5.39530
| 87>    C      -10.82306        -7.38786         5.57686
| 88>    C      -10.04562        -7.58911         6.73523
| 89>    N       -9.37236        -7.73090         7.65369
| 90>    C      -10.21552        -6.49520         4.66913
| 91>    N       -9.70912        -5.72465         3.98514
| 92>    C      -13.11092       -10.32093         9.67022
| 93>    N      -12.80578       -10.83511        10.64655
| 94>    C      -15.82708       -10.09092         8.99259
| 95>    N      -16.64009       -10.49994         9.68773
| 96>    H       11.27938        -7.04214        -2.70732
| 97>    H       10.84968       -11.43061        -0.37627
| 98>    H        5.91633        -8.02034        -2.28282
| 99>    H        6.04304       -11.45282        -0.33644
|100>    H        2.91681       -14.29162        -1.29223
|101>    H        2.54196       -15.11634         0.20636
|102>    H        4.20330       -14.74642        -0.19576
|103>    H        3.39787       -11.81972         2.94847
|104>    H        4.50338       -13.13469         2.61083
|105>    H        2.83330       -13.47576         3.00389
|106>    H       -0.33624       -12.87030         1.26786
|107>    H       -5.96759       -15.31220         5.03454
|108>    H       -3.64140       -16.09877         4.87333
|109>    H       -5.51981        -8.01436        -1.03150
|110>    H       -7.79817        -4.72797         0.63827
|111>    H       -8.81734        -4.17939        -0.67351
|112>    H       -7.17676        -4.68734        -1.00002
|113>    H       -9.58129        -8.03132        -2.55061
|114>    H       -8.44048        -6.84535        -3.14661
|115>    H      -10.05978        -6.35536        -2.71115
|116>    H      -11.74823        -6.05073         0.68800
|117>    H      -13.57195        -6.94638         2.42718
|118>    H      -16.25984        -8.88672         6.64466
|119>    H      -11.44613        -9.27893         7.90736
|120> *
|121>
|122>                          ****END OF INPUT****

CARTESIAN COORDINATES (ANGSTROEM)
---------------------------------
  C      9.916540   -8.542780   -1.946100
  C     11.159120   -7.988810   -2.206110
  C     12.298310   -8.686720   -1.799060
  C     13.578330   -8.134540   -2.051930
  N     14.610260   -7.683330   -2.257440
  C     12.200410   -9.927140   -1.140600
  C     13.372050  -10.612390   -0.740180
  N     14.305510  -11.186100   -0.406790
  C     10.946090  -10.481220   -0.880810
  C      9.830790   -9.780190   -1.285330
  C      8.408290  -10.157920   -1.114490
  O      8.025330  -11.183740   -0.588990
  C      7.629660   -9.057680   -1.709090
  C      8.558790   -8.072630   -2.231280
  C      8.271420   -6.896470   -2.876760
  C      9.248550   -5.994080   -3.350490
  N      9.985600   -5.216340   -3.761920
  C      6.989870   -6.387270   -3.178460
  N      5.998330   -5.884810   -3.468740
  C      6.261180   -8.916800   -1.781930
  C      5.209290   -9.706790   -1.304650
  C      5.153620  -10.911000   -0.599600
  C      3.873710  -11.318270   -0.275850
  C      2.904500  -10.403940   -0.749140
  S      3.583110   -9.078160   -1.585620
  C      1.571220  -10.712100   -0.419180
  C      1.383550  -11.881160    0.341640
  Si     3.035690  -12.723240    0.648850
  C      3.186440  -14.361580   -0.239710
  C      3.482050  -12.790170    2.462230
  C      0.050940  -12.060260    0.676760
  C     -0.783170  -11.057190    0.187710
  S      0.106350   -9.865620   -0.732010
  C     -2.161820  -10.931160    0.427820
  C     -2.941940  -11.731200    1.277140
  C     -4.298980  -11.271750    1.380500
  N     -5.192270  -11.889740    2.149960
  C     -4.777540  -12.944830    2.818760
  C     -5.770100  -13.643190    3.670620
  O     -6.926610  -13.286130    3.757640
  C     -5.246610  -14.808020    4.405230
  C     -3.982300  -15.235530    4.317760
  C     -2.959510  -14.591830    3.477600
  O     -1.818960  -15.002930    3.408320
  C     -3.425290  -13.402900    2.722300
  N     -2.534570  -12.800840    1.962810
  C     -4.568130  -10.139030    0.601190
  S     -3.136110   -9.657430   -0.252280
  C     -5.798300   -9.466410    0.547590
  C     -6.180380   -8.416500   -0.283410
  C     -7.468120   -7.964370   -0.042630
  C     -8.061370   -8.682650    1.014990
  S     -7.062140   -9.922110    1.662050
  C     -9.346080   -8.245460    1.392890
  C     -9.895610   -7.198790    0.630150
  Si    -8.660860   -6.659340   -0.676090
  C     -8.058640   -4.911020   -0.402830
  C     -9.236960   -7.006440   -2.423040
  C    -11.143180   -6.832860    1.110890
  C    -11.532850   -7.520340    2.256270
  S    -10.343430   -8.731940    2.697130
  C    -12.723240   -7.331270    2.984460
  C    -12.969500   -7.644850    4.292190
  C    -14.360100   -7.826360    4.769810
  O    -15.380720   -7.543990    4.186610
  C    -14.227810   -8.481500    6.095500
  C    -15.219160   -8.970740    6.918610
  C    -14.839610   -9.577780    8.117800
  C    -13.477570   -9.685510    8.458070
  C    -12.481380   -9.176940    7.621970
  C    -12.864400   -8.568360    6.440190
  C    -12.076390   -7.913760    5.395300
  C    -10.823060   -7.387860    5.576860
  C    -10.045620   -7.589110    6.735230
  N     -9.372360   -7.730900    7.653690
  C    -10.215520   -6.495200    4.669130
  N     -9.709120   -5.724650    3.985140
  C    -13.110920  -10.320930    9.670220
  N    -12.805780  -10.835110   10.646550
  C    -15.827080  -10.090920    8.992590
  N    -16.640090  -10.499940    9.687730
  H     11.279380   -7.042140   -2.707320
  H     10.849680  -11.430610   -0.376270
  H      5.916330   -8.020340   -2.282820
  H      6.043040  -11.452820   -0.336440
  H      2.916810  -14.291620   -1.292230
  H      2.541960  -15.116340    0.206360
  H      4.203300  -14.746420   -0.195760
  H      3.397870  -11.819720    2.948470
  H      4.503380  -13.134690    2.610830
  H      2.833300  -13.475760    3.003890
  H     -0.336240  -12.870300    1.267860
  H     -5.967590  -15.312200    5.034540
  H     -3.641400  -16.098770    4.873330
  H     -5.519810   -8.014360   -1.031500
  H     -7.798170   -4.727970    0.638270
  H     -8.817340   -4.179390   -0.673510
  H     -7.176760   -4.687340   -1.000020
  H     -9.581290   -8.031320   -2.550610
  H     -8.440480   -6.845350   -3.146610
  H    -10.059780   -6.355360   -2.711150
  H    -11.748230   -6.050730    0.688000
  H    -13.571950   -6.946380    2.427180
  H    -16.259840   -8.886720    6.644660
  H    -11.446130   -9.278930    7.907360

 Total Charge           Charge          ....    0
 Multiplicity           Mult            ....    1
 Number of Electrons    NEL             ....  594
 Basis Dimension        Dim             .... 1282

ORBITAL ENERGIES
----------------

  NO   OCC          E(Eh)            E(eV)
   0   2.0000     -89.011757     -2422.1330
   1   2.0000     -88.989840     -2421.5367
   2   2.0000     -88.987283     -2421.4671
   3   2.0000     -88.986035     -2421.4331
   4   2.0000     -88.982282     -2421.3310
   5   2.0000     -66.214900     -1801.7990
   6   2.0000     -66.214308     -1801.7829
   7   2.0000     -19.240239      -523.5535
   8   2.0000     -19.238557      -523.5077
   9   2.0000     -19.233909      -523.3813
  10   2.0000     -19.230779      -523.2961
  11   2.0000     -14.464667      -393.6036
  12   2.0000     -14.462479      -393.5441
  13   2.0000     -14.428949      -392.6317
  14   2.0000     -14.427735      -392.5986
  15   2.0000     -14.426603      -392.5678
  16   2.0000     -14.426108      -392.5544
  17   2.0000     -14.425702      -392.5433
  18   2.0000     -14.425457      -392.5367
  19   2.0000     -14.424333      -392.5060
  20   2.0000     -14.423416      -392.4811
  21   2.0000     -10.389077      -282.7012
  22   2.0000     -10.388235      -282.6783
  23   2.0000     -10.385180      -282.5951
  24   2.0000     -10.382899      -282.5330
  25   2.0000     -10.358476      -281.8685
  26   2.0000     -10.357366      -281.8382
  27   2.0000     -10.356600      -281.8174
  28   2.0000     -10.356243      -281.8077
  29   2.0000     -10.355678      -281.7923
  30   2.0000     -10.355165      -281.7784
  31   2.0000     -10.355092      -281.7764
  32   2.0000     -10.355023      -281.7745
  33   2.0000     -10.354726      -281.7664
  34   2.0000     -10.354696      -281.7656
  35   2.0000     -10.348336      -281.5925
  36   2.0000     -10.348188      -281.5885
  37   2.0000     -10.347847      -281.5792
  38   2.0000     -10.346003      -281.5291
  39   2.0000     -10.344686      -281.4932
  40   2.0000     -10.339363      -281.3484
  41   2.0000     -10.338304      -281.3196
  42   2.0000     -10.336696      -281.2758
  43   2.0000     -10.335127      -281.2331
  44   2.0000     -10.335068      -281.2315
  45   2.0000     -10.334790      -281.2239
  46   2.0000     -10.334074      -281.2044
  47   2.0000     -10.333021      -281.1758
  48   2.0000     -10.331289      -281.1287
  49   2.0000     -10.331114      -281.1239
  50   2.0000     -10.330947      -281.1194
  51   2.0000     -10.329564      -281.0817
  52   2.0000     -10.329059      -281.0680
  53   2.0000     -10.328506      -281.0529
  54   2.0000     -10.328437      -281.0510
  55   2.0000     -10.327161      -281.0163
  56   2.0000     -10.327036      -281.0129
  57   2.0000     -10.326186      -280.9898
  58   2.0000     -10.325647      -280.9752
  59   2.0000     -10.322877      -280.8998
  60   2.0000     -10.322235      -280.8823
  61   2.0000     -10.322223      -280.8820
  62   2.0000     -10.321893      -280.8730
  63   2.0000     -10.320864      -280.8450
  64   2.0000     -10.320151      -280.8256
  65   2.0000     -10.319936      -280.8197
  66   2.0000     -10.319083      -280.7965
  67   2.0000     -10.310733      -280.5693
  68   2.0000     -10.308595      -280.5111
  69   2.0000     -10.307469      -280.4805
  70   2.0000     -10.304396      -280.3969
  71   2.0000     -10.301615      -280.3212
  72   2.0000     -10.295849      -280.1643
  73   2.0000     -10.283757      -279.8352
  74   2.0000     -10.281865      -279.7838
  75   2.0000     -10.279759      -279.7265
  76   2.0000     -10.279272      -279.7132
  77   2.0000     -10.267379      -279.3896
  78   2.0000     -10.264760      -279.3183
  79   2.0000     -10.264529      -279.3120
  80   2.0000     -10.264516      -279.3117
  81   2.0000      -8.106288      -220.5833
  82   2.0000      -8.085371      -220.0141
  83   2.0000      -8.082818      -219.9447
  84   2.0000      -8.081119      -219.8984
  85   2.0000      -8.076604      -219.7756
  86   2.0000      -6.075376      -165.3194
  87   2.0000      -6.071238      -165.2068
  88   2.0000      -6.068930      -165.1440
  89   2.0000      -6.054610      -164.7543
  90   2.0000      -6.051836      -164.6788
  91   2.0000      -6.050585      -164.6448
  92   2.0000      -6.050306      -164.6372
  93   2.0000      -6.047932      -164.5726
  94   2.0000      -6.047458      -164.5597
  95   2.0000      -6.046275      -164.5275
  96   2.0000      -6.045908      -164.5175
  97   2.0000      -6.045158      -164.4971
  98   2.0000      -6.043305      -164.4467
  99   2.0000      -6.041617      -164.4008
 100   2.0000      -6.038749      -164.3227
 101   2.0000      -5.381247      -146.4312
 102   2.0000      -5.380769      -146.4182
 103   2.0000      -3.744857      -101.9027
 104   2.0000      -3.744431      -101.8912
 105   2.0000      -3.743407      -101.8633
 106   2.0000      -3.742879      -101.8489
 107   2.0000      -3.742064      -101.8267
 108   2.0000      -3.741539      -101.8124
 109   2.0000      -1.156305       -31.4646
 110   2.0000      -1.151464       -31.3329
 111   2.0000      -1.148578       -31.2544
 112   2.0000      -1.146119       -31.1875
 113   2.0000      -1.114849       -30.3366
 114   2.0000      -1.043162       -28.3859
 115   2.0000      -1.040265       -28.3071
 116   2.0000      -1.038072       -28.2474
 117   2.0000      -1.030471       -28.0405
 118   2.0000      -1.026204       -27.9244
 119   2.0000      -1.024609       -27.8810
 120   2.0000      -1.021832       -27.8055
 121   2.0000      -1.015950       -27.6454
 122   2.0000      -1.008190       -27.4342
 123   2.0000      -1.007787       -27.4233
 124   2.0000      -1.005478       -27.3604
 125   2.0000      -1.005165       -27.3519
 126   2.0000      -1.004419       -27.3316
 127   2.0000      -1.003671       -27.3113
 128   2.0000      -0.998221       -27.1630
 129   2.0000      -0.989909       -26.9368
 130   2.0000      -0.975402       -26.5420
 131   2.0000      -0.974015       -26.5043
 132   2.0000      -0.951855       -25.9013
 133   2.0000      -0.928452       -25.2645
 134   2.0000      -0.922447       -25.1011
 135   2.0000      -0.921041       -25.0628
 136   2.0000      -0.920801       -25.0563
 137   2.0000      -0.904004       -24.5992
 138   2.0000      -0.900874       -24.5140
 139   2.0000      -0.898777       -24.4570
 140   2.0000      -0.888944       -24.1894
 141   2.0000      -0.883865       -24.0512
 142   2.0000      -0.869279       -23.6543
 143   2.0000      -0.866226       -23.5712
 144   2.0000      -0.863626       -23.5005
 145   2.0000      -0.849323       -23.1113
 146   2.0000      -0.847433       -23.0598
 147   2.0000      -0.843019       -22.9397
 148   2.0000      -0.832856       -22.6632
 149   2.0000      -0.811369       -22.0785
 150   2.0000      -0.810197       -22.0466
 151   2.0000      -0.808359       -21.9966
 152   2.0000      -0.806200       -21.9378
 153   2.0000      -0.805017       -21.9056
 154   2.0000      -0.803231       -21.8570
 155   2.0000      -0.799505       -21.7556
 156   2.0000      -0.784635       -21.3510
 157   2.0000      -0.783457       -21.3190
 158   2.0000      -0.777216       -21.1491
 159   2.0000      -0.758886       -20.6503
 160   2.0000      -0.755666       -20.5627
 161   2.0000      -0.749076       -20.3834
 162   2.0000      -0.744189       -20.2504
 163   2.0000      -0.723172       -19.6785
 164   2.0000      -0.714772       -19.4499
 165   2.0000      -0.709168       -19.2974
 166   2.0000      -0.706399       -19.2221
 167   2.0000      -0.699044       -19.0220
 168   2.0000      -0.695873       -18.9357
 169   2.0000      -0.692912       -18.8551
 170   2.0000      -0.685924       -18.6649
 171   2.0000      -0.682048       -18.5595
 172   2.0000      -0.678944       -18.4750
 173   2.0000      -0.671542       -18.2736
 174   2.0000      -0.660528       -17.9739
 175   2.0000      -0.655978       -17.8501
 176   2.0000      -0.651464       -17.7272
 177   2.0000      -0.651249       -17.7214
 178   2.0000      -0.637530       -17.3481
 179   2.0000      -0.636040       -17.3075
 180   2.0000      -0.630998       -17.1703
 181   2.0000      -0.626932       -17.0597
 182   2.0000      -0.623519       -16.9668
 183   2.0000      -0.619911       -16.8686
 184   2.0000      -0.611147       -16.6301
 185   2.0000      -0.608228       -16.5507
 186   2.0000      -0.606583       -16.5060
 187   2.0000      -0.599445       -16.3117
 188   2.0000      -0.593930       -16.1616
 189   2.0000      -0.591840       -16.1048
 190   2.0000      -0.586618       -15.9627
 191   2.0000      -0.581934       -15.8352
 192   2.0000      -0.573997       -15.6192
 193   2.0000      -0.571436       -15.5496
 194   2.0000      -0.569474       -15.4962
 195   2.0000      -0.566157       -15.4059
 196   2.0000      -0.564717       -15.3667
 197   2.0000      -0.560691       -15.2572
 198   2.0000      -0.558566       -15.1993
 199   2.0000      -0.557847       -15.1798
 200   2.0000      -0.554589       -15.0911
 201   2.0000      -0.546492       -14.8708
 202   2.0000      -0.542917       -14.7735
 203   2.0000      -0.538623       -14.6567
 204   2.0000      -0.538501       -14.6533
 205   2.0000      -0.536254       -14.5922
 206   2.0000      -0.533001       -14.5037
 207   2.0000      -0.530829       -14.4446
 208   2.0000      -0.528718       -14.3871
 209   2.0000      -0.528111       -14.3706
 210   2.0000      -0.525689       -14.3047
 211   2.0000      -0.524818       -14.2810
 212   2.0000      -0.520071       -14.1519
 213   2.0000      -0.519695       -14.1416
 214   2.0000      -0.518614       -14.1122
 215   2.0000      -0.515471       -14.0267
 216   2.0000      -0.513564       -13.9748
 217   2.0000      -0.511607       -13.9215
 218   2.0000      -0.507546       -13.8110
 219   2.0000      -0.506386       -13.7795
 220   2.0000      -0.504704       -13.7337
 221   2.0000      -0.504461       -13.7271
 222   2.0000      -0.503381       -13.6977
 223   2.0000      -0.501983       -13.6597
 224   2.0000      -0.501433       -13.6447
 225   2.0000      -0.495232       -13.4760
 226   2.0000      -0.493990       -13.4421
 227   2.0000      -0.492342       -13.3973
 228   2.0000      -0.489195       -13.3117
 229   2.0000      -0.486699       -13.2438
 230   2.0000      -0.485835       -13.2203
 231   2.0000      -0.485469       -13.2103
 232   2.0000      -0.485239       -13.2040
 233   2.0000      -0.485088       -13.1999
 234   2.0000      -0.483974       -13.1696
 235   2.0000      -0.480819       -13.0837
 236   2.0000      -0.475772       -12.9464
 237   2.0000      -0.472481       -12.8569
 238   2.0000      -0.464284       -12.6338
 239   2.0000      -0.460628       -12.5343
 240   2.0000      -0.459807       -12.5120
 241   2.0000      -0.458632       -12.4800
 242   2.0000      -0.458086       -12.4652
 243   2.0000      -0.457565       -12.4510
 244   2.0000      -0.455656       -12.3990
 245   2.0000      -0.455384       -12.3916
 246   2.0000      -0.454104       -12.3568
 247   2.0000      -0.452283       -12.3072
 248   2.0000      -0.451857       -12.2957
 249   2.0000      -0.451017       -12.2728
 250   2.0000      -0.450239       -12.2516
 251   2.0000      -0.449428       -12.2296
 252   2.0000      -0.448801       -12.2125
 253   2.0000      -0.448589       -12.2067
 254   2.0000      -0.448141       -12.1945
 255   2.0000      -0.446471       -12.1491
 256   2.0000      -0.441150       -12.0043
 257   2.0000      -0.437466       -11.9041
 258   2.0000      -0.437389       -11.9020
 259   2.0000      -0.437065       -11.8931
 260   2.0000      -0.432053       -11.7568
 261   2.0000      -0.429810       -11.6957
 262   2.0000      -0.428895       -11.6708
 263   2.0000      -0.426203       -11.5976
 264   2.0000      -0.425763       -11.5856
 265   2.0000      -0.424385       -11.5481
 266   2.0000      -0.422828       -11.5057
 267   2.0000      -0.417706       -11.3664
 268   2.0000      -0.417411       -11.3583
 269   2.0000      -0.413219       -11.2443
 270   2.0000      -0.411153       -11.1880
 271   2.0000      -0.405057       -11.0222
 272   2.0000      -0.403060       -10.9678
 273   2.0000      -0.399715       -10.8768
 274   2.0000      -0.397621       -10.8198
 275   2.0000      -0.393923       -10.7192
 276   2.0000      -0.389966       -10.6115
 277   2.0000      -0.384765       -10.4700
 278   2.0000      -0.376290       -10.2394
 279   2.0000      -0.371516       -10.1095
 280   2.0000      -0.365963        -9.9584
 281   2.0000      -0.363942        -9.9034
 282   2.0000      -0.363162        -9.8821
 283   2.0000      -0.359777        -9.7900
 284   2.0000      -0.355556        -9.6752
 285   2.0000      -0.354818        -9.6551
 286   2.0000      -0.351101        -9.5539
 287   2.0000      -0.349765        -9.5176
 288   2.0000      -0.348572        -9.4851
 289   2.0000      -0.348424        -9.4811
 290   2.0000      -0.347485        -9.4555
 291   2.0000      -0.343966        -9.3598
 292   2.0000      -0.335645        -9.1334
 293   2.0000      -0.328042        -8.9265
 294   2.0000      -0.306470        -8.3395
 295   2.0000      -0.278235        -7.5712
 296   2.0000      -0.243073        -6.6143
 297   0.0000      -0.128181        -3.4880
 298   0.0000      -0.110573        -3.0088
 299   0.0000      -0.100450        -2.7334
 300   0.0000      -0.099368        -2.7040
 301   0.0000      -0.088875        -2.4184

MULLIKEN ATOMIC CHARGES
-----------------------
   0 C :    0.041211
   1 C :   -0.037172
   2 C :   -0.067149
   3 C :   -0.172283
   4 N :    0.200585
   5 C :   -0.068704
   6 C :   -0.172330
   7 N :    0.194440
   8 C :   -0.036747
   9 C :   -0.000179
  10 C :    0.157738
  11 O :   -0.152950
  12 C :   -0.103811
  13 C :    0.325034
  14 C :   -0.358723
  15 C :   -0.189703
  16 N :    0.160949
  17 C :   -0.177828
  18 N :    0.150186
  19 C :    0.061639
  20 C :   -0.109130
  21 C :   -0.006013
  22 C :   -0.128488
  23 C :   -0.061508
  24 S :    0.172954
  25 C :   -0.084204
  26 C :   -0.096389
  27 Si:    0.536213
  28 C :   -0.199399
  29 C :   -0.199475
  30 C :   -0.050884
  31 C :   -0.090239
  32 S :    0.157338
  33 C :   -0.103592
  34 C :    0.031370
  35 C :    0.009314
  36 N :    0.042539
  37 C :   -0.117575
  38 C :    0.142260
  39 O :   -0.103808
  40 C :   -0.020536
  41 C :   -0.014437
  42 C :    0.144398
  43 O :   -0.112474
  44 C :   -0.113856
  45 N :    0.064221
  46 C :   -0.098654
  47 S :    0.213932
  48 C :   -0.078531
  49 C :   -0.065154
  50 C :   -0.100561
  51 C :   -0.072786
  52 S :    0.219650
  53 C :   -0.071319
  54 C :   -0.113096
  55 Si:    0.531393
  56 C :   -0.201089
  57 C :   -0.196800
  58 C :    0.033995
  59 C :   -0.116811
  60 S :    0.179166
  61 C :    0.065260
  62 C :   -0.151218
  63 C :    0.146081
  64 O :   -0.132810
  65 C :    0.010980
  66 C :   -0.040957
  67 C :   -0.065506
  68 C :   -0.065582
  69 C :   -0.038632
  70 C :    0.031778
  71 C :    0.253568
  72 C :   -0.314503
  73 C :   -0.180909
  74 N :    0.167124
  75 C :   -0.200926
  76 N :    0.175230
  77 C :   -0.173372
  78 N :    0.200900
  79 C :   -0.173092
  80 N :    0.192214
  81 H :    0.018973
  82 H :    0.011085
  83 H :   -0.002746
  84 H :    0.012971
  85 H :    0.055389
  86 H :    0.053994
  87 H :    0.052042
  88 H :    0.055812
  89 H :    0.051518
  90 H :    0.056878
  91 H :    0.011044
  92 H :    0.022726
  93 H :    0.020185
  94 H :   -0.013972
  95 H :    0.070774
  96 H :    0.047987
  97 H :    0.045623
  98 H :    0.056019
  99 H :    0.046815
 100 H :    0.048292
 101 H :   -0.004954
 102 H :    0.031534
 103 H :    0.016238
 104 H :    0.024006
Sum of atomic charges:   -0.0000000

LOEWDIN ATOMIC CHARGES
----------------------
   0 C :    0.002492
   1 C :    0.033208
   2 C :   -0.026407
   3 C :   -0.031302
   4 N :   -0.014360
   5 C :   -0.030580
   6 C :   -0.031461
   7 N :   -0.017570
   8 C :    0.045045
   9 C :   -0.027532
  10 C :    0.085349
  11 O :   -0.142372
  12 C :   -0.118281
  13 C :    0.071112
  14 C :   -0.136324
  15 C :   -0.021819
  16 N :   -0.043955
  17 C :   -0.023273
  18 N :   -0.045493
  19 C :    0.050518
  20 C :   -0.183894
  21 C :    0.003156
  22 C :   -0.203333
  23 C :   -0.157316
  24 S :    0.464470
  25 C :   -0.198749
  26 C :   -0.175149
  27 Si:    0.672216
  28 C :   -0.240568
  29 C :   -0.240487
  30 C :   -0.033202
  31 C :   -0.178082
  32 S :    0.436789
  33 C :   -0.190863
  34 C :   -0.041066
  35 C :   -0.053482
  36 N :   -0.005826
  37 C :   -0.039786
  38 C :    0.055634
  39 O :   -0.100670
  40 C :   -0.009142
  41 C :   -0.012340
  42 C :    0.057327
  43 O :   -0.106692
  44 C :   -0.039831
  45 N :    0.009340
  46 C :   -0.186639
  47 S :    0.503312
  48 C :   -0.180231
  49 C :   -0.051283
  50 C :   -0.183210
  51 C :   -0.198266
  52 S :    0.505525
  53 C :   -0.153585
  54 C :   -0.200205
  55 Si:    0.668071
  56 C :   -0.240766
  57 C :   -0.242427
  58 C :    0.002208
  59 C :   -0.191169
  60 S :    0.477688
  61 C :    0.061297
  62 C :   -0.117297
  63 C :    0.081077
  64 O :   -0.135511
  65 C :   -0.029880
  66 C :    0.047188
  67 C :   -0.031163
  68 C :   -0.024732
  69 C :    0.030809
  70 C :    0.005938
  71 C :    0.054361
  72 C :   -0.134125
  73 C :   -0.024116
  74 N :   -0.041145
  75 C :   -0.030980
  76 N :   -0.045061
  77 C :   -0.030922
  78 N :   -0.014132
  79 C :   -0.031826
  80 N :   -0.016949
  81 H :    0.051849
  82 H :    0.051954
  83 H :    0.042462
  84 H :    0.033751
  85 H :    0.043115
  86 H :    0.041496
  87 H :    0.041008
  88 H :    0.043495
  89 H :    0.040908
  90 H :    0.042982
  91 H :    0.035565
  92 H :    0.047697
  93 H :    0.046946
  94 H :    0.026629
  95 H :    0.048998
  96 H :    0.039777
  97 H :    0.038116
  98 H :    0.042870
  99 H :    0.038491
 100 H :    0.038928
 101 H :    0.036292
 102 H :    0.053120
 103 H :    0.053889
 104 H :    0.052359

  Mayer bond orders larger than 0.100000
B(  0-C ,  1-C ) :   1.3625 B(  0-C ,  9-C ) :   1.3370 B(  0-C , 13-C ) :   0.9450
B(  1-C ,  2-C ) :   1.3907 B(  1-C , 81-H ) :   0.9834 B(  2-C ,  3-C ) :   1.0871
B(  2-C ,  5-C ) :   1.4067 B(  3-C ,  4-N ) :   3.0432 B(  5-C ,  6-C ) :   1.0841
B(  5-C ,  8-C ) :   1.3575 B(  6-C ,  7-N ) :   3.0450 B(  8-C ,  9-C ) :   1.3678
B(  8-C , 82-H ) :   1.0146 B(  9-C , 10-C ) :   0.9338 B( 10-C , 11-O ) :   2.1647
B( 10-C , 12-C ) :   0.9598 B( 12-C , 13-C ) :   1.1166 B( 12-C , 19-C ) :   1.5075
B( 13-C , 14-C ) :   1.6113 B( 14-C , 15-C ) :   1.1556 B( 14-C , 17-C ) :   1.1412
B( 15-C , 16-N ) :   2.9545 B( 17-C , 18-N ) :   2.9511 B( 19-C , 20-C ) :   1.3015
B( 19-C , 83-H ) :   0.9015 B( 20-C , 21-C ) :   1.3535 B( 20-C , 24-S ) :   1.0623
B( 21-C , 22-C ) :   1.3306 B( 21-C , 84-H ) :   0.9816 B( 22-C , 23-C ) :   1.4055
B( 22-C , 27-Si) :   0.8622 B( 23-C , 24-S ) :   1.1678 B( 23-C , 25-C ) :   1.1950
B( 25-C , 26-C ) :   1.4623 B( 25-C , 32-S ) :   1.1030 B( 26-C , 27-Si) :   0.8640
B( 26-C , 30-C ) :   1.2673 B( 27-Si, 28-C ) :   1.0693 B( 27-Si, 29-C ) :   1.0704
B( 28-C , 85-H ) :   0.9474 B( 28-C , 86-H ) :   0.9527 B( 28-C , 87-H ) :   0.9526
B( 29-C , 88-H ) :   0.9474 B( 29-C , 89-H ) :   0.9526 B( 29-C , 90-H ) :   0.9517
B( 30-C , 31-C ) :   1.4498 B( 30-C , 91-H ) :   0.9911 B( 31-C , 32-S ) :   1.0995
B( 31-C , 33-C ) :   1.1994 B( 33-C , 34-C ) :   1.3581 B( 33-C , 46-C ) :   0.1272
B( 33-C , 47-S ) :   1.1495 B( 34-C , 35-C ) :   1.1861 B( 34-C , 45-N ) :   1.4401
B( 35-C , 36-N ) :   1.4275 B( 35-C , 46-C ) :   1.3082 B( 36-N , 37-C ) :   1.6972
B( 37-C , 38-C ) :   0.8959 B( 37-C , 44-C ) :   1.0995 B( 38-C , 39-O ) :   2.2495
B( 38-C , 40-C ) :   1.0200 B( 40-C , 41-C ) :   1.6772 B( 40-C , 92-H ) :   0.9992
B( 41-C , 42-C ) :   1.0288 B( 41-C , 93-H ) :   0.9999 B( 42-C , 43-O ) :   2.2236
B( 42-C , 44-C ) :   0.8978 B( 44-C , 45-N ) :   1.7110 B( 46-C , 47-S ) :   1.1554
B( 46-C , 48-C ) :   1.2410 B( 48-C , 49-C ) :   1.3904 B( 48-C , 52-S ) :   1.1344
B( 49-C , 50-C ) :   1.3159 B( 49-C , 94-H ) :   1.0001 B( 50-C , 51-C ) :   1.4539
B( 50-C , 55-Si) :   0.8711 B( 51-C , 52-S ) :   1.0937 B( 51-C , 53-C ) :   1.1931
B( 53-C , 54-C ) :   1.4458 B( 53-C , 60-S ) :   1.1497 B( 54-C , 55-Si) :   0.8628
B( 54-C , 58-C ) :   1.3201 B( 55-Si, 56-C ) :   1.0693 B( 55-Si, 57-C ) :   1.0619
B( 56-C , 95-H ) :   0.9470 B( 56-C , 96-H ) :   0.9517 B( 56-C , 97-H ) :   0.9522
B( 57-C , 98-H ) :   0.9486 B( 57-C , 99-H ) :   0.9528 B( 57-C ,100-H ) :   0.9529
B( 58-C , 59-C ) :   1.3739 B( 58-C ,101-H ) :   1.0013 B( 59-C , 60-S ) :   1.0826
B( 59-C , 61-C ) :   1.1839 B( 61-C , 62-C ) :   1.5690 B( 61-C ,102-H ) :   0.9520
B( 62-C , 63-C ) :   0.9611 B( 62-C , 71-C ) :   1.0638 B( 63-C , 64-O ) :   2.2801
B( 63-C , 65-C ) :   0.8953 B( 65-C , 66-C ) :   1.3685 B( 65-C , 70-C ) :   1.3368
B( 66-C , 67-C ) :   1.3615 B( 66-C ,103-H ) :   1.0161 B( 67-C , 68-C ) :   1.4060
B( 67-C , 79-C ) :   1.0866 B( 68-C , 69-C ) :   1.3805 B( 68-C , 77-C ) :   1.0868
B( 69-C , 70-C ) :   1.3658 B( 69-C ,104-H ) :   0.9913 B( 70-C , 71-C ) :   0.9767
B( 71-C , 72-C ) :   1.6537 B( 72-C , 73-C ) :   1.1372 B( 72-C , 75-C ) :   1.1566
B( 73-C , 74-N ) :   2.9855 B( 75-C , 76-N ) :   3.0183 B( 77-C , 78-N ) :   3.0447
B( 79-C , 80-N ) :   3.0439

-----------------------------------------------------------------------------
         ABSORPTION SPECTRUM VIA TRANSITION ELECTRIC DIPOLE MOMENTS
-----------------------------------------------------------------------------
State   Energy  Wavelength   fosc         T2         TX        TY        TZ
        (cm-1)    (nm)                  (au**2)     (au)      (au)      (au)
-----------------------------------------------------------------------------
   0   10335.3    967.6   1.364086432  43.45027   6.28439  -0.61125  -1.89292
   1   15016.3    665.9   0.201396633   4.41536   0.99352   1.85156  -0.00449
   2   16828.8    594.2   0.397623497   7.77846  -1.82033  -0.65512   2.00890
   3   18231.0    548.5   0.437212306   7.89509  -2.63145  -0.96991   0.17275
   4   19498.5    512.9   0.048684969   0.82200   0.34676   0.83298   0.08885
   5   20884.2    478.8   0.341347653   5.38090  -2.22994   0.47329   0.42926
   6   21355.9    468.3   0.027169108   0.41882  -0.15762  -0.00278  -0.62767
   7   23725.2    421.5   0.172734930   2.39688   0.64618   0.74575  -1.19297
   8   24638.0    405.9   0.003741994   0.05000   0.05898   0.04446   0.21106
   9   25842.4    387.0   0.001233075   0.01571   0.07361  -0.08433   0.05638
  10   26000.3    384.6   0.080674448   1.02149  -0.86342   0.10117  -0.51552
  11   26212.8    381.5   0.031306484   0.39318   0.61888   0.03705   0.09382
  12   26510.3    377.2   0.001388406   0.01724   0.09795  -0.02423  -0.08402
  13   27048.7    369.7   0.072998783   0.88848   0.46511  -0.79038   0.21780
  14   27778.7    360.0   0.059184507   0.70141  -0.72796   0.37485  -0.17599
  15   28644.7    349.1   0.014026106   0.16120  -0.34279   0.12601  -0.16678
  16   29245.7    341.9   0.093685652   1.05460  -0.34243   0.72706  -0.63931
  17   29705.4    336.6   0.051747392   0.57349  -0.75024   0.05288   0.08849
  18   30231.2    330.8   0.081430842   0.88677   0.85887   0.13995  -0.35989
  19   30389.2    329.1   0.009418819   0.10204   0.27560   0.02957  -0.15877
  20   30498.1    327.9   0.000033817   0.00037  -0.01381  -0.01256   0.00408
  21   30538.7    327.5   0.012107948   0.13053  -0.21859  -0.28495   0.03934
  22   30889.4    323.7   0.000096806   0.00103  -0.00140  -0.02926  -0.01319
  23   31096.7    321.6   0.121600025   1.28734  -1.12697  -0.08963   0.09617
  24   31529.8    317.2   0.082719018   0.86369  -0.83822  -0.03322   0.39997
  25   31577.4    316.7   0.000016679   0.00017   0.00677   0.00668   0.00914
  26   31717.8    315.3   0.068198948   0.70786   0.82532  -0.14253   0.07995
  27   31800.6    314.5   0.080310785   0.83141   0.41460   0.31529  -0.74840
  28   32038.9    312.1   0.090881387   0.93384  -0.95201  -0.01448   0.16524
  29   33208.4    301.1   0.074636063   0.73991   0.22776   0.54451  -0.62573
  30   33348.6    299.9   0.068793115   0.67911  -0.46248   0.26686  -0.62771
  31   33565.6    297.9   0.000646971   0.00635  -0.02189   0.01920  -0.07415
  32   33842.8    295.5   0.011608881   0.11293   0.16326  -0.23671   0.17391
  33   33908.0    294.9   0.178605293   1.73408   0.56494  -0.99656   0.64945
  34   34778.3    287.5   0.136891139   1.29581  -0.00489   0.90591  -0.68929
  35   34898.7    286.5   0.234475342   2.21189  -0.24946  -1.11074   0.95704
  36   34966.2    286.0   0.054557326   0.51367   0.10981   0.53341  -0.46592
  37   35046.6    285.3   0.319073653   2.99723   1.68198  -0.40749   0.04624
  38   35302.4    283.3   0.138016651   1.28707   0.14671   0.84802  -0.73920
  39   35579.7    281.1   0.013871028   0.12835   0.35516   0.03999   0.02470
  40   35986.1    277.9   0.112016200   1.02476   0.31050  -0.71301   0.64804
  41   36224.2    276.1   0.016027429   0.14566   0.33695  -0.16960  -0.05794
  42   36318.3    275.3   0.024508437   0.22216  -0.12195   0.22670  -0.39484
  43   36514.6    273.9   0.063077550   0.56870   0.74900   0.08717  -0.01000
  44   36747.3    272.1   0.030288886   0.27135  -0.37022   0.32783  -0.16376
  45   36907.0    271.0   0.034764476   0.31010  -0.33011   0.39945  -0.20389
  46   37173.6    269.0   0.010944359   0.09692   0.27771  -0.12110  -0.07168
  47   37285.3    268.2   0.101601564   0.89710   0.93484   0.05110   0.14337
  48   37307.9    268.0   0.032183927   0.28400  -0.52929   0.02572   0.05649
  49   37547.2    266.3   0.036177041   0.31720   0.52860   0.19202  -0.03014
  50   37642.3    265.7   0.019300375   0.16880  -0.16518  -0.28589   0.24450
  51   38064.8    262.7   0.042194819   0.36493  -0.17432  -0.57663  -0.04521
  52   38239.4    261.5   0.008655233   0.07451   0.00634   0.26411  -0.06872
  53   38257.0    261.4   0.097814484   0.84172  -0.21423  -0.69606   0.55796
  54   38335.7    260.9   0.071113696   0.61070   0.66813   0.35636  -0.19316
  55   38532.0    259.5   0.285238552   2.43704   0.42411   1.06206  -1.06264
  56   38749.7    258.1   0.048636198   0.41321   0.50582   0.21885  -0.33084
  57   38968.1    256.6   0.144810631   1.22340  -0.78973  -0.72400   0.27486
  58   39355.9    254.1   0.069834797   0.58417  -0.58023  -0.24513   0.43291
  59   39431.2    253.6   0.197170335   1.64618  -1.20090  -0.12250   0.43476
  60   39614.5    252.4   0.069116185   0.57438   0.48498  -0.41070   0.41292
  61   39751.8    251.6   0.005347683   0.04429   0.16585  -0.09935   0.08314
  62   40125.5    249.2   0.063236188   0.51882   0.57326   0.31602  -0.30056
  63   40146.5    249.1   0.006718224   0.05509   0.13786   0.13465  -0.13400

FINAL SINGLE POINT ENERGY     -5714.320255275146

DIPOLE MOMENT
-------------
                                X             Y             Z
Electronic contribution:      1.42996       5.46975      12.55065
Nuclear contribution   :     -4.63223      -7.11447     -15.31797
                        -----------------------------------------
Total Dipole Moment    :     -3.20227      -1.64472      -2.76732
                        -----------------------------------------
Magnitude (a.u.)       :      4.54067
Magnitude (Debye)      :     11.54147

Rotational constants in cm-1:     0.001471     0.000171     0.000162
Rotational constants in MHz :    44.090129     5.119679     4.853670

                             ****ORCA TERMINATED NORMALLY****
TOTAL RUN TIME: 0 days 0 hours 12 minutes 15 seconds 35 msec
