                         Program Version 4.2.0 -  RELEASE  -
|  1> # ORCA input file
|  2> # SCF done       -210.278377240420          0.000614169339
|  3> ! CAM-B3LYP def2-SVP def2/J RIJCOSX Grid4 TightSCF
|  4> %maxcore 5000
|  5> %tddft
|  6>     Mode sTDDFT
|  7>     Ethresh 5.0
|  8>     maxcore 5000
|  9> end
| 10>
| 11> %pal
| 12>   nprocs 6
| 13>   end
| 14> * xyz 0 1
| 15>    C        2.48815         6.38780         1.27820
| 16>    C        2.46777         6.05897         2.60747
| 17>    C        3.58799         6.15114         3.46189
| 18>    N        4.45637         6.20366         4.21045
| 19>    C        1.35166         5.58159         3.32837
| 20>    N        0.50242         5.18621         3.99214
| 21>    C        3.65162         6.87796         0.54756
| 22>    C        3.28314         7.10297        -0.80402
| 23>    C        4.16713         7.56864        -1.74825
| 24>    C        5.47952         7.82480        -1.34188
| 25>    C        5.84045         7.59716         0.00879
| 26>    C        4.94596         7.12687         0.96339
| 27>    S        7.50923         7.97929         0.28610
| 28>    C        7.70676         8.43106        -1.37138
| 29>    C        6.57991         8.30474        -2.10615
| 30>    C        1.86732         6.76043        -0.98001
| 31>    O        1.22442         6.83339        -2.01354
| 32>    C        1.38312         6.31422         0.33501
| 33>    C        0.10871         5.90233         0.60397
| 34>    C       -0.99867         5.79020        -0.25970
| 35>    C       -2.23443         5.32572         0.20535
| 36>    F       -2.42429         4.98215         1.47939
| 37>    C       -3.21635         5.25216        -0.77083
| 38>    C       -2.73222         5.67264        -2.02194
| 39>    S       -1.07487         6.15459        -1.97575
| 40>    C       -3.72227         5.58237        -3.00534
| 41>    C       -4.93344         5.09413        -2.49519
| 42>    S       -4.88366         4.74447        -0.79188
| 43>    C       -5.91947         4.98139        -3.47766
| 44>    F       -7.11302         4.43831        -3.23187
| 45>    C       -5.48783         5.37996        -4.73557
| 46>    S       -3.80846         5.86912        -4.70448
| 47>    C       -6.20148         5.37241        -5.97118
| 48>    C       -7.60832         5.44957        -6.06893
| 49>    C       -8.28121         5.22174        -7.32288
| 50>    N       -9.61798         5.22533        -7.36046
| 51>    C      -10.30854         5.49703        -6.28258
| 52>    C       -9.62797         5.85371        -5.06964
| 53>    N       -8.32385         5.81144        -4.99571
| 54>    C      -10.37046         6.28356        -3.94003
| 55>    N      -10.99989         6.62695        -3.04766
| 56>    C      -11.72385         5.46556        -6.33423
| 57>    N      -12.86885         5.44402        -6.33762
| 58>    C       -7.59414         4.97983        -8.53621
| 59>    C       -6.19229         5.12955        -8.46658
| 60>    C       -5.51667         5.31045        -7.20054
| 61>    N       -4.19691         5.42032        -7.35564
| 62>    S       -3.84524         5.34358        -8.91963
| 63>    N       -5.32654         5.14984        -9.47945
| 64>    C       -8.32762         4.62443        -9.70471
| 65>    C       -7.86888         4.07711       -10.89800
| 66>    F       -6.60812         3.71471       -11.13089
| 67>    C       -8.88127         3.85532       -11.83279
| 68>    C      -10.14133         4.23673       -11.35699
| 69>    S      -10.07047         4.82135        -9.73061
| 70>    C      -11.14224         3.99276       -12.30060
| 71>    C      -10.62802         3.43837       -13.48247
| 72>    S       -8.90758         3.20054       -13.44621
| 73>    C      -11.62072         3.21837       -14.43720
| 74>    F      -11.38661         2.63784       -15.61855
| 75>    C      -12.89071         3.58820       -14.01852
| 76>    S      -12.84805         4.20126       -12.37742
| 77>    C      -14.13788         3.47219       -14.68254
| 78>    C      -14.42489         3.37268       -16.00628
| 79>    C      -13.66623         3.58357       -17.22203
| 80>    C      -12.61736         4.44893       -17.39086
| 81>    C      -11.98136         4.68702       -18.62705
| 82>    N      -11.42614         4.91605       -19.60460
| 83>    C      -12.10232         5.25717       -16.36042
| 84>    N      -11.66789         5.92951       -15.53732
| 85>    C      -14.37857         2.90598       -18.29890
| 86>    C      -15.65134         2.49782       -17.82118
| 87>    C      -15.77181         2.84890       -16.39770
| 88>    O      -16.72487         2.71200       -15.66757
| 89>    C      -16.57020         1.86420       -18.62381
| 90>    C      -16.21343         1.61195       -19.95168
| 91>    C      -14.93416         2.00852       -20.41316
| 92>    C      -14.00708         2.65702       -19.60541
| 93>    S      -14.70768         1.58353       -22.07919
| 94>    C      -16.29464         0.89870       -22.14610
| 95>    C      -16.96877         0.97782       -20.97817
| 96>    H        3.85296         7.72894        -2.76791
| 97>    H        5.27225         6.97102         1.97785
| 98>    H        8.67072         8.76907        -1.69885
| 99>    H        6.51401         8.53898        -3.15316
|100>    H       -0.11848         5.60423         1.62153
|101>    H      -15.00061         3.39257       -14.02671
|102>    H      -17.53440         1.57240       -18.23753
|103>    H      -13.04164         2.93327       -19.99604
|104>    H      -16.62943         0.47146       -23.07133
|105>    H      -17.96627         0.60497       -20.83193
|106> *
|107>
|108>                          ****END OF INPUT****

CARTESIAN COORDINATES (ANGSTROEM)
---------------------------------
  C      2.488150    6.387800    1.278200
  C      2.467770    6.058970    2.607470
  C      3.587990    6.151140    3.461890
  N      4.456370    6.203660    4.210450
  C      1.351660    5.581590    3.328370
  N      0.502420    5.186210    3.992140
  C      3.651620    6.877960    0.547560
  C      3.283140    7.102970   -0.804020
  C      4.167130    7.568640   -1.748250
  C      5.479520    7.824800   -1.341880
  C      5.840450    7.597160    0.008790
  C      4.945960    7.126870    0.963390
  S      7.509230    7.979290    0.286100
  C      7.706760    8.431060   -1.371380
  C      6.579910    8.304740   -2.106150
  C      1.867320    6.760430   -0.980010
  O      1.224420    6.833390   -2.013540
  C      1.383120    6.314220    0.335010
  C      0.108710    5.902330    0.603970
  C     -0.998670    5.790200   -0.259700
  C     -2.234430    5.325720    0.205350
  F     -2.424290    4.982150    1.479390
  C     -3.216350    5.252160   -0.770830
  C     -2.732220    5.672640   -2.021940
  S     -1.074870    6.154590   -1.975750
  C     -3.722270    5.582370   -3.005340
  C     -4.933440    5.094130   -2.495190
  S     -4.883660    4.744470   -0.791880
  C     -5.919470    4.981390   -3.477660
  F     -7.113020    4.438310   -3.231870
  C     -5.487830    5.379960   -4.735570
  S     -3.808460    5.869120   -4.704480
  C     -6.201480    5.372410   -5.971180
  C     -7.608320    5.449570   -6.068930
  C     -8.281210    5.221740   -7.322880
  N     -9.617980    5.225330   -7.360460
  C    -10.308540    5.497030   -6.282580
  C     -9.627970    5.853710   -5.069640
  N     -8.323850    5.811440   -4.995710
  C    -10.370460    6.283560   -3.940030
  N    -10.999890    6.626950   -3.047660
  C    -11.723850    5.465560   -6.334230
  N    -12.868850    5.444020   -6.337620
  C     -7.594140    4.979830   -8.536210
  C     -6.192290    5.129550   -8.466580
  C     -5.516670    5.310450   -7.200540
  N     -4.196910    5.420320   -7.355640
  S     -3.845240    5.343580   -8.919630
  N     -5.326540    5.149840   -9.479450
  C     -8.327620    4.624430   -9.704710
  C     -7.868880    4.077110  -10.898000
  F     -6.608120    3.714710  -11.130890
  C     -8.881270    3.855320  -11.832790
  C    -10.141330    4.236730  -11.356990
  S    -10.070470    4.821350   -9.730610
  C    -11.142240    3.992760  -12.300600
  C    -10.628020    3.438370  -13.482470
  S     -8.907580    3.200540  -13.446210
  C    -11.620720    3.218370  -14.437200
  F    -11.386610    2.637840  -15.618550
  C    -12.890710    3.588200  -14.018520
  S    -12.848050    4.201260  -12.377420
  C    -14.137880    3.472190  -14.682540
  C    -14.424890    3.372680  -16.006280
  C    -13.666230    3.583570  -17.222030
  C    -12.617360    4.448930  -17.390860
  C    -11.981360    4.687020  -18.627050
  N    -11.426140    4.916050  -19.604600
  C    -12.102320    5.257170  -16.360420
  N    -11.667890    5.929510  -15.537320
  C    -14.378570    2.905980  -18.298900
  C    -15.651340    2.497820  -17.821180
  C    -15.771810    2.848900  -16.397700
  O    -16.724870    2.712000  -15.667570
  C    -16.570200    1.864200  -18.623810
  C    -16.213430    1.611950  -19.951680
  C    -14.934160    2.008520  -20.413160
  C    -14.007080    2.657020  -19.605410
  S    -14.707680    1.583530  -22.079190
  C    -16.294640    0.898700  -22.146100
  C    -16.968770    0.977820  -20.978170
  H      3.852960    7.728940   -2.767910
  H      5.272250    6.971020    1.977850
  H      8.670720    8.769070   -1.698850
  H      6.514010    8.538980   -3.153160
  H     -0.118480    5.604230    1.621530
  H    -15.000610    3.392570  -14.026710
  H    -17.534400    1.572400  -18.237530
  H    -13.041640    2.933270  -19.996040
  H    -16.629430    0.471460  -23.071330
  H    -17.966270    0.604970  -20.831930

 Total Charge           Charge          ....    0
 Multiplicity           Mult            ....    1
 Number of Electrons    NEL             ....  612
 Basis Dimension        Dim             .... 1220

ORBITAL ENERGIES
----------------

  NO   OCC          E(Eh)            E(eV)
   0   2.0000     -89.057737     -2423.3842
   1   2.0000     -88.983793     -2421.3721
   2   2.0000     -88.983025     -2421.3512
   3   2.0000     -88.981494     -2421.3095
   4   2.0000     -88.981423     -2421.3076
   5   2.0000     -88.979939     -2421.2672
   6   2.0000     -88.978570     -2421.2300
   7   2.0000     -88.969977     -2420.9962
   8   2.0000     -88.967562     -2420.9304
   9   2.0000     -24.820906      -675.4112
  10   2.0000     -24.815047      -675.2518
  11   2.0000     -24.808188      -675.0651
  12   2.0000     -24.808125      -675.0634
  13   2.0000     -19.226845      -523.1891
  14   2.0000     -19.217334      -522.9303
  15   2.0000     -14.476978      -393.9386
  16   2.0000     -14.469487      -393.7348
  17   2.0000     -14.464356      -393.5951
  18   2.0000     -14.463986      -393.5851
  19   2.0000     -14.439191      -392.9104
  20   2.0000     -14.434265      -392.7763
  21   2.0000     -14.417904      -392.3311
  22   2.0000     -14.417564      -392.3219
  23   2.0000     -14.416778      -392.3005
  24   2.0000     -14.415712      -392.2715
  25   2.0000     -10.394359      -282.8449
  26   2.0000     -10.394246      -282.8418
  27   2.0000     -10.393713      -282.8273
  28   2.0000     -10.392762      -282.8014
  29   2.0000     -10.390066      -282.7281
  30   2.0000     -10.389914      -282.7239
  31   2.0000     -10.374213      -282.2967
  32   2.0000     -10.367817      -282.1226
  33   2.0000     -10.360731      -281.9298
  34   2.0000     -10.360181      -281.9149
  35   2.0000     -10.357581      -281.8441
  36   2.0000     -10.356250      -281.8079
  37   2.0000     -10.344561      -281.4898
  38   2.0000     -10.344226      -281.4807
  39   2.0000     -10.343624      -281.4643
  40   2.0000     -10.341854      -281.4162
  41   2.0000     -10.339771      -281.3595
  42   2.0000     -10.335630      -281.2468
  43   2.0000     -10.334731      -281.2223
  44   2.0000     -10.334566      -281.2178
  45   2.0000     -10.334167      -281.2070
  46   2.0000     -10.332349      -281.1575
  47   2.0000     -10.330634      -281.1108
  48   2.0000     -10.329179      -281.0713
  49   2.0000     -10.329174      -281.0711
  50   2.0000     -10.328942      -281.0648
  51   2.0000     -10.328203      -281.0447
  52   2.0000     -10.328037      -281.0402
  53   2.0000     -10.327992      -281.0390
  54   2.0000     -10.327435      -281.0238
  55   2.0000     -10.325997      -280.9847
  56   2.0000     -10.325964      -280.9838
  57   2.0000     -10.325916      -280.9824
  58   2.0000     -10.325515      -280.9715
  59   2.0000     -10.323886      -280.9272
  60   2.0000     -10.321974      -280.8752
  61   2.0000     -10.319752      -280.8147
  62   2.0000     -10.319230      -280.8005
  63   2.0000     -10.318754      -280.7876
  64   2.0000     -10.318687      -280.7858
  65   2.0000     -10.317396      -280.7506
  66   2.0000     -10.314771      -280.6792
  67   2.0000     -10.309670      -280.5404
  68   2.0000     -10.308006      -280.4951
  69   2.0000     -10.306027      -280.4412
  70   2.0000     -10.305120      -280.4166
  71   2.0000     -10.304073      -280.3881
  72   2.0000     -10.303346      -280.3683
  73   2.0000     -10.303149      -280.3629
  74   2.0000     -10.302440      -280.3436
  75   2.0000     -10.301949      -280.3303
  76   2.0000     -10.300745      -280.2975
  77   2.0000     -10.294389      -280.1246
  78   2.0000     -10.292400      -280.0704
  79   2.0000     -10.292096      -280.0622
  80   2.0000     -10.289945      -280.0036
  81   2.0000      -8.148941      -221.7439
  82   2.0000      -8.078913      -219.8384
  83   2.0000      -8.077517      -219.8004
  84   2.0000      -8.075925      -219.7571
  85   2.0000      -8.075449      -219.7441
  86   2.0000      -8.072806      -219.6722
  87   2.0000      -8.071140      -219.6269
  88   2.0000      -8.066202      -219.4925
  89   2.0000      -8.063893      -219.4297
  90   2.0000      -6.119959      -166.5325
  91   2.0000      -6.112125      -166.3194
  92   2.0000      -6.111883      -166.3128
  93   2.0000      -6.048544      -164.5893
  94   2.0000      -6.047457      -164.5597
  95   2.0000      -6.045910      -164.5176
  96   2.0000      -6.045211      -164.4986
  97   2.0000      -6.044512      -164.4795
  98   2.0000      -6.043413      -164.4496
  99   2.0000      -6.042864      -164.4347
 100   2.0000      -6.041852      -164.4072
 101   2.0000      -6.041040      -164.3851
 102   2.0000      -6.040904      -164.3814
 103   2.0000      -6.040173      -164.3615
 104   2.0000      -6.038262      -164.3095
 105   2.0000      -6.038193      -164.3076
 106   2.0000      -6.036742      -164.2681
 107   2.0000      -6.036587      -164.2639
 108   2.0000      -6.036502      -164.2616
 109   2.0000      -6.035702      -164.2398
 110   2.0000      -6.033943      -164.1919
 111   2.0000      -6.033391      -164.1769
 112   2.0000      -6.032402      -164.1500
 113   2.0000      -6.031393      -164.1226
 114   2.0000      -6.029103      -164.0602
 115   2.0000      -6.027904      -164.0276
 116   2.0000      -6.025552      -163.9636
 117   2.0000      -1.334215       -36.3058
 118   2.0000      -1.330279       -36.1987
 119   2.0000      -1.325067       -36.0569
 120   2.0000      -1.323882       -36.0247
 121   2.0000      -1.156087       -31.4587
 122   2.0000      -1.142415       -31.0867
 123   2.0000      -1.134475       -30.8706
 124   2.0000      -1.133010       -30.8308
 125   2.0000      -1.061756       -28.8919
 126   2.0000      -1.042867       -28.3778
 127   2.0000      -1.041405       -28.3381
 128   2.0000      -1.023264       -27.8444
 129   2.0000      -1.022721       -27.8296
 130   2.0000      -1.021631       -27.8000
 131   2.0000      -1.014872       -27.6161
 132   2.0000      -1.011003       -27.5108
 133   2.0000      -1.009705       -27.4755
 134   2.0000      -1.009569       -27.4718
 135   2.0000      -1.006363       -27.3845
 136   2.0000      -0.998759       -27.1776
 137   2.0000      -0.995578       -27.0910
 138   2.0000      -0.995220       -27.0813
 139   2.0000      -0.988968       -26.9112
 140   2.0000      -0.986994       -26.8575
 141   2.0000      -0.985011       -26.8035
 142   2.0000      -0.955136       -25.9906
 143   2.0000      -0.948825       -25.8188
 144   2.0000      -0.932307       -25.3694
 145   2.0000      -0.930849       -25.3297
 146   2.0000      -0.919575       -25.0229
 147   2.0000      -0.909182       -24.7401
 148   2.0000      -0.906368       -24.6635
 149   2.0000      -0.904992       -24.6261
 150   2.0000      -0.885509       -24.0959
 151   2.0000      -0.884156       -24.0591
 152   2.0000      -0.883320       -24.0364
 153   2.0000      -0.881933       -23.9986
 154   2.0000      -0.871467       -23.7138
 155   2.0000      -0.861040       -23.4301
 156   2.0000      -0.852328       -23.1930
 157   2.0000      -0.851006       -23.1571
 158   2.0000      -0.846584       -23.0367
 159   2.0000      -0.827064       -22.5055
 160   2.0000      -0.824332       -22.4312
 161   2.0000      -0.824161       -22.4266
 162   2.0000      -0.821209       -22.3462
 163   2.0000      -0.813228       -22.1290
 164   2.0000      -0.812528       -22.1100
 165   2.0000      -0.801464       -21.8089
 166   2.0000      -0.788478       -21.4556
 167   2.0000      -0.774227       -21.0678
 168   2.0000      -0.763537       -20.7769
 169   2.0000      -0.760378       -20.6909
 170   2.0000      -0.753796       -20.5118
 171   2.0000      -0.744609       -20.2618
 172   2.0000      -0.734428       -19.9848
 173   2.0000      -0.721230       -19.6257
 174   2.0000      -0.712221       -19.3805
 175   2.0000      -0.708609       -19.2822
 176   2.0000      -0.701510       -19.0891
 177   2.0000      -0.695511       -18.9258
 178   2.0000      -0.693845       -18.8805
 179   2.0000      -0.690124       -18.7792
 180   2.0000      -0.688094       -18.7240
 181   2.0000      -0.686336       -18.6762
 182   2.0000      -0.684661       -18.6306
 183   2.0000      -0.676870       -18.4186
 184   2.0000      -0.676003       -18.3950
 185   2.0000      -0.670102       -18.2344
 186   2.0000      -0.665454       -18.1079
 187   2.0000      -0.663839       -18.0640
 188   2.0000      -0.662806       -18.0359
 189   2.0000      -0.652919       -17.7668
 190   2.0000      -0.649925       -17.6854
 191   2.0000      -0.642803       -17.4916
 192   2.0000      -0.633760       -17.2455
 193   2.0000      -0.625758       -17.0277
 194   2.0000      -0.622654       -16.9433
 195   2.0000      -0.621165       -16.9027
 196   2.0000      -0.618059       -16.8182
 197   2.0000      -0.610737       -16.6190
 198   2.0000      -0.604130       -16.4392
 199   2.0000      -0.599952       -16.3255
 200   2.0000      -0.598690       -16.2912
 201   2.0000      -0.596990       -16.2449
 202   2.0000      -0.595309       -16.1992
 203   2.0000      -0.593086       -16.1387
 204   2.0000      -0.588889       -16.0245
 205   2.0000      -0.587728       -15.9929
 206   2.0000      -0.586500       -15.9595
 207   2.0000      -0.580832       -15.8052
 208   2.0000      -0.579923       -15.7805
 209   2.0000      -0.578529       -15.7426
 210   2.0000      -0.570090       -15.5129
 211   2.0000      -0.566091       -15.4041
 212   2.0000      -0.563680       -15.3385
 213   2.0000      -0.557786       -15.1781
 214   2.0000      -0.555370       -15.1124
 215   2.0000      -0.549903       -14.9636
 216   2.0000      -0.548754       -14.9323
 217   2.0000      -0.547704       -14.9038
 218   2.0000      -0.544544       -14.8178
 219   2.0000      -0.541567       -14.7368
 220   2.0000      -0.538616       -14.6565
 221   2.0000      -0.533706       -14.5229
 222   2.0000      -0.532266       -14.4837
 223   2.0000      -0.528054       -14.3691
 224   2.0000      -0.523846       -14.2546
 225   2.0000      -0.522422       -14.2158
 226   2.0000      -0.521230       -14.1834
 227   2.0000      -0.520473       -14.1628
 228   2.0000      -0.518626       -14.1125
 229   2.0000      -0.514309       -13.9951
 230   2.0000      -0.507803       -13.8180
 231   2.0000      -0.505621       -13.7586
 232   2.0000      -0.504060       -13.7162
 233   2.0000      -0.503323       -13.6961
 234   2.0000      -0.500346       -13.6151
 235   2.0000      -0.499038       -13.5795
 236   2.0000      -0.498729       -13.5711
 237   2.0000      -0.497930       -13.5494
 238   2.0000      -0.495987       -13.4965
 239   2.0000      -0.493931       -13.4405
 240   2.0000      -0.492663       -13.4060
 241   2.0000      -0.491796       -13.3824
 242   2.0000      -0.491017       -13.3613
 243   2.0000      -0.485752       -13.2180
 244   2.0000      -0.483063       -13.1448
 245   2.0000      -0.475325       -12.9342
 246   2.0000      -0.474899       -12.9227
 247   2.0000      -0.471556       -12.8317
 248   2.0000      -0.470688       -12.8081
 249   2.0000      -0.467709       -12.7270
 250   2.0000      -0.467212       -12.7135
 251   2.0000      -0.463034       -12.5998
 252   2.0000      -0.460176       -12.5220
 253   2.0000      -0.458434       -12.4746
 254   2.0000      -0.456992       -12.4354
 255   2.0000      -0.455635       -12.3985
 256   2.0000      -0.453444       -12.3388
 257   2.0000      -0.451349       -12.2818
 258   2.0000      -0.450430       -12.2568
 259   2.0000      -0.449405       -12.2289
 260   2.0000      -0.447439       -12.1754
 261   2.0000      -0.444158       -12.0862
 262   2.0000      -0.444042       -12.0830
 263   2.0000      -0.439817       -11.9680
 264   2.0000      -0.438167       -11.9231
 265   2.0000      -0.436178       -11.8690
 266   2.0000      -0.436133       -11.8678
 267   2.0000      -0.434541       -11.8245
 268   2.0000      -0.433985       -11.8093
 269   2.0000      -0.432077       -11.7574
 270   2.0000      -0.429205       -11.6793
 271   2.0000      -0.428654       -11.6643
 272   2.0000      -0.428288       -11.6543
 273   2.0000      -0.426552       -11.6071
 274   2.0000      -0.424980       -11.5643
 275   2.0000      -0.421869       -11.4796
 276   2.0000      -0.417987       -11.3740
 277   2.0000      -0.417178       -11.3520
 278   2.0000      -0.414922       -11.2906
 279   2.0000      -0.411381       -11.1942
 280   2.0000      -0.407718       -11.0946
 281   2.0000      -0.406363       -11.0577
 282   2.0000      -0.403560       -10.9814
 283   2.0000      -0.402073       -10.9410
 284   2.0000      -0.386071       -10.5055
 285   2.0000      -0.384554       -10.4642
 286   2.0000      -0.381576       -10.3832
 287   2.0000      -0.374954       -10.2030
 288   2.0000      -0.369108       -10.0439
 289   2.0000      -0.361180        -9.8282
 290   2.0000      -0.359139        -9.7727
 291   2.0000      -0.357679        -9.7329
 292   2.0000      -0.345670        -9.4062
 293   2.0000      -0.343127        -9.3370
 294   2.0000      -0.341664        -9.2971
 295   2.0000      -0.340702        -9.2710
 296   2.0000      -0.334687        -9.1073
 297   2.0000      -0.318349        -8.6627
 298   2.0000      -0.314451        -8.5566
 299   2.0000      -0.309648        -8.4260
 300   2.0000      -0.300026        -8.1641
 301   2.0000      -0.297920        -8.1068
 302   2.0000      -0.297398        -8.0926
 303   2.0000      -0.295048        -8.0287
 304   2.0000      -0.281803        -7.6682
 305   2.0000      -0.253139        -6.8883
 306   0.0000      -0.137041        -3.7291
 307   0.0000      -0.095277        -2.5926
 308   0.0000      -0.089573        -2.4374
 309   0.0000      -0.066862        -1.8194
 310   0.0000      -0.062842        -1.7100

MULLIKEN ATOMIC CHARGES
-----------------------
   0 C :    0.332378
   1 C :   -0.355217
   2 C :   -0.187896
   3 N :    0.152197
   4 C :   -0.194701
   5 N :    0.156724
   6 C :    0.011899
   7 C :   -0.012314
   8 C :   -0.067911
   9 C :    0.115337
  10 C :   -0.097618
  11 C :   -0.022278
  12 S :    0.145018
  13 C :   -0.048771
  14 C :    0.027377
  15 C :    0.172005
  16 O :   -0.188715
  17 C :   -0.084220
  18 C :   -0.032359
  19 C :   -0.148823
  20 C :    0.197459
  21 F :   -0.154618
  22 C :   -0.047865
  23 C :   -0.061872
  24 S :    0.226849
  25 C :   -0.064244
  26 C :   -0.073196
  27 S :    0.215846
  28 C :    0.218184
  29 F :   -0.159510
  30 C :   -0.250887
  31 S :    0.216116
  32 C :    0.160256
  33 C :   -0.090162
  34 C :   -0.032106
  35 N :   -0.016433
  36 C :   -0.084185
  37 C :   -0.147753
  38 N :    0.070194
  39 C :   -0.205798
  40 N :    0.240106
  41 C :   -0.232122
  42 N :    0.246360
  43 C :    0.183082
  44 C :   -0.033293
  45 C :   -0.002598
  46 N :   -0.315298
  47 S :    0.563774
  48 N :   -0.257194
  49 C :   -0.242507
  50 C :    0.203895
  51 F :   -0.151662
  52 C :   -0.078044
  53 C :   -0.035809
  54 S :    0.200543
  55 C :   -0.071545
  56 C :   -0.076983
  57 S :    0.216137
  58 C :    0.221145
  59 F :   -0.157921
  60 C :   -0.181183
  61 S :    0.208594
  62 C :    0.073547
  63 C :   -0.126084
  64 C :    0.275165
  65 C :   -0.323317
  66 C :   -0.178088
  67 N :    0.155216
  68 C :   -0.202246
  69 N :    0.163120
  70 C :    0.003860
  71 C :    0.004654
  72 C :    0.130153
  73 O :   -0.140679
  74 C :   -0.066433
  75 C :    0.108828
  76 C :   -0.092520
  77 C :   -0.023773
  78 S :    0.141237
  79 C :   -0.050216
  80 C :    0.028419
  81 H :   -0.013316
  82 H :   -0.005759
  83 H :    0.038882
  84 H :   -0.006519
  85 H :    0.023179
  86 H :    0.028709
  87 H :   -0.010795
  88 H :   -0.002915
  89 H :    0.038473
  90 H :   -0.006642
Sum of atomic charges:   -0.0000000

LOEWDIN ATOMIC CHARGES
----------------------
   0 C :    0.075735
   1 C :   -0.139026
   2 C :   -0.017714
   3 N :   -0.052606
   4 C :   -0.024407
   5 N :   -0.044591
   6 C :   -0.020829
   7 C :   -0.054362
   8 C :    0.024384
   9 C :   -0.035423
  10 C :   -0.144859
  11 C :   -0.007742
  12 S :    0.433370
  13 C :   -0.148657
  14 C :   -0.057739
  15 C :    0.087758
  16 O :   -0.170454
  17 C :   -0.104982
  18 C :    0.057804
  19 C :   -0.214034
  20 C :    0.068361
  21 F :   -0.032811
  22 C :   -0.219762
  23 C :   -0.199856
  24 S :    0.504003
  25 C :   -0.211151
  26 C :   -0.207191
  27 S :    0.436787
  28 C :    0.050606
  29 F :   -0.037949
  30 C :   -0.192042
  31 S :    0.485238
  32 C :   -0.040740
  33 C :   -0.007610
  34 C :   -0.013624
  35 N :   -0.019130
  36 C :   -0.019322
  37 C :   -0.025695
  38 N :    0.011861
  39 C :   -0.036019
  40 N :   -0.000058
  41 C :   -0.039087
  42 N :    0.002675
  43 C :   -0.027857
  44 C :   -0.045980
  45 C :   -0.043711
  46 N :   -0.303460
  47 S :    0.692826
  48 N :   -0.266035
  49 C :   -0.197384
  50 C :    0.056668
  51 F :   -0.030994
  52 C :   -0.213441
  53 C :   -0.206991
  54 S :    0.481698
  55 C :   -0.194356
  56 C :   -0.205839
  57 S :    0.442860
  58 C :    0.059099
  59 F :   -0.031690
  60 C :   -0.205352
  61 S :    0.469531
  62 C :    0.039005
  63 C :   -0.081735
  64 C :    0.065364
  65 C :   -0.135069
  66 C :   -0.019083
  67 N :   -0.049913
  68 C :   -0.019046
  69 N :   -0.048196
  70 C :   -0.017903
  71 C :   -0.057420
  72 C :    0.084642
  73 O :   -0.139630
  74 C :    0.025946
  75 C :   -0.036569
  76 C :   -0.143911
  77 C :   -0.011738
  78 S :    0.430248
  79 C :   -0.149847
  80 C :   -0.056930
  81 H :    0.040067
  82 H :    0.041221
  83 H :    0.029729
  84 H :    0.035365
  85 H :    0.051521
  86 H :    0.048599
  87 H :    0.040979
  88 H :    0.040703
  89 H :    0.029384
  90 H :    0.035513

  Mayer bond orders larger than 0.100000
B(  0-C ,  1-C ) :   1.6273 B(  0-C ,  6-C ) :   0.9993 B(  0-C , 17-C ) :   1.0734
B(  1-C ,  2-C ) :   1.1456 B(  1-C ,  4-C ) :   1.1454 B(  2-C ,  3-N ) :   2.9692
B(  4-C ,  5-N ) :   2.9579 B(  6-C ,  7-C ) :   1.2704 B(  6-C , 11-C ) :   1.4146
B(  7-C ,  8-C ) :   1.4190 B(  7-C , 15-C ) :   0.9663 B(  8-C ,  9-C ) :   1.2447
B(  8-C , 81-H ) :   1.0170 B(  9-C , 10-C ) :   1.3021 B(  9-C , 14-C ) :   1.1720
B( 10-C , 11-C ) :   1.3214 B( 10-C , 12-S ) :   1.1020 B( 11-C , 82-H ) :   0.9811
B( 12-S , 13-C ) :   1.1281 B( 13-C , 14-C ) :   1.6269 B( 13-C , 83-H ) :   0.9689
B( 14-C , 84-H ) :   0.9992 B( 15-C , 16-O ) :   2.1080 B( 15-C , 17-C ) :   0.9784
B( 17-C , 18-C ) :   1.5121 B( 18-C , 19-C ) :   1.2490 B( 18-C , 85-H ) :   0.9328
B( 19-C , 20-C ) :   1.3766 B( 19-C , 24-S ) :   1.0540 B( 20-C , 21-F ) :   1.1720
B( 20-C , 22-C ) :   1.3359 B( 22-C , 23-C ) :   1.4172 B( 22-C , 27-S ) :   1.0135
B( 23-C , 24-S ) :   1.0495 B( 23-C , 25-C ) :   1.3332 B( 25-C , 26-C ) :   1.4626
B( 25-C , 31-S ) :   1.0530 B( 26-C , 27-S ) :   1.0251 B( 26-C , 28-C ) :   1.2884
B( 28-C , 29-F ) :   1.1938 B( 28-C , 30-C ) :   1.4362 B( 30-C , 31-S ) :   1.0969
B( 30-C , 32-C ) :   1.1199 B( 32-C , 33-C ) :   1.2833 B( 32-C , 43-C ) :   0.1184
B( 32-C , 45-C ) :   1.2226 B( 33-C , 34-C ) :   1.1010 B( 33-C , 38-N ) :   1.4458
B( 34-C , 35-N ) :   1.3827 B( 34-C , 43-C ) :   1.2650 B( 35-N , 36-C ) :   1.6991
B( 36-C , 37-C ) :   1.1999 B( 36-C , 41-C ) :   1.1510 B( 37-C , 38-N ) :   1.7367
B( 37-C , 39-C ) :   1.1569 B( 39-C , 40-N ) :   3.0493 B( 41-C , 42-N ) :   3.0405
B( 43-C , 44-C ) :   1.2031 B( 43-C , 49-C ) :   1.1710 B( 44-C , 45-C ) :   1.1066
B( 44-C , 48-N ) :   1.5243 B( 45-C , 46-N ) :   1.4874 B( 46-N , 47-S ) :   1.2703
B( 46-N , 48-N ) :   0.1512 B( 47-S , 48-N ) :   1.3076 B( 49-C , 50-C ) :   1.4170
B( 49-C , 54-S ) :   1.0782 B( 50-C , 51-F ) :   1.2082 B( 50-C , 52-C ) :   1.2907
B( 52-C , 53-C ) :   1.4702 B( 52-C , 57-S ) :   1.0231 B( 53-C , 54-S ) :   1.0220
B( 53-C , 55-C ) :   1.3355 B( 55-C , 56-C ) :   1.4674 B( 55-C , 61-S ) :   1.0848
B( 56-C , 57-S ) :   1.0337 B( 56-C , 58-C ) :   1.3020 B( 58-C , 59-F ) :   1.1693
B( 58-C , 60-C ) :   1.4330 B( 60-C , 61-S ) :   1.0751 B( 60-C , 62-C ) :   1.1212
B( 62-C , 63-C ) :   1.6952 B( 62-C , 86-H ) :   0.9233 B( 63-C , 64-C ) :   1.0394
B( 63-C , 72-C ) :   0.9327 B( 64-C , 65-C ) :   1.6486 B( 64-C , 70-C ) :   1.0107
B( 65-C , 66-C ) :   1.1311 B( 65-C , 68-C ) :   1.1690 B( 66-C , 67-N ) :   2.9898
B( 68-C , 69-N ) :   2.9988 B( 70-C , 71-C ) :   1.2691 B( 70-C , 77-C ) :   1.4183
B( 71-C , 72-C ) :   0.9275 B( 71-C , 74-C ) :   1.4237 B( 72-C , 73-O ) :   2.2655
B( 74-C , 75-C ) :   1.2531 B( 74-C , 87-H ) :   1.0161 B( 75-C , 76-C ) :   1.3035
B( 75-C , 80-C ) :   1.1716 B( 76-C , 77-C ) :   1.3186 B( 76-C , 78-S ) :   1.0997
B( 77-C , 88-H ) :   0.9851 B( 78-S , 79-C ) :   1.1263 B( 79-C , 80-C ) :   1.6308
B( 79-C , 89-H ) :   0.9683 B( 80-C , 90-H ) :   0.9989

-----------------------------------------------------------------------------
         ABSORPTION SPECTRUM VIA TRANSITION ELECTRIC DIPOLE MOMENTS
-----------------------------------------------------------------------------
State   Energy  Wavelength   fosc         T2         TX        TY        TZ
        (cm-1)    (nm)                  (au**2)     (au)      (au)      (au)
-----------------------------------------------------------------------------
   0   10006.0    999.4   0.949883248  31.25268  -3.33302  -0.74232  -4.42636
   1   18143.7    551.2   0.052376657   0.95036   0.80192  -0.30690  -0.46163
   2   19290.5    518.4   0.007377059   0.12590   0.05425   0.20709   0.28296
   3   19607.0    510.0   0.027635213   0.46401  -0.63685  -0.22360   0.09181
   4   21028.1    475.6   1.558775989  24.40395   3.96223   0.54015   2.90050
   5   21924.7    456.1   0.424685195   6.37689  -0.80661  -0.14238  -2.38872
   6   23915.8    418.1   0.034689416   0.47752   0.52278   0.00340   0.45190
   7   25053.0    399.2   0.016211333   0.21303   0.35055   0.29376  -0.06204
   8   25134.6    397.9   0.000382609   0.00501  -0.01761  -0.06856  -0.00062
   9   25521.6    391.8   0.020164407   0.26011  -0.12938  -0.39699  -0.29287
  10   25725.4    388.7   0.047025950   0.60180   0.69810   0.25266  -0.22500
  11   26611.6    375.8   0.032225671   0.39866  -0.35194  -0.27293  -0.44757
  12   27366.5    365.4   0.094791272   1.14031  -1.01168  -0.34161   0.01050
  13   27565.7    362.8   0.025909532   0.30943  -0.07753  -0.24363   0.49403
  14   28072.4    356.2   0.070311066   0.82455  -0.37033   0.24096   0.79332
  15   28289.9    353.5   0.025160784   0.29280   0.39311   0.21109   0.30611
  16   28654.3    349.0   0.000898100   0.01032  -0.09913   0.01010   0.01976
  17   28830.4    346.9   0.081420963   0.92974  -0.83975  -0.32600  -0.34392
  18   28979.3    345.1   0.014803655   0.16817  -0.07072  -0.12736   0.38334
  19   29083.2    343.8   0.010540326   0.11931  -0.32879  -0.08542   0.06254
  20   29278.4    341.5   0.018181852   0.20444   0.16793   0.24353  -0.34195
  21   29378.2    340.4   0.126737342   1.42022  -0.53628  -0.80123  -0.70047
  22   29796.7    335.6   0.022005249   0.24313  -0.19346   0.38889  -0.23337
  23   30111.5    332.1   0.132433048   1.44790   0.48703   0.38526  -1.03067
  24   30380.7    329.2   0.075507869   0.81822   0.28131   0.64891   0.56392
  25   30524.5    327.6   0.430084408   4.63854  -2.04311  -0.48985  -0.47359
  26   30987.6    322.7   0.170137580   1.80754  -0.07223   0.17817   1.33063
  27   31337.2    319.1   0.018170233   0.19089   0.42237   0.04488  -0.10237
  28   31832.2    314.1   0.646387122   6.68500   2.46016  -0.20415  -0.76874
  29   32002.1    312.5   0.018393141   0.18921   0.38470   0.16874   0.11290
  30   32344.2    309.2   0.114587833   1.16632  -0.73686  -0.31520   0.72388
  31   32892.3    304.0   0.237318080   2.37526   0.06971   0.27289   1.51523
  32   33685.1    296.9   0.107539528   1.05101   0.70912   0.48668   0.55794
  33   33935.4    294.7   0.120446822   1.16847   0.77742   0.73166   0.16961
  34   33964.6    294.4   0.000406840   0.00394   0.05076   0.02702   0.02522
  35   34178.1    292.6   0.079091337   0.76183   0.07176  -0.24384   0.83500
  36   34320.8    291.4   0.547903067   5.25560   1.30145   0.73241  -1.73937
  37   34679.4    288.4   0.363228904   3.44814   1.21672   1.09355   0.87857
  38   34865.6    286.8   0.010965173   0.10354  -0.22197   0.10213   0.20937
  39   35129.4    284.7   0.003900589   0.03655   0.13040   0.02449  -0.13766
  40   35178.5    284.3   0.012765272   0.11946  -0.20430  -0.09480  -0.26218
  41   35257.7    283.6   0.028000514   0.26145   0.47953   0.03785  -0.17339
  42   35555.3    281.3   0.025853932   0.23939   0.37563  -0.08562  -0.30159
  43   35939.1    278.2   0.013817344   0.12657  -0.00267  -0.16143   0.31702
  44   36097.3    277.0   0.040657876   0.37081  -0.48241  -0.03970  -0.36947
  45   36141.9    276.7   0.028665818   0.26111   0.43590   0.22928   0.13615
  46   36397.1    274.7   0.102855805   0.93033  -0.88583  -0.17009  -0.34161
  47   36701.0    272.5   0.051697440   0.46373   0.66048   0.15828  -0.04943
  48   36750.3    272.1   0.051680573   0.46296  -0.08542  -0.06980  -0.67141
  49   37040.9    270.0   0.102481762   0.91084   0.82759  -0.14368  -0.45308
  50   37698.0    265.3   0.037279879   0.32556   0.05838  -0.21787  -0.52410
  51   37713.4    265.2   0.077768670   0.67887  -0.70096  -0.17941  -0.39413
  52   37855.9    264.2   0.005560416   0.04836   0.12118   0.01357   0.18300
  53   38193.7    261.8   0.005759450   0.04964   0.12536   0.14350   0.11548
  54   38240.1    261.5   0.010326237   0.08890  -0.27434  -0.10733   0.04599
  55   38827.7    257.5   0.200346390   1.69869  -0.69255  -0.05417  -1.10278
  56   39014.9    256.3   0.001460121   0.01232   0.00735  -0.11024  -0.01066
  57   39208.4    255.0   0.005682797   0.04772  -0.14028  -0.16701  -0.01210
  58   39311.1    254.4   0.007656400   0.06412  -0.03306   0.05777   0.24431
  59   39330.7    254.3   0.012394138   0.10374   0.26628  -0.17683  -0.03965
  60   39413.6    253.7   0.242808698   2.02812   1.02434   0.21587  -0.96553
  61   39754.0    251.5   0.005369111   0.04446   0.20639  -0.01739  -0.03956
  62   39821.3    251.1   0.047361531   0.39155   0.60438   0.02381   0.16035
  63   40234.8    248.5   0.066361567   0.54299  -0.40057  -0.05308  -0.61621

FINAL SINGLE POINT ENERGY     -6815.809507053338

DIPOLE MOMENT
-------------
                                X             Y             Z
Electronic contribution:     -7.15843      -2.26808      18.90671
Nuclear contribution   :      9.08299       1.19836     -22.73962
                        -----------------------------------------
Total Dipole Moment    :      1.92456      -1.06972      -3.83291
                        -----------------------------------------
Magnitude (a.u.)       :      4.42034
Magnitude (Debye)      :     11.23561

Rotational constants in cm-1:     0.001818     0.000145     0.000136
Rotational constants in MHz :    54.503608     4.343975     4.077386

                             ****ORCA TERMINATED NORMALLY****
TOTAL RUN TIME: 0 days 0 hours 10 minutes 38 seconds 755 msec
