                         Program Version 4.2.0 -  RELEASE  -
|  1> # ORCA input file
|  2> # SCF done       -133.313946407154          0.000420829846
|  3> ! CAM-B3LYP def2-SVP def2/J RIJCOSX Grid4 TightSCF
|  4> %maxcore 5000
|  5> %tddft
|  6>     Mode sTDDFT
|  7>     Ethresh 5.0
|  8>     maxcore 5000
|  9> end
| 10>
| 11> %pal
| 12>   nprocs 6
| 13>   end
| 14> * xyz 0 1
| 15>    C       -2.99422        -1.47711         1.16077
| 16>    C       -3.88541        -2.46223         1.49915
| 17>    C       -3.54019        -3.82121         1.65000
| 18>    N       -3.31392        -4.93741         1.79337
| 19>    C       -5.26696        -2.25872         1.70085
| 20>    N       -6.40295        -2.17086         1.84411
| 21>    C       -1.59406        -1.67318         0.81092
| 22>    C       -1.05928        -0.43489         0.37792
| 23>    C        0.24469        -0.29441        -0.02962
| 24>    C        1.06018        -1.43114        -0.01004
| 25>    C        0.51854        -2.66252         0.42997
| 26>    C       -0.80063        -2.80458         0.84215
| 27>    S        1.70212        -3.93354         0.38631
| 28>    C        2.89146        -2.81022        -0.21638
| 29>    C        2.42847        -1.54757        -0.37727
| 30>   Br        4.63217        -3.40932        -0.57266
| 31>    C       -2.09763         0.60910         0.47207
| 32>    O       -1.94343         1.79799         0.26685
| 33>    C       -3.30197        -0.06962         0.98768
| 34>    C       -4.42430         0.55241         1.46586
| 35>    C       -4.89054         1.85695         1.20497
| 36>    S       -5.83987         2.62532         2.45781
| 37>    C       -6.11989         4.02056         1.46739
| 38>    C       -5.53759         3.86960         0.21664
| 39>    C       -4.85404         2.65276         0.06410
| 40>    C       -4.26335         2.23810        -1.23867
| 41>    C       -4.87679         3.03506        -2.39570
| 42>    C       -4.17785         2.71494        -3.61989
| 43>    N       -3.59968         2.45394        -4.56962
| 44>    C       -4.75245         4.53807        -2.07351
| 45>    C       -5.14417         5.34129        -3.20974
| 46>    N       -5.48782         5.97343        -4.09672
| 47>    C       -5.64749         4.88675        -0.87590
| 48>    C       -6.88351         5.09468         2.00245
| 49>    S       -7.36842         6.49654         1.08426
| 50>    C       -8.20794         7.17034         2.43347
| 51>    C       -8.91310         8.46491         2.25428
| 52>    C       -8.11092         6.35828         3.54751
| 53>    C       -7.36614         5.18643         3.28323
| 54>    C       -8.68963         6.61138         4.84515
| 55>    S       -8.68298         5.33791         6.03920
| 56>    C       -9.47364         6.33697         7.20614
| 57>    C       -9.80497         5.76963         8.53949
| 58>    C       -9.72031         7.59164         6.70050
| 59>    C       -9.27477         7.73078         5.35828
| 60>    C      -10.37764         8.67167         7.39833
| 61>    S      -11.15634         9.93145         6.47325
| 62>    C      -11.66177        10.75318         7.91341
| 63>    C      -12.44105        12.01576         7.82745
| 64>    C      -11.24124        10.08724         9.02131
| 65>    C      -10.51671         8.91076         8.73579
| 66>    H        0.62522         0.66116        -0.35481
| 67>    H       -1.16641        -3.76184         1.17431
| 68>    H        3.02613        -0.73094        -0.73905
| 69>    H       -5.02712         0.00300         2.18054
| 70>    H       -4.40217         1.16394        -1.39021
| 71>    H       -3.18183         2.41941        -1.21065
| 72>    H       -5.93547         2.77585        -2.52341
| 73>    H       -3.70451         4.76029        -1.83750
| 74>    H       -6.69113         4.95289        -1.20554
| 75>    H       -5.37095         5.87442        -0.49631
| 76>    H       -8.92611         8.73978         1.20189
| 77>    H       -8.41100         9.25945         2.80801
| 78>    H       -9.93974         8.39368         2.61268
| 79>    H       -7.18657         4.42697         4.02434
| 80>    H       -9.79926         4.68269         8.49592
| 81>    H      -10.78910         6.10807         8.86089
| 82>    H       -9.07314         6.08045         9.28709
| 83>    H       -9.38070         8.65766         4.82827
| 84>    H      -13.35691        11.86596         7.25614
| 85>    H      -11.86188        12.79340         7.32922
| 86>    H      -12.70150        12.35892         8.82585
| 87>    H      -11.44187        10.42743        10.02219
| 88>    H      -10.09012         8.29042         9.50123
| 89> *
| 90>
| 91>                          ****END OF INPUT****

CARTESIAN COORDINATES (ANGSTROEM)
---------------------------------
  C     -2.994220   -1.477110    1.160770
  C     -3.885410   -2.462230    1.499150
  C     -3.540190   -3.821210    1.650000
  N     -3.313920   -4.937410    1.793370
  C     -5.266960   -2.258720    1.700850
  N     -6.402950   -2.170860    1.844110
  C     -1.594060   -1.673180    0.810920
  C     -1.059280   -0.434890    0.377920
  C      0.244690   -0.294410   -0.029620
  C      1.060180   -1.431140   -0.010040
  C      0.518540   -2.662520    0.429970
  C     -0.800630   -2.804580    0.842150
  S      1.702120   -3.933540    0.386310
  C      2.891460   -2.810220   -0.216380
  C      2.428470   -1.547570   -0.377270
  Br     4.632170   -3.409320   -0.572660
  C     -2.097630    0.609100    0.472070
  O     -1.943430    1.797990    0.266850
  C     -3.301970   -0.069620    0.987680
  C     -4.424300    0.552410    1.465860
  C     -4.890540    1.856950    1.204970
  S     -5.839870    2.625320    2.457810
  C     -6.119890    4.020560    1.467390
  C     -5.537590    3.869600    0.216640
  C     -4.854040    2.652760    0.064100
  C     -4.263350    2.238100   -1.238670
  C     -4.876790    3.035060   -2.395700
  C     -4.177850    2.714940   -3.619890
  N     -3.599680    2.453940   -4.569620
  C     -4.752450    4.538070   -2.073510
  C     -5.144170    5.341290   -3.209740
  N     -5.487820    5.973430   -4.096720
  C     -5.647490    4.886750   -0.875900
  C     -6.883510    5.094680    2.002450
  S     -7.368420    6.496540    1.084260
  C     -8.207940    7.170340    2.433470
  C     -8.913100    8.464910    2.254280
  C     -8.110920    6.358280    3.547510
  C     -7.366140    5.186430    3.283230
  C     -8.689630    6.611380    4.845150
  S     -8.682980    5.337910    6.039200
  C     -9.473640    6.336970    7.206140
  C     -9.804970    5.769630    8.539490
  C     -9.720310    7.591640    6.700500
  C     -9.274770    7.730780    5.358280
  C    -10.377640    8.671670    7.398330
  S    -11.156340    9.931450    6.473250
  C    -11.661770   10.753180    7.913410
  C    -12.441050   12.015760    7.827450
  C    -11.241240   10.087240    9.021310
  C    -10.516710    8.910760    8.735790
  H      0.625220    0.661160   -0.354810
  H     -1.166410   -3.761840    1.174310
  H      3.026130   -0.730940   -0.739050
  H     -5.027120    0.003000    2.180540
  H     -4.402170    1.163940   -1.390210
  H     -3.181830    2.419410   -1.210650
  H     -5.935470    2.775850   -2.523410
  H     -3.704510    4.760290   -1.837500
  H     -6.691130    4.952890   -1.205540
  H     -5.370950    5.874420   -0.496310
  H     -8.926110    8.739780    1.201890
  H     -8.411000    9.259450    2.808010
  H     -9.939740    8.393680    2.612680
  H     -7.186570    4.426970    4.024340
  H     -9.799260    4.682690    8.495920
  H    -10.789100    6.108070    8.860890
  H     -9.073140    6.080450    9.287090
  H     -9.380700    8.657660    4.828270
  H    -13.356910   11.865960    7.256140
  H    -11.861880   12.793400    7.329220
  H    -12.701500   12.358920    8.825850
  H    -11.441870   10.427430   10.022190
  H    -10.090120    8.290420    9.501230

 Total Charge           Charge          ....    0
 Multiplicity           Mult            ....    1
 Number of Electrons    NEL             ....  414
 Basis Dimension        Dim             ....  867

ORBITAL ENERGIES
----------------

  NO   OCC          E(Eh)            E(eV)
   0   2.0000    -482.886782    -13140.0174
   1   2.0000     -88.977529     -2421.2017
   2   2.0000     -88.974124     -2421.1090
   3   2.0000     -88.972641     -2421.0686
   4   2.0000     -88.953723     -2420.5539
   5   2.0000     -88.945392     -2420.3272
   6   2.0000     -62.564508     -1702.4668
   7   2.0000     -56.398460     -1534.6801
   8   2.0000     -56.395737     -1534.6060
   9   2.0000     -56.395708     -1534.6052
  10   2.0000     -19.222013      -523.0576
  11   2.0000     -14.417813      -392.3286
  12   2.0000     -14.417688      -392.3252
  13   2.0000     -14.409705      -392.1080
  14   2.0000     -14.407861      -392.0578
  15   2.0000     -10.372552      -282.2515
  16   2.0000     -10.360633      -281.9272
  17   2.0000     -10.345624      -281.5187
  18   2.0000     -10.343878      -281.4712
  19   2.0000     -10.340039      -281.3668
  20   2.0000     -10.337531      -281.2985
  21   2.0000     -10.335514      -281.2436
  22   2.0000     -10.328581      -281.0550
  23   2.0000     -10.327784      -281.0333
  24   2.0000     -10.320739      -280.8416
  25   2.0000     -10.320609      -280.8380
  26   2.0000     -10.320545      -280.8363
  27   2.0000     -10.320403      -280.8324
  28   2.0000     -10.316107      -280.7156
  29   2.0000     -10.312129      -280.6073
  30   2.0000     -10.310482      -280.5625
  31   2.0000     -10.309823      -280.5445
  32   2.0000     -10.308901      -280.5195
  33   2.0000     -10.308284      -280.5027
  34   2.0000     -10.307894      -280.4921
  35   2.0000     -10.306032      -280.4414
  36   2.0000     -10.303997      -280.3860
  37   2.0000     -10.303896      -280.3833
  38   2.0000     -10.303741      -280.3791
  39   2.0000     -10.302827      -280.3542
  40   2.0000     -10.300603      -280.2937
  41   2.0000     -10.298285      -280.2306
  42   2.0000     -10.297945      -280.2213
  43   2.0000     -10.295551      -280.1562
  44   2.0000     -10.295545      -280.1560
  45   2.0000     -10.294912      -280.1388
  46   2.0000     -10.293163      -280.0912
  47   2.0000     -10.290672      -280.0234
  48   2.0000     -10.287936      -279.9490
  49   2.0000     -10.280171      -279.7377
  50   2.0000     -10.277625      -279.6684
  51   2.0000     -10.274028      -279.5705
  52   2.0000     -10.273922      -279.5676
  53   2.0000     -10.265677      -279.3433
  54   2.0000     -10.262593      -279.2594
  55   2.0000      -8.793956      -239.2957
  56   2.0000      -8.073474      -219.6904
  57   2.0000      -8.069772      -219.5897
  58   2.0000      -8.067731      -219.5341
  59   2.0000      -8.049579      -219.0402
  60   2.0000      -8.041470      -218.8195
  61   2.0000      -6.630258      -180.4185
  62   2.0000      -6.615691      -180.0221
  63   2.0000      -6.615484      -180.0165
  64   2.0000      -6.043181      -164.4433
  65   2.0000      -6.039128      -164.3330
  66   2.0000      -6.038871      -164.3260
  67   2.0000      -6.036997      -164.2750
  68   2.0000      -6.035041      -164.2218
  69   2.0000      -6.034712      -164.2129
  70   2.0000      -6.032752      -164.1595
  71   2.0000      -6.031604      -164.1283
  72   2.0000      -6.030041      -164.0857
  73   2.0000      -6.018776      -163.7792
  74   2.0000      -6.014708      -163.6685
  75   2.0000      -6.011812      -163.5897
  76   2.0000      -6.010703      -163.5596
  77   2.0000      -6.006595      -163.4478
  78   2.0000      -6.003666      -163.3680
  79   2.0000      -2.746146       -74.7264
  80   2.0000      -2.742029       -74.6144
  81   2.0000      -2.741887       -74.6105
  82   2.0000      -2.730292       -74.2950
  83   2.0000      -2.730289       -74.2949
  84   2.0000      -1.136182       -30.9171
  85   2.0000      -1.026048       -27.9202
  86   2.0000      -1.023332       -27.8463
  87   2.0000      -1.015600       -27.6359
  88   2.0000      -1.007778       -27.4230
  89   2.0000      -0.999012       -27.1845
  90   2.0000      -0.996338       -27.1117
  91   2.0000      -0.992482       -27.0068
  92   2.0000      -0.991794       -26.9881
  93   2.0000      -0.985658       -26.8211
  94   2.0000      -0.967786       -26.3348
  95   2.0000      -0.957685       -26.0599
  96   2.0000      -0.945825       -25.7372
  97   2.0000      -0.918771       -25.0010
  98   2.0000      -0.910973       -24.7888
  99   2.0000      -0.892963       -24.2988
 100   2.0000      -0.888216       -24.1696
 101   2.0000      -0.882756       -24.0210
 102   2.0000      -0.880839       -23.9688
 103   2.0000      -0.871702       -23.7202
 104   2.0000      -0.863396       -23.4942
 105   2.0000      -0.858641       -23.3648
 106   2.0000      -0.843723       -22.9589
 107   2.0000      -0.831898       -22.6371
 108   2.0000      -0.826331       -22.4856
 109   2.0000      -0.821400       -22.3514
 110   2.0000      -0.810256       -22.0482
 111   2.0000      -0.787976       -21.4419
 112   2.0000      -0.779441       -21.2097
 113   2.0000      -0.769581       -20.9414
 114   2.0000      -0.764811       -20.8116
 115   2.0000      -0.761303       -20.7161
 116   2.0000      -0.747398       -20.3377
 117   2.0000      -0.735067       -20.0022
 118   2.0000      -0.714971       -19.4553
 119   2.0000      -0.696540       -18.9538
 120   2.0000      -0.690596       -18.7921
 121   2.0000      -0.678150       -18.4534
 122   2.0000      -0.675057       -18.3692
 123   2.0000      -0.661913       -18.0116
 124   2.0000      -0.660710       -17.9788
 125   2.0000      -0.654273       -17.8037
 126   2.0000      -0.641608       -17.4590
 127   2.0000      -0.629263       -17.1231
 128   2.0000      -0.626460       -17.0468
 129   2.0000      -0.619438       -16.8558
 130   2.0000      -0.616795       -16.7838
 131   2.0000      -0.604368       -16.4457
 132   2.0000      -0.599669       -16.3178
 133   2.0000      -0.596158       -16.2223
 134   2.0000      -0.590974       -16.0812
 135   2.0000      -0.584584       -15.9073
 136   2.0000      -0.574244       -15.6260
 137   2.0000      -0.568963       -15.4823
 138   2.0000      -0.559209       -15.2169
 139   2.0000      -0.553379       -15.0582
 140   2.0000      -0.548618       -14.9286
 141   2.0000      -0.544593       -14.8191
 142   2.0000      -0.542067       -14.7504
 143   2.0000      -0.535675       -14.5765
 144   2.0000      -0.534559       -14.5461
 145   2.0000      -0.529328       -14.4037
 146   2.0000      -0.526280       -14.3208
 147   2.0000      -0.524344       -14.2681
 148   2.0000      -0.521832       -14.1998
 149   2.0000      -0.517631       -14.0854
 150   2.0000      -0.516301       -14.0493
 151   2.0000      -0.514362       -13.9965
 152   2.0000      -0.512460       -13.9448
 153   2.0000      -0.508403       -13.8343
 154   2.0000      -0.507963       -13.8224
 155   2.0000      -0.500448       -13.6179
 156   2.0000      -0.496955       -13.5228
 157   2.0000      -0.495298       -13.4777
 158   2.0000      -0.488696       -13.2981
 159   2.0000      -0.482633       -13.1331
 160   2.0000      -0.480957       -13.0875
 161   2.0000      -0.478750       -13.0274
 162   2.0000      -0.476127       -12.9561
 163   2.0000      -0.474529       -12.9126
 164   2.0000      -0.469124       -12.7655
 165   2.0000      -0.465691       -12.6721
 166   2.0000      -0.463365       -12.6088
 167   2.0000      -0.459766       -12.5109
 168   2.0000      -0.458792       -12.4844
 169   2.0000      -0.455827       -12.4037
 170   2.0000      -0.452740       -12.3197
 171   2.0000      -0.450724       -12.2648
 172   2.0000      -0.447788       -12.1849
 173   2.0000      -0.445771       -12.1300
 174   2.0000      -0.441871       -12.0239
 175   2.0000      -0.441450       -12.0125
 176   2.0000      -0.440828       -11.9955
 177   2.0000      -0.436536       -11.8787
 178   2.0000      -0.435335       -11.8461
 179   2.0000      -0.433475       -11.7955
 180   2.0000      -0.429692       -11.6925
 181   2.0000      -0.429113       -11.6767
 182   2.0000      -0.426574       -11.6077
 183   2.0000      -0.421749       -11.4764
 184   2.0000      -0.419071       -11.4035
 185   2.0000      -0.417905       -11.3718
 186   2.0000      -0.411093       -11.1864
 187   2.0000      -0.408686       -11.1209
 188   2.0000      -0.405673       -11.0389
 189   2.0000      -0.404323       -11.0022
 190   2.0000      -0.404010       -10.9937
 191   2.0000      -0.397304       -10.8112
 192   2.0000      -0.391914       -10.6645
 193   2.0000      -0.384843       -10.4721
 194   2.0000      -0.376080       -10.2336
 195   2.0000      -0.365405        -9.9432
 196   2.0000      -0.355997        -9.6872
 197   2.0000      -0.346417        -9.4265
 198   2.0000      -0.336256        -9.1500
 199   2.0000      -0.333211        -9.0671
 200   2.0000      -0.325825        -8.8661
 201   2.0000      -0.317784        -8.6473
 202   2.0000      -0.315547        -8.5865
 203   2.0000      -0.296958        -8.0806
 204   2.0000      -0.294106        -8.0030
 205   2.0000      -0.269926        -7.3451
 206   2.0000      -0.255066        -6.9407
 207   0.0000      -0.097541        -2.6542
 208   0.0000      -0.066607        -1.8125
 209   0.0000      -0.029090        -0.7916
 210   0.0000      -0.010582        -0.2880
 211   0.0000      -0.002391        -0.0651

MULLIKEN ATOMIC CHARGES
-----------------------
   0 C :    0.290897
   1 C :   -0.338720
   2 C :   -0.180400
   3 N :    0.149846
   4 C :   -0.209107
   5 N :    0.163137
   6 C :    0.017353
   7 C :   -0.011761
   8 C :   -0.069391
   9 C :    0.117470
  10 C :   -0.091357
  11 C :   -0.021906
  12 S :    0.189111
  13 C :   -0.124625
  14 C :    0.041439
  15 Br:    0.026698
  16 C :    0.143744
  17 O :   -0.170557
  18 C :   -0.095254
  19 C :   -0.004803
  20 C :   -0.133330
  21 S :    0.147248
  22 C :   -0.048755
  23 C :   -0.124262
  24 C :   -0.004621
  25 C :    0.175501
  26 C :   -0.095734
  27 C :   -0.256257
  28 N :    0.160879
  29 C :   -0.075050
  30 C :   -0.260397
  31 N :    0.159488
  32 C :    0.168089
  33 C :   -0.080950
  34 S :    0.107085
  35 C :   -0.306445
  36 C :    0.122758
  37 C :    0.218950
  38 C :   -0.074036
  39 C :   -0.093910
  40 S :    0.095382
  41 C :   -0.298204
  42 C :    0.117780
  43 C :    0.194119
  44 C :   -0.073884
  45 C :   -0.124876
  46 S :    0.087584
  47 C :   -0.203685
  48 C :    0.125530
  49 C :    0.020529
  50 C :   -0.004289
  51 H :   -0.010270
  52 H :   -0.004534
  53 H :   -0.002108
  54 H :    0.037187
  55 H :    0.036603
  56 H :    0.061891
  57 H :    0.048064
  58 H :    0.054068
  59 H :    0.039935
  60 H :    0.048992
  61 H :    0.018747
  62 H :    0.053495
  63 H :    0.048899
  64 H :    0.008492
  65 H :    0.016746
  66 H :    0.041151
  67 H :    0.044627
  68 H :   -0.028077
  69 H :    0.031282
  70 H :    0.031919
  71 H :    0.018243
  72 H :   -0.028237
  73 H :   -0.031170
Sum of atomic charges:    0.0000000

LOEWDIN ATOMIC CHARGES
----------------------
   0 C :    0.074599
   1 C :   -0.139165
   2 C :   -0.018390
   3 N :   -0.050970
   4 C :   -0.026853
   5 N :   -0.049941
   6 C :   -0.022123
   7 C :   -0.050079
   8 C :    0.022758
   9 C :   -0.031685
  10 C :   -0.143736
  11 C :   -0.008825
  12 S :    0.434680
  13 C :   -0.270699
  14 C :   -0.069679
  15 Br:    0.139020
  16 C :    0.084332
  17 O :   -0.150301
  18 C :   -0.101976
  19 C :    0.047273
  20 C :   -0.181751
  21 S :    0.460686
  22 C :   -0.146626
  23 C :   -0.075813
  24 C :   -0.008724
  25 C :   -0.012550
  26 C :   -0.033027
  27 C :   -0.035950
  28 N :   -0.046099
  29 C :   -0.030363
  30 C :   -0.037047
  31 N :   -0.045891
  32 C :   -0.019389
  33 C :   -0.199665
  34 S :    0.458986
  35 C :   -0.163001
  36 C :   -0.060844
  37 C :   -0.077230
  38 C :   -0.049188
  39 C :   -0.165828
  40 S :    0.428250
  41 C :   -0.169481
  42 C :   -0.061682
  43 C :   -0.085248
  44 C :   -0.062761
  45 C :   -0.165183
  46 S :    0.407584
  47 C :   -0.175023
  48 C :   -0.059485
  49 C :   -0.076083
  50 C :   -0.066501
  51 H :    0.041097
  52 H :    0.041358
  53 H :    0.039486
  54 H :    0.045745
  55 H :    0.045197
  56 H :    0.047217
  57 H :    0.057373
  58 H :    0.061332
  59 H :    0.039102
  60 H :    0.035714
  61 H :    0.034413
  62 H :    0.042830
  63 H :    0.044054
  64 H :    0.019561
  65 H :    0.032429
  66 H :    0.041202
  67 H :    0.038402
  68 H :    0.018960
  69 H :    0.036069
  70 H :    0.036376
  71 H :    0.037367
  72 H :    0.025712
  73 H :    0.025688

  Mayer bond orders larger than 0.100000
B(  0-C ,  1-C ) :   1.6454 B(  0-C ,  6-C ) :   1.0097 B(  0-C , 18-C ) :   1.0621
B(  1-C ,  2-C ) :   1.1375 B(  1-C ,  4-C ) :   1.1395 B(  2-C ,  3-N ) :   2.9723
B(  4-C ,  5-N ) :   2.9993 B(  6-C ,  7-C ) :   1.2702 B(  6-C , 11-C ) :   1.4114
B(  7-C ,  8-C ) :   1.4242 B(  7-C , 16-C ) :   0.9400 B(  8-C ,  9-C ) :   1.2457
B(  8-C , 51-H ) :   1.0165 B(  9-C , 10-C ) :   1.3059 B(  9-C , 14-C ) :   1.1656
B( 10-C , 11-C ) :   1.3280 B( 10-C , 12-S ) :   1.0877 B( 11-C , 52-H ) :   0.9806
B( 12-S , 13-C ) :   1.0871 B( 13-C , 14-C ) :   1.6173 B( 13-C , 15-Br) :   1.0208
B( 14-C , 53-H ) :   0.9992 B( 16-C , 17-O ) :   2.1480 B( 16-C , 18-C ) :   0.9741
B( 18-C , 19-C ) :   1.5752 B( 19-C , 20-C ) :   1.1933 B( 19-C , 54-H ) :   0.9305
B( 20-C , 21-S ) :   1.0811 B( 20-C , 24-C ) :   1.4573 B( 21-S , 22-C ) :   1.1661
B( 22-C , 23-C ) :   1.4841 B( 22-C , 33-C ) :   1.1407 B( 23-C , 24-C ) :   1.3406
B( 23-C , 32-C ) :   1.0472 B( 24-C , 25-C ) :   1.0754 B( 25-C , 26-C ) :   1.0861
B( 25-C , 55-H ) :   0.9120 B( 25-C , 56-H ) :   0.8470 B( 26-C , 27-C ) :   1.0976
B( 26-C , 29-C ) :   1.0677 B( 26-C , 57-H ) :   0.8546 B( 27-C , 28-N ) :   3.1230
B( 29-C , 30-C ) :   1.0806 B( 29-C , 32-C ) :   1.0832 B( 29-C , 58-H ) :   0.8508
B( 30-C , 31-N ) :   3.1241 B( 32-C , 59-H ) :   0.8950 B( 32-C , 60-H ) :   0.9035
B( 33-C , 34-S ) :   1.1096 B( 33-C , 38-C ) :   1.5120 B( 34-S , 35-C ) :   1.1435
B( 35-C , 36-C ) :   1.1024 B( 35-C , 37-C ) :   1.5162 B( 36-C , 61-H ) :   0.9352
B( 36-C , 62-H ) :   0.9393 B( 36-C , 63-H ) :   0.9413 B( 37-C , 38-C ) :   1.2337
B( 37-C , 39-C ) :   1.0668 B( 38-C , 64-H ) :   0.9810 B( 39-C , 40-S ) :   1.1213
B( 39-C , 44-C ) :   1.5591 B( 40-S , 41-C ) :   1.1281 B( 41-C , 42-C ) :   1.0959
B( 41-C , 43-C ) :   1.5676 B( 42-C , 65-H ) :   0.9395 B( 42-C , 66-H ) :   0.9442
B( 42-C , 67-H ) :   0.9435 B( 43-C , 44-C ) :   1.1920 B( 43-C , 45-C ) :   1.0465
B( 44-C , 68-H ) :   0.9882 B( 45-C , 46-S ) :   1.1200 B( 45-C , 47-C ) :   0.1006
B( 45-C , 50-C ) :   1.5702 B( 46-S , 47-C ) :   1.1268 B( 47-C , 48-C ) :   1.0663
B( 47-C , 49-C ) :   1.6176 B( 48-C , 69-H ) :   0.9514 B( 48-C , 70-H ) :   0.9512
B( 48-C , 71-H ) :   0.9568 B( 49-C , 50-C ) :   1.2085 B( 49-C , 72-H ) :   0.9946
B( 50-C , 73-H ) :   0.9983

-----------------------------------------------------------------------------
         ABSORPTION SPECTRUM VIA TRANSITION ELECTRIC DIPOLE MOMENTS
-----------------------------------------------------------------------------
State   Energy  Wavelength   fosc         T2         TX        TY        TZ
        (cm-1)    (nm)                  (au**2)     (au)      (au)      (au)
-----------------------------------------------------------------------------
   0   20404.0    490.1   1.087007728  17.53856   2.25282  -3.47513  -0.62194
   1   24459.6    408.8   0.094140310   1.26708   0.53981  -0.97293  -0.17052
   2   26309.7    380.1   0.016160598   0.20222  -0.06724   0.41743   0.15312
   3   27717.0    360.8   0.472418754   5.61120  -2.23184   0.47431   0.63650
   4   29241.0    342.0   0.056795286   0.63943   0.61516  -0.42141  -0.28883
   5   29755.1    336.1   0.019956627   0.22080   0.05980  -0.45578  -0.09743
   6   30902.2    323.6   0.125352763   1.33543  -0.91419   0.67539   0.20867
   7   32158.3    311.0   0.027086211   0.27729   0.46012   0.25594  -0.00853
   8   32442.6    308.2   0.092059578   0.93418   0.89737   0.27701   0.22841
   9   32905.9    303.9   0.534084184   5.34333  -2.11364  -0.15669   0.92267
  10   33336.3    300.0   0.018868905   0.18634  -0.38780   0.13816   0.12984
  11   35005.2    285.7   0.079054775   0.74348   0.14899  -0.80627   0.26686
  12   35983.0    277.9   0.092084103   0.84249  -0.12368   0.86223   0.28938
  13   37183.3    268.9   0.256604384   2.27191  -0.00851   0.55580  -1.40105
  14   37367.7    267.6   0.270591890   2.38393  -0.43675   1.41489   0.43736
  15   38445.3    260.1   0.076810607   0.65774  -0.60808  -0.22823   0.48569
  16   38824.5    257.6   0.004338163   0.03679   0.09344  -0.16415   0.03330
  17   39378.3    253.9   0.125503311   1.04924  -0.00136  -0.83621   0.59160
  18   40065.8    249.6   0.113234065   0.93042  -0.04321  -0.84522   0.46277
  19   40293.7    248.2   0.004702891   0.03842   0.19326   0.01957  -0.02628

FINAL SINGLE POINT ENERGY     -6394.259049642998

DIPOLE MOMENT
-------------
                                X             Y             Z
Electronic contribution:    142.01082    -119.38729     -52.83004
Nuclear contribution   :   -141.94511     121.65849      55.54784
                        -----------------------------------------
Total Dipole Moment    :      0.06570       2.27119       2.71781
                        -----------------------------------------
Magnitude (a.u.)       :      3.54247
Magnitude (Debye)      :      9.00425

Rotational constants in cm-1:     0.002614     0.000413     0.000386
Rotational constants in MHz :    78.379637    12.379989    11.576452

                             ****ORCA TERMINATED NORMALLY****
TOTAL RUN TIME: 0 days 0 hours 5 minutes 14 seconds 582 msec
