                         Program Version 4.2.0 -  RELEASE  -
|  1> # ORCA input file
|  2> # SCF done       -143.082597107499          0.007631500063
|  3> ! CAM-B3LYP def2-SVP def2/J RIJCOSX Grid4 TightSCF
|  4> %maxcore 5000
|  5> %tddft
|  6>     Mode sTDDFT
|  7>     Ethresh 5.0
|  8>     maxcore 5000
|  9> end
| 10>
| 11> %pal
| 12>   nprocs 6
| 13>   end
| 14> * xyz 0 1
| 15>    C       -3.04679        -9.27817        -7.95950
| 16>    C       -3.12343        -9.76276        -6.71326
| 17>    C       -4.23782       -10.42440        -6.09434
| 18>    C       -4.02890       -10.78103        -4.80949
| 19>    C       -2.73402       -10.44306        -4.31704
| 20>    S       -1.78985        -9.65181        -5.55612
| 21>    C       -2.24414       -10.66694        -3.05303
| 22>    C       -2.88814       -11.26106        -1.93949
| 23>    C       -2.13655       -11.30235        -0.80869
| 24>    C       -0.84246       -10.73606        -0.95477
| 25>    S       -0.61848       -10.17927        -2.61680
| 26>    C        0.12298       -10.57198        -0.00727
| 27>    N        1.30292        -9.96529        -0.31779
| 28>    C        2.33844        -9.68378         0.48968
| 29>    S        2.39485       -10.25859         2.12842
| 30>    C        4.00670        -9.61425         2.28099
| 31>    N        4.64105        -9.78509         3.50538
| 32>    O        5.77993        -9.36209         3.62797
| 33>    O        4.00100       -10.35956         4.37701
| 34>    C        4.45667        -8.99975         1.14171
| 35>    C        3.51030        -9.00038         0.10279
| 36>    C        3.76302        -8.39290        -1.17317
| 37>    C        2.85480        -7.97244        -2.08076
| 38>    C        3.18305        -7.45898        -3.36753
| 39>    C        2.26697        -7.10260        -4.34876
| 40>    C        0.88565        -7.12111        -4.10441
| 41>    N       -0.23225        -7.10768        -3.84752
| 42>    C        2.89276        -6.68612        -5.55552
| 43>    C        4.27659        -6.70644        -5.43700
| 44>    S        4.83713        -7.26280        -3.90697
| 45>    S        5.14219        -6.17291        -6.84144
| 46>    C        3.61484        -5.93607        -7.62576
| 47>    C        2.50299        -6.25310        -6.85526
| 48>    C        1.30006        -6.08266        -7.59467
| 49>    C        0.01734        -6.46879        -7.17885
| 50>    N       -1.02667        -6.84506        -6.89195
| 51>    C        1.54036        -5.62103        -8.88118
| 52>    S        3.23536        -5.41199        -9.22321
| 53>    C        0.55476        -5.29367        -9.85836
| 54>    O       -0.73084        -5.12829        -9.47731
| 55>    C       -1.43698        -4.80100       -10.56776
| 56>    C       -0.64586        -4.75491       -11.67295
| 57>    C        0.65860        -5.06953       -11.22175
| 58>    S        2.08103        -5.30525       -12.21189
| 59>    C        1.86939        -4.03602       -13.35685
| 60>    C        2.27211        -4.00033       -14.65815
| 61>    C        2.81458        -5.00270       -15.50724
| 62>    C        3.03638        -4.71053       -16.81038
| 63>    C        2.75681        -3.40959       -17.33800
| 64>    C        2.25260        -2.41351       -16.57018
| 65>    C        1.98962        -2.65932       -15.19303
| 66>    C        1.49419        -1.85693       -14.20482
| 67>    C        1.40976        -2.62006       -12.97384
| 68>    O        1.12280        -2.26858       -11.85425
| 69>    H       -3.88080        -9.36293        -8.63529
| 70>    H       -2.16830        -8.76530        -8.30862
| 71>    H       -5.14983       -10.59161        -6.64026
| 72>    H       -4.75451       -11.27385        -4.18742
| 73>    H       -3.89410       -11.63422        -2.00759
| 74>    H       -2.46494       -11.70866         0.13102
| 75>    H       -0.01798       -10.88840         1.01420
| 76>    H        1.41708        -9.72199        -1.29705
| 77>    H        5.43017        -8.54829         1.07889
| 78>    H        4.81236        -8.24895        -1.40357
| 79>    H        1.79274        -7.97279        -1.87355
| 80>    H       -2.48510        -4.62545       -10.43439
| 81>    H       -0.93332        -4.52342       -12.67574
| 82>    H        3.02025        -5.97867       -15.09338
| 83>    H        3.42957        -5.45958       -17.48098
| 84>    H        2.95498        -3.23992       -18.38467
| 85>    H        2.04453        -1.43953       -16.97851
| 86>    H        1.16877        -0.83589       -14.29063
| 87> *
| 88>
| 89>                          ****END OF INPUT****

CARTESIAN COORDINATES (ANGSTROEM)
---------------------------------
  C     -3.046790   -9.278170   -7.959500
  C     -3.123430   -9.762760   -6.713260
  C     -4.237820  -10.424400   -6.094340
  C     -4.028900  -10.781030   -4.809490
  C     -2.734020  -10.443060   -4.317040
  S     -1.789850   -9.651810   -5.556120
  C     -2.244140  -10.666940   -3.053030
  C     -2.888140  -11.261060   -1.939490
  C     -2.136550  -11.302350   -0.808690
  C     -0.842460  -10.736060   -0.954770
  S     -0.618480  -10.179270   -2.616800
  C      0.122980  -10.571980   -0.007270
  N      1.302920   -9.965290   -0.317790
  C      2.338440   -9.683780    0.489680
  S      2.394850  -10.258590    2.128420
  C      4.006700   -9.614250    2.280990
  N      4.641050   -9.785090    3.505380
  O      5.779930   -9.362090    3.627970
  O      4.001000  -10.359560    4.377010
  C      4.456670   -8.999750    1.141710
  C      3.510300   -9.000380    0.102790
  C      3.763020   -8.392900   -1.173170
  C      2.854800   -7.972440   -2.080760
  C      3.183050   -7.458980   -3.367530
  C      2.266970   -7.102600   -4.348760
  C      0.885650   -7.121110   -4.104410
  N     -0.232250   -7.107680   -3.847520
  C      2.892760   -6.686120   -5.555520
  C      4.276590   -6.706440   -5.437000
  S      4.837130   -7.262800   -3.906970
  S      5.142190   -6.172910   -6.841440
  C      3.614840   -5.936070   -7.625760
  C      2.502990   -6.253100   -6.855260
  C      1.300060   -6.082660   -7.594670
  C      0.017340   -6.468790   -7.178850
  N     -1.026670   -6.845060   -6.891950
  C      1.540360   -5.621030   -8.881180
  S      3.235360   -5.411990   -9.223210
  C      0.554760   -5.293670   -9.858360
  O     -0.730840   -5.128290   -9.477310
  C     -1.436980   -4.801000  -10.567760
  C     -0.645860   -4.754910  -11.672950
  C      0.658600   -5.069530  -11.221750
  S      2.081030   -5.305250  -12.211890
  C      1.869390   -4.036020  -13.356850
  C      2.272110   -4.000330  -14.658150
  C      2.814580   -5.002700  -15.507240
  C      3.036380   -4.710530  -16.810380
  C      2.756810   -3.409590  -17.338000
  C      2.252600   -2.413510  -16.570180
  C      1.989620   -2.659320  -15.193030
  C      1.494190   -1.856930  -14.204820
  C      1.409760   -2.620060  -12.973840
  O      1.122800   -2.268580  -11.854250
  H     -3.880800   -9.362930   -8.635290
  H     -2.168300   -8.765300   -8.308620
  H     -5.149830  -10.591610   -6.640260
  H     -4.754510  -11.273850   -4.187420
  H     -3.894100  -11.634220   -2.007590
  H     -2.464940  -11.708660    0.131020
  H     -0.017980  -10.888400    1.014200
  H      1.417080   -9.721990   -1.297050
  H      5.430170   -8.548290    1.078890
  H      4.812360   -8.248950   -1.403570
  H      1.792740   -7.972790   -1.873550
  H     -2.485100   -4.625450  -10.434390
  H     -0.933320   -4.523420  -12.675740
  H      3.020250   -5.978670  -15.093380
  H      3.429570   -5.459580  -17.480980
  H      2.954980   -3.239920  -18.384670
  H      2.044530   -1.439530  -16.978510
  H      1.168770   -0.835890  -14.290630

 Total Charge           Charge          ....    0
 Multiplicity           Mult            ....    1
 Number of Electrons    NEL             ....  424
 Basis Dimension        Dim             ....  874

ORBITAL ENERGIES
----------------

  NO   OCC          E(Eh)            E(eV)
   0   2.0000     -88.984789     -2421.3992
   1   2.0000     -88.984420     -2421.3892
   2   2.0000     -88.981602     -2421.3125
   3   2.0000     -88.974712     -2421.1250
   4   2.0000     -88.965250     -2420.8675
   5   2.0000     -88.936556     -2420.0867
   6   2.0000     -88.921660     -2419.6814
   7   2.0000     -19.300105      -525.1826
   8   2.0000     -19.230990      -523.3018
   9   2.0000     -19.221084      -523.0323
  10   2.0000     -19.220425      -523.0143
  11   2.0000     -14.632863      -398.1804
  12   2.0000     -14.479547      -394.0085
  13   2.0000     -14.398563      -391.8048
  14   2.0000     -14.396935      -391.7605
  15   2.0000     -10.370328      -282.1910
  16   2.0000     -10.365514      -282.0600
  17   2.0000     -10.347303      -281.5644
  18   2.0000     -10.336600      -281.2732
  19   2.0000     -10.334214      -281.2083
  20   2.0000     -10.334186      -281.2075
  21   2.0000     -10.332858      -281.1713
  22   2.0000     -10.330794      -281.1152
  23   2.0000     -10.327750      -281.0324
  24   2.0000     -10.319338      -280.8035
  25   2.0000     -10.319056      -280.7958
  26   2.0000     -10.316698      -280.7316
  27   2.0000     -10.313285      -280.6388
  28   2.0000     -10.311531      -280.5910
  29   2.0000     -10.306470      -280.4533
  30   2.0000     -10.305618      -280.4301
  31   2.0000     -10.305301      -280.4215
  32   2.0000     -10.302734      -280.3517
  33   2.0000     -10.302242      -280.3382
  34   2.0000     -10.301624      -280.3214
  35   2.0000     -10.298535      -280.2374
  36   2.0000     -10.297980      -280.2223
  37   2.0000     -10.297932      -280.2210
  38   2.0000     -10.297906      -280.2203
  39   2.0000     -10.297551      -280.2106
  40   2.0000     -10.297381      -280.2060
  41   2.0000     -10.294120      -280.1172
  42   2.0000     -10.293779      -280.1080
  43   2.0000     -10.292010      -280.0598
  44   2.0000     -10.291114      -280.0355
  45   2.0000     -10.289806      -279.9999
  46   2.0000     -10.289260      -279.9850
  47   2.0000     -10.280576      -279.7487
  48   2.0000     -10.280460      -279.7455
  49   2.0000     -10.278283      -279.6863
  50   2.0000     -10.276732      -279.6441
  51   2.0000     -10.273682      -279.5611
  52   2.0000     -10.267342      -279.3886
  53   2.0000     -10.255221      -279.0588
  54   2.0000      -8.079512      -219.8547
  55   2.0000      -8.079424      -219.8523
  56   2.0000      -8.076746      -219.7794
  57   2.0000      -8.070147      -219.5999
  58   2.0000      -8.059635      -219.3138
  59   2.0000      -8.032791      -218.5833
  60   2.0000      -8.017949      -218.1795
  61   2.0000      -6.049519      -164.6158
  62   2.0000      -6.049157      -164.6059
  63   2.0000      -6.046321      -164.5288
  64   2.0000      -6.045245      -164.4995
  65   2.0000      -6.044748      -164.4860
  66   2.0000      -6.042174      -164.4159
  67   2.0000      -6.040934      -164.3822
  68   2.0000      -6.040309      -164.3652
  69   2.0000      -6.039943      -164.3552
  70   2.0000      -6.038321      -164.3111
  71   2.0000      -6.035475      -164.2336
  72   2.0000      -6.031392      -164.1225
  73   2.0000      -6.029732      -164.0774
  74   2.0000      -6.025558      -163.9638
  75   2.0000      -6.020325      -163.8214
  76   2.0000      -6.002691      -163.3415
  77   2.0000      -5.998684      -163.2325
  78   2.0000      -5.993381      -163.0882
  79   2.0000      -5.987818      -162.9368
  80   2.0000      -5.983746      -162.8260
  81   2.0000      -5.978496      -162.6831
  82   2.0000      -1.299813       -35.3697
  83   2.0000      -1.221804       -33.2470
  84   2.0000      -1.140097       -31.0236
  85   2.0000      -1.118878       -30.4462
  86   2.0000      -1.087959       -29.6049
  87   2.0000      -1.038254       -28.2523
  88   2.0000      -1.006220       -27.3806
  89   2.0000      -0.995983       -27.1021
  90   2.0000      -0.994433       -27.0599
  91   2.0000      -0.985056       -26.8047
  92   2.0000      -0.979744       -26.6602
  93   2.0000      -0.975732       -26.5510
  94   2.0000      -0.956358       -26.0238
  95   2.0000      -0.953563       -25.9478
  96   2.0000      -0.943757       -25.6809
  97   2.0000      -0.919232       -25.0136
  98   2.0000      -0.915092       -24.9009
  99   2.0000      -0.892686       -24.2912
 100   2.0000      -0.887599       -24.1528
 101   2.0000      -0.882035       -24.0014
 102   2.0000      -0.876586       -23.8531
 103   2.0000      -0.866102       -23.5678
 104   2.0000      -0.861793       -23.4506
 105   2.0000      -0.851644       -23.1744
 106   2.0000      -0.849827       -23.1250
 107   2.0000      -0.839202       -22.8358
 108   2.0000      -0.833881       -22.6910
 109   2.0000      -0.814433       -22.1618
 110   2.0000      -0.809744       -22.0343
 111   2.0000      -0.794805       -21.6277
 112   2.0000      -0.792981       -21.5781
 113   2.0000      -0.783560       -21.3217
 114   2.0000      -0.773055       -21.0359
 115   2.0000      -0.754709       -20.5367
 116   2.0000      -0.735304       -20.0087
 117   2.0000      -0.718015       -19.5382
 118   2.0000      -0.711589       -19.3633
 119   2.0000      -0.706632       -19.2284
 120   2.0000      -0.698045       -18.9948
 121   2.0000      -0.692241       -18.8368
 122   2.0000      -0.687777       -18.7154
 123   2.0000      -0.678300       -18.4575
 124   2.0000      -0.669692       -18.2233
 125   2.0000      -0.667032       -18.1509
 126   2.0000      -0.650833       -17.7101
 127   2.0000      -0.649572       -17.6758
 128   2.0000      -0.644626       -17.5412
 129   2.0000      -0.636677       -17.3249
 130   2.0000      -0.626506       -17.0481
 131   2.0000      -0.622958       -16.9516
 132   2.0000      -0.614921       -16.7328
 133   2.0000      -0.613960       -16.7067
 134   2.0000      -0.611435       -16.6380
 135   2.0000      -0.607130       -16.5209
 136   2.0000      -0.603543       -16.4232
 137   2.0000      -0.589704       -16.0467
 138   2.0000      -0.587146       -15.9770
 139   2.0000      -0.579992       -15.7824
 140   2.0000      -0.576665       -15.6919
 141   2.0000      -0.574687       -15.6380
 142   2.0000      -0.567324       -15.4377
 143   2.0000      -0.564468       -15.3599
 144   2.0000      -0.556204       -15.1351
 145   2.0000      -0.554352       -15.0847
 146   2.0000      -0.544806       -14.8249
 147   2.0000      -0.536531       -14.5998
 148   2.0000      -0.535135       -14.5618
 149   2.0000      -0.533273       -14.5111
 150   2.0000      -0.532021       -14.4770
 151   2.0000      -0.524712       -14.2781
 152   2.0000      -0.522572       -14.2199
 153   2.0000      -0.518863       -14.1190
 154   2.0000      -0.518142       -14.0994
 155   2.0000      -0.510788       -13.8992
 156   2.0000      -0.507818       -13.8184
 157   2.0000      -0.504084       -13.7168
 158   2.0000      -0.503115       -13.6905
 159   2.0000      -0.501991       -13.6599
 160   2.0000      -0.498350       -13.5608
 161   2.0000      -0.497700       -13.5431
 162   2.0000      -0.493453       -13.4275
 163   2.0000      -0.487298       -13.2601
 164   2.0000      -0.484106       -13.1732
 165   2.0000      -0.480786       -13.0829
 166   2.0000      -0.476167       -12.9572
 167   2.0000      -0.472139       -12.8476
 168   2.0000      -0.471182       -12.8215
 169   2.0000      -0.466989       -12.7074
 170   2.0000      -0.465244       -12.6599
 171   2.0000      -0.463472       -12.6117
 172   2.0000      -0.460795       -12.5389
 173   2.0000      -0.455448       -12.3934
 174   2.0000      -0.454246       -12.3607
 175   2.0000      -0.450887       -12.2692
 176   2.0000      -0.445308       -12.1174
 177   2.0000      -0.439569       -11.9613
 178   2.0000      -0.438009       -11.9188
 179   2.0000      -0.435929       -11.8622
 180   2.0000      -0.429678       -11.6921
 181   2.0000      -0.428406       -11.6575
 182   2.0000      -0.425312       -11.5733
 183   2.0000      -0.423824       -11.5328
 184   2.0000      -0.420447       -11.4409
 185   2.0000      -0.417422       -11.3586
 186   2.0000      -0.415369       -11.3028
 187   2.0000      -0.406349       -11.0573
 188   2.0000      -0.405064       -11.0223
 189   2.0000      -0.389603       -10.6016
 190   2.0000      -0.383794       -10.4436
 191   2.0000      -0.382279       -10.4023
 192   2.0000      -0.376295       -10.2395
 193   2.0000      -0.373753       -10.1703
 194   2.0000      -0.371220       -10.1014
 195   2.0000      -0.370251       -10.0750
 196   2.0000      -0.369488       -10.0543
 197   2.0000      -0.362613        -9.8672
 198   2.0000      -0.350629        -9.5411
 199   2.0000      -0.350064        -9.5257
 200   2.0000      -0.346472        -9.4280
 201   2.0000      -0.332903        -9.0588
 202   2.0000      -0.329507        -8.9663
 203   2.0000      -0.324209        -8.8222
 204   2.0000      -0.321166        -8.7394
 205   2.0000      -0.312889        -8.5141
 206   2.0000      -0.307679        -8.3724
 207   2.0000      -0.286521        -7.7966
 208   2.0000      -0.272727        -7.4213
 209   2.0000      -0.258878        -7.0444
 210   2.0000      -0.250454        -6.8152
 211   2.0000      -0.205005        -5.5785
 212   0.0000      -0.104876        -2.8538
 213   0.0000      -0.060431        -1.6444
 214   0.0000      -0.047898        -1.3034
 215   0.0000      -0.037745        -1.0271
 216   0.0000      -0.025276        -0.6878

MULLIKEN ATOMIC CHARGES
-----------------------
   0 C :   -0.015288
   1 C :   -0.064404
   2 C :    0.055916
   3 C :    0.022029
   4 C :   -0.055076
   5 S :    0.120734
   6 C :   -0.052745
   7 C :    0.035009
   8 C :    0.033640
   9 C :   -0.032748
  10 S :    0.039004
  11 C :    0.012977
  12 N :   -0.023284
  13 C :   -0.109410
  14 S :    0.151406
  15 C :   -0.017117
  16 N :    0.279943
  17 O :   -0.265724
  18 O :   -0.278985
  19 C :    0.015952
  20 C :    0.105342
  21 C :   -0.022807
  22 C :   -0.052914
  23 C :   -0.077119
  24 C :   -0.030177
  25 C :   -0.309183
  26 N :    0.198805
  27 C :    0.158579
  28 C :   -0.235557
  29 S :    0.149038
  30 S :    0.185346
  31 C :   -0.225719
  32 C :    0.129282
  33 C :   -0.011046
  34 C :   -0.315831
  35 N :    0.223299
  36 C :   -0.141706
  37 S :    0.189859
  38 C :    0.109270
  39 O :   -0.179717
  40 C :    0.161797
  41 C :   -0.013661
  42 C :   -0.070229
  43 S :    0.136592
  44 C :   -0.183932
  45 C :    0.028306
  46 C :    0.021250
  47 C :    0.014740
  48 C :    0.041013
  49 C :    0.009849
  50 C :    0.103088
  51 C :   -0.119253
  52 C :    0.167474
  53 O :   -0.115903
  54 H :    0.010717
  55 H :    0.024041
  56 H :   -0.015718
  57 H :   -0.016645
  58 H :   -0.015862
  59 H :   -0.016076
  60 H :    0.017412
  61 H :    0.145617
  62 H :    0.005242
  63 H :    0.000657
  64 H :    0.013979
  65 H :    0.021756
  66 H :   -0.002837
  67 H :   -0.014625
  68 H :   -0.002174
  69 H :    0.001000
  70 H :   -0.018379
  71 H :   -0.018109
Sum of atomic charges:    0.0000000

LOEWDIN ATOMIC CHARGES
----------------------
   0 C :   -0.064102
   1 C :   -0.139220
   2 C :   -0.025496
   3 C :   -0.032618
   4 C :   -0.170569
   5 S :    0.390494
   6 C :   -0.185991
   7 C :   -0.028876
   8 C :   -0.043430
   9 C :   -0.167056
  10 S :    0.354771
  11 C :   -0.036312
  12 N :    0.057269
  13 C :   -0.087053
  14 S :    0.446892
  15 C :   -0.221774
  16 N :    0.273934
  17 O :   -0.231133
  18 O :   -0.245874
  19 C :    0.006941
  20 C :   -0.119590
  21 C :   -0.004201
  22 C :   -0.073972
  23 C :   -0.124581
  24 C :   -0.102535
  25 C :   -0.045692
  26 N :   -0.038105
  27 C :   -0.062621
  28 C :   -0.333698
  29 S :    0.440430
  30 S :    0.422384
  31 C :   -0.337433
  32 C :   -0.060803
  33 C :   -0.099045
  34 C :   -0.036164
  35 N :   -0.041074
  36 C :   -0.145352
  37 S :    0.461112
  38 C :   -0.013264
  39 O :    0.040026
  40 C :    0.062188
  41 C :   -0.074276
  42 C :   -0.197826
  43 S :    0.400422
  44 C :   -0.205153
  45 C :   -0.045271
  46 C :   -0.004450
  47 C :   -0.024089
  48 C :    0.006623
  49 C :   -0.021914
  50 C :    0.029032
  51 C :   -0.101922
  52 C :    0.077285
  53 O :   -0.091293
  54 H :    0.024726
  55 H :    0.025244
  56 H :    0.031702
  57 H :    0.029716
  58 H :    0.031734
  59 H :    0.031818
  60 H :    0.027892
  61 H :    0.079404
  62 H :    0.044981
  63 H :    0.028009
  64 H :    0.033939
  65 H :    0.029964
  66 H :    0.033515
  67 H :    0.032037
  68 H :    0.032849
  69 H :    0.034235
  70 H :    0.033309
  71 H :    0.028949

  Mayer bond orders larger than 0.100000
B(  0-C ,  1-C ) :   1.8742 B(  0-C , 54-H ) :   0.9495 B(  0-C , 55-H ) :   0.9299
B(  1-C ,  2-C ) :   1.0771 B(  1-C ,  5-S ) :   1.0180 B(  2-C ,  3-C ) :   1.6686
B(  2-C , 56-H ) :   0.9918 B(  3-C ,  4-C ) :   1.1432 B(  3-C , 57-H ) :   0.9916
B(  4-C ,  5-S ) :   1.0667 B(  4-C ,  6-C ) :   1.5603 B(  6-C ,  7-C ) :   1.1722
B(  6-C , 10-S ) :   1.0337 B(  7-C ,  8-C ) :   1.6280 B(  7-C , 58-H ) :   0.9895
B(  8-C ,  9-C ) :   1.1433 B(  8-C , 59-H ) :   0.9941 B(  9-C , 10-S ) :   1.0282
B(  9-C , 11-C ) :   1.6162 B( 11-C , 12-N ) :   1.1008 B( 11-C , 60-H ) :   0.9638
B( 12-N , 13-C ) :   1.2935 B( 12-N , 61-H ) :   0.8924 B( 13-C , 14-S ) :   1.1352
B( 13-C , 20-C ) :   1.3031 B( 14-S , 15-C ) :   1.0505 B( 15-C , 16-N ) :   0.9966
B( 15-C , 19-C ) :   1.4711 B( 16-N , 17-O ) :   1.5195 B( 16-N , 18-O ) :   1.4944
B( 17-O , 18-O ) :   0.2471 B( 19-C , 20-C ) :   1.2380 B( 19-C , 62-H ) :   1.0070
B( 20-C , 21-C ) :   1.1080 B( 21-C , 22-C ) :   1.6428 B( 21-C , 63-H ) :   0.9656
B( 22-C , 23-C ) :   1.1973 B( 22-C , 64-H ) :   0.9438 B( 23-C , 24-C ) :   1.4938
B( 23-C , 29-S ) :   1.1116 B( 24-C , 25-C ) :   1.1798 B( 24-C , 27-C ) :   1.2416
B( 25-C , 26-N ) :   2.9387 B( 27-C , 28-C ) :   1.4184 B( 27-C , 32-C ) :   1.0693
B( 28-C , 29-S ) :   1.0852 B( 28-C , 30-S ) :   1.0850 B( 30-S , 31-C ) :   1.0833
B( 31-C , 32-C ) :   1.4275 B( 31-C , 37-S ) :   1.0677 B( 32-C , 33-C ) :   1.2407
B( 33-C , 34-C ) :   1.1835 B( 33-C , 36-C ) :   1.4931 B( 34-C , 35-N ) :   2.9590
B( 36-C , 37-S ) :   1.1584 B( 36-C , 38-C ) :   1.1262 B( 38-C , 39-O ) :   1.1868
B( 38-C , 42-C ) :   1.5068 B( 39-O , 40-C ) :   1.1425 B( 40-C , 41-C ) :   1.5529
B( 40-C , 65-H ) :   1.0058 B( 41-C , 42-C ) :   1.2444 B( 41-C , 66-H ) :   1.0001
B( 42-C , 43-S ) :   0.9775 B( 43-S , 44-C ) :   1.0663 B( 44-C , 45-C ) :   1.6390
B( 44-C , 52-C ) :   0.8865 B( 45-C , 46-C ) :   1.1156 B( 45-C , 50-C ) :   1.0480
B( 46-C , 47-C ) :   1.6597 B( 46-C , 67-H ) :   0.9931 B( 47-C , 48-C ) :   1.0990
B( 47-C , 68-H ) :   0.9837 B( 48-C , 49-C ) :   1.6589 B( 48-C , 69-H ) :   0.9845
B( 49-C , 50-C ) :   1.1005 B( 49-C , 70-H ) :   1.0003 B( 50-C , 51-C ) :   1.5659
B( 51-C , 52-C ) :   1.0269 B( 51-C , 71-H ) :   1.0255 B( 52-C , 53-O ) :   2.1803

-----------------------------------------------------------------------------
         ABSORPTION SPECTRUM VIA TRANSITION ELECTRIC DIPOLE MOMENTS
-----------------------------------------------------------------------------
State   Energy  Wavelength   fosc         T2         TX        TY        TZ
        (cm-1)    (nm)                  (au**2)     (au)      (au)      (au)
-----------------------------------------------------------------------------
   0   11157.4    896.3   0.089995470   2.65541   0.09339  -1.12795   1.17236
   1   13371.1    747.9   0.000089713   0.00221  -0.03273  -0.01100   0.03188
   2   15505.7    644.9   0.361408185   7.67329  -2.16853  -0.69195  -1.57860
   3   18314.5    546.0   0.060223455   1.08254   0.03323  -0.00515  -1.03991
   4   19709.2    507.4   0.828369635  13.83663  -1.81007   0.34514  -3.23128
   5   22147.7    451.5   0.013871924   0.20620  -0.09304   0.28262  -0.34303
   6   23218.7    430.7   0.000534409   0.00758   0.07635   0.03691  -0.01963
   7   24075.6    415.4   0.000362234   0.00495  -0.05464  -0.02342  -0.03768
   8   24738.5    404.2   0.020507988   0.27291  -0.27731  -0.04827  -0.44009
   9   27957.3    357.7   1.549034324  18.24071   0.00441  -1.57372   3.97040
  10   28567.5    350.0   0.123723111   1.42578   0.81822   0.14446   0.85758
  11   29195.2    342.5   0.180801242   2.03876  -0.54680   0.44193  -1.24276
  12   29553.4    338.4   0.013586822   0.15135  -0.31604  -0.02570   0.22541
  13   29962.8    333.7   0.017995307   0.19772   0.32167   0.08301  -0.29556
  14   30390.0    329.1   0.016940930   0.18352   0.39003  -0.02947   0.17473
  15   30928.3    323.3   0.005410863   0.05760   0.15828  -0.01166   0.18002
  16   32520.1    307.5   0.174639569   1.76793  -0.79138   0.14636  -1.05841
  17   32891.9    304.0   0.021467219   0.21486  -0.33079   0.08027  -0.31464
  18   33106.3    302.1   0.083925251   0.83456   0.56609  -0.06565   0.71400
  19   33304.3    300.3   0.072170271   0.71340  -0.35661   0.20285  -0.73830
  20   33563.7    297.9   0.026333751   0.25830  -0.13955   0.04246  -0.48685
  21   33868.8    295.3   0.311679393   3.02959   1.27436  -0.32615   1.13983
  22   34052.9    293.7   0.003031587   0.02931  -0.05928   0.15715   0.03315
  23   34559.6    289.4   0.000273690   0.00261   0.00439  -0.04892   0.01395
  24   35020.1    285.6   0.078881860   0.74154  -0.03631   0.21196  -0.83384
  25   35844.1    279.0   0.009998378   0.09183   0.21002   0.11446  -0.18607
  26   36064.9    277.3   0.031423464   0.28684  -0.19241   0.00073  -0.49982
  27   36188.9    276.3   0.001610784   0.01465  -0.08328  -0.07972   0.03690
  28   36497.2    274.0   0.004800968   0.04331   0.10954   0.00048  -0.17693
  29   36515.6    273.9   0.031782777   0.28654   0.49196   0.20764   0.03745
  30   37259.3    268.4   0.012007759   0.10610   0.06229   0.12170  -0.29565
  31   38306.9    261.0   0.020400542   0.17532   0.21600  -0.26374  -0.24313
  32   38446.5    260.1   0.030388485   0.26021   0.40416   0.30783  -0.04584
  33   38522.6    259.6   0.006614041   0.05652  -0.18808  -0.00702  -0.14526
  34   38876.0    257.2   0.009477211   0.08026  -0.21609  -0.18320   0.00024
  35   38880.1    257.2   0.006211135   0.05259   0.20819  -0.04920  -0.08264
  36   39308.3    254.4   0.154499296   1.29395  -0.63559   0.14015  -0.93292
  37   39609.5    252.5   0.010302761   0.08563  -0.02181  -0.13839   0.25691
  38   39858.7    250.9   0.013595131   0.11229  -0.06984   0.12492  -0.30299
  39   40224.7    248.6   0.039476220   0.32309   0.02409  -0.25146   0.50919

FINAL SINGLE POINT ENERGY     -4800.585331754633

DIPOLE MOMENT
-------------
                                X             Y             Z
Electronic contribution:     23.22165       3.04030      22.03190
Nuclear contribution   :    -23.49629      -2.76929     -27.07426
                        -----------------------------------------
Total Dipole Moment    :     -0.27464       0.27100      -5.04236
                        -----------------------------------------
Magnitude (a.u.)       :      5.05710
Magnitude (Debye)      :     12.85414

Rotational constants in cm-1:     0.002509     0.000546     0.000462
Rotational constants in MHz :    75.226864    16.357568    13.854950

                             ****ORCA TERMINATED NORMALLY****
TOTAL RUN TIME: 0 days 0 hours 7 minutes 1 seconds 792 msec
