                         Program Version 4.2.0 -  RELEASE  -
|  1> # ORCA input file
|  2> # SCF done       -152.437813486089          0.000244410759
|  3> ! CAM-B3LYP def2-SVP def2/J RIJCOSX Grid4 TightSCF
|  4> %maxcore 5000
|  5> %tddft
|  6>     Mode sTDDFT
|  7>     Ethresh 5.0
|  8>     maxcore 5000
|  9> end
| 10>
| 11> %pal
| 12>   nprocs 6
| 13>   end
| 14> * xyz 0 1
| 15>    C        0.53818         0.38844         5.52016
| 16>    C        1.32582        -0.58611         5.99510
| 17>    C        2.03407        -0.61299         7.24269
| 18>    C        2.74718        -1.74054         7.45652
| 19>    C        2.66643        -2.69667         6.40605
| 20>    S        1.63966        -2.09176         5.11729
| 21>    C        3.26633        -3.93025         6.35302
| 22>    C        4.09342        -4.53920         7.33028
| 23>    C        4.51408        -5.78438         6.99569
| 24>    C        4.05497        -6.25755         5.73272
| 25>    S        3.06807        -5.00776         4.98245
| 26>    C        4.32664        -7.50746         5.25187
| 27>    C        3.92912        -8.14521         4.04397
| 28>    C        4.20868        -9.53918         3.89777
| 29>    O        4.86003       -10.10605         4.95242
| 30>    C        4.82762       -11.50073         5.16448
| 31>    C        3.81780       -10.20116         2.74462
| 32>    O        4.12942       -11.54599         2.55198
| 33>    C        5.25093       -11.74158         1.71584
| 34>    C        3.11054        -9.52811         1.71328
| 35>    C        2.88460        -8.15167         1.85822
| 36>    C        3.28455        -7.48750         2.98619
| 37>    C        2.62007       -10.30274         0.62370
| 38>    C        2.15002        -9.91533        -0.60035
| 39>    C        1.60854       -10.81314        -1.56100
| 40>    C        1.24293       -10.23746        -2.73625
| 41>    C        1.49113        -8.84725        -2.79659
| 42>    S        2.17474        -8.29227        -1.28020
| 43>    C        1.27124        -8.00427        -3.86568
| 44>    C        0.67221        -8.32594        -5.10486
| 45>    C        0.61773        -7.28532        -5.97705
| 46>    C        1.18520        -6.07179        -5.50042
| 47>    S        1.75639        -6.32069        -3.85442
| 48>    C        1.27052        -4.93456        -6.25753
| 49>    C        1.86790        -3.67470        -5.98806
| 50>    C        1.83248        -2.68211        -7.01469
| 51>    O        1.15744        -3.04203        -8.13911
| 52>    C        1.37119        -2.37302        -9.36490
| 53>    C        2.44115        -1.44923        -6.81224
| 54>    O        2.29068        -0.44078        -7.75506
| 55>    C        1.41592         0.59112        -7.35357
| 56>    C        3.17834        -1.18638        -5.63488
| 57>    C        3.13227        -2.14563        -4.60711
| 58>    C        2.49608        -3.34317        -4.77665
| 59>    C        3.97533        -0.02104        -5.42523
| 60>    C        4.58900         0.81020        -6.32162
| 61>    C        5.46619         1.86744        -5.93529
| 62>    C        6.08541         2.49742        -6.96288
| 63>    C        5.73908         1.97958        -8.23761
| 64>    S        4.55957         0.68988        -8.07211
| 65>    C        6.20120         2.39090        -9.46295
| 66>    C        7.15194         3.41401        -9.73550
| 67>    C        7.42198         3.59281       -11.04720
| 68>    C        6.70034         2.71783       -11.92645
| 69>    S        5.65913         1.65726       -10.96267
| 70>    C        6.76352         2.66614       -13.26400
| 71>    H        0.37279         1.28640         6.08890
| 72>    H        0.04907         0.30606         4.56715
| 73>    H        1.97414         0.21668         7.92481
| 74>    H        3.33462        -1.92766         8.33812
| 75>    H        4.34445        -4.04176         8.25002
| 76>    H        5.14213        -6.39862         7.61719
| 77>    H        4.91550        -8.12733         5.91487
| 78>    H        3.83397       -11.91233         4.98049
| 79>    H        5.09299       -11.63640         6.21413
| 80>    H        5.55570       -12.02653         4.54242
| 81>    H        6.15927       -11.32260         2.16528
| 82>    H        5.10451       -11.28375         0.73198
| 83>    H        5.36345       -12.81908         1.60456
| 84>    H        2.35835        -7.61701         1.08479
| 85>    H        3.09365        -6.43020         3.06542
| 86>    H        2.60477       -11.37242         0.79977
| 87>    H        1.50582       -11.86146        -1.34103
| 88>    H        0.82025       -10.77460        -3.56634
| 89>    H        0.29506        -9.31084        -5.31440
| 90>    H        0.19604        -7.34551        -6.96511
| 91>    H        0.83678        -5.02151        -7.24504
| 92>    H        1.03507        -3.07093       -10.13346
| 93>    H        2.42509        -2.13573        -9.51708
| 94>    H        0.78371        -1.45483        -9.43390
| 95>    H        1.72690         1.04396        -6.40701
| 96>    H        0.39148         0.21597        -7.24695
| 97>    H        1.45325         1.33980        -8.14314
| 98>    H        3.64345        -1.93521        -3.67953
| 99>    H        2.49481        -4.05724        -3.97021
|100>    H        4.22256         0.17241        -4.38689
|101>    H        5.61053         2.11190        -4.89693
|102>    H        6.77747         3.31230        -6.84520
|103>    H        7.60377         3.98163        -8.94110
|104>    H        8.11245         4.31756       -11.44119
|105>    H        7.41100         3.33024       -13.80893
|106>    H        6.17679         1.96755       -13.83150
|107> *
|108>
|109>                          ****END OF INPUT****

CARTESIAN COORDINATES (ANGSTROEM)
---------------------------------
  C      0.538180    0.388440    5.520160
  C      1.325820   -0.586110    5.995100
  C      2.034070   -0.612990    7.242690
  C      2.747180   -1.740540    7.456520
  C      2.666430   -2.696670    6.406050
  S      1.639660   -2.091760    5.117290
  C      3.266330   -3.930250    6.353020
  C      4.093420   -4.539200    7.330280
  C      4.514080   -5.784380    6.995690
  C      4.054970   -6.257550    5.732720
  S      3.068070   -5.007760    4.982450
  C      4.326640   -7.507460    5.251870
  C      3.929120   -8.145210    4.043970
  C      4.208680   -9.539180    3.897770
  O      4.860030  -10.106050    4.952420
  C      4.827620  -11.500730    5.164480
  C      3.817800  -10.201160    2.744620
  O      4.129420  -11.545990    2.551980
  C      5.250930  -11.741580    1.715840
  C      3.110540   -9.528110    1.713280
  C      2.884600   -8.151670    1.858220
  C      3.284550   -7.487500    2.986190
  C      2.620070  -10.302740    0.623700
  C      2.150020   -9.915330   -0.600350
  C      1.608540  -10.813140   -1.561000
  C      1.242930  -10.237460   -2.736250
  C      1.491130   -8.847250   -2.796590
  S      2.174740   -8.292270   -1.280200
  C      1.271240   -8.004270   -3.865680
  C      0.672210   -8.325940   -5.104860
  C      0.617730   -7.285320   -5.977050
  C      1.185200   -6.071790   -5.500420
  S      1.756390   -6.320690   -3.854420
  C      1.270520   -4.934560   -6.257530
  C      1.867900   -3.674700   -5.988060
  C      1.832480   -2.682110   -7.014690
  O      1.157440   -3.042030   -8.139110
  C      1.371190   -2.373020   -9.364900
  C      2.441150   -1.449230   -6.812240
  O      2.290680   -0.440780   -7.755060
  C      1.415920    0.591120   -7.353570
  C      3.178340   -1.186380   -5.634880
  C      3.132270   -2.145630   -4.607110
  C      2.496080   -3.343170   -4.776650
  C      3.975330   -0.021040   -5.425230
  C      4.589000    0.810200   -6.321620
  C      5.466190    1.867440   -5.935290
  C      6.085410    2.497420   -6.962880
  C      5.739080    1.979580   -8.237610
  S      4.559570    0.689880   -8.072110
  C      6.201200    2.390900   -9.462950
  C      7.151940    3.414010   -9.735500
  C      7.421980    3.592810  -11.047200
  C      6.700340    2.717830  -11.926450
  S      5.659130    1.657260  -10.962670
  C      6.763520    2.666140  -13.264000
  H      0.372790    1.286400    6.088900
  H      0.049070    0.306060    4.567150
  H      1.974140    0.216680    7.924810
  H      3.334620   -1.927660    8.338120
  H      4.344450   -4.041760    8.250020
  H      5.142130   -6.398620    7.617190
  H      4.915500   -8.127330    5.914870
  H      3.833970  -11.912330    4.980490
  H      5.092990  -11.636400    6.214130
  H      5.555700  -12.026530    4.542420
  H      6.159270  -11.322600    2.165280
  H      5.104510  -11.283750    0.731980
  H      5.363450  -12.819080    1.604560
  H      2.358350   -7.617010    1.084790
  H      3.093650   -6.430200    3.065420
  H      2.604770  -11.372420    0.799770
  H      1.505820  -11.861460   -1.341030
  H      0.820250  -10.774600   -3.566340
  H      0.295060   -9.310840   -5.314400
  H      0.196040   -7.345510   -6.965110
  H      0.836780   -5.021510   -7.245040
  H      1.035070   -3.070930  -10.133460
  H      2.425090   -2.135730   -9.517080
  H      0.783710   -1.454830   -9.433900
  H      1.726900    1.043960   -6.407010
  H      0.391480    0.215970   -7.246950
  H      1.453250    1.339800   -8.143140
  H      3.643450   -1.935210   -3.679530
  H      2.494810   -4.057240   -3.970210
  H      4.222560    0.172410   -4.386890
  H      5.610530    2.111900   -4.896930
  H      6.777470    3.312300   -6.845200
  H      7.603770    3.981630   -8.941100
  H      8.112450    4.317560  -11.441190
  H      7.411000    3.330240  -13.808930
  H      6.176790    1.967550  -13.831500

 Total Charge           Charge          ....    0
 Multiplicity           Mult            ....    1
 Number of Electrons    NEL             ....  440
 Basis Dimension        Dim             ....  988

ORBITAL ENERGIES
----------------

  NO   OCC          E(Eh)            E(eV)
   0   2.0000     -88.933859     -2420.0133
   1   2.0000     -88.933484     -2420.0031
   2   2.0000     -88.930842     -2419.9312
   3   2.0000     -88.930421     -2419.9198
   4   2.0000     -88.929144     -2419.8850
   5   2.0000     -88.925648     -2419.7899
   6   2.0000     -19.236468      -523.4509
   7   2.0000     -19.234802      -523.4056
   8   2.0000     -19.231038      -523.3031
   9   2.0000     -19.226957      -523.1921
  10   2.0000     -10.326646      -281.0023
  11   2.0000     -10.323706      -280.9223
  12   2.0000     -10.316508      -280.7265
  13   2.0000     -10.312626      -280.6208
  14   2.0000     -10.310624      -280.5663
  15   2.0000     -10.308723      -280.5146
  16   2.0000     -10.307801      -280.4895
  17   2.0000     -10.306699      -280.4595
  18   2.0000     -10.299634      -280.2673
  19   2.0000     -10.298615      -280.2396
  20   2.0000     -10.298501      -280.2365
  21   2.0000     -10.297216      -280.2015
  22   2.0000     -10.296824      -280.1908
  23   2.0000     -10.296142      -280.1723
  24   2.0000     -10.295798      -280.1629
  25   2.0000     -10.295713      -280.1606
  26   2.0000     -10.295095      -280.1438
  27   2.0000     -10.293158      -280.0911
  28   2.0000     -10.293143      -280.0907
  29   2.0000     -10.291274      -280.0398
  30   2.0000     -10.281591      -279.7763
  31   2.0000     -10.278486      -279.6918
  32   2.0000     -10.276410      -279.6353
  33   2.0000     -10.276082      -279.6264
  34   2.0000     -10.275422      -279.6085
  35   2.0000     -10.274223      -279.5758
  36   2.0000     -10.273998      -279.5697
  37   2.0000     -10.273296      -279.5506
  38   2.0000     -10.272744      -279.5356
  39   2.0000     -10.272455      -279.5277
  40   2.0000     -10.272435      -279.5272
  41   2.0000     -10.272229      -279.5216
  42   2.0000     -10.271140      -279.4919
  43   2.0000     -10.270648      -279.4785
  44   2.0000     -10.269900      -279.4582
  45   2.0000     -10.269120      -279.4370
  46   2.0000     -10.267105      -279.3821
  47   2.0000     -10.264262      -279.3048
  48   2.0000     -10.263463      -279.2830
  49   2.0000     -10.261710      -279.2353
  50   2.0000     -10.261016      -279.2164
  51   2.0000     -10.259367      -279.1716
  52   2.0000     -10.258198      -279.1398
  53   2.0000     -10.257612      -279.1238
  54   2.0000     -10.257163      -279.1116
  55   2.0000     -10.254179      -279.0304
  56   2.0000      -8.029595      -218.4964
  57   2.0000      -8.029331      -218.4892
  58   2.0000      -8.026530      -218.4130
  59   2.0000      -8.025743      -218.3916
  60   2.0000      -8.025289      -218.3792
  61   2.0000      -8.022368      -218.2997
  62   2.0000      -5.999388      -163.2516
  63   2.0000      -5.999131      -163.2447
  64   2.0000      -5.996334      -163.1685
  65   2.0000      -5.995610      -163.1488
  66   2.0000      -5.995315      -163.1408
  67   2.0000      -5.995148      -163.1363
  68   2.0000      -5.995048      -163.1336
  69   2.0000      -5.992303      -163.0589
  70   2.0000      -5.992235      -163.0570
  71   2.0000      -5.991632      -163.0406
  72   2.0000      -5.990985      -163.0230
  73   2.0000      -5.990511      -163.0101
  74   2.0000      -5.990223      -163.0023
  75   2.0000      -5.988286      -162.9496
  76   2.0000      -5.987402      -162.9255
  77   2.0000      -5.986287      -162.8951
  78   2.0000      -5.986141      -162.8912
  79   2.0000      -5.982842      -162.8014
  80   2.0000      -1.147377       -31.2217
  81   2.0000      -1.143630       -31.1198
  82   2.0000      -1.124996       -30.6127
  83   2.0000      -1.120349       -30.4862
  84   2.0000      -0.981836       -26.7171
  85   2.0000      -0.980778       -26.6883
  86   2.0000      -0.978632       -26.6299
  87   2.0000      -0.960885       -26.1470
  88   2.0000      -0.958733       -26.0884
  89   2.0000      -0.956267       -26.0213
  90   2.0000      -0.941538       -25.6205
  91   2.0000      -0.937850       -25.5202
  92   2.0000      -0.892157       -24.2768
  93   2.0000      -0.886063       -24.1110
  94   2.0000      -0.871749       -23.7215
  95   2.0000      -0.864626       -23.5277
  96   2.0000      -0.853559       -23.2265
  97   2.0000      -0.840221       -22.8636
  98   2.0000      -0.836163       -22.7532
  99   2.0000      -0.835293       -22.7295
 100   2.0000      -0.833063       -22.6688
 101   2.0000      -0.832178       -22.6447
 102   2.0000      -0.828836       -22.5538
 103   2.0000      -0.821308       -22.3489
 104   2.0000      -0.814404       -22.1611
 105   2.0000      -0.809783       -22.0353
 106   2.0000      -0.807513       -21.9736
 107   2.0000      -0.804101       -21.8807
 108   2.0000      -0.787301       -21.4235
 109   2.0000      -0.785607       -21.3775
 110   2.0000      -0.776577       -21.1317
 111   2.0000      -0.763273       -20.7697
 112   2.0000      -0.750425       -20.4201
 113   2.0000      -0.749299       -20.3895
 114   2.0000      -0.747797       -20.3486
 115   2.0000      -0.729956       -19.8631
 116   2.0000      -0.712681       -19.3930
 117   2.0000      -0.695774       -18.9330
 118   2.0000      -0.684646       -18.6302
 119   2.0000      -0.674988       -18.3674
 120   2.0000      -0.670826       -18.2541
 121   2.0000      -0.669417       -18.2158
 122   2.0000      -0.662465       -18.0266
 123   2.0000      -0.658132       -17.9087
 124   2.0000      -0.655531       -17.8379
 125   2.0000      -0.629489       -17.1293
 126   2.0000      -0.624594       -16.9961
 127   2.0000      -0.622819       -16.9478
 128   2.0000      -0.615658       -16.7529
 129   2.0000      -0.612214       -16.6592
 130   2.0000      -0.608775       -16.5656
 131   2.0000      -0.607222       -16.5233
 132   2.0000      -0.603521       -16.4226
 133   2.0000      -0.600454       -16.3392
 134   2.0000      -0.596739       -16.2381
 135   2.0000      -0.590021       -16.0553
 136   2.0000      -0.587384       -15.9835
 137   2.0000      -0.586126       -15.9493
 138   2.0000      -0.579840       -15.7783
 139   2.0000      -0.571191       -15.5429
 140   2.0000      -0.565263       -15.3816
 141   2.0000      -0.563998       -15.3472
 142   2.0000      -0.558321       -15.1927
 143   2.0000      -0.551371       -15.0036
 144   2.0000      -0.550439       -14.9782
 145   2.0000      -0.543335       -14.7849
 146   2.0000      -0.541378       -14.7316
 147   2.0000      -0.538587       -14.6557
 148   2.0000      -0.531799       -14.4710
 149   2.0000      -0.526741       -14.3334
 150   2.0000      -0.525845       -14.3090
 151   2.0000      -0.522861       -14.2278
 152   2.0000      -0.520223       -14.1560
 153   2.0000      -0.519088       -14.1251
 154   2.0000      -0.512710       -13.9515
 155   2.0000      -0.508473       -13.8362
 156   2.0000      -0.503262       -13.6945
 157   2.0000      -0.501192       -13.6381
 158   2.0000      -0.497193       -13.5293
 159   2.0000      -0.494069       -13.4443
 160   2.0000      -0.490514       -13.3476
 161   2.0000      -0.486655       -13.2426
 162   2.0000      -0.484393       -13.1810
 163   2.0000      -0.483779       -13.1643
 164   2.0000      -0.483247       -13.1498
 165   2.0000      -0.481895       -13.1130
 166   2.0000      -0.479437       -13.0461
 167   2.0000      -0.475397       -12.9362
 168   2.0000      -0.472930       -12.8691
 169   2.0000      -0.470742       -12.8096
 170   2.0000      -0.469045       -12.7634
 171   2.0000      -0.466562       -12.6958
 172   2.0000      -0.463065       -12.6007
 173   2.0000      -0.460601       -12.5336
 174   2.0000      -0.455995       -12.4082
 175   2.0000      -0.452378       -12.3098
 176   2.0000      -0.451720       -12.2919
 177   2.0000      -0.449069       -12.2198
 178   2.0000      -0.448240       -12.1972
 179   2.0000      -0.445687       -12.1277
 180   2.0000      -0.444199       -12.0873
 181   2.0000      -0.441193       -12.0055
 182   2.0000      -0.434137       -11.8135
 183   2.0000      -0.426657       -11.6099
 184   2.0000      -0.423203       -11.5159
 185   2.0000      -0.419077       -11.4037
 186   2.0000      -0.417382       -11.3575
 187   2.0000      -0.415020       -11.2933
 188   2.0000      -0.413049       -11.2396
 189   2.0000      -0.409571       -11.1450
 190   2.0000      -0.405210       -11.0263
 191   2.0000      -0.402459       -10.9515
 192   2.0000      -0.401576       -10.9274
 193   2.0000      -0.400001       -10.8846
 194   2.0000      -0.395973       -10.7750
 195   2.0000      -0.394808       -10.7433
 196   2.0000      -0.385195       -10.4817
 197   2.0000      -0.382185       -10.3998
 198   2.0000      -0.378361       -10.2957
 199   2.0000      -0.377454       -10.2711
 200   2.0000      -0.373031       -10.1507
 201   2.0000      -0.368483       -10.0269
 202   2.0000      -0.350822        -9.5463
 203   2.0000      -0.343737        -9.3536
 204   2.0000      -0.341665        -9.2972
 205   2.0000      -0.333912        -9.0862
 206   2.0000      -0.327572        -8.9137
 207   2.0000      -0.325335        -8.8528
 208   2.0000      -0.324619        -8.8333
 209   2.0000      -0.318604        -8.6696
 210   2.0000      -0.312567        -8.5054
 211   2.0000      -0.310061        -8.4372
 212   2.0000      -0.303022        -8.2456
 213   2.0000      -0.291280        -7.9261
 214   2.0000      -0.283934        -7.7262
 215   2.0000      -0.278505        -7.5785
 216   2.0000      -0.265452        -7.2233
 217   2.0000      -0.224071        -6.0973
 218   2.0000      -0.208618        -5.6768
 219   2.0000      -0.189136        -5.1467
 220   0.0000      -0.073924        -2.0116
 221   0.0000      -0.053744        -1.4624
 222   0.0000      -0.037012        -1.0071
 223   0.0000       0.000659         0.0179
 224   0.0000       0.020826         0.5667

MULLIKEN ATOMIC CHARGES
-----------------------
   0 C :   -0.033805
   1 C :   -0.063523
   2 C :    0.047961
   3 C :    0.030374
   4 C :   -0.071698
   5 S :    0.074244
   6 C :   -0.036972
   7 C :    0.028565
   8 C :    0.029582
   9 C :    0.001149
  10 S :    0.052837
  11 C :   -0.036783
  12 C :    0.018328
  13 C :    0.178997
  14 O :   -0.326232
  15 C :    0.210378
  16 C :    0.037090
  17 O :   -0.365600
  18 C :    0.202633
  19 C :    0.065825
  20 C :   -0.048502
  21 C :   -0.032536
  22 C :   -0.075429
  23 C :   -0.003712
  24 C :    0.028677
  25 C :    0.028944
  26 C :   -0.049833
  27 S :    0.072789
  28 C :   -0.034041
  29 C :    0.023660
  30 C :    0.035326
  31 C :   -0.002005
  32 S :    0.052271
  33 C :   -0.032493
  34 C :    0.013334
  35 C :    0.188156
  36 O :   -0.325046
  37 C :    0.210766
  38 C :    0.028694
  39 O :   -0.375924
  40 C :    0.204372
  41 C :    0.103305
  42 C :   -0.037604
  43 C :   -0.029646
  44 C :   -0.088521
  45 C :   -0.014007
  46 C :    0.031170
  47 C :    0.028050
  48 C :   -0.048305
  49 S :    0.103672
  50 C :   -0.072666
  51 C :    0.030897
  52 C :    0.047896
  53 C :   -0.062929
  54 S :    0.072439
  55 C :   -0.033589
  56 H :    0.014521
  57 H :    0.017863
  58 H :   -0.015218
  59 H :   -0.014992
  60 H :   -0.020044
  61 H :   -0.015066
  62 H :   -0.007220
  63 H :    0.028063
  64 H :    0.021024
  65 H :    0.009023
  66 H :    0.013005
  67 H :    0.027525
  68 H :    0.028858
  69 H :   -0.022062
  70 H :   -0.016937
  71 H :   -0.001622
  72 H :   -0.016500
  73 H :   -0.017278
  74 H :   -0.019200
  75 H :   -0.015646
  76 H :   -0.007951
  77 H :    0.021306
  78 H :    0.031205
  79 H :    0.012815
  80 H :    0.028731
  81 H :    0.014528
  82 H :    0.033568
  83 H :   -0.032111
  84 H :   -0.015819
  85 H :   -0.017979
  86 H :   -0.016427
  87 H :   -0.018675
  88 H :   -0.014097
  89 H :   -0.014148
  90 H :    0.016979
  91 H :    0.019001
Sum of atomic charges:   -0.0000000

LOEWDIN ATOMIC CHARGES
----------------------
   0 C :   -0.086100
   1 C :   -0.138406
   2 C :   -0.037499
   3 C :   -0.026177
   4 C :   -0.183022
   5 S :    0.345066
   6 C :   -0.178106
   7 C :   -0.043214
   8 C :   -0.027492
   9 C :   -0.147087
  10 S :    0.371761
  11 C :   -0.045563
  12 C :   -0.050974
  13 C :    0.049484
  14 O :   -0.105591
  15 C :    0.080179
  16 C :    0.007483
  17 O :   -0.138874
  18 C :    0.075033
  19 C :   -0.039689
  20 C :   -0.035711
  21 C :   -0.020024
  22 C :   -0.059354
  23 C :   -0.142796
  24 C :   -0.035247
  25 C :   -0.036351
  26 C :   -0.184260
  27 S :    0.374546
  28 C :   -0.176051
  29 C :   -0.044199
  30 C :   -0.026221
  31 C :   -0.148609
  32 S :    0.374735
  33 C :   -0.042373
  34 C :   -0.052769
  35 C :    0.054815
  36 O :   -0.102340
  37 C :    0.080625
  38 C :   -0.002988
  39 O :   -0.133875
  40 C :    0.071246
  41 C :   -0.039971
  42 C :   -0.026382
  43 C :   -0.023579
  44 C :   -0.065153
  45 C :   -0.145838
  46 C :   -0.033085
  47 C :   -0.037425
  48 C :   -0.187409
  49 S :    0.399568
  50 C :   -0.178743
  51 C :   -0.026400
  52 C :   -0.035364
  53 C :   -0.138941
  54 S :    0.344729
  55 C :   -0.083380
  56 H :    0.026371
  57 H :    0.024548
  58 H :    0.031523
  59 H :    0.031119
  60 H :    0.029109
  61 H :    0.032106
  62 H :    0.034129
  63 H :    0.019215
  64 H :    0.019264
  65 H :    0.011698
  66 H :    0.010669
  67 H :    0.015242
  68 H :    0.022112
  69 H :    0.015288
  70 H :    0.014593
  71 H :    0.033947
  72 H :    0.031638
  73 H :    0.030344
  74 H :    0.029655
  75 H :    0.032428
  76 H :    0.034810
  77 H :    0.019079
  78 H :    0.020181
  79 H :    0.013359
  80 H :    0.015369
  81 H :    0.012853
  82 H :    0.022291
  83 H :    0.027585
  84 H :    0.014231
  85 H :    0.033357
  86 H :    0.030990
  87 H :    0.028660
  88 H :    0.031463
  89 H :    0.032103
  90 H :    0.027174
  91 H :    0.024856

  Mayer bond orders larger than 0.100000
B(  0-C ,  1-C ) :   1.8633 B(  0-C , 56-H ) :   0.9502 B(  0-C , 57-H ) :   0.9412
B(  1-C ,  2-C ) :   1.0800 B(  1-C ,  5-S ) :   1.0098 B(  2-C ,  3-C ) :   1.6618
B(  2-C , 58-H ) :   0.9924 B(  3-C ,  4-C ) :   1.1520 B(  3-C , 59-H ) :   0.9910
B(  4-C ,  5-S ) :   1.0367 B(  4-C ,  6-C ) :   1.5659 B(  6-C ,  7-C ) :   1.1606
B(  6-C , 10-S ) :   1.0324 B(  7-C ,  8-C ) :   1.6124 B(  7-C , 60-H ) :   0.9921
B(  8-C ,  9-C ) :   1.1314 B(  8-C , 61-H ) :   0.9992 B(  9-C , 10-S ) :   1.0207
B(  9-C , 11-C ) :   1.5802 B( 11-C , 12-C ) :   1.1494 B( 11-C , 62-H ) :   0.9599
B( 12-C , 13-C ) :   1.2699 B( 12-C , 19-C ) :   0.1009 B( 12-C , 21-C ) :   1.3107
B( 13-C , 14-O ) :   1.1794 B( 13-C , 16-C ) :   1.3750 B( 14-O , 15-C ) :   0.9429
B( 15-C , 63-H ) :   0.9730 B( 15-C , 64-H ) :   0.9770 B( 15-C , 65-H ) :   0.9748
B( 16-C , 17-O ) :   1.0830 B( 16-C , 19-C ) :   1.2879 B( 17-O , 18-C ) :   0.9425
B( 18-C , 66-H ) :   0.9645 B( 18-C , 67-H ) :   0.9655 B( 18-C , 68-H ) :   0.9821
B( 19-C , 20-C ) :   1.2986 B( 19-C , 22-C ) :   1.1199 B( 20-C , 21-C ) :   1.4212
B( 20-C , 69-H ) :   0.9785 B( 21-C , 70-H ) :   0.9788 B( 22-C , 23-C ) :   1.5741
B( 22-C , 71-H ) :   0.9634 B( 23-C , 24-C ) :   1.1351 B( 23-C , 27-S ) :   1.0309
B( 24-C , 25-C ) :   1.5946 B( 24-C , 72-H ) :   0.9998 B( 25-C , 26-C ) :   1.1799
B( 25-C , 73-H ) :   0.9921 B( 26-C , 27-S ) :   1.0335 B( 26-C , 28-C ) :   1.5199
B( 28-C , 29-C ) :   1.1797 B( 28-C , 32-S ) :   1.0377 B( 29-C , 30-C ) :   1.5938
B( 29-C , 74-H ) :   0.9922 B( 30-C , 31-C ) :   1.1414 B( 30-C , 75-H ) :   0.9991
B( 31-C , 32-S ) :   1.0227 B( 31-C , 33-C ) :   1.5632 B( 33-C , 34-C ) :   1.1611
B( 33-C , 76-H ) :   0.9591 B( 34-C , 35-C ) :   1.2793 B( 34-C , 43-C ) :   1.2958
B( 35-C , 36-O ) :   1.1807 B( 35-C , 38-C ) :   1.3602 B( 36-O , 37-C ) :   0.9375
B( 37-C , 77-H ) :   0.9766 B( 37-C , 78-H ) :   0.9725 B( 37-C , 79-H ) :   0.9766
B( 38-C , 39-O ) :   1.0620 B( 38-C , 41-C ) :   1.2875 B( 39-O , 40-C ) :   0.9307
B( 40-C , 80-H ) :   0.9677 B( 40-C , 81-H ) :   0.9672 B( 40-C , 82-H ) :   0.9781
B( 41-C , 42-C ) :   1.2844 B( 41-C , 44-C ) :   1.0998 B( 42-C , 43-C ) :   1.4219
B( 42-C , 83-H ) :   0.9963 B( 43-C , 84-H ) :   0.9807 B( 44-C , 45-C ) :   1.5978
B( 44-C , 85-H ) :   0.9600 B( 45-C , 46-C ) :   1.1178 B( 45-C , 49-S ) :   1.0472
B( 46-C , 47-C ) :   1.6205 B( 46-C , 86-H ) :   0.9999 B( 47-C , 48-C ) :   1.1547
B( 47-C , 87-H ) :   0.9941 B( 48-C , 49-S ) :   1.0129 B( 48-C , 50-C ) :   1.5698
B( 50-C , 51-C ) :   1.1505 B( 50-C , 54-S ) :   1.0384 B( 51-C , 52-C ) :   1.6623
B( 51-C , 88-H ) :   0.9918 B( 52-C , 53-C ) :   1.0792 B( 52-C , 89-H ) :   0.9928
B( 53-C , 54-S ) :   1.0076 B( 53-C , 55-C ) :   1.8650 B( 55-C , 90-H ) :   0.9502
B( 55-C , 91-H ) :   0.9414

-----------------------------------------------------------------------------
         ABSORPTION SPECTRUM VIA TRANSITION ELECTRIC DIPOLE MOMENTS
-----------------------------------------------------------------------------
State   Energy  Wavelength   fosc         T2         TX        TY        TZ
        (cm-1)    (nm)                  (au**2)     (au)      (au)      (au)
-----------------------------------------------------------------------------
   0   12437.4    804.0   1.453367848  38.46994  -0.85997  -2.04966   5.79045
   1   18007.8    555.3   1.201337630  21.96245  -0.93460  -4.55325   0.59736
   2   18151.2    550.9   0.648966044  11.77042  -0.83631  -3.32730  -0.00737
   3   20778.2    481.3   0.018786354   0.29765   0.50466   0.01638  -0.20666
   4   22201.4    450.4   0.880826358  13.06127   2.26330  -2.76821  -0.52511
   5   23836.3    419.5   0.064540638   0.89139  -0.44212   0.21068   0.80718
   6   26277.6    380.6   0.429036488   5.37508  -0.57525   0.86758  -2.07158
   7   26781.3    373.4   0.054862960   0.67441  -0.26344  -0.08724  -0.77292
   8   27575.2    362.6   0.006259545   0.07473  -0.21540  -0.01576   0.16758
   9   28738.6    348.0   0.010732511   0.12295  -0.09578  -0.17413  -0.28888
  10   29490.8    339.1   0.017800219   0.19871  -0.25126  -0.11640  -0.34933
  11   30498.9    327.9   0.059846807   0.64600  -0.40698  -0.01811   0.69285
  12   30939.9    323.2   0.319556658   3.40020  -0.80469  -0.83329  -1.43468
  13   31197.9    320.5   0.270182794   2.85107   0.92241   0.74975   1.19921
  14   33075.1    302.3   0.012580189   0.12522   0.14119   0.25921   0.19517
  15   33794.3    295.9   0.040297201   0.39256  -0.22459  -0.30323  -0.50017
  16   34089.0    293.3   0.021907980   0.21157   0.24163   0.10433   0.37723
  17   34317.9    291.4   0.018388177   0.17640  -0.07426  -0.41198  -0.03396
  18   34499.3    289.9   0.003704039   0.03535   0.04283   0.17862  -0.04008
  19   34553.5    289.4   0.028282002   0.26946  -0.34510   0.05267  -0.38417
  20   34937.8    286.2   0.002451959   0.02310  -0.07814   0.10618   0.07566
  21   35320.3    283.1   0.002564093   0.02390  -0.03522   0.14987  -0.01410
  22   35611.4    280.8   0.004291567   0.03967  -0.09514  -0.17494  -0.00430
  23   35800.4    279.3   0.020300598   0.18668  -0.15593  -0.05836  -0.39870
  24   36231.4    276.0   0.042265626   0.38404  -0.35959  -0.02066  -0.50429
  25   37011.0    270.2   0.022884583   0.20356  -0.17265  -0.02732  -0.41594
  26   37163.3    269.1   0.026823804   0.23762   0.25887   0.11493   0.39673
  27   37311.2    268.0   0.008196357   0.07232   0.08417   0.22328   0.12403
  28   37610.6    265.9   0.019720462   0.17262  -0.17681   0.22901  -0.29817
  29   37952.8    263.5   0.093734170   0.81307  -0.35977   0.57218  -0.59687
  30   38286.8    261.2   0.005625635   0.04837   0.01998  -0.21548   0.03928
  31   38522.0    259.6   0.009936235   0.08492  -0.17772   0.21846  -0.07489
  32   39169.5    255.3   0.012374677   0.10401  -0.10225  -0.25487  -0.16910
  33   39847.8    251.0   0.092826276   0.76691  -0.34582   0.58284   0.55463
  34   39875.5    250.8   0.133207541   1.09976  -0.17759  -0.48028   0.91518

FINAL SINGLE POINT ENERGY     -4461.061612666990

DIPOLE MOMENT
-------------
                                X             Y             Z
Electronic contribution:     -4.17451       4.06400       1.21988
Nuclear contribution   :      4.81930      -3.78383      -1.38946
                        -----------------------------------------
Total Dipole Moment    :      0.64479       0.28018      -0.16958
                        -----------------------------------------
Magnitude (a.u.)       :      0.72319
Magnitude (Debye)      :      1.83821

Rotational constants in cm-1:     0.001332     0.000408     0.000341
Rotational constants in MHz :    39.930844    12.238442    10.232823

                             ****ORCA TERMINATED NORMALLY****
TOTAL RUN TIME: 0 days 0 hours 6 minutes 49 seconds 917 msec
