                         Program Version 4.2.0 -  RELEASE  -
|  1> # ORCA input file
|  2> # SCF done       -192.089253691791          0.000986760721
|  3> ! CAM-B3LYP def2-SVP def2/J RIJCOSX Grid4 TightSCF
|  4> %maxcore 5000
|  5> %tddft
|  6>     Mode sTDDFT
|  7>     Ethresh 5.0
|  8>     maxcore 5000
|  9> end
| 10>
| 11> %pal
| 12>   nprocs 6
| 13>   end
| 14> * xyz 0 1
| 15>    C       -1.16929         3.07001        -3.54907
| 16>    C       -0.06682         2.60752        -2.88367
| 17>    C        1.21201         2.48059        -3.46818
| 18>    N        2.27135         2.36089        -3.89204
| 19>    C       -0.06707         2.16801        -1.54189
| 20>    N       -0.00552         1.78336        -0.46238
| 21>    C       -1.23213         3.44834        -4.95165
| 22>    C       -2.58217         3.71144        -5.29521
| 23>    C       -2.96814         4.08535        -6.56061
| 24>    C       -1.97348         4.20453        -7.53537
| 25>    C       -0.62470         3.94544        -7.18312
| 26>    C       -0.23567         3.56860        -5.90418
| 27>    S        0.43980         4.15791        -8.53766
| 28>    C       -0.91872         4.58162        -9.54635
| 29>    C       -2.11081         4.56687        -8.90225
| 30>   Br       -0.63390         5.00579       -11.34883
| 31>    C       -3.44710         3.51349        -4.12220
| 32>    O       -4.64467         3.66884        -4.07449
| 33>    C       -2.51492         3.17608        -2.99835
| 34>    C       -2.84005         3.20495        -1.68376
| 35>    C       -4.18424         3.22606        -1.16858
| 36>    C       -5.19789         2.50955        -1.71009
| 37>    C       -6.54711         2.51071        -1.24996
| 38>    C       -7.49217         1.72332        -1.89695
| 39>    C       -8.83802         1.70317        -1.49718
| 40>    N       -9.93358         1.68163        -1.15182
| 41>    C       -7.15836         0.89730        -2.98243
| 42>    N       -6.87857         0.20852        -3.85821
| 43>    C       -6.92370         3.30931        -0.13033
| 44>    C       -6.08558         4.07651         0.61024
| 45>    S       -4.36937         4.21433         0.27194
| 46>    C       -6.54425         4.83367         1.75710
| 47>    C       -7.80227         5.36829         1.82486
| 48>    C       -8.30885         6.05877         2.92885
| 49>    C       -7.51634         6.22168         4.15206
| 50>    C       -6.23579         5.80766         4.28291
| 51>    S       -5.36627         4.99963         3.04834
| 52>    C       -8.37292         6.89346         5.06387
| 53>    C       -9.61017         7.14528         4.46155
| 54>    C      -10.47852         7.84317         5.33073
| 55>    C       -9.89763         8.08431         6.53569
| 56>    S       -8.28052         7.48918         6.67168
| 57>    C       -9.57670         6.63558         3.11398
| 58>    C      -10.57524         6.72028         2.11111
| 59>    C      -11.87582         7.04291         2.30340
| 60>    C      -12.83558         7.17631         1.24834
| 61>    C      -12.53012         7.39020        -0.05884
| 62>    C      -13.46068         7.54536        -1.12241
| 63>    C      -13.00698         7.83664        -2.40552
| 64>    C      -13.88041         8.01554        -3.48882
| 65>    N      -14.59474         8.17671        -4.37453
| 66>    C      -11.64094         7.99056        -2.68690
| 67>    N      -10.51918         8.11577        -2.90458
| 68>    C      -14.85948         7.38116        -0.88683
| 69>    C      -15.41683         7.09744         0.31415
| 70>    S      -14.49858         7.08059         1.81002
| 71>    C      -16.82837         6.82869         0.43900
| 72>    C      -17.44218         5.93878         1.24693
| 73>    C      -16.93976         4.87806         2.10690
| 74>    C      -15.79804         4.14991         1.91250
| 75>    C      -15.37664         3.10719         2.76469
| 76>    N      -14.97891         2.27411         3.44573
| 77>    C      -14.95073         4.30427         0.79382
| 78>    N      -14.26930         4.36834        -0.12701
| 79>    C      -17.99272         4.56883         3.06449
| 80>    C      -19.18542         5.22656         2.66539
| 81>    C      -18.91976         6.04213         1.46737
| 82>    O      -19.69695         6.69962         0.82019
| 83>    C      -20.37102         5.07974         3.34541
| 84>    C      -20.37818         4.25558         4.47501
| 85>    C      -19.17842         3.61543         4.87373
| 86>    C      -17.98154         3.75699         4.18352
| 87>    S      -19.41180         2.65167         6.29883
| 88>    C      -21.09457         3.10864         6.33833
| 89>    C      -21.46411         3.94305         5.33718
| 90>   Br      -22.20084         2.44411         7.69763
| 91>    H       -4.00536         4.27387        -6.78879
| 92>    H        0.80310         3.38778        -5.68337
| 93>    H       -3.04923         4.80164        -9.37038
| 94>    H       -2.05501         3.26698        -0.93969
| 95>    H       -4.97327         1.86332        -2.54683
| 96>    H       -7.96114         3.25327         0.17145
| 97>    H       -8.43745         5.25285         0.95813
| 98>    H       -5.66490         5.95883         5.18549
| 99>    H      -11.47490         8.16688         5.09349
|100>    H      -10.32658         8.59046         7.37841
|101>    H      -10.24664         6.48686         1.10760
|102>    H      -12.25845         7.16315         3.30613
|103>    H      -11.48491         7.47345        -0.32264
|104>    H      -15.51165         7.41133        -1.75050
|105>    H      -17.48627         7.43850        -0.17307
|106>    H      -21.26565         5.58290         3.01390
|107>    H      -17.09178         3.25435         4.52497
|108>    H      -22.46127         4.32300         5.21029
|109> *
|110>
|111>                          ****END OF INPUT****

CARTESIAN COORDINATES (ANGSTROEM)
---------------------------------
  C     -1.169290    3.070010   -3.549070
  C     -0.066820    2.607520   -2.883670
  C      1.212010    2.480590   -3.468180
  N      2.271350    2.360890   -3.892040
  C     -0.067070    2.168010   -1.541890
  N     -0.005520    1.783360   -0.462380
  C     -1.232130    3.448340   -4.951650
  C     -2.582170    3.711440   -5.295210
  C     -2.968140    4.085350   -6.560610
  C     -1.973480    4.204530   -7.535370
  C     -0.624700    3.945440   -7.183120
  C     -0.235670    3.568600   -5.904180
  S      0.439800    4.157910   -8.537660
  C     -0.918720    4.581620   -9.546350
  C     -2.110810    4.566870   -8.902250
  Br    -0.633900    5.005790  -11.348830
  C     -3.447100    3.513490   -4.122200
  O     -4.644670    3.668840   -4.074490
  C     -2.514920    3.176080   -2.998350
  C     -2.840050    3.204950   -1.683760
  C     -4.184240    3.226060   -1.168580
  C     -5.197890    2.509550   -1.710090
  C     -6.547110    2.510710   -1.249960
  C     -7.492170    1.723320   -1.896950
  C     -8.838020    1.703170   -1.497180
  N     -9.933580    1.681630   -1.151820
  C     -7.158360    0.897300   -2.982430
  N     -6.878570    0.208520   -3.858210
  C     -6.923700    3.309310   -0.130330
  C     -6.085580    4.076510    0.610240
  S     -4.369370    4.214330    0.271940
  C     -6.544250    4.833670    1.757100
  C     -7.802270    5.368290    1.824860
  C     -8.308850    6.058770    2.928850
  C     -7.516340    6.221680    4.152060
  C     -6.235790    5.807660    4.282910
  S     -5.366270    4.999630    3.048340
  C     -8.372920    6.893460    5.063870
  C     -9.610170    7.145280    4.461550
  C    -10.478520    7.843170    5.330730
  C     -9.897630    8.084310    6.535690
  S     -8.280520    7.489180    6.671680
  C     -9.576700    6.635580    3.113980
  C    -10.575240    6.720280    2.111110
  C    -11.875820    7.042910    2.303400
  C    -12.835580    7.176310    1.248340
  C    -12.530120    7.390200   -0.058840
  C    -13.460680    7.545360   -1.122410
  C    -13.006980    7.836640   -2.405520
  C    -13.880410    8.015540   -3.488820
  N    -14.594740    8.176710   -4.374530
  C    -11.640940    7.990560   -2.686900
  N    -10.519180    8.115770   -2.904580
  C    -14.859480    7.381160   -0.886830
  C    -15.416830    7.097440    0.314150
  S    -14.498580    7.080590    1.810020
  C    -16.828370    6.828690    0.439000
  C    -17.442180    5.938780    1.246930
  C    -16.939760    4.878060    2.106900
  C    -15.798040    4.149910    1.912500
  C    -15.376640    3.107190    2.764690
  N    -14.978910    2.274110    3.445730
  C    -14.950730    4.304270    0.793820
  N    -14.269300    4.368340   -0.127010
  C    -17.992720    4.568830    3.064490
  C    -19.185420    5.226560    2.665390
  C    -18.919760    6.042130    1.467370
  O    -19.696950    6.699620    0.820190
  C    -20.371020    5.079740    3.345410
  C    -20.378180    4.255580    4.475010
  C    -19.178420    3.615430    4.873730
  C    -17.981540    3.756990    4.183520
  S    -19.411800    2.651670    6.298830
  C    -21.094570    3.108640    6.338330
  C    -21.464110    3.943050    5.337180
  Br   -22.200840    2.444110    7.697630
  H     -4.005360    4.273870   -6.788790
  H      0.803100    3.387780   -5.683370
  H     -3.049230    4.801640   -9.370380
  H     -2.055010    3.266980   -0.939690
  H     -4.973270    1.863320   -2.546830
  H     -7.961140    3.253270    0.171450
  H     -8.437450    5.252850    0.958130
  H     -5.664900    5.958830    5.185490
  H    -11.474900    8.166880    5.093490
  H    -10.326580    8.590460    7.378410
  H    -10.246640    6.486860    1.107600
  H    -12.258450    7.163150    3.306130
  H    -11.484910    7.473450   -0.322640
  H    -15.511650    7.411330   -1.750500
  H    -17.486270    7.438500   -0.173070
  H    -21.265650    5.582900    3.013900
  H    -17.091780    3.254350    4.524970
  H    -22.461270    4.323000    5.210290

 Total Charge           Charge          ....    0
 Multiplicity           Mult            ....    1
 Number of Electrons    NEL             ....  604
 Basis Dimension        Dim             .... 1214

ORBITAL ENERGIES
----------------

  NO   OCC          E(Eh)            E(eV)
   0   2.0000    -482.893178    -13140.1914
   1   2.0000    -482.892227    -13140.1655
   2   2.0000     -88.998513     -2421.7727
   3   2.0000     -88.993133     -2421.6263
   4   2.0000     -88.985136     -2421.4087
   5   2.0000     -88.984977     -2421.4043
   6   2.0000     -88.982060     -2421.3249
   7   2.0000     -88.971891     -2421.0482
   8   2.0000     -62.570906     -1702.6409
   9   2.0000     -62.569937     -1702.6146
  10   2.0000     -56.404868     -1534.8545
  11   2.0000     -56.403902     -1534.8282
  12   2.0000     -56.402130     -1534.7800
  13   2.0000     -56.402101     -1534.7792
  14   2.0000     -56.401155     -1534.7535
  15   2.0000     -56.401134     -1534.7529
  16   2.0000     -19.234598      -523.4000
  17   2.0000     -19.231461      -523.3147
  18   2.0000     -14.431122      -392.6908
  19   2.0000     -14.430526      -392.6746
  20   2.0000     -14.428365      -392.6158
  21   2.0000     -14.423621      -392.4867
  22   2.0000     -14.403998      -391.9527
  23   2.0000     -14.402964      -391.9246
  24   2.0000     -14.397556      -391.7774
  25   2.0000     -14.395887      -391.7320
  26   2.0000     -10.387107      -282.6475
  27   2.0000     -10.381874      -282.5051
  28   2.0000     -10.368050      -282.1290
  29   2.0000     -10.368001      -282.1277
  30   2.0000     -10.361813      -281.9593
  31   2.0000     -10.361494      -281.9506
  32   2.0000     -10.359210      -281.8884
  33   2.0000     -10.358298      -281.8636
  34   2.0000     -10.354500      -281.7603
  35   2.0000     -10.352979      -281.7189
  36   2.0000     -10.349208      -281.6163
  37   2.0000     -10.349100      -281.6133
  38   2.0000     -10.348275      -281.5909
  39   2.0000     -10.343079      -281.4495
  40   2.0000     -10.342430      -281.4318
  41   2.0000     -10.340011      -281.3660
  42   2.0000     -10.337403      -281.2950
  43   2.0000     -10.337229      -281.2903
  44   2.0000     -10.335443      -281.2417
  45   2.0000     -10.332912      -281.1728
  46   2.0000     -10.332132      -281.1516
  47   2.0000     -10.331298      -281.1289
  48   2.0000     -10.329899      -281.0909
  49   2.0000     -10.329570      -281.0819
  50   2.0000     -10.327854      -281.0352
  51   2.0000     -10.324915      -280.9552
  52   2.0000     -10.322497      -280.8894
  53   2.0000     -10.321916      -280.8736
  54   2.0000     -10.321303      -280.8569
  55   2.0000     -10.321270      -280.8560
  56   2.0000     -10.320861      -280.8449
  57   2.0000     -10.319278      -280.8018
  58   2.0000     -10.318922      -280.7921
  59   2.0000     -10.318417      -280.7784
  60   2.0000     -10.318415      -280.7783
  61   2.0000     -10.317563      -280.7552
  62   2.0000     -10.317005      -280.7400
  63   2.0000     -10.315790      -280.7069
  64   2.0000     -10.314068      -280.6601
  65   2.0000     -10.313224      -280.6371
  66   2.0000     -10.312731      -280.6237
  67   2.0000     -10.311388      -280.5871
  68   2.0000     -10.307583      -280.4836
  69   2.0000     -10.306337      -280.4497
  70   2.0000     -10.305920      -280.4383
  71   2.0000     -10.305897      -280.4377
  72   2.0000     -10.305643      -280.4308
  73   2.0000     -10.305621      -280.4302
  74   2.0000     -10.305614      -280.4300
  75   2.0000     -10.304765      -280.4069
  76   2.0000     -10.304313      -280.3946
  77   2.0000     -10.300779      -280.2985
  78   2.0000     -10.299084      -280.2523
  79   2.0000     -10.297864      -280.2191
  80   2.0000     -10.297837      -280.2184
  81   2.0000     -10.296042      -280.1696
  82   2.0000     -10.292421      -280.0710
  83   2.0000     -10.290032      -280.0060
  84   2.0000      -8.800352      -239.4697
  85   2.0000      -8.799377      -239.4432
  86   2.0000      -8.093903      -220.2463
  87   2.0000      -8.088824      -220.1081
  88   2.0000      -8.081201      -219.9007
  89   2.0000      -8.081035      -219.8962
  90   2.0000      -8.077209      -219.7920
  91   2.0000      -8.067467      -219.5269
  92   2.0000      -6.636723      -180.5944
  93   2.0000      -6.635744      -180.5678
  94   2.0000      -6.622057      -180.1953
  95   2.0000      -6.621838      -180.1894
  96   2.0000      -6.621101      -180.1693
  97   2.0000      -6.620839      -180.1622
  98   2.0000      -6.063411      -164.9938
  99   2.0000      -6.058842      -164.8695
 100   2.0000      -6.058642      -164.8640
 101   2.0000      -6.055866      -164.7885
 102   2.0000      -6.054125      -164.7411
 103   2.0000      -6.050883      -164.6529
 104   2.0000      -6.050697      -164.6478
 105   2.0000      -6.049974      -164.6282
 106   2.0000      -6.047066      -164.5490
 107   2.0000      -6.046601      -164.5364
 108   2.0000      -6.046435      -164.5319
 109   2.0000      -6.042553      -164.4262
 110   2.0000      -6.042406      -164.4222
 111   2.0000      -6.042262      -164.4183
 112   2.0000      -6.038414      -164.3136
 113   2.0000      -6.036854      -164.2712
 114   2.0000      -6.032628      -164.1561
 115   2.0000      -6.029511      -164.0713
 116   2.0000      -2.752544       -74.9005
 117   2.0000      -2.751626       -74.8755
 118   2.0000      -2.748498       -74.7904
 119   2.0000      -2.748307       -74.7852
 120   2.0000      -2.747494       -74.7631
 121   2.0000      -2.747308       -74.7581
 122   2.0000      -2.736662       -74.4684
 123   2.0000      -2.736642       -74.4678
 124   2.0000      -2.735666       -74.4412
 125   2.0000      -2.735658       -74.4410
 126   2.0000      -1.151578       -31.3360
 127   2.0000      -1.147383       -31.2219
 128   2.0000      -1.037224       -28.2243
 129   2.0000      -1.035560       -28.1790
 130   2.0000      -1.029304       -28.0088
 131   2.0000      -1.026087       -27.9212
 132   2.0000      -1.024650       -27.8821
 133   2.0000      -1.018182       -27.7061
 134   2.0000      -1.010152       -27.4876
 135   2.0000      -1.009039       -27.4574
 136   2.0000      -1.004766       -27.3411
 137   2.0000      -1.002066       -27.2676
 138   2.0000      -1.001638       -27.2560
 139   2.0000      -0.999773       -27.2052
 140   2.0000      -0.987987       -26.8845
 141   2.0000      -0.986813       -26.8525
 142   2.0000      -0.981759       -26.7150
 143   2.0000      -0.975437       -26.5430
 144   2.0000      -0.958773       -26.0895
 145   2.0000      -0.956434       -26.0259
 146   2.0000      -0.950523       -25.8650
 147   2.0000      -0.941408       -25.6170
 148   2.0000      -0.939137       -25.5552
 149   2.0000      -0.932170       -25.3656
 150   2.0000      -0.928478       -25.2652
 151   2.0000      -0.921090       -25.0641
 152   2.0000      -0.919678       -25.0257
 153   2.0000      -0.904516       -24.6131
 154   2.0000      -0.898874       -24.4596
 155   2.0000      -0.897683       -24.4272
 156   2.0000      -0.896991       -24.4084
 157   2.0000      -0.886665       -24.1274
 158   2.0000      -0.880608       -23.9626
 159   2.0000      -0.859078       -23.3767
 160   2.0000      -0.855888       -23.2899
 161   2.0000      -0.854491       -23.2519
 162   2.0000      -0.848667       -23.0934
 163   2.0000      -0.842638       -22.9293
 164   2.0000      -0.840518       -22.8716
 165   2.0000      -0.838997       -22.8303
 166   2.0000      -0.824273       -22.4296
 167   2.0000      -0.806219       -21.9383
 168   2.0000      -0.794783       -21.6272
 169   2.0000      -0.789536       -21.4844
 170   2.0000      -0.774822       -21.0840
 171   2.0000      -0.772576       -21.0229
 172   2.0000      -0.769342       -20.9349
 173   2.0000      -0.754989       -20.5443
 174   2.0000      -0.745430       -20.2842
 175   2.0000      -0.742933       -20.2162
 176   2.0000      -0.727837       -19.8054
 177   2.0000      -0.715729       -19.4760
 178   2.0000      -0.713546       -19.4166
 179   2.0000      -0.706037       -19.2122
 180   2.0000      -0.704285       -19.1646
 181   2.0000      -0.698799       -19.0153
 182   2.0000      -0.691074       -18.8051
 183   2.0000      -0.684899       -18.6370
 184   2.0000      -0.678497       -18.4629
 185   2.0000      -0.673607       -18.3298
 186   2.0000      -0.669351       -18.2140
 187   2.0000      -0.666558       -18.1380
 188   2.0000      -0.662447       -18.0261
 189   2.0000      -0.650672       -17.7057
 190   2.0000      -0.644900       -17.5486
 191   2.0000      -0.636596       -17.3226
 192   2.0000      -0.636036       -17.3074
 193   2.0000      -0.633440       -17.2368
 194   2.0000      -0.630451       -17.1554
 195   2.0000      -0.620138       -16.8748
 196   2.0000      -0.612499       -16.6670
 197   2.0000      -0.608816       -16.5667
 198   2.0000      -0.607176       -16.5221
 199   2.0000      -0.602649       -16.3989
 200   2.0000      -0.596845       -16.2410
 201   2.0000      -0.593497       -16.1499
 202   2.0000      -0.590314       -16.0633
 203   2.0000      -0.584508       -15.9053
 204   2.0000      -0.578564       -15.7435
 205   2.0000      -0.575729       -15.6664
 206   2.0000      -0.571157       -15.5420
 207   2.0000      -0.567648       -15.4465
 208   2.0000      -0.562817       -15.3150
 209   2.0000      -0.561388       -15.2761
 210   2.0000      -0.557740       -15.1769
 211   2.0000      -0.556860       -15.1529
 212   2.0000      -0.554123       -15.0784
 213   2.0000      -0.550875       -14.9901
 214   2.0000      -0.549666       -14.9572
 215   2.0000      -0.546447       -14.8696
 216   2.0000      -0.538769       -14.6607
 217   2.0000      -0.536126       -14.5887
 218   2.0000      -0.535068       -14.5599
 219   2.0000      -0.533949       -14.5295
 220   2.0000      -0.531053       -14.4507
 221   2.0000      -0.529619       -14.4117
 222   2.0000      -0.524858       -14.2821
 223   2.0000      -0.523943       -14.2572
 224   2.0000      -0.521711       -14.1965
 225   2.0000      -0.519469       -14.1355
 226   2.0000      -0.518312       -14.1040
 227   2.0000      -0.516075       -14.0431
 228   2.0000      -0.511036       -13.9060
 229   2.0000      -0.508797       -13.8451
 230   2.0000      -0.505041       -13.7429
 231   2.0000      -0.504823       -13.7369
 232   2.0000      -0.502059       -13.6617
 233   2.0000      -0.498771       -13.5723
 234   2.0000      -0.488836       -13.3019
 235   2.0000      -0.487382       -13.2623
 236   2.0000      -0.485019       -13.1980
 237   2.0000      -0.477697       -12.9988
 238   2.0000      -0.474587       -12.9142
 239   2.0000      -0.474422       -12.9097
 240   2.0000      -0.469321       -12.7709
 241   2.0000      -0.468880       -12.7589
 242   2.0000      -0.466791       -12.7020
 243   2.0000      -0.464893       -12.6504
 244   2.0000      -0.462504       -12.5854
 245   2.0000      -0.459331       -12.4990
 246   2.0000      -0.459111       -12.4930
 247   2.0000      -0.458317       -12.4714
 248   2.0000      -0.457881       -12.4596
 249   2.0000      -0.457371       -12.4457
 250   2.0000      -0.454852       -12.3771
 251   2.0000      -0.451959       -12.2984
 252   2.0000      -0.451113       -12.2754
 253   2.0000      -0.450325       -12.2540
 254   2.0000      -0.447584       -12.1794
 255   2.0000      -0.445943       -12.1347
 256   2.0000      -0.441918       -12.0252
 257   2.0000      -0.440566       -11.9884
 258   2.0000      -0.439867       -11.9694
 259   2.0000      -0.438563       -11.9339
 260   2.0000      -0.436610       -11.8807
 261   2.0000      -0.435160       -11.8413
 262   2.0000      -0.434434       -11.8215
 263   2.0000      -0.432648       -11.7730
 264   2.0000      -0.432108       -11.7583
 265   2.0000      -0.430757       -11.7215
 266   2.0000      -0.429720       -11.6933
 267   2.0000      -0.427062       -11.6210
 268   2.0000      -0.425323       -11.5736
 269   2.0000      -0.424219       -11.5436
 270   2.0000      -0.420558       -11.4440
 271   2.0000      -0.419155       -11.4058
 272   2.0000      -0.418582       -11.3902
 273   2.0000      -0.415327       -11.3016
 274   2.0000      -0.412261       -11.2182
 275   2.0000      -0.410281       -11.1643
 276   2.0000      -0.405199       -11.0260
 277   2.0000      -0.402489       -10.9523
 278   2.0000      -0.400764       -10.9053
 279   2.0000      -0.397829       -10.8255
 280   2.0000      -0.396570       -10.7912
 281   2.0000      -0.396342       -10.7850
 282   2.0000      -0.387828       -10.5533
 283   2.0000      -0.384870       -10.4728
 284   2.0000      -0.382499       -10.4083
 285   2.0000      -0.381248       -10.3743
 286   2.0000      -0.376759       -10.2521
 287   2.0000      -0.373996       -10.1769
 288   2.0000      -0.364293        -9.9129
 289   2.0000      -0.356818        -9.7095
 290   2.0000      -0.353694        -9.6245
 291   2.0000      -0.340467        -9.2646
 292   2.0000      -0.333933        -9.0868
 293   2.0000      -0.328242        -8.9319
 294   2.0000      -0.326343        -8.8802
 295   2.0000      -0.325991        -8.8707
 296   2.0000      -0.304198        -8.2776
 297   2.0000      -0.303546        -8.2599
 298   2.0000      -0.297719        -8.1013
 299   2.0000      -0.281863        -7.6699
 300   2.0000      -0.274742        -7.4761
 301   2.0000      -0.252359        -6.8670
 302   0.0000      -0.114576        -3.1178
 303   0.0000      -0.108193        -2.9441
 304   0.0000      -0.090832        -2.4717
 305   0.0000      -0.077602        -2.1117
 306   0.0000      -0.071922        -1.9571

MULLIKEN ATOMIC CHARGES
-----------------------
   0 C :    0.278948
   1 C :   -0.324138
   2 C :   -0.180850
   3 N :    0.160046
   4 C :   -0.202970
   5 N :    0.170351
   6 C :    0.026281
   7 C :   -0.022334
   8 C :   -0.056673
   9 C :    0.117118
  10 C :   -0.086578
  11 C :   -0.020373
  12 S :    0.194238
  13 C :   -0.123028
  14 C :    0.041538
  15 Br:    0.036652
  16 C :    0.151196
  17 O :   -0.127161
  18 C :   -0.071580
  19 C :    0.021206
  20 C :   -0.073925
  21 C :    0.021401
  22 C :    0.224778
  23 C :   -0.315535
  24 C :   -0.172863
  25 N :    0.140100
  26 C :   -0.162617
  27 N :    0.129982
  28 C :   -0.077524
  29 C :   -0.015200
  30 S :    0.145625
  31 C :   -0.081143
  32 C :   -0.010020
  33 C :    0.044319
  34 C :    0.067452
  35 C :   -0.123832
  36 S :    0.160466
  37 C :   -0.111061
  38 C :    0.058961
  39 C :   -0.003818
  40 C :   -0.063675
  41 S :    0.141237
  42 C :    0.075643
  43 C :    0.006692
  44 C :    0.017132
  45 C :   -0.019690
  46 C :   -0.081953
  47 C :    0.284130
  48 C :   -0.341064
  49 C :   -0.171394
  50 N :    0.132308
  51 C :   -0.163995
  52 N :    0.119926
  53 C :   -0.019350
  54 C :   -0.091268
  55 S :    0.131324
  56 C :    0.040130
  57 C :   -0.100576
  58 C :    0.257763
  59 C :   -0.312089
  60 C :   -0.176497
  61 N :    0.160764
  62 C :   -0.187890
  63 N :    0.183014
  64 C :    0.012116
  65 C :   -0.008929
  66 C :    0.137289
  67 O :   -0.125555
  68 C :   -0.063300
  69 C :    0.112995
  70 C :   -0.086789
  71 C :   -0.019956
  72 S :    0.191917
  73 C :   -0.125852
  74 C :    0.043704
  75 Br:    0.031664
  76 H :    0.002222
  77 H :   -0.002577
  78 H :    0.003595
  79 H :    0.044119
  80 H :    0.032705
  81 H :    0.031175
  82 H :    0.006572
  83 H :    0.045611
  84 H :   -0.013128
  85 H :    0.031687
  86 H :   -0.002005
  87 H :   -0.016160
  88 H :    0.015557
  89 H :    0.030564
  90 H :    0.049119
  91 H :   -0.004483
  92 H :   -0.001513
  93 H :   -0.000417
Sum of atomic charges:   -0.0000000

LOEWDIN ATOMIC CHARGES
----------------------
   0 C :    0.071014
   1 C :   -0.125246
   2 C :   -0.018088
   3 N :   -0.039090
   4 C :   -0.024576
   5 N :   -0.038987
   6 C :   -0.021987
   7 C :   -0.051738
   8 C :    0.031699
   9 C :   -0.027792
  10 C :   -0.140473
  11 C :   -0.007273
  12 S :    0.439365
  13 C :   -0.267299
  14 C :   -0.067400
  15 Br:    0.146888
  16 C :    0.085150
  17 O :   -0.117654
  18 C :   -0.058939
  19 C :    0.039656
  20 C :   -0.145183
  21 C :    0.022416
  22 C :    0.041079
  23 C :   -0.147771
  24 C :   -0.030518
  25 N :   -0.052210
  26 C :   -0.027066
  27 N :   -0.058121
  28 C :   -0.030842
  29 C :   -0.139090
  30 S :    0.427200
  31 C :   -0.191707
  32 C :    0.000035
  33 C :   -0.011599
  34 C :   -0.046734
  35 C :   -0.134020
  36 S :    0.464516
  37 C :   -0.198811
  38 C :   -0.034811
  39 C :   -0.065107
  40 C :   -0.159066
  41 S :    0.433777
  42 C :   -0.047746
  43 C :    0.024575
  44 C :   -0.067987
  45 C :   -0.110117
  46 C :   -0.041338
  47 C :    0.049710
  48 C :   -0.158751
  49 C :   -0.030689
  50 N :   -0.065189
  51 C :   -0.025200
  52 N :   -0.070425
  53 C :    0.005261
  54 C :   -0.142192
  55 S :    0.441266
  56 C :    0.044760
  57 C :   -0.066505
  58 C :    0.055766
  59 C :   -0.123976
  60 C :   -0.017710
  61 N :   -0.038420
  62 C :   -0.033807
  63 N :   -0.033862
  64 C :   -0.017037
  65 C :   -0.055906
  66 C :    0.085840
  67 O :   -0.126385
  68 C :    0.027542
  69 C :   -0.031525
  70 C :   -0.140418
  71 C :   -0.011349
  72 S :    0.437155
  73 C :   -0.269596
  74 C :   -0.068834
  75 Br:    0.143080
  76 H :    0.046249
  77 H :    0.042136
  78 H :    0.041943
  79 H :    0.045526
  80 H :    0.050299
  81 H :    0.048915
  82 H :    0.045262
  83 H :    0.040778
  84 H :    0.029874
  85 H :    0.026252
  86 H :    0.035310
  87 H :    0.025379
  88 H :    0.043458
  89 H :    0.052040
  90 H :    0.057460
  91 H :    0.043519
  92 H :    0.041766
  93 H :    0.040248

  Mayer bond orders larger than 0.100000
B(  0-C ,  1-C ) :   1.6667 B(  0-C ,  6-C ) :   1.0208 B(  0-C , 18-C ) :   1.0364
B(  1-C ,  2-C ) :   1.1362 B(  1-C ,  4-C ) :   1.1365 B(  2-C ,  3-N ) :   2.9754
B(  4-C ,  5-N ) :   2.9964 B(  6-C ,  7-C ) :   1.2629 B(  6-C , 11-C ) :   1.3982
B(  7-C ,  8-C ) :   1.4203 B(  7-C , 16-C ) :   0.9531 B(  8-C ,  9-C ) :   1.2509
B(  8-C , 76-H ) :   1.0173 B(  9-C , 10-C ) :   1.2907 B(  9-C , 14-C ) :   1.1671
B( 10-C , 11-C ) :   1.3394 B( 10-C , 12-S ) :   1.0918 B( 11-C , 77-H ) :   0.9816
B( 12-S , 13-C ) :   1.0858 B( 13-C , 14-C ) :   1.6147 B( 13-C , 15-Br) :   1.0268
B( 14-C , 78-H ) :   1.0009 B( 16-C , 17-O ) :   2.2333 B( 16-C , 18-C ) :   0.9094
B( 18-C , 19-C ) :   1.7415 B( 19-C , 20-C ) :   1.0371 B( 19-C , 79-H ) :   0.9326
B( 20-C , 21-C ) :   1.6415 B( 20-C , 30-S ) :   1.0400 B( 21-C , 22-C ) :   1.1446
B( 21-C , 80-H ) :   0.9504 B( 22-C , 23-C ) :   1.5457 B( 22-C , 28-C ) :   1.1312
B( 23-C , 24-C ) :   1.1282 B( 23-C , 26-C ) :   1.1262 B( 24-C , 25-N ) :   2.9957
B( 26-C , 27-N ) :   2.9948 B( 28-C , 29-C ) :   1.6422 B( 28-C , 81-H ) :   0.9624
B( 29-C , 30-S ) :   1.0608 B( 29-C , 31-C ) :   1.0259 B( 31-C , 32-C ) :   1.5778
B( 31-C , 36-S ) :   1.0621 B( 32-C , 33-C ) :   1.2368 B( 32-C , 82-H ) :   0.9653
B( 33-C , 34-C ) :   1.0514 B( 33-C , 42-C ) :   1.3824 B( 34-C , 35-C ) :   1.5916
B( 34-C , 37-C ) :   1.1898 B( 35-C , 36-S ) :   1.1510 B( 35-C , 83-H ) :   0.9412
B( 37-C , 38-C ) :   1.4421 B( 37-C , 41-S ) :   1.0826 B( 38-C , 39-C ) :   1.2156
B( 38-C , 42-C ) :   1.0906 B( 39-C , 40-C ) :   1.5853 B( 39-C , 84-H ) :   1.0000
B( 40-C , 41-S ) :   1.1604 B( 40-C , 85-H ) :   0.9649 B( 42-C , 43-C ) :   1.1773
B( 43-C , 44-C ) :   1.6627 B( 43-C , 86-H ) :   0.9543 B( 44-C , 45-C ) :   1.0804
B( 44-C , 87-H ) :   0.9651 B( 45-C , 46-C ) :   1.5969 B( 45-C , 55-S ) :   1.0458
B( 46-C , 47-C ) :   1.1512 B( 46-C , 88-H ) :   0.9593 B( 47-C , 48-C ) :   1.5251
B( 47-C , 53-C ) :   1.0934 B( 48-C , 49-C ) :   1.1323 B( 48-C , 51-C ) :   1.1351
B( 49-C , 50-N ) :   2.9984 B( 51-C , 52-N ) :   2.9911 B( 53-C , 54-C ) :   1.6153
B( 53-C , 89-H ) :   0.9746 B( 54-C , 55-S ) :   1.0689 B( 54-C , 56-C ) :   1.0161
B( 56-C , 57-C ) :   1.7620 B( 56-C , 90-H ) :   0.9443 B( 57-C , 58-C ) :   1.0004
B( 57-C , 66-C ) :   0.9180 B( 58-C , 59-C ) :   1.6769 B( 58-C , 64-C ) :   1.0271
B( 59-C , 60-C ) :   1.1332 B( 59-C , 62-C ) :   1.1553 B( 60-C , 61-N ) :   2.9843
B( 62-C , 63-N ) :   2.9975 B( 64-C , 65-C ) :   1.2686 B( 64-C , 71-C ) :   1.4065
B( 65-C , 66-C ) :   0.9268 B( 65-C , 68-C ) :   1.4204 B( 66-C , 67-O ) :   2.2853
B( 68-C , 69-C ) :   1.2565 B( 68-C , 91-H ) :   1.0166 B( 69-C , 70-C ) :   1.2976
B( 69-C , 74-C ) :   1.1647 B( 70-C , 71-C ) :   1.3343 B( 70-C , 72-S ) :   1.0888
B( 71-C , 92-H ) :   0.9827 B( 72-S , 73-C ) :   1.0863 B( 73-C , 74-C ) :   1.6186
B( 73-C , 75-Br) :   1.0232 B( 74-C , 93-H ) :   1.0002

-----------------------------------------------------------------------------
         ABSORPTION SPECTRUM VIA TRANSITION ELECTRIC DIPOLE MOMENTS
-----------------------------------------------------------------------------
State   Energy  Wavelength   fosc         T2         TX        TY        TZ
        (cm-1)    (nm)                  (au**2)     (au)      (au)      (au)
-----------------------------------------------------------------------------
   0   16714.2    598.3   0.213115241   4.19764  -1.44221   1.42770  -0.28166
   1   17556.3    569.6   0.142045018   2.66360  -0.59694   0.52865   1.42400
   2   19365.0    516.4   0.626114831  10.64418   3.16327   0.02944  -0.79813
   3   20121.7    497.0   0.028710945   0.46974   0.57816  -0.05065  -0.36456
   4   21226.0    471.1   0.193819587   3.00611   0.16992  -1.52981   0.79808
   5   23409.3    427.2   0.007928406   0.11150   0.05783   0.29809  -0.13892
   6   23909.1    418.3   0.196581384   2.70680  -0.57298   0.43665   1.47913
   7   24990.5    400.2   0.188964663   2.48932  -1.10188  -0.04490  -1.12835
   8   25207.5    396.7   0.129241353   1.68790  -0.80558  -0.74536   0.69526
   9   25831.8    387.1   0.014220526   0.18123  -0.27108   0.04028  -0.32577
  10   25852.0    386.8   0.301814711   3.84346   0.46911   0.49689   1.83752
  11   26134.6    382.6   0.109122636   1.37460  -1.09512   0.05664   0.41486
  12   26476.5    377.7   0.009208967   0.11451   0.13000  -0.28074   0.13707
  13   26870.1    372.2   0.146272645   1.79213  -0.11429  -0.05402   1.33272
  14   27121.5    368.7   0.034438221   0.41803  -0.06924   0.08006  -0.63782
  15   27426.8    364.6   0.038563780   0.46289  -0.65777   0.13890  -0.10458
  16   27786.3    359.9   0.269116236   3.18848   1.29340   0.09736   1.22724
  17   28222.7    354.3   0.016668257   0.19443  -0.12189   0.15466  -0.39453
  18   28334.6    352.9   0.057829827   0.67191   0.34937  -0.12624  -0.73070
  19   28652.5    349.0   0.055270744   0.63505   0.45449   0.63641   0.15322
  20   29411.1    340.0   0.130252947   1.45798  -1.11937  -0.24690   0.37951
  21   29599.5    337.8   0.139199413   1.54820  -0.00895   0.07048  -1.24224
  22   29785.1    335.7   0.018359854   0.20293  -0.28826  -0.07321  -0.33834
  23   30433.7    328.6   0.071923404   0.77802  -0.46677   0.47261  -0.58033
  24   31029.6    322.3   0.302199885   3.20622  -1.13446  -1.07828   0.86979
  25   31530.2    317.2   0.720782035   7.52579   0.86075   1.02886  -2.39298
  26   32046.6    312.0   0.450735694   4.63036   1.54150   0.08031   1.49923
  27   32681.5    306.0   0.046374142   0.46714  -0.27943  -0.61586  -0.09892
  28   32808.1    304.8   0.584271553   5.86286   1.84589   0.12042  -1.56239
  29   33056.0    302.5   0.459388071   4.57515  -1.70040   0.60817   1.14626
  30   33440.8    299.0   0.056625483   0.55746   0.29318   0.53777  -0.42697
  31   33598.8    297.6   0.024670031   0.24172  -0.20453   0.01289   0.44691
  32   33772.7    296.1   0.014169286   0.13812   0.18535   0.06403   0.31570
  33   33915.3    294.9   0.323833434   3.14341   1.13615  -0.42304  -1.29369
  34   34379.3    290.9   0.106147525   1.01646   0.38628  -0.02913   0.93080
  35   34823.6    287.2   0.019915895   0.18828   0.18603  -0.37753  -0.10556
  36   35009.1    285.6   0.176530422   1.66002   1.23058  -0.18839  -0.33198
  37   35337.2    283.0   0.120598088   1.12353   0.70116  -0.59552  -0.52656
  38   35379.6    282.6   0.029917448   0.27839  -0.44369   0.06510   0.27801
  39   35556.0    281.2   0.108654067   1.00603  -0.36101   0.05117   0.93439
  40   35738.3    279.8   0.090982748   0.83811   0.73945  -0.27555  -0.46410
  41   35993.3    277.8   0.044680713   0.40867  -0.33511   0.42002  -0.34635
  42   36224.9    276.1   0.178471573   1.62195  -0.10471  -0.57762  -1.13019
  43   36338.1    275.2   0.015305949   0.13867   0.26587   0.25951  -0.02517
  44   36477.5    274.1   0.074209449   0.66975   0.73892   0.30819  -0.16957
  45   37042.2    270.0   0.048031176   0.42688   0.41798   0.11202   0.48951
  46   37502.6    266.6   0.100342769   0.88085  -0.71309  -0.41730  -0.44521
  47   37598.4    266.0   0.168799972   1.47801   1.03038  -0.61595  -0.19218
  48   37852.0    264.2   0.032271145   0.28067   0.16014   0.26629  -0.42909
  49   38104.9    262.4   0.054034378   0.46684   0.10388   0.65154   0.17762
  50   38239.1    261.5   0.116843972   1.00594  -0.82031   0.39377   0.42189
  51   38372.9    260.6   0.251515534   2.15782  -0.87648  -0.02584  -1.17853
  52   38464.6    260.0   0.143166419   1.22534   0.65143   0.55253  -0.70405
  53   38621.4    258.9   0.110898373   0.94531  -0.54015   0.46878  -0.65863
  54   38835.1    257.5   0.051919031   0.44013  -0.05258   0.28113   0.59861
  55   39261.2    254.7   0.034558333   0.28978  -0.05487   0.09889  -0.52630
  56   39458.2    253.4   0.061392082   0.51221  -0.06522   0.00148   0.71271
  57   40006.9    250.0   0.088578002   0.72890   0.17465   0.57326  -0.60809
  58   40146.9    249.1   0.077251808   0.63348   0.26191   0.35838  -0.66064

FINAL SINGLE POINT ENERGY    -10342.011655011238

DIPOLE MOMENT
-------------
                                X             Y             Z
Electronic contribution:    -22.17608     -28.23667     -36.96328
Nuclear contribution   :     21.92634      30.41058      40.93035
                        -----------------------------------------
Total Dipole Moment    :     -0.24974       2.17391       3.96707
                        -----------------------------------------
Magnitude (a.u.)       :      4.53056
Magnitude (Debye)      :     11.51576

Rotational constants in cm-1:     0.001065     0.000186     0.000173
Rotational constants in MHz :    31.939690     5.574056     5.192995

                             ****ORCA TERMINATED NORMALLY****
TOTAL RUN TIME: 0 days 0 hours 9 minutes 52 seconds 363 msec
