                         Program Version 4.2.0 -  RELEASE  -
|  1> # ORCA input file
|  2> # SCF done       -204.402730459573          0.000897421975
|  3> ! CAM-B3LYP def2-SVP def2/J RIJCOSX Grid4 TightSCF
|  4> %maxcore 5000
|  5> %tddft
|  6>     Mode sTDDFT
|  7>     Ethresh 5.0
|  8>     maxcore 5000
|  9> end
| 10>
| 11> %pal
| 12>   nprocs 6
| 13>   end
| 14> * xyz 0 1
| 15>    C       -0.83439        -0.59288        -0.71779
| 16>    C       -1.18539        -1.91064        -0.83214
| 17>    C       -0.25834        -2.97130        -0.92039
| 18>    N        0.45032        -3.87017        -1.00399
| 19>    C       -2.51247        -2.39215        -0.85177
| 20>    N       -3.56177        -2.85738        -0.85328
| 21>    C        0.52044        -0.07141        -0.60955
| 22>    C        0.45993         1.32743        -0.38894
| 23>    C        1.58384         2.10335        -0.23616
| 24>    C        2.82819         1.46885        -0.29853
| 25>    C        2.88020         0.07108        -0.52349
| 26>    C        1.74460        -0.71237        -0.68174
| 27>    S        4.51731        -0.50724        -0.57200
| 28>    C        5.10212         1.11130        -0.29038
| 29>    C        4.12319         2.03951        -0.16705
| 30>   Br        6.94771         1.42280        -0.18876
| 31>    C       -0.94590         1.76776        -0.36939
| 32>    O       -1.34878         2.90576        -0.29741
| 33>    C       -1.75176         0.52941        -0.59107
| 34>    C       -3.08685         0.52593        -0.81767
| 35>    C       -3.96344         1.63428        -0.54408
| 36>    C       -3.90032         2.41020         0.60310
| 37>    F       -3.03847         2.09834         1.57581
| 38>    C       -4.77223         3.47970         0.84416
| 39>    F       -4.61234         4.14108         2.00436
| 40>    C       -5.77668         3.87660        -0.03302
| 41>    C       -5.89391         3.07353        -1.20491
| 42>    C       -5.01007         1.96382        -1.44016
| 43>    N       -5.27987         1.34227        -2.58571
| 44>    S       -6.52510         2.06721        -3.29185
| 45>    N       -6.77664         3.20816        -2.19203
| 46>    C       -6.63855         4.99168         0.20966
| 47>    C       -7.67416         5.42503        -0.60394
| 48>    C       -8.30824         6.54963        -0.08738
| 49>    C       -7.74950         6.97872         1.13308
| 50>    S       -6.45593         5.99875         1.63991
| 51>    C       -8.45527         8.12737         1.57188
| 52>    C       -9.46052         8.42229         0.62919
| 53>    C       -9.40233         7.43987        -0.44149
| 54>    C      -10.20471         7.36716        -1.54176
| 55>    C      -10.05053         6.36058        -2.51912
| 56>    N       -9.93198         5.54653        -3.31758
| 57>    C      -11.24674         8.29025        -1.77506
| 58>    N      -12.09765         9.03299        -1.97176
| 59>    C      -10.20684         9.54453         0.97092
| 60>    C       -9.78092        10.10925         2.16342
| 61>    S       -8.43345         9.22607         2.86885
| 62>    C      -10.31689        11.27669         2.78969
| 63>    C       -9.83783        11.79043         3.98988
| 64>    F       -8.84362        11.15381         4.63609
| 65>    C      -10.32086        12.96086         4.58432
| 66>    F       -9.76295        13.32271         5.75203
| 67>    C      -11.34951        13.71969         4.04650
| 68>    C      -11.90997        13.19768         2.85258
| 69>    C      -11.39399        12.01507         2.21870
| 70>    N      -12.04942        11.74305         1.09276
| 71>    S      -13.18362        12.85215         0.85556
| 72>    N      -12.91289        13.73732         2.16523
| 73>    C      -11.89035        14.91316         4.63120
| 74>    C      -11.28013        15.86364         5.37585
| 75>    C       -9.88838        16.15895         5.66593
| 76>    C       -8.81424        15.89998         4.85828
| 77>    C       -7.49546        16.31099         5.14833
| 78>    N       -6.40806        16.62470         5.33595
| 79>    C       -8.90510        15.26044         3.60640
| 80>    N       -8.93167        14.75600         2.57531
| 81>    C       -9.86550        16.99750         6.85731
| 82>    C      -11.18966        17.41049         7.15430
| 83>    C      -12.11997        16.79967         6.18722
| 84>    O      -13.31106        16.96735         6.08734
| 85>    C      -11.48303        18.23991         8.21022
| 86>    C      -10.42360        18.67200         9.01462
| 87>    C       -9.10707        18.24067         8.71818
| 88>    C       -8.80827        17.40860         7.64676
| 89>    S       -7.95473        18.88261         9.84727
| 90>    C       -9.23577        19.71458        10.68844
| 91>    C      -10.46528        19.52105        10.15395
| 92>   Br       -8.82949        20.75753        12.19201
| 93>    H        1.50362         3.16586        -0.06838
| 94>    H        1.83609        -1.77134        -0.85651
| 95>    H        4.30533         3.08391         0.00898
| 96>    H       -3.56535        -0.32868        -1.27782
| 97>    H       -7.92628         4.92546        -1.52092
| 98>    H      -11.02006         9.95751         0.40338
| 99>    H      -12.95588        15.05049         4.47505
|100>    H      -12.49806        18.54493         8.41064
|101>    H       -7.79341        17.09664         7.46360
|102>    H      -11.36544        19.95779        10.54612
|103> *
|104>
|105>                          ****END OF INPUT****

CARTESIAN COORDINATES (ANGSTROEM)
---------------------------------
  C     -0.834390   -0.592880   -0.717790
  C     -1.185390   -1.910640   -0.832140
  C     -0.258340   -2.971300   -0.920390
  N      0.450320   -3.870170   -1.003990
  C     -2.512470   -2.392150   -0.851770
  N     -3.561770   -2.857380   -0.853280
  C      0.520440   -0.071410   -0.609550
  C      0.459930    1.327430   -0.388940
  C      1.583840    2.103350   -0.236160
  C      2.828190    1.468850   -0.298530
  C      2.880200    0.071080   -0.523490
  C      1.744600   -0.712370   -0.681740
  S      4.517310   -0.507240   -0.572000
  C      5.102120    1.111300   -0.290380
  C      4.123190    2.039510   -0.167050
  Br     6.947710    1.422800   -0.188760
  C     -0.945900    1.767760   -0.369390
  O     -1.348780    2.905760   -0.297410
  C     -1.751760    0.529410   -0.591070
  C     -3.086850    0.525930   -0.817670
  C     -3.963440    1.634280   -0.544080
  C     -3.900320    2.410200    0.603100
  F     -3.038470    2.098340    1.575810
  C     -4.772230    3.479700    0.844160
  F     -4.612340    4.141080    2.004360
  C     -5.776680    3.876600   -0.033020
  C     -5.893910    3.073530   -1.204910
  C     -5.010070    1.963820   -1.440160
  N     -5.279870    1.342270   -2.585710
  S     -6.525100    2.067210   -3.291850
  N     -6.776640    3.208160   -2.192030
  C     -6.638550    4.991680    0.209660
  C     -7.674160    5.425030   -0.603940
  C     -8.308240    6.549630   -0.087380
  C     -7.749500    6.978720    1.133080
  S     -6.455930    5.998750    1.639910
  C     -8.455270    8.127370    1.571880
  C     -9.460520    8.422290    0.629190
  C     -9.402330    7.439870   -0.441490
  C    -10.204710    7.367160   -1.541760
  C    -10.050530    6.360580   -2.519120
  N     -9.931980    5.546530   -3.317580
  C    -11.246740    8.290250   -1.775060
  N    -12.097650    9.032990   -1.971760
  C    -10.206840    9.544530    0.970920
  C     -9.780920   10.109250    2.163420
  S     -8.433450    9.226070    2.868850
  C    -10.316890   11.276690    2.789690
  C     -9.837830   11.790430    3.989880
  F     -8.843620   11.153810    4.636090
  C    -10.320860   12.960860    4.584320
  F     -9.762950   13.322710    5.752030
  C    -11.349510   13.719690    4.046500
  C    -11.909970   13.197680    2.852580
  C    -11.393990   12.015070    2.218700
  N    -12.049420   11.743050    1.092760
  S    -13.183620   12.852150    0.855560
  N    -12.912890   13.737320    2.165230
  C    -11.890350   14.913160    4.631200
  C    -11.280130   15.863640    5.375850
  C     -9.888380   16.158950    5.665930
  C     -8.814240   15.899980    4.858280
  C     -7.495460   16.310990    5.148330
  N     -6.408060   16.624700    5.335950
  C     -8.905100   15.260440    3.606400
  N     -8.931670   14.756000    2.575310
  C     -9.865500   16.997500    6.857310
  C    -11.189660   17.410490    7.154300
  C    -12.119970   16.799670    6.187220
  O    -13.311060   16.967350    6.087340
  C    -11.483030   18.239910    8.210220
  C    -10.423600   18.672000    9.014620
  C     -9.107070   18.240670    8.718180
  C     -8.808270   17.408600    7.646760
  S     -7.954730   18.882610    9.847270
  C     -9.235770   19.714580   10.688440
  C    -10.465280   19.521050   10.153950
  Br    -8.829490   20.757530   12.192010
  H      1.503620    3.165860   -0.068380
  H      1.836090   -1.771340   -0.856510
  H      4.305330    3.083910    0.008980
  H     -3.565350   -0.328680   -1.277820
  H     -7.926280    4.925460   -1.520920
  H    -11.020060    9.957510    0.403380
  H    -12.955880   15.050490    4.475050
  H    -12.498060   18.544930    8.410640
  H     -7.793410   17.096640    7.463600
  H    -11.365440   19.957790   10.546120

 Total Charge           Charge          ....    0
 Multiplicity           Mult            ....    1
 Number of Electrons    NEL             ....  622
 Basis Dimension        Dim             .... 1202

ORBITAL ENERGIES
----------------

  NO   OCC          E(Eh)            E(eV)
   0   2.0000    -482.889820    -13140.1000
   1   2.0000    -482.889753    -13140.0982
   2   2.0000     -89.038141     -2422.8510
   3   2.0000     -89.038113     -2422.8502
   4   2.0000     -88.992511     -2421.6093
   5   2.0000     -88.992400     -2421.6063
   6   2.0000     -88.980861     -2421.2923
   7   2.0000     -88.980491     -2421.2822
   8   2.0000     -62.567542     -1702.5494
   9   2.0000     -62.567452     -1702.5469
  10   2.0000     -56.401500     -1534.7628
  11   2.0000     -56.401411     -1534.7604
  12   2.0000     -56.398771     -1534.6886
  13   2.0000     -56.398740     -1534.6877
  14   2.0000     -56.398680     -1534.6861
  15   2.0000     -56.398652     -1534.6854
  16   2.0000     -24.822392      -675.4516
  17   2.0000     -24.820548      -675.4014
  18   2.0000     -24.818675      -675.3505
  19   2.0000     -24.811966      -675.1679
  20   2.0000     -19.224498      -523.1252
  21   2.0000     -19.223193      -523.0897
  22   2.0000     -14.454368      -393.3233
  23   2.0000     -14.453680      -393.3046
  24   2.0000     -14.452136      -393.2626
  25   2.0000     -14.451697      -393.2507
  26   2.0000     -14.429076      -392.6351
  27   2.0000     -14.428983      -392.6326
  28   2.0000     -14.425881      -392.5482
  29   2.0000     -14.422960      -392.4687
  30   2.0000     -14.421617      -392.4322
  31   2.0000     -14.420534      -392.4027
  32   2.0000     -10.401790      -283.0471
  33   2.0000     -10.399296      -282.9792
  34   2.0000     -10.394868      -282.8587
  35   2.0000     -10.393421      -282.8194
  36   2.0000     -10.375022      -282.3187
  37   2.0000     -10.373698      -282.2827
  38   2.0000     -10.364219      -282.0247
  39   2.0000     -10.363979      -282.0182
  40   2.0000     -10.363972      -282.0180
  41   2.0000     -10.352044      -281.6934
  42   2.0000     -10.351796      -281.6867
  43   2.0000     -10.350473      -281.6507
  44   2.0000     -10.349008      -281.6108
  45   2.0000     -10.347462      -281.5687
  46   2.0000     -10.346537      -281.5436
  47   2.0000     -10.346314      -281.5375
  48   2.0000     -10.344392      -281.4852
  49   2.0000     -10.344062      -281.4762
  50   2.0000     -10.335934      -281.2551
  51   2.0000     -10.335914      -281.2545
  52   2.0000     -10.334471      -281.2152
  53   2.0000     -10.334263      -281.2096
  54   2.0000     -10.331991      -281.1478
  55   2.0000     -10.331550      -281.1358
  56   2.0000     -10.331548      -281.1357
  57   2.0000     -10.331234      -281.1272
  58   2.0000     -10.329249      -281.0732
  59   2.0000     -10.329150      -281.0704
  60   2.0000     -10.327282      -281.0196
  61   2.0000     -10.326063      -280.9865
  62   2.0000     -10.325174      -280.9623
  63   2.0000     -10.325110      -280.9605
  64   2.0000     -10.323810      -280.9252
  65   2.0000     -10.322572      -280.8915
  66   2.0000     -10.322181      -280.8808
  67   2.0000     -10.317383      -280.7503
  68   2.0000     -10.315473      -280.6983
  69   2.0000     -10.314873      -280.6820
  70   2.0000     -10.313630      -280.6481
  71   2.0000     -10.313528      -280.6454
  72   2.0000     -10.312115      -280.6069
  73   2.0000     -10.311657      -280.5944
  74   2.0000     -10.308904      -280.5195
  75   2.0000     -10.308859      -280.5183
  76   2.0000     -10.307815      -280.4899
  77   2.0000     -10.307083      -280.4700
  78   2.0000     -10.304187      -280.3912
  79   2.0000     -10.304085      -280.3884
  80   2.0000     -10.301553      -280.3195
  81   2.0000     -10.301410      -280.3156
  82   2.0000     -10.299995      -280.2771
  83   2.0000     -10.299750      -280.2704
  84   2.0000     -10.299702      -280.2691
  85   2.0000     -10.298941      -280.2484
  86   2.0000      -8.796979      -239.3780
  87   2.0000      -8.796870      -239.3750
  88   2.0000      -8.129774      -221.2224
  89   2.0000      -8.129745      -221.2216
  90   2.0000      -8.086574      -220.0469
  91   2.0000      -8.086469      -220.0440
  92   2.0000      -8.076900      -219.7836
  93   2.0000      -8.076548      -219.7741
  94   2.0000      -6.633322      -180.5019
  95   2.0000      -6.633206      -180.4987
  96   2.0000      -6.618698      -180.1039
  97   2.0000      -6.618603      -180.1014
  98   2.0000      -6.618481      -180.0980
  99   2.0000      -6.618363      -180.0948
 100   2.0000      -6.101036      -166.0176
 101   2.0000      -6.100997      -166.0166
 102   2.0000      -6.093181      -165.8039
 103   2.0000      -6.093148      -165.8030
 104   2.0000      -6.092169      -165.7763
 105   2.0000      -6.092103      -165.7746
 106   2.0000      -6.055851      -164.7881
 107   2.0000      -6.055774      -164.7860
 108   2.0000      -6.051427      -164.6677
 109   2.0000      -6.051336      -164.6652
 110   2.0000      -6.049040      -164.6028
 111   2.0000      -6.048980      -164.6011
 112   2.0000      -6.046600      -164.5363
 113   2.0000      -6.046234      -164.5264
 114   2.0000      -6.042292      -164.4191
 115   2.0000      -6.041956      -164.4100
 116   2.0000      -6.038113      -164.3054
 117   2.0000      -6.037752      -164.2956
 118   2.0000      -2.749170       -74.8087
 119   2.0000      -2.749065       -74.8059
 120   2.0000      -2.745084       -74.6975
 121   2.0000      -2.744995       -74.6951
 122   2.0000      -2.744934       -74.6935
 123   2.0000      -2.744800       -74.6898
 124   2.0000      -2.733311       -74.3772
 125   2.0000      -2.733295       -74.3767
 126   2.0000      -2.733196       -74.3741
 127   2.0000      -2.733187       -74.3738
 128   2.0000      -1.344121       -36.5754
 129   2.0000      -1.339755       -36.4566
 130   2.0000      -1.326309       -36.0907
 131   2.0000      -1.321453       -35.9586
 132   2.0000      -1.141603       -31.0646
 133   2.0000      -1.141364       -31.0581
 134   2.0000      -1.140174       -31.0257
 135   2.0000      -1.138922       -30.9917
 136   2.0000      -1.046381       -28.4735
 137   2.0000      -1.030239       -28.0342
 138   2.0000      -1.028761       -27.9940
 139   2.0000      -1.021409       -27.7940
 140   2.0000      -1.020864       -27.7791
 141   2.0000      -1.018787       -27.7226
 142   2.0000      -1.009981       -27.4830
 143   2.0000      -1.006093       -27.3772
 144   2.0000      -1.003729       -27.3129
 145   2.0000      -0.999748       -27.2045
 146   2.0000      -0.998923       -27.1821
 147   2.0000      -0.998096       -27.1596
 148   2.0000      -0.996673       -27.1208
 149   2.0000      -0.993913       -27.0457
 150   2.0000      -0.991940       -26.9920
 151   2.0000      -0.982789       -26.7431
 152   2.0000      -0.958184       -26.0735
 153   2.0000      -0.948995       -25.8235
 154   2.0000      -0.948527       -25.8107
 155   2.0000      -0.924810       -25.1654
 156   2.0000      -0.918107       -24.9830
 157   2.0000      -0.914972       -24.8977
 158   2.0000      -0.914072       -24.8732
 159   2.0000      -0.906057       -24.6551
 160   2.0000      -0.892272       -24.2800
 161   2.0000      -0.891730       -24.2652
 162   2.0000      -0.888012       -24.1640
 163   2.0000      -0.882489       -24.0138
 164   2.0000      -0.879039       -23.9199
 165   2.0000      -0.877460       -23.8769
 166   2.0000      -0.868043       -23.6207
 167   2.0000      -0.857970       -23.3465
 168   2.0000      -0.854856       -23.2618
 169   2.0000      -0.844847       -22.9894
 170   2.0000      -0.835288       -22.7293
 171   2.0000      -0.834730       -22.7142
 172   2.0000      -0.811546       -22.0833
 173   2.0000      -0.798546       -21.7295
 174   2.0000      -0.778269       -21.1778
 175   2.0000      -0.776047       -21.1173
 176   2.0000      -0.770529       -20.9672
 177   2.0000      -0.765705       -20.8359
 178   2.0000      -0.759809       -20.6755
 179   2.0000      -0.757744       -20.6193
 180   2.0000      -0.738341       -20.0913
 181   2.0000      -0.736310       -20.0360
 182   2.0000      -0.735114       -20.0035
 183   2.0000      -0.717877       -19.5344
 184   2.0000      -0.711778       -19.3685
 185   2.0000      -0.707416       -19.2498
 186   2.0000      -0.699051       -19.0222
 187   2.0000      -0.697613       -18.9830
 188   2.0000      -0.692364       -18.8402
 189   2.0000      -0.690012       -18.7762
 190   2.0000      -0.682405       -18.5692
 191   2.0000      -0.680855       -18.5270
 192   2.0000      -0.672498       -18.2996
 193   2.0000      -0.667490       -18.1633
 194   2.0000      -0.663832       -18.0638
 195   2.0000      -0.658944       -17.9308
 196   2.0000      -0.654832       -17.8189
 197   2.0000      -0.652657       -17.7597
 198   2.0000      -0.650124       -17.6908
 199   2.0000      -0.648140       -17.6368
 200   2.0000      -0.636443       -17.3185
 201   2.0000      -0.634045       -17.2533
 202   2.0000      -0.630270       -17.1505
 203   2.0000      -0.629228       -17.1222
 204   2.0000      -0.618857       -16.8400
 205   2.0000      -0.614640       -16.7252
 206   2.0000      -0.610996       -16.6260
 207   2.0000      -0.609892       -16.5960
 208   2.0000      -0.606473       -16.5030
 209   2.0000      -0.603124       -16.4118
 210   2.0000      -0.601586       -16.3700
 211   2.0000      -0.596710       -16.2373
 212   2.0000      -0.588466       -16.0130
 213   2.0000      -0.585118       -15.9219
 214   2.0000      -0.576988       -15.7006
 215   2.0000      -0.575685       -15.6652
 216   2.0000      -0.570470       -15.5233
 217   2.0000      -0.565723       -15.3941
 218   2.0000      -0.561456       -15.2780
 219   2.0000      -0.561120       -15.2688
 220   2.0000      -0.559594       -15.2273
 221   2.0000      -0.559243       -15.2178
 222   2.0000      -0.555133       -15.1059
 223   2.0000      -0.553573       -15.0635
 224   2.0000      -0.547188       -14.8897
 225   2.0000      -0.545575       -14.8458
 226   2.0000      -0.544643       -14.8205
 227   2.0000      -0.543994       -14.8028
 228   2.0000      -0.543060       -14.7774
 229   2.0000      -0.535004       -14.5582
 230   2.0000      -0.531167       -14.4538
 231   2.0000      -0.530471       -14.4348
 232   2.0000      -0.525771       -14.3070
 233   2.0000      -0.521288       -14.1850
 234   2.0000      -0.518244       -14.1021
 235   2.0000      -0.517562       -14.0836
 236   2.0000      -0.516230       -14.0473
 237   2.0000      -0.513778       -13.9806
 238   2.0000      -0.512346       -13.9416
 239   2.0000      -0.512261       -13.9393
 240   2.0000      -0.505681       -13.7603
 241   2.0000      -0.504879       -13.7385
 242   2.0000      -0.502072       -13.6621
 243   2.0000      -0.498939       -13.5768
 244   2.0000      -0.498055       -13.5528
 245   2.0000      -0.496951       -13.5227
 246   2.0000      -0.495481       -13.4827
 247   2.0000      -0.492021       -13.3886
 248   2.0000      -0.490108       -13.3365
 249   2.0000      -0.489776       -13.3275
 250   2.0000      -0.483850       -13.1662
 251   2.0000      -0.480499       -13.0751
 252   2.0000      -0.480074       -13.0635
 253   2.0000      -0.474620       -12.9151
 254   2.0000      -0.472212       -12.8495
 255   2.0000      -0.465802       -12.6751
 256   2.0000      -0.463545       -12.6137
 257   2.0000      -0.462700       -12.5907
 258   2.0000      -0.460410       -12.5284
 259   2.0000      -0.458661       -12.4808
 260   2.0000      -0.456146       -12.4124
 261   2.0000      -0.455693       -12.4001
 262   2.0000      -0.453835       -12.3495
 263   2.0000      -0.453245       -12.3334
 264   2.0000      -0.452656       -12.3174
 265   2.0000      -0.449738       -12.2380
 266   2.0000      -0.448968       -12.2170
 267   2.0000      -0.446685       -12.1549
 268   2.0000      -0.444771       -12.1028
 269   2.0000      -0.443826       -12.0771
 270   2.0000      -0.441133       -12.0038
 271   2.0000      -0.439249       -11.9526
 272   2.0000      -0.437845       -11.9144
 273   2.0000      -0.435611       -11.8536
 274   2.0000      -0.435064       -11.8387
 275   2.0000      -0.432548       -11.7702
 276   2.0000      -0.430809       -11.7229
 277   2.0000      -0.429996       -11.7008
 278   2.0000      -0.429331       -11.6827
 279   2.0000      -0.424783       -11.5589
 280   2.0000      -0.419679       -11.4200
 281   2.0000      -0.418673       -11.3927
 282   2.0000      -0.416668       -11.3381
 283   2.0000      -0.416013       -11.3203
 284   2.0000      -0.412543       -11.2259
 285   2.0000      -0.411416       -11.1952
 286   2.0000      -0.408569       -11.1177
 287   2.0000      -0.393630       -10.7112
 288   2.0000      -0.393161       -10.6985
 289   2.0000      -0.384054       -10.4506
 290   2.0000      -0.382723       -10.4144
 291   2.0000      -0.381014       -10.3679
 292   2.0000      -0.379296       -10.3212
 293   2.0000      -0.379155       -10.3173
 294   2.0000      -0.378886       -10.3100
 295   2.0000      -0.374335       -10.1862
 296   2.0000      -0.357759        -9.7351
 297   2.0000      -0.351288        -9.5590
 298   2.0000      -0.349412        -9.5080
 299   2.0000      -0.348171        -9.4742
 300   2.0000      -0.343386        -9.3440
 301   2.0000      -0.340175        -9.2566
 302   2.0000      -0.337722        -9.1899
 303   2.0000      -0.324249        -8.8233
 304   2.0000      -0.322331        -8.7711
 305   2.0000      -0.320914        -8.7325
 306   2.0000      -0.320823        -8.7300
 307   2.0000      -0.300402        -8.1744
 308   2.0000      -0.299255        -8.1431
 309   2.0000      -0.296048        -8.0559
 310   2.0000      -0.258223        -7.0266
 311   0.0000      -0.115950        -3.1551
 312   0.0000      -0.100432        -2.7329
 313   0.0000      -0.097599        -2.6558
 314   0.0000      -0.076879        -2.0920
 315   0.0000      -0.073869        -2.0101

MULLIKEN ATOMIC CHARGES
-----------------------
   0 C :    0.294876
   1 C :   -0.327587
   2 C :   -0.187648
   3 N :    0.159185
   4 C :   -0.201669
   5 N :    0.166390
   6 C :    0.021120
   7 C :   -0.020770
   8 C :   -0.065003
   9 C :    0.116722
  10 C :   -0.088632
  11 C :   -0.020213
  12 S :    0.190054
  13 C :   -0.122890
  14 C :    0.039430
  15 Br:    0.028883
  16 C :    0.150971
  17 O :   -0.145403
  18 C :   -0.076103
  19 C :   -0.032780
  20 C :   -0.027015
  21 C :    0.219918
  22 F :   -0.155199
  23 C :    0.119890
  24 F :   -0.174015
  25 C :    0.122301
  26 C :    0.002315
  27 C :    0.009595
  28 N :   -0.267370
  29 S :    0.543621
  30 N :   -0.281740
  31 C :   -0.149492
  32 C :   -0.050433
  33 C :    0.031509
  34 C :   -0.092082
  35 S :    0.213843
  36 C :   -0.091635
  37 C :    0.032507
  38 C :    0.312146
  39 C :   -0.304200
  40 C :   -0.189666
  41 N :    0.176036
  42 C :   -0.187950
  43 N :    0.174062
  44 C :   -0.052227
  45 C :   -0.148987
  46 S :    0.213737
  47 C :    0.139041
  48 C :    0.133197
  49 F :   -0.175440
  50 C :    0.167039
  51 F :   -0.161251
  52 C :   -0.012362
  53 C :    0.021660
  54 C :    0.001462
  55 N :   -0.281347
  56 S :    0.545107
  57 N :   -0.262476
  58 C :    0.006436
  59 C :   -0.098820
  60 C :    0.280770
  61 C :   -0.328082
  62 C :   -0.180771
  63 N :    0.159564
  64 C :   -0.193842
  65 N :    0.162163
  66 C :    0.005308
  67 C :    0.003048
  68 C :    0.129520
  69 O :   -0.133447
  70 C :   -0.068110
  71 C :    0.112826
  72 C :   -0.085817
  73 C :   -0.019693
  74 S :    0.189104
  75 C :   -0.126871
  76 C :    0.043783
  77 Br:    0.027841
  78 H :   -0.007396
  79 H :   -0.004859
  80 H :   -0.000667
  81 H :    0.051656
  82 H :    0.025806
  83 H :    0.025412
  84 H :    0.041779
  85 H :   -0.006622
  86 H :   -0.001266
  87 H :   -0.001785
Sum of atomic charges:   -0.0000000

LOEWDIN ATOMIC CHARGES
----------------------
   0 C :    0.073106
   1 C :   -0.129155
   2 C :   -0.017922
   3 N :   -0.046474
   4 C :   -0.022837
   5 N :   -0.041726
   6 C :   -0.020714
   7 C :   -0.050592
   8 C :    0.024605
   9 C :   -0.030751
  10 C :   -0.142209
  11 C :   -0.008414
  12 S :    0.435797
  13 C :   -0.269867
  14 C :   -0.069880
  15 Br:    0.141071
  16 C :    0.083282
  17 O :   -0.135153
  18 C :   -0.075346
  19 C :    0.080655
  20 C :   -0.072162
  21 C :    0.099029
  22 F :   -0.028428
  23 C :    0.057765
  24 F :   -0.047929
  25 C :   -0.046208
  26 C :   -0.043176
  27 C :   -0.039114
  28 N :   -0.282712
  29 S :    0.668621
  30 N :   -0.271907
  31 C :   -0.171176
  32 C :   -0.007967
  33 C :   -0.069300
  34 C :   -0.178653
  35 S :    0.498742
  36 C :   -0.178588
  37 C :   -0.069199
  38 C :    0.080494
  39 C :   -0.100184
  40 C :   -0.017200
  41 N :   -0.031072
  42 C :   -0.017031
  43 N :   -0.030918
  44 C :   -0.006833
  45 C :   -0.169676
  46 S :    0.499018
  47 C :   -0.041659
  48 C :    0.058270
  49 F :   -0.049071
  50 C :    0.087521
  51 F :   -0.033478
  52 C :   -0.072740
  53 C :   -0.035692
  54 C :   -0.037268
  55 N :   -0.270902
  56 S :    0.670912
  57 N :   -0.278327
  58 C :    0.074697
  59 C :   -0.073529
  60 C :    0.069491
  61 C :   -0.133098
  62 C :   -0.019006
  63 N :   -0.045829
  64 C :   -0.015624
  65 N :   -0.049327
  66 C :   -0.017151
  67 C :   -0.053694
  68 C :    0.085694
  69 O :   -0.131734
  70 C :    0.025210
  71 C :   -0.031961
  72 C :   -0.141840
  73 C :   -0.009975
  74 S :    0.435310
  75 C :   -0.270696
  76 C :   -0.069388
  77 Br:    0.140315
  78 H :    0.042217
  79 H :    0.041567
  80 H :    0.039808
  81 H :    0.051738
  82 H :    0.039431
  83 H :    0.039628
  84 H :    0.054832
  85 H :    0.042442
  86 H :    0.041611
  87 H :    0.039584

  Mayer bond orders larger than 0.100000
B(  0-C ,  1-C ) :   1.6625 B(  0-C ,  6-C ) :   1.0167 B(  0-C , 18-C ) :   1.0401
B(  1-C ,  2-C ) :   1.1359 B(  1-C ,  4-C ) :   1.1409 B(  2-C ,  3-N ) :   2.9751
B(  4-C ,  5-N ) :   2.9872 B(  6-C ,  7-C ) :   1.2684 B(  6-C , 11-C ) :   1.4043
B(  7-C ,  8-C ) :   1.4227 B(  7-C , 16-C ) :   0.9520 B(  8-C ,  9-C ) :   1.2503
B(  8-C , 78-H ) :   1.0163 B(  9-C , 10-C ) :   1.2975 B(  9-C , 14-C ) :   1.1650
B( 10-C , 11-C ) :   1.3376 B( 10-C , 12-S ) :   1.0877 B( 11-C , 79-H ) :   0.9798
B( 12-S , 13-C ) :   1.0865 B( 13-C , 14-C ) :   1.6162 B( 13-C , 15-Br) :   1.0217
B( 14-C , 80-H ) :   1.0002 B( 16-C , 17-O ) :   2.2180 B( 16-C , 18-C ) :   0.9290
B( 18-C , 19-C ) :   1.6884 B( 19-C , 20-C ) :   1.0806 B( 19-C , 81-H ) :   0.9401
B( 20-C , 21-C ) :   1.3934 B( 20-C , 25-C ) :   0.1231 B( 20-C , 27-C ) :   1.1779
B( 21-C , 22-F ) :   1.1680 B( 21-C , 23-C ) :   1.1656 B( 23-C , 24-F ) :   1.1295
B( 23-C , 25-C ) :   1.3715 B( 25-C , 26-C ) :   1.1703 B( 25-C , 31-C ) :   1.1564
B( 26-C , 27-C ) :   1.1444 B( 26-C , 30-N ) :   1.5427 B( 27-C , 28-N ) :   1.5748
B( 28-N , 29-S ) :   1.2635 B( 28-N , 30-N ) :   0.1432 B( 29-S , 30-N ) :   1.2652
B( 31-C , 32-C ) :   1.4575 B( 31-C , 35-S ) :   1.0902 B( 32-C , 33-C ) :   1.2662
B( 32-C , 82-H ) :   0.9790 B( 33-C , 34-C ) :   1.4202 B( 33-C , 38-C ) :   0.9942
B( 34-C , 35-S ) :   1.1205 B( 34-C , 36-C ) :   1.1902 B( 36-C , 37-C ) :   1.4205
B( 36-C , 46-S ) :   1.1229 B( 37-C , 38-C ) :   0.9936 B( 37-C , 44-C ) :   1.2685
B( 38-C , 39-C ) :   1.7117 B( 39-C , 40-C ) :   1.1386 B( 39-C , 42-C ) :   1.1373
B( 40-C , 41-N ) :   2.9875 B( 42-C , 43-N ) :   2.9871 B( 44-C , 45-C ) :   1.4562
B( 44-C , 83-H ) :   0.9790 B( 45-C , 46-S ) :   1.0880 B( 45-C , 47-C ) :   1.1587
B( 47-C , 48-C ) :   1.3781 B( 47-C , 52-C ) :   0.1246 B( 47-C , 54-C ) :   1.1678
B( 48-C , 49-F ) :   1.1318 B( 48-C , 50-C ) :   1.1734 B( 50-C , 51-F ) :   1.1477
B( 50-C , 52-C ) :   1.3710 B( 52-C , 53-C ) :   1.1748 B( 52-C , 58-C ) :   1.0689
B( 53-C , 54-C ) :   1.1460 B( 53-C , 57-N ) :   1.5876 B( 54-C , 55-N ) :   1.5461
B( 55-N , 56-S ) :   1.2648 B( 55-N , 57-N ) :   0.1419 B( 56-S , 57-N ) :   1.2653
B( 58-C , 59-C ) :   1.7098 B( 58-C , 84-H ) :   0.9397 B( 59-C , 60-C ) :   1.0199
B( 59-C , 68-C ) :   0.9263 B( 60-C , 61-C ) :   1.6606 B( 60-C , 66-C ) :   1.0214
B( 61-C , 62-C ) :   1.1262 B( 61-C , 64-C ) :   1.1741 B( 62-C , 63-N ) :   2.9931
B( 64-C , 65-N ) :   2.9908 B( 66-C , 67-C ) :   1.2703 B( 66-C , 73-C ) :   1.4092
B( 67-C , 68-C ) :   0.9237 B( 67-C , 70-C ) :   1.4225 B( 68-C , 69-O ) :   2.2767
B( 70-C , 71-C ) :   1.2544 B( 70-C , 85-H ) :   1.0167 B( 71-C , 72-C ) :   1.3018
B( 71-C , 76-C ) :   1.1631 B( 72-C , 73-C ) :   1.3329 B( 72-C , 74-S ) :   1.0854
B( 73-C , 86-H ) :   0.9834 B( 74-S , 75-C ) :   1.0878 B( 75-C , 76-C ) :   1.6178
B( 75-C , 77-Br) :   1.0215 B( 76-C , 87-H ) :   1.0007

-----------------------------------------------------------------------------
         ABSORPTION SPECTRUM VIA TRANSITION ELECTRIC DIPOLE MOMENTS
-----------------------------------------------------------------------------
State   Energy  Wavelength   fosc         T2         TX        TY        TZ
        (cm-1)    (nm)                  (au**2)     (au)      (au)      (au)
-----------------------------------------------------------------------------
   0   14074.5    710.5   0.542192662  12.68224   1.71727  -2.90062  -1.14876
   1   18101.9    552.4   1.319215389  23.99201  -2.24092   4.04256   1.62110
   2   20402.1    490.1   0.262667579   4.23845  -1.85271  -0.12342  -0.88920
   3   24886.5    401.8   0.043259986   0.57227  -0.70147  -0.02364  -0.28221
   4   25344.0    394.6   0.013445029   0.17465   0.40104  -0.10596   0.05087
   5   26010.4    384.5   0.044341640   0.56123   0.63167   0.27221   0.29685
   6   26459.2    377.9   0.137083550   1.70563   1.08481  -0.04042  -0.72607
   7   26870.1    372.2   0.176776110   2.16586   0.58675   1.02477   0.87831
   8   27384.2    365.2   0.051455207   0.61859  -0.55450   0.03582   0.55663
   9   28963.1    345.3   0.076011474   0.86399  -0.39653  -0.64347  -0.54102
  10   29288.1    341.4   0.016397352   0.18431   0.17785   0.30218   0.24773
  11   29360.0    340.6   0.030636915   0.34353   0.17614  -0.55114   0.09356
  12   29479.8    339.2   0.041699368   0.46567  -0.23226  -0.57206  -0.29064
  13   30017.4    333.1   0.007229169   0.07928   0.06876  -0.11897  -0.24577
  14   30382.3    329.1   0.191179563   2.07156   0.42549  -0.83153  -1.09502
  15   30979.2    322.8   0.562894354   5.98180   2.21531  -0.46938   0.92406
  16   31006.4    322.5   0.172602283   1.83261   0.44731   0.81520   0.98386
  17   31477.1    317.7   0.082528026   0.86314  -0.66901   0.35652   0.53708
  18   32381.3    308.8   0.738943764   7.51263  -0.53411  -1.62796  -2.13942
  19   32446.4    308.2   0.431809185   4.38128  -1.69375  -1.16871   0.38291
  20   32670.1    306.1   0.076441781   0.77029  -0.50681   0.71542   0.04021
  21   32862.9    304.3   0.085919519   0.86072  -0.82519   0.01828  -0.42361
  22   33260.7    300.7   0.096537193   0.95552  -0.45991   0.15294   0.84889
  23   33295.4    300.3   0.061184529   0.60497  -0.17074   0.10247   0.75188
  24   33527.1    298.3   0.103338317   1.01471  -0.10032  -0.50080  -0.86824
  25   33808.7    295.8   0.040814393   0.39743   0.21764   0.51832   0.28533
  26   33938.7    294.6   0.078518865   0.76165   0.14876  -0.08762  -0.85548
  27   33971.9    294.4   0.195433939   1.89389   0.78454   0.03131   1.13022
  28   34442.4    290.3   0.027075045   0.25879  -0.32860   0.38652  -0.03768
  29   34898.3    286.5   0.003627500   0.03422   0.18129  -0.03510  -0.01100
  30   35200.7    284.1   0.050993029   0.47691   0.17952   0.59317   0.30468
  31   35468.3    281.9   0.070838120   0.65751   0.52414   0.29412   0.54432
  32   35752.9    279.7   0.118674524   1.09275   0.72736  -0.71004  -0.24402
  33   36297.1    275.5   0.044196581   0.40086  -0.35904  -0.36645  -0.37103
  34   36499.6    274.0   0.189527228   1.70946   0.94301  -0.82520  -0.37314
  35   36760.8    272.0   0.034717464   0.31091  -0.05218  -0.49480  -0.25172
  36   36960.4    270.6   0.266619849   2.37483  -0.47005   1.46377   0.10611
  37   36999.3    270.3   0.080909973   0.71992   0.58735  -0.61219  -0.01272
  38   37274.6    268.3   0.012683755   0.11202  -0.25480  -0.13798   0.16751
  39   37418.5    267.2   0.024720075   0.21749   0.31863  -0.33592  -0.05589
  40   37583.9    266.1   0.004487981   0.03931  -0.19630  -0.02792   0.00032
  41   37946.6    263.5   0.040844581   0.35435  -0.34401  -0.46771  -0.13138
  42   38064.8    262.7   0.101484459   0.87771   0.92604   0.13280   0.05023
  43   38196.9    261.8   0.033755619   0.29093  -0.24659   0.33486   0.34351
  44   38486.2    259.8   0.005584269   0.04777   0.05517   0.21121   0.01071
  45   38721.2    258.3   0.064739437   0.55042  -0.69113   0.23278   0.13632
  46   38815.0    257.6   0.040419479   0.34282  -0.01350  -0.54385  -0.21649
  47   38964.0    256.6   0.022732772   0.19207   0.04644  -0.12869  -0.41636
  48   39225.2    254.9   0.058224944   0.48867   0.51602  -0.16917   0.44020
  49   39644.0    252.2   0.095574964   0.79368  -0.65806  -0.36312  -0.47830
  50   39826.9    251.1   0.188377379   1.55714  -0.80802   0.94639  -0.09272

FINAL SINGLE POINT ENERGY    -10693.403705151241

DIPOLE MOMENT
-------------
                                X             Y             Z
Electronic contribution:     90.43466      43.77355      69.17937
Nuclear contribution   :    -89.89993     -41.84683     -67.12125
                        -----------------------------------------
Total Dipole Moment    :      0.53473       1.92672       2.05812
                        -----------------------------------------
Magnitude (a.u.)       :      2.86950
Magnitude (Debye)      :      7.29368

Rotational constants in cm-1:     0.000801     0.000154     0.000133
Rotational constants in MHz :    24.009307     4.631655     3.997680

                             ****ORCA TERMINATED NORMALLY****
TOTAL RUN TIME: 0 days 0 hours 10 minutes 10 seconds 659 msec
