                         Program Version 4.2.0 -  RELEASE  -
|  1> # ORCA input file
|  2> # SCF done       -193.784640115833          0.000406696169
|  3> ! CAM-B3LYP def2-SVP def2/J RIJCOSX Grid4 TightSCF
|  4> %maxcore 5000
|  5> %tddft
|  6>     Mode sTDDFT
|  7>     Ethresh 5.0
|  8>     maxcore 5000
|  9> end
| 10>
| 11> %pal
| 12>   nprocs 6
| 13>   end
| 14> * xyz 0 1
| 15>    C        4.08377        -1.24452         4.12541
| 16>    C        4.16148        -0.37960         5.17448
| 17>    C        3.61930         0.87681         4.84284
| 18>    C        3.13989         0.92108         3.52861
| 19>    S        3.35279        -0.56148         2.71099
| 20>    C        2.61062         2.22040         3.28141
| 21>    C        2.76195         2.99035         4.44215
| 22>    C        3.39866         2.16924         5.46554
| 23>    C        3.70867         2.54148         6.74049
| 24>    C        3.43371         3.83549         7.23081
| 25>    N        3.20929         4.88637         7.63077
| 26>    C        4.31913         1.65700         7.65455
| 27>    N        4.81345         0.94140         8.40169
| 28>    C        2.26741         4.28850         4.30231
| 29>    C        1.73852         4.50533         3.04444
| 30>    S        1.85873         3.08408         2.01676
| 31>    C        1.13303         5.68853         2.54633
| 32>    C        0.54929         5.87347         1.30687
| 33>    C        0.02801         7.15963         1.16456
| 34>    C        0.22385         7.95932         2.30158
| 35>    S        1.04643         7.12954         3.54769
| 36>    C       -0.35723         9.23351         2.06569
| 37>    C       -0.92699         9.23064         0.78059
| 38>    C       -0.69405         7.93427         0.16656
| 39>    C       -1.06690         7.53080        -1.08148
| 40>    C       -1.76569         8.38012        -1.96529
| 41>    N       -2.33401         9.06879        -2.68453
| 42>    C       -0.77472         6.24032        -1.57129
| 43>    N       -0.53795         5.19232        -1.97171
| 44>    C       -1.54790        10.43717         0.46496
| 45>    C       -1.44421        11.35917         1.49181
| 46>    S       -0.56233        10.72216         2.87365
| 47>    C       -2.00147        12.66730         1.48556
| 48>    C       -1.81056        13.71271         2.37914
| 49>    C       -0.95268        13.61001         3.48447
| 50>    N       -0.24305        13.49676         4.37875
| 51>    C       -2.56518        14.86996         2.03324
| 52>    C       -3.31723        14.65409         0.88462
| 53>    S       -3.11618        13.08884         0.20027
| 54>    S       -4.30151        15.98716         0.37832
| 55>    C       -3.68962        16.87272         1.73611
| 56>    C       -2.77799        16.18963         2.53224
| 57>    C       -2.31636        17.00717         3.60312
| 58>    C       -1.39374        16.60834         4.58190
| 59>    N       -0.64417        16.30896         5.39719
| 60>    C       -2.89269        18.27030         3.59381
| 61>    S       -4.01755        18.47618         2.26553
| 62>    C       -2.68006        19.36712         4.47336
| 63>    C       -3.42631        20.53229         4.50065
| 64>    C       -2.94914        21.43697         5.44668
| 65>    C       -1.82145        20.95727         6.13530
| 66>    S       -1.36423        19.39011         5.63992
| 67>    C       -1.39643        21.95601         7.05093
| 68>    C       -2.25931        23.05820         6.94515
| 69>    C       -3.27059        22.76550         5.94051
| 70>    C       -4.30433        23.56497         5.55113
| 71>    C       -4.52099        24.83986         6.11526
| 72>    N       -4.69929        25.87582         6.57311
| 73>    C       -5.22801        23.16594         4.56195
| 74>    N       -5.97916        22.84159         3.75877
| 75>    C       -1.90879        24.10761         7.79506
| 76>    C       -0.78246        23.81249         8.54040
| 77>    S       -0.15255        22.20940         8.19372
| 78>    C       -0.13076        24.64789         9.48487
| 79>    C        1.02366        24.38230        10.19607
| 80>    C        1.38185        25.44809        11.02367
| 81>    C        0.49129        26.52660        10.94134
| 82>    S       -0.78597        26.23834         9.84755
| 83>    C        0.94541        27.55548        11.81580
| 84>    C        2.11939        27.12256        12.44297
| 85>    C        2.43844        25.78804        11.96965
| 86>    C        3.50319        25.01284        12.32382
| 87>    C        4.47453        25.44773        13.25005
| 88>    N        5.26688        25.79706        14.00167
| 89>    C        3.70551        23.72535        11.78350
| 90>    N        3.87201        22.67966        11.34361
| 91>    C        2.64067        28.08444        13.32927
| 92>    C        1.86627        29.20439        13.35531
| 93>    S        0.48800        29.12380        12.30874
| 94>    H        4.41534        -2.26282         4.08831
| 95>    H        4.58455        -0.63477         6.12873
| 96>    H        2.28094         5.04447         5.06684
| 97>    H        0.50768         5.10069         0.56039
| 98>    H       -2.05047        10.65021        -0.46179
| 99>    H       -4.27391        20.69721         3.85943
|100>    H       -2.43147        25.04400         7.87342
|101>    H        1.56569        23.45831        10.10306
|102>    H        3.53340        27.96197        13.91466
|103>    H        2.01739        30.09358        13.93389
|104> *
|105>
|106>                          ****END OF INPUT****

CARTESIAN COORDINATES (ANGSTROEM)
---------------------------------
  C      4.083770   -1.244520    4.125410
  C      4.161480   -0.379600    5.174480
  C      3.619300    0.876810    4.842840
  C      3.139890    0.921080    3.528610
  S      3.352790   -0.561480    2.710990
  C      2.610620    2.220400    3.281410
  C      2.761950    2.990350    4.442150
  C      3.398660    2.169240    5.465540
  C      3.708670    2.541480    6.740490
  C      3.433710    3.835490    7.230810
  N      3.209290    4.886370    7.630770
  C      4.319130    1.657000    7.654550
  N      4.813450    0.941400    8.401690
  C      2.267410    4.288500    4.302310
  C      1.738520    4.505330    3.044440
  S      1.858730    3.084080    2.016760
  C      1.133030    5.688530    2.546330
  C      0.549290    5.873470    1.306870
  C      0.028010    7.159630    1.164560
  C      0.223850    7.959320    2.301580
  S      1.046430    7.129540    3.547690
  C     -0.357230    9.233510    2.065690
  C     -0.926990    9.230640    0.780590
  C     -0.694050    7.934270    0.166560
  C     -1.066900    7.530800   -1.081480
  C     -1.765690    8.380120   -1.965290
  N     -2.334010    9.068790   -2.684530
  C     -0.774720    6.240320   -1.571290
  N     -0.537950    5.192320   -1.971710
  C     -1.547900   10.437170    0.464960
  C     -1.444210   11.359170    1.491810
  S     -0.562330   10.722160    2.873650
  C     -2.001470   12.667300    1.485560
  C     -1.810560   13.712710    2.379140
  C     -0.952680   13.610010    3.484470
  N     -0.243050   13.496760    4.378750
  C     -2.565180   14.869960    2.033240
  C     -3.317230   14.654090    0.884620
  S     -3.116180   13.088840    0.200270
  S     -4.301510   15.987160    0.378320
  C     -3.689620   16.872720    1.736110
  C     -2.777990   16.189630    2.532240
  C     -2.316360   17.007170    3.603120
  C     -1.393740   16.608340    4.581900
  N     -0.644170   16.308960    5.397190
  C     -2.892690   18.270300    3.593810
  S     -4.017550   18.476180    2.265530
  C     -2.680060   19.367120    4.473360
  C     -3.426310   20.532290    4.500650
  C     -2.949140   21.436970    5.446680
  C     -1.821450   20.957270    6.135300
  S     -1.364230   19.390110    5.639920
  C     -1.396430   21.956010    7.050930
  C     -2.259310   23.058200    6.945150
  C     -3.270590   22.765500    5.940510
  C     -4.304330   23.564970    5.551130
  C     -4.520990   24.839860    6.115260
  N     -4.699290   25.875820    6.573110
  C     -5.228010   23.165940    4.561950
  N     -5.979160   22.841590    3.758770
  C     -1.908790   24.107610    7.795060
  C     -0.782460   23.812490    8.540400
  S     -0.152550   22.209400    8.193720
  C     -0.130760   24.647890    9.484870
  C      1.023660   24.382300   10.196070
  C      1.381850   25.448090   11.023670
  C      0.491290   26.526600   10.941340
  S     -0.785970   26.238340    9.847550
  C      0.945410   27.555480   11.815800
  C      2.119390   27.122560   12.442970
  C      2.438440   25.788040   11.969650
  C      3.503190   25.012840   12.323820
  C      4.474530   25.447730   13.250050
  N      5.266880   25.797060   14.001670
  C      3.705510   23.725350   11.783500
  N      3.872010   22.679660   11.343610
  C      2.640670   28.084440   13.329270
  C      1.866270   29.204390   13.355310
  S      0.488000   29.123800   12.308740
  H      4.415340   -2.262820    4.088310
  H      4.584550   -0.634770    6.128730
  H      2.280940    5.044470    5.066840
  H      0.507680    5.100690    0.560390
  H     -2.050470   10.650210   -0.461790
  H     -4.273910   20.697210    3.859430
  H     -2.431470   25.044000    7.873420
  H      1.565690   23.458310   10.103060
  H      3.533400   27.961970   13.914660
  H      2.017390   30.093580   13.933890

 Total Charge           Charge          ....    0
 Multiplicity           Mult            ....    1
 Number of Electrons    NEL             ....  604
 Basis Dimension        Dim             .... 1200

ORBITAL ENERGIES
----------------

  NO   OCC          E(Eh)            E(eV)
   0   2.0000     -88.996336     -2421.7134
   1   2.0000     -88.996175     -2421.7090
   2   2.0000     -88.995444     -2421.6892
   3   2.0000     -88.995385     -2421.6875
   4   2.0000     -88.994756     -2421.6704
   5   2.0000     -88.994095     -2421.6524
   6   2.0000     -88.993874     -2421.6464
   7   2.0000     -88.993548     -2421.6376
   8   2.0000     -88.993504     -2421.6364
   9   2.0000     -88.988904     -2421.5112
  10   2.0000     -88.988862     -2421.5100
  11   2.0000     -14.435631      -392.8135
  12   2.0000     -14.435558      -392.8115
  13   2.0000     -14.435285      -392.8041
  14   2.0000     -14.435278      -392.8039
  15   2.0000     -14.430625      -392.6773
  16   2.0000     -14.430564      -392.6756
  17   2.0000     -14.429803      -392.6549
  18   2.0000     -14.429723      -392.6527
  19   2.0000     -14.414854      -392.2481
  20   2.0000     -14.414757      -392.2455
  21   2.0000     -10.369677      -282.1733
  22   2.0000     -10.369550      -282.1698
  23   2.0000     -10.364533      -282.0333
  24   2.0000     -10.364406      -282.0298
  25   2.0000     -10.357297      -281.8364
  26   2.0000     -10.357183      -281.8333
  27   2.0000     -10.352039      -281.6933
  28   2.0000     -10.351949      -281.6908
  29   2.0000     -10.350461      -281.6504
  30   2.0000     -10.350420      -281.6493
  31   2.0000     -10.344876      -281.4984
  32   2.0000     -10.344786      -281.4959
  33   2.0000     -10.338056      -281.3128
  34   2.0000     -10.338034      -281.3122
  35   2.0000     -10.335968      -281.2560
  36   2.0000     -10.335875      -281.2535
  37   2.0000     -10.335855      -281.2529
  38   2.0000     -10.335836      -281.2524
  39   2.0000     -10.335696      -281.2486
  40   2.0000     -10.335673      -281.2480
  41   2.0000     -10.335670      -281.2479
  42   2.0000     -10.335624      -281.2466
  43   2.0000     -10.335103      -281.2324
  44   2.0000     -10.335057      -281.2312
  45   2.0000     -10.333628      -281.1923
  46   2.0000     -10.333626      -281.1923
  47   2.0000     -10.331804      -281.1427
  48   2.0000     -10.331780      -281.1420
  49   2.0000     -10.331542      -281.1356
  50   2.0000     -10.331441      -281.1328
  51   2.0000     -10.331047      -281.1221
  52   2.0000     -10.330929      -281.1189
  53   2.0000     -10.330645      -281.1111
  54   2.0000     -10.330608      -281.1101
  55   2.0000     -10.330078      -281.0957
  56   2.0000     -10.329983      -281.0931
  57   2.0000     -10.318540      -280.7818
  58   2.0000     -10.318264      -280.7742
  59   2.0000     -10.313429      -280.6427
  60   2.0000     -10.313396      -280.6418
  61   2.0000     -10.312779      -280.6250
  62   2.0000     -10.312722      -280.6234
  63   2.0000     -10.311135      -280.5802
  64   2.0000     -10.311057      -280.5781
  65   2.0000     -10.309210      -280.5279
  66   2.0000     -10.309107      -280.5251
  67   2.0000     -10.307771      -280.4887
  68   2.0000     -10.307697      -280.4867
  69   2.0000     -10.306289      -280.4484
  70   2.0000     -10.306238      -280.4470
  71   2.0000     -10.305127      -280.4168
  72   2.0000     -10.305082      -280.4155
  73   2.0000     -10.304409      -280.3972
  74   2.0000     -10.304342      -280.3954
  75   2.0000     -10.300569      -280.2927
  76   2.0000     -10.300504      -280.2910
  77   2.0000     -10.298444      -280.2349
  78   2.0000     -10.298417      -280.2342
  79   2.0000      -8.090084      -220.1424
  80   2.0000      -8.090017      -220.1406
  81   2.0000      -8.089939      -220.1384
  82   2.0000      -8.089770      -220.1338
  83   2.0000      -8.089727      -220.1327
  84   2.0000      -8.089159      -220.1172
  85   2.0000      -8.089031      -220.1137
  86   2.0000      -8.087963      -220.0847
  87   2.0000      -8.087943      -220.0841
  88   2.0000      -8.083854      -219.9729
  89   2.0000      -8.083852      -219.9728
  90   2.0000      -6.059920      -164.8988
  91   2.0000      -6.059400      -164.8847
  92   2.0000      -6.059337      -164.8829
  93   2.0000      -6.059061      -164.8754
  94   2.0000      -6.059016      -164.8742
  95   2.0000      -6.058816      -164.8688
  96   2.0000      -6.058689      -164.8653
  97   2.0000      -6.057233      -164.8257
  98   2.0000      -6.057227      -164.8255
  99   2.0000      -6.055660      -164.7829
 100   2.0000      -6.054999      -164.7649
 101   2.0000      -6.054931      -164.7630
 102   2.0000      -6.054877      -164.7616
 103   2.0000      -6.054834      -164.7604
 104   2.0000      -6.054597      -164.7540
 105   2.0000      -6.054460      -164.7502
 106   2.0000      -6.053103      -164.7133
 107   2.0000      -6.053102      -164.7133
 108   2.0000      -6.053087      -164.7129
 109   2.0000      -6.053073      -164.7125
 110   2.0000      -6.052513      -164.6973
 111   2.0000      -6.052388      -164.6939
 112   2.0000      -6.052076      -164.6854
 113   2.0000      -6.052042      -164.6844
 114   2.0000      -6.050725      -164.6486
 115   2.0000      -6.050592      -164.6450
 116   2.0000      -6.050435      -164.6407
 117   2.0000      -6.050259      -164.6359
 118   2.0000      -6.050239      -164.6354
 119   2.0000      -6.048653      -164.5922
 120   2.0000      -6.048652      -164.5922
 121   2.0000      -6.046514      -164.5340
 122   2.0000      -6.046486      -164.5332
 123   2.0000      -1.053273       -28.6610
 124   2.0000      -1.050960       -28.5981
 125   2.0000      -1.048063       -28.5192
 126   2.0000      -1.044461       -28.4212
 127   2.0000      -1.044217       -28.4146
 128   2.0000      -1.028206       -27.9789
 129   2.0000      -1.027207       -27.9517
 130   2.0000      -1.023251       -27.8441
 131   2.0000      -1.022084       -27.8123
 132   2.0000      -1.021129       -27.7863
 133   2.0000      -1.013266       -27.5724
 134   2.0000      -1.013053       -27.5666
 135   2.0000      -1.009232       -27.4626
 136   2.0000      -1.007912       -27.4267
 137   2.0000      -1.007520       -27.4160
 138   2.0000      -1.004278       -27.3278
 139   2.0000      -1.001505       -27.2523
 140   2.0000      -0.993143       -27.0248
 141   2.0000      -0.992623       -27.0106
 142   2.0000      -0.989273       -26.9195
 143   2.0000      -0.968887       -26.3648
 144   2.0000      -0.964112       -26.2348
 145   2.0000      -0.956059       -26.0157
 146   2.0000      -0.955614       -26.0036
 147   2.0000      -0.951112       -25.8811
 148   2.0000      -0.922383       -25.0993
 149   2.0000      -0.920185       -25.0395
 150   2.0000      -0.906810       -24.6755
 151   2.0000      -0.905746       -24.6466
 152   2.0000      -0.901673       -24.5358
 153   2.0000      -0.882033       -24.0013
 154   2.0000      -0.878071       -23.8935
 155   2.0000      -0.874501       -23.7964
 156   2.0000      -0.871045       -23.7023
 157   2.0000      -0.869904       -23.6713
 158   2.0000      -0.861800       -23.4508
 159   2.0000      -0.860676       -23.4202
 160   2.0000      -0.853342       -23.2206
 161   2.0000      -0.852645       -23.2016
 162   2.0000      -0.849358       -23.1122
 163   2.0000      -0.846176       -23.0256
 164   2.0000      -0.826879       -22.5005
 165   2.0000      -0.817209       -22.2374
 166   2.0000      -0.794089       -21.6083
 167   2.0000      -0.783597       -21.3228
 168   2.0000      -0.781444       -21.2642
 169   2.0000      -0.777777       -21.1644
 170   2.0000      -0.776839       -21.1389
 171   2.0000      -0.769959       -20.9517
 172   2.0000      -0.754311       -20.5258
 173   2.0000      -0.738614       -20.0987
 174   2.0000      -0.720861       -19.6156
 175   2.0000      -0.717139       -19.5143
 176   2.0000      -0.709087       -19.2952
 177   2.0000      -0.703973       -19.1561
 178   2.0000      -0.703815       -19.1518
 179   2.0000      -0.703752       -19.1501
 180   2.0000      -0.694067       -18.8865
 181   2.0000      -0.692098       -18.8329
 182   2.0000      -0.686582       -18.6829
 183   2.0000      -0.685417       -18.6511
 184   2.0000      -0.678343       -18.4586
 185   2.0000      -0.677839       -18.4449
 186   2.0000      -0.662327       -18.0228
 187   2.0000      -0.660641       -17.9770
 188   2.0000      -0.653410       -17.7802
 189   2.0000      -0.644867       -17.5477
 190   2.0000      -0.637126       -17.3371
 191   2.0000      -0.632232       -17.2039
 192   2.0000      -0.631785       -17.1917
 193   2.0000      -0.625993       -17.0341
 194   2.0000      -0.625481       -17.0202
 195   2.0000      -0.624119       -16.9831
 196   2.0000      -0.623754       -16.9732
 197   2.0000      -0.616012       -16.7625
 198   2.0000      -0.615488       -16.7483
 199   2.0000      -0.613873       -16.7043
 200   2.0000      -0.611277       -16.6337
 201   2.0000      -0.589570       -16.0430
 202   2.0000      -0.576823       -15.6962
 203   2.0000      -0.570375       -15.5207
 204   2.0000      -0.566206       -15.4073
 205   2.0000      -0.555909       -15.1271
 206   2.0000      -0.553945       -15.0736
 207   2.0000      -0.549499       -14.9526
 208   2.0000      -0.549065       -14.9408
 209   2.0000      -0.548859       -14.9352
 210   2.0000      -0.546513       -14.8714
 211   2.0000      -0.545640       -14.8476
 212   2.0000      -0.540268       -14.7014
 213   2.0000      -0.539531       -14.6814
 214   2.0000      -0.528305       -14.3759
 215   2.0000      -0.525616       -14.3027
 216   2.0000      -0.521438       -14.1891
 217   2.0000      -0.521044       -14.1783
 218   2.0000      -0.519449       -14.1349
 219   2.0000      -0.512062       -13.9339
 220   2.0000      -0.511784       -13.9264
 221   2.0000      -0.511001       -13.9050
 222   2.0000      -0.506208       -13.7746
 223   2.0000      -0.505544       -13.7565
 224   2.0000      -0.503584       -13.7032
 225   2.0000      -0.502774       -13.6812
 226   2.0000      -0.501564       -13.6482
 227   2.0000      -0.500913       -13.6305
 228   2.0000      -0.497102       -13.5268
 229   2.0000      -0.494866       -13.4660
 230   2.0000      -0.492603       -13.4044
 231   2.0000      -0.491546       -13.3756
 232   2.0000      -0.490553       -13.3486
 233   2.0000      -0.488208       -13.2848
 234   2.0000      -0.486087       -13.2271
 235   2.0000      -0.485735       -13.2175
 236   2.0000      -0.478789       -13.0285
 237   2.0000      -0.477491       -12.9932
 238   2.0000      -0.474309       -12.9066
 239   2.0000      -0.473350       -12.8805
 240   2.0000      -0.469998       -12.7893
 241   2.0000      -0.466664       -12.6986
 242   2.0000      -0.466655       -12.6983
 243   2.0000      -0.465091       -12.6558
 244   2.0000      -0.464517       -12.6401
 245   2.0000      -0.463419       -12.6103
 246   2.0000      -0.462732       -12.5916
 247   2.0000      -0.461811       -12.5665
 248   2.0000      -0.461355       -12.5541
 249   2.0000      -0.461309       -12.5529
 250   2.0000      -0.458277       -12.4703
 251   2.0000      -0.457645       -12.4531
 252   2.0000      -0.457608       -12.4521
 253   2.0000      -0.456774       -12.4295
 254   2.0000      -0.452037       -12.3006
 255   2.0000      -0.450789       -12.2666
 256   2.0000      -0.446606       -12.1528
 257   2.0000      -0.445691       -12.1279
 258   2.0000      -0.445671       -12.1273
 259   2.0000      -0.444947       -12.1076
 260   2.0000      -0.444881       -12.1058
 261   2.0000      -0.444386       -12.0924
 262   2.0000      -0.444228       -12.0881
 263   2.0000      -0.441106       -12.0031
 264   2.0000      -0.440753       -11.9935
 265   2.0000      -0.440688       -11.9917
 266   2.0000      -0.440490       -11.9863
 267   2.0000      -0.440399       -11.9839
 268   2.0000      -0.438307       -11.9269
 269   2.0000      -0.438261       -11.9257
 270   2.0000      -0.435511       -11.8509
 271   2.0000      -0.433958       -11.8086
 272   2.0000      -0.432317       -11.7639
 273   2.0000      -0.430525       -11.7152
 274   2.0000      -0.426215       -11.5979
 275   2.0000      -0.425903       -11.5894
 276   2.0000      -0.425866       -11.5884
 277   2.0000      -0.417548       -11.3621
 278   2.0000      -0.413181       -11.2432
 279   2.0000      -0.409902       -11.1540
 280   2.0000      -0.408821       -11.1246
 281   2.0000      -0.393544       -10.7089
 282   2.0000      -0.391438       -10.6516
 283   2.0000      -0.388899       -10.5825
 284   2.0000      -0.382541       -10.4095
 285   2.0000      -0.372934       -10.1480
 286   2.0000      -0.359876        -9.7927
 287   2.0000      -0.354815        -9.6550
 288   2.0000      -0.354432        -9.6446
 289   2.0000      -0.348239        -9.4761
 290   2.0000      -0.348212        -9.4753
 291   2.0000      -0.340982        -9.2786
 292   2.0000      -0.328289        -8.9332
 293   2.0000      -0.327055        -8.8996
 294   2.0000      -0.323741        -8.8095
 295   2.0000      -0.322801        -8.7839
 296   2.0000      -0.320034        -8.7086
 297   2.0000      -0.318898        -8.6776
 298   2.0000      -0.286632        -7.7996
 299   2.0000      -0.286148        -7.7865
 300   2.0000      -0.249300        -6.7838
 301   2.0000      -0.249188        -6.7808
 302   0.0000      -0.110433        -3.0050
 303   0.0000      -0.110407        -3.0043
 304   0.0000      -0.102562        -2.7909
 305   0.0000      -0.102559        -2.7908
 306   0.0000      -0.061125        -1.6633

MULLIKEN ATOMIC CHARGES
-----------------------
   0 C :   -0.080231
   1 C :    0.037530
   2 C :   -0.030558
   3 C :   -0.116595
   4 S :    0.185089
   5 C :   -0.100055
   6 C :    0.015462
   7 C :    0.297915
   8 C :   -0.298677
   9 C :   -0.185900
  10 N :    0.173244
  11 C :   -0.190012
  12 N :    0.175294
  13 C :   -0.067754
  14 C :   -0.054105
  15 S :    0.191890
  16 C :   -0.043627
  17 C :   -0.075368
  18 C :    0.020102
  19 C :   -0.102920
  20 S :    0.206929
  21 C :   -0.089410
  22 C :    0.024847
  23 C :    0.305263
  24 C :   -0.299192
  25 C :   -0.188092
  26 N :    0.172635
  27 C :   -0.188022
  28 N :    0.175119
  29 C :   -0.063285
  30 C :   -0.100600
  31 S :    0.231147
  32 C :   -0.073776
  33 C :    0.008067
  34 C :   -0.369209
  35 N :    0.221375
  36 C :    0.136091
  37 C :   -0.227158
  38 S :    0.175460
  39 S :    0.200321
  40 C :   -0.227002
  41 C :    0.135891
  42 C :    0.011707
  43 C :   -0.372795
  44 N :    0.222175
  45 C :   -0.073090
  46 S :    0.176315
  47 C :   -0.100969
  48 C :   -0.064583
  49 C :    0.023831
  50 C :   -0.087397
  51 S :    0.230782
  52 C :   -0.101118
  53 C :    0.016263
  54 C :    0.302597
  55 C :   -0.296007
  56 C :   -0.187954
  57 N :    0.175539
  58 C :   -0.187995
  59 N :    0.169466
  60 C :   -0.066836
  61 C :   -0.047692
  62 S :    0.206151
  63 C :   -0.056581
  64 C :   -0.060744
  65 C :    0.011382
  66 C :   -0.099174
  67 S :    0.191926
  68 C :   -0.115454
  69 C :   -0.031476
  70 C :    0.297673
  71 C :   -0.295710
  72 C :   -0.188912
  73 N :    0.172151
  74 C :   -0.188050
  75 N :    0.174728
  76 C :    0.036717
  77 C :   -0.080972
  78 S :    0.185867
  79 H :    0.037090
  80 H :    0.012097
  81 H :    0.012903
  82 H :    0.012300
  83 H :    0.016078
  84 H :    0.016665
  85 H :    0.010975
  86 H :    0.011940
  87 H :    0.012722
  88 H :    0.037351
Sum of atomic charges:   -0.0000000

LOEWDIN ATOMIC CHARGES
----------------------
   0 C :   -0.176650
   1 C :   -0.033693
   2 C :   -0.076036
   3 C :   -0.185202
   4 S :    0.480635
   5 C :   -0.177992
   6 C :   -0.069438
   7 C :    0.082960
   8 C :   -0.102315
   9 C :   -0.016488
  10 N :   -0.033379
  11 C :   -0.017007
  12 N :   -0.031431
  13 C :   -0.036611
  14 C :   -0.183184
  15 S :    0.484916
  16 C :   -0.174757
  17 C :   -0.042277
  18 C :   -0.064709
  19 C :   -0.183568
  20 S :    0.492191
  21 C :   -0.172976
  22 C :   -0.073873
  23 C :    0.083246
  24 C :   -0.102167
  25 C :   -0.016207
  26 N :   -0.032783
  27 C :   -0.016254
  28 N :   -0.032464
  29 C :   -0.028251
  30 C :   -0.194101
  31 S :    0.524836
  32 C :   -0.137630
  33 C :   -0.109379
  34 C :   -0.058378
  35 N :   -0.028655
  36 C :   -0.061220
  37 C :   -0.333789
  38 S :    0.460600
  39 S :    0.432053
  40 C :   -0.333890
  41 C :   -0.061197
  42 C :   -0.109414
  43 C :   -0.058585
  44 N :   -0.028580
  45 C :   -0.137693
  46 S :    0.460723
  47 C :   -0.194130
  48 C :   -0.028333
  49 C :   -0.073822
  50 C :   -0.173149
  51 S :    0.525068
  52 C :   -0.183578
  53 C :   -0.064656
  54 C :    0.083186
  55 C :   -0.102069
  56 C :   -0.016497
  57 N :   -0.032284
  58 C :   -0.016166
  59 N :   -0.032832
  60 C :   -0.041911
  61 C :   -0.174815
  62 S :    0.492256
  63 C :   -0.183340
  64 C :   -0.036385
  65 C :   -0.069329
  66 C :   -0.178028
  67 S :    0.484791
  68 C :   -0.185215
  69 C :   -0.076086
  70 C :    0.082899
  71 C :   -0.102253
  72 C :   -0.016891
  73 N :   -0.031568
  74 C :   -0.016722
  75 N :   -0.033140
  76 C :   -0.033636
  77 C :   -0.176899
  78 S :    0.480679
  79 H :    0.028175
  80 H :    0.042751
  81 H :    0.036136
  82 H :    0.035225
  83 H :    0.035128
  84 H :    0.035258
  85 H :    0.035186
  86 H :    0.035999
  87 H :    0.042881
  88 H :    0.028180

  Mayer bond orders larger than 0.100000
B(  0-C ,  1-C ) :   1.5477 B(  0-C ,  4-S ) :   1.1518 B(  0-C , 79-H ) :   0.9638
B(  1-C ,  2-C ) :   1.2795 B(  1-C , 80-H ) :   0.9960 B(  2-C ,  3-C ) :   1.4573
B(  2-C ,  7-C ) :   1.0150 B(  3-C ,  4-S ) :   1.1375 B(  3-C ,  5-C ) :   1.1806
B(  5-C ,  6-C ) :   1.4636 B(  5-C , 15-S ) :   1.1249 B(  6-C ,  7-C ) :   0.9910
B(  6-C , 13-C ) :   1.2950 B(  7-C ,  8-C ) :   1.7143 B(  8-C ,  9-C ) :   1.1324
B(  8-C , 11-C ) :   1.1298 B(  9-C , 10-N ) :   2.9915 B( 11-C , 12-N ) :   3.0026
B( 13-C , 14-C ) :   1.4664 B( 13-C , 81-H ) :   0.9882 B( 14-C , 15-S ) :   1.1095
B( 14-C , 16-C ) :   1.1616 B( 16-C , 17-C ) :   1.4613 B( 16-C , 20-S ) :   1.1149
B( 17-C , 18-C ) :   1.2978 B( 17-C , 82-H ) :   0.9871 B( 18-C , 19-C ) :   1.4494
B( 18-C , 23-C ) :   0.9922 B( 19-C , 20-S ) :   1.1184 B( 19-C , 21-C ) :   1.1822
B( 21-C , 22-C ) :   1.4302 B( 21-C , 31-S ) :   1.1367 B( 22-C , 23-C ) :   0.9916
B( 22-C , 29-C ) :   1.3111 B( 23-C , 24-C ) :   1.7156 B( 24-C , 25-C ) :   1.1339
B( 24-C , 27-C ) :   1.1343 B( 25-C , 26-N ) :   2.9900 B( 27-C , 28-N ) :   2.9920
B( 29-C , 30-C ) :   1.4397 B( 29-C , 83-H ) :   0.9838 B( 30-C , 31-S ) :   1.1056
B( 30-C , 32-C ) :   1.1874 B( 32-C , 33-C ) :   1.4970 B( 32-C , 38-S ) :   1.1454
B( 33-C , 34-C ) :   1.1538 B( 33-C , 36-C ) :   1.2458 B( 34-C , 35-N ) :   2.9688
B( 36-C , 37-C ) :   1.4277 B( 36-C , 41-C ) :   1.0687 B( 37-C , 38-S ) :   1.0795
B( 37-C , 39-S ) :   1.0865 B( 39-S , 40-C ) :   1.0861 B( 40-C , 41-C ) :   1.4289
B( 40-C , 46-S ) :   1.0787 B( 41-C , 42-C ) :   1.2461 B( 42-C , 43-C ) :   1.1530
B( 42-C , 45-C ) :   1.4959 B( 43-C , 44-N ) :   2.9687 B( 45-C , 46-S ) :   1.1459
B( 45-C , 47-C ) :   1.1872 B( 47-C , 48-C ) :   1.4372 B( 47-C , 51-S ) :   1.1063
B( 48-C , 49-C ) :   1.3117 B( 48-C , 84-H ) :   0.9852 B( 49-C , 50-C ) :   1.4297
B( 49-C , 54-C ) :   0.9906 B( 50-C , 51-S ) :   1.1363 B( 50-C , 52-C ) :   1.1799
B( 52-C , 53-C ) :   1.4508 B( 52-C , 62-S ) :   1.1183 B( 53-C , 54-C ) :   0.9937
B( 53-C , 60-C ) :   1.2999 B( 54-C , 55-C ) :   1.7153 B( 55-C , 56-C ) :   1.1327
B( 55-C , 58-C ) :   1.1325 B( 56-C , 57-N ) :   2.9923 B( 58-C , 59-N ) :   2.9891
B( 60-C , 61-C ) :   1.4601 B( 60-C , 85-H ) :   0.9866 B( 61-C , 62-S ) :   1.1153
B( 61-C , 63-C ) :   1.1635 B( 63-C , 64-C ) :   1.4654 B( 63-C , 67-S ) :   1.1098
B( 64-C , 65-C ) :   1.2975 B( 64-C , 86-H ) :   0.9872 B( 65-C , 66-C ) :   1.4643
B( 65-C , 70-C ) :   0.9916 B( 66-C , 67-S ) :   1.1243 B( 66-C , 68-C ) :   1.1783
B( 68-C , 69-C ) :   1.4583 B( 68-C , 78-S ) :   1.1378 B( 69-C , 70-C ) :   1.0155
B( 69-C , 76-C ) :   1.2777 B( 70-C , 71-C ) :   1.7128 B( 71-C , 72-C ) :   1.1282
B( 71-C , 74-C ) :   1.1330 B( 72-C , 73-N ) :   3.0017 B( 74-C , 75-N ) :   2.9920
B( 76-C , 77-C ) :   1.5484 B( 76-C , 87-H ) :   0.9964 B( 77-C , 78-S ) :   1.1508
B( 77-C , 88-H ) :   0.9640

-----------------------------------------------------------------------------
         ABSORPTION SPECTRUM VIA TRANSITION ELECTRIC DIPOLE MOMENTS
-----------------------------------------------------------------------------
State   Energy  Wavelength   fosc         T2         TX        TY        TZ
        (cm-1)    (nm)                  (au**2)     (au)      (au)      (au)
-----------------------------------------------------------------------------
   0   12076.0    828.1   0.257255033   7.01320  -0.13700   2.54131   0.73223
   1   12280.8    814.3   0.089673600   2.40389  -1.00289   0.28125  -1.14848
   2   14141.3    707.1   0.095063883   2.21310  -0.02445  -1.42286  -0.43357
   3   14192.1    704.6   0.052777160   1.22426   0.71503  -0.30404   0.78775
   4   22125.3    452.0   0.003409665   0.05073  -0.01434   0.21358   0.07008
   5   22255.6    449.3   0.003142421   0.04648   0.13928  -0.04157   0.15924
   6   23044.4    433.9   0.045795542   0.65423   0.39476  -0.60963   0.35602
   7   23051.9    433.8   0.052800730   0.75406  -0.29784  -0.65507  -0.48604
   8   24255.3    412.3   2.142928573  29.08552  -0.36150   5.14635   1.57161
   9   25061.9    399.0   0.480223060   6.30819   1.62595  -0.47739   1.85380
  10   25989.8    384.8   0.419774130   5.31726   0.17502  -2.19318  -0.69034
  11   26390.2    378.9   0.011404068   0.14226   0.23885  -0.10050   0.27407
  12   26407.6    378.7   0.061328237   0.76455  -0.56261   0.12575  -0.65742
  13   26528.0    377.0   0.490751869   6.09021   1.59541  -0.46571   1.82428
  14   29145.8    343.1   0.000600296   0.00678   0.04160  -0.06030  -0.03760
  15   29270.3    341.6   0.002495952   0.02807   0.10304  -0.02138   0.13038
  16   30343.1    329.6   0.136481600   1.48078   0.78013  -0.25027   0.89974
  17   30377.8    329.2   0.030352490   0.32894  -0.19708  -0.53718  -0.03913
  18   30562.3    327.2   0.021064144   0.22690   0.06097  -0.43432  -0.18588
  19   30751.7    325.2   0.000064743   0.00069  -0.00937  -0.00672  -0.02367
  20   31366.5    318.8   0.270458283   2.83864  -1.03371   0.83816   1.03323
  21   31584.1    316.6   1.082752148  11.28590   2.14814  -0.60088   2.51204
  22   32091.5    311.6   0.196079618   2.01149   0.42016  -0.94109  -0.97432
  23   32118.6    311.3   0.361742044   3.70782  -1.29497   0.49524  -1.33626
  24   32897.6    304.0   0.724375060   7.24895   0.93479  -2.17685  -1.27924
  25   33020.3    302.8   0.547886440   5.46242   1.47404  -0.39906   1.76928
  26   33418.5    299.2   0.061971024   0.61049  -0.07174   0.77375   0.08159
  27   33443.0    299.0   0.031296686   0.30808   0.33384   0.08362   0.43548
  28   33815.6    295.7   0.237393804   2.31115  -0.14048   1.41517   0.53731
  29   33837.6    295.5   0.020581428   0.20024   0.24732  -0.35283   0.12077
  30   34141.0    292.9   0.022200728   0.21408   0.26164  -0.33744   0.17820
  31   34151.2    292.8   0.060526290   0.58346   0.02752   0.68884   0.32895
  32   34482.0    290.0   0.010663806   0.10181   0.20371  -0.05235   0.23994
  33   34515.8    289.7   0.000345609   0.00330  -0.03444  -0.00702  -0.04540
  34   34788.0    287.5   0.354647002   3.35616   0.08301  -1.76496  -0.48393
  35   34925.4    286.3   0.221499641   2.08789  -0.92566   0.25894  -1.07889
  36   35338.2    283.0   0.301806048   2.81163  -0.46289   1.43364   0.73624
  37   35426.6    282.3   0.001140939   0.01060  -0.06092   0.07731  -0.03023
  38   35550.7    281.3   0.231526684   2.14402   0.93978  -0.25759   1.09292
  39   35566.8    281.2   0.069878821   0.64681   0.20478   0.77733   0.02526
  40   36452.3    274.3   0.001009451   0.00912   0.01958   0.09339  -0.00344
  41   36465.6    274.2   0.000211044   0.00191   0.03022   0.01497   0.02771
  42   38044.9    262.8   0.011578434   0.10019   0.01659   0.25569   0.18585
  43   38061.9    262.7   0.011267352   0.09746   0.20475  -0.14584   0.18510
  44   38573.2    259.2   0.001602757   0.01368  -0.07659   0.02400  -0.08507
  45   38622.0    258.9   0.000132311   0.00113   0.00646  -0.01938  -0.02665
  46   39157.7    255.4   0.012245824   0.10295   0.17902   0.00447   0.26624
  47   39202.7    255.1   0.033782095   0.28369  -0.16476   0.46715   0.19575
  48   39656.2    252.2   0.002094834   0.01739   0.04332   0.05076   0.11374
  49   39664.6    252.1   0.002167587   0.01799   0.08017  -0.10699   0.01085
  50   40104.8    249.3   0.000590497   0.00485  -0.04412   0.01078  -0.05277
  51   40195.7    248.8   0.000556274   0.00456  -0.00712   0.06183   0.02613
  52   40322.9    248.0   0.007270620   0.05936  -0.15761   0.04537  -0.18017

FINAL SINGLE POINT ENERGY     -7138.693479117815

DIPOLE MOMENT
-------------
                                X             Y             Z
Electronic contribution:    -12.36056       3.44283     -14.24022
Nuclear contribution   :     11.33888      -3.12491      12.98258
                        -----------------------------------------
Total Dipole Moment    :     -1.02167       0.31792      -1.25764
                        -----------------------------------------
Magnitude (a.u.)       :      1.65123
Magnitude (Debye)      :      4.19710

Rotational constants in cm-1:     0.000875     0.000153     0.000132
Rotational constants in MHz :    26.217095     4.598125     3.950028

                             ****ORCA TERMINATED NORMALLY****
TOTAL RUN TIME: 0 days 0 hours 13 minutes 4 seconds 64 msec
