                         Program Version 4.2.0 -  RELEASE  -
|  1> # ORCA input file
|  2> # SCF done       -201.458697446543          0.000325564011
|  3> ! CAM-B3LYP def2-SVP def2/J RIJCOSX Grid4 TightSCF
|  4> %maxcore 5000
|  5> %tddft
|  6>     Mode sTDDFT
|  7>     Ethresh 5.0
|  8>     maxcore 5000
|  9> end
| 10>
| 11> %pal
| 12>   nprocs 6
| 13>   end
| 14> * xyz 0 1
| 15>    C        3.96362        -2.75112         4.75086
| 16>    C        4.70624        -2.35890         3.68078
| 17>    C        4.22493        -1.15225         3.13475
| 18>    C        3.10903        -0.66099         3.82573
| 19>    S        2.65958        -1.66936         5.12826
| 20>    C        2.69118         0.55111         3.21194
| 21>    C        3.54543         0.82097         2.13540
| 22>    C        4.54014        -0.24477         2.05186
| 23>    C        5.55043        -0.35275         1.13953
| 24>    C        5.75270         0.60526         0.12522
| 25>    N        5.92237         1.38242        -0.70128
| 26>    C        6.45972        -1.43025         1.14946
| 27>    N        7.20268        -2.30413         1.15170
| 28>    C        3.21948         1.99653         1.46037
| 29>    C        2.11952         2.62832         2.01375
| 30>    S        1.48142         1.74488         3.39710
| 31>    C        1.50651         3.84272         1.59048
| 32>    C        0.40816         4.37946         2.21520
| 33>    C       -0.22446         5.56275         1.84001
| 34>    C        0.25739         6.35368         0.70294
| 35>    C        1.32173         6.01728        -0.05609
| 36>    S        2.27026         4.60930         0.19767
| 37>    C       -0.62022         7.46934         0.63004
| 38>    C       -1.58012         7.39359         1.64344
| 39>    C       -2.47188         8.49011         1.59360
| 40>    C       -2.17180         9.34049         0.57773
| 41>    S       -0.80276         8.85769        -0.36443
| 42>    C       -1.34242         6.19793         2.41455
| 43>    C       -2.04176         5.70043         3.53937
| 44>    C       -3.08467         6.29846         4.16414
| 45>    C       -3.76171         5.77659         5.31116
| 46>    C       -4.79639         6.50946         5.90111
| 47>    O       -5.10960         7.73203         5.34459
| 48>    C       -6.42555         7.85728         4.83248
| 49>    C       -5.47524         6.07642         7.06761
| 50>    O       -6.43141         6.90256         7.62909
| 51>    C       -5.90752         8.05330         8.26546
| 52>    C       -5.20045         4.85903         7.67476
| 53>    C       -4.18377         4.07576         7.07972
| 54>    C       -3.45963         4.52758         5.92021
| 55>    N       -2.54903         3.63717         5.53242
| 56>    S       -2.60265         2.36198         6.51692
| 57>    N       -3.77615         2.87348         7.48634
| 58>    C       -5.88327         4.40318         8.88546
| 59>    C       -5.15103         3.76206         9.89110
| 60>    C       -5.79641         3.34134        11.02785
| 61>    C       -7.17621         3.54910        11.18859
| 62>    C       -7.90858         4.17613        10.19236
| 63>    C       -7.25713         4.59701         9.04831
| 64>    C       -7.57435         3.01347        12.47371
| 65>    C       -6.44142         2.46526        13.10100
| 66>    C       -5.21750         2.63508        12.23089
| 67>    C       -4.60596         1.27759        11.83856
| 68>    C       -5.59575         0.37100        11.11738
| 69>    C       -4.15068         3.49919        12.92866
| 70>    C       -4.67951         4.86513        13.34951
| 71>    C       -6.53520         1.88726        14.34208
| 72>    C       -7.77561         1.85207        14.99900
| 73>    C       -8.89243         2.41483        14.36376
| 74>    C       -8.80616         2.98622        13.11079
| 75>    C       -7.95183         1.27489        16.30902
| 76>    C       -7.04443         0.54868        16.99336
| 77>    C       -7.25905         0.00796        18.29444
| 78>    C       -8.33691         0.15851        19.14688
| 79>    C       -8.16046        -0.53236        20.34756
| 80>    C       -6.94166        -1.21787        20.41338
| 81>    S       -6.00949        -1.00784        18.99986
| 82>    C       -6.86563        -1.88260        21.67135
| 83>    C       -8.03365        -1.61051        22.39276
| 84>    C       -8.88712        -0.75323        21.59330
| 85>    C      -10.10980        -0.24872        21.92997
| 86>    C      -10.72064        -0.52004        23.17163
| 87>    N      -11.22301        -0.73546        24.17995
| 88>    C      -10.84473         0.58178        21.05918
| 89>    N      -11.44759         1.25845        20.35588
| 90>    C       -8.04295        -2.23320        23.65663
| 91>    C       -6.90602        -2.95108        23.86433
| 92>    S       -5.79310        -2.89111        22.53429
| 93>    H        4.09500        -3.62285         5.35986
| 94>    H        5.55129        -2.90768         3.30712
| 95>    H        3.74741         2.38422         0.60786
| 96>    H        0.01439         3.83184         3.06183
| 97>    H        1.65888         6.61631        -0.88723
| 98>    H       -3.29552         8.65906         2.26216
| 99>    H       -2.67868        10.24716         0.31031
|100>    H       -1.69770         4.75650         3.93564
|101>    H       -3.45114         7.25271         3.82062
|102>    H       -7.18321         7.65130         5.59076
|103>    H       -6.57117         7.18067         3.98322
|104>    H       -6.51464         8.88898         4.49616
|105>    H       -6.76944         8.61580         8.61937
|106>    H       -5.32198         8.66813         7.57673
|107>    H       -5.28154         7.76930         9.11831
|108>    H       -4.09023         3.61284         9.76634
|109>    H       -8.97181         4.32998        10.30183
|110>    H       -7.81629         5.07214         8.25806
|111>    H       -4.24777         0.78021        12.74282
|112>    H       -3.74591         1.45735        11.19043
|113>    H       -6.46776         0.18070        11.73958
|114>    H       -5.12653        -0.58119        10.88052
|115>    H       -5.92733         0.83127        10.18963
|116>    H       -3.30889         3.63109        12.24558
|117>    H       -3.78608         2.96501        13.80881
|118>    H       -5.03813         5.41973        12.48512
|119>    H       -3.89058         5.44222        13.82682
|120>    H       -5.50233         4.75880        14.05307
|121>    H       -5.65768         1.47737        14.81818
|122>    H       -9.84515         2.39141        14.87349
|123>    H       -9.68099         3.40879        12.63964
|124>    H       -8.92133         1.44547        16.75781
|125>    H       -6.07966         0.32744        16.55873
|126>    H       -9.20210         0.74726        18.90577
|127>    H       -8.84071        -2.15773        24.37276
|128>    H       -6.63793        -3.52559        24.72808
|129> *
|130>
|131>                          ****END OF INPUT****

CARTESIAN COORDINATES (ANGSTROEM)
---------------------------------
  C      3.963620   -2.751120    4.750860
  C      4.706240   -2.358900    3.680780
  C      4.224930   -1.152250    3.134750
  C      3.109030   -0.660990    3.825730
  S      2.659580   -1.669360    5.128260
  C      2.691180    0.551110    3.211940
  C      3.545430    0.820970    2.135400
  C      4.540140   -0.244770    2.051860
  C      5.550430   -0.352750    1.139530
  C      5.752700    0.605260    0.125220
  N      5.922370    1.382420   -0.701280
  C      6.459720   -1.430250    1.149460
  N      7.202680   -2.304130    1.151700
  C      3.219480    1.996530    1.460370
  C      2.119520    2.628320    2.013750
  S      1.481420    1.744880    3.397100
  C      1.506510    3.842720    1.590480
  C      0.408160    4.379460    2.215200
  C     -0.224460    5.562750    1.840010
  C      0.257390    6.353680    0.702940
  C      1.321730    6.017280   -0.056090
  S      2.270260    4.609300    0.197670
  C     -0.620220    7.469340    0.630040
  C     -1.580120    7.393590    1.643440
  C     -2.471880    8.490110    1.593600
  C     -2.171800    9.340490    0.577730
  S     -0.802760    8.857690   -0.364430
  C     -1.342420    6.197930    2.414550
  C     -2.041760    5.700430    3.539370
  C     -3.084670    6.298460    4.164140
  C     -3.761710    5.776590    5.311160
  C     -4.796390    6.509460    5.901110
  O     -5.109600    7.732030    5.344590
  C     -6.425550    7.857280    4.832480
  C     -5.475240    6.076420    7.067610
  O     -6.431410    6.902560    7.629090
  C     -5.907520    8.053300    8.265460
  C     -5.200450    4.859030    7.674760
  C     -4.183770    4.075760    7.079720
  C     -3.459630    4.527580    5.920210
  N     -2.549030    3.637170    5.532420
  S     -2.602650    2.361980    6.516920
  N     -3.776150    2.873480    7.486340
  C     -5.883270    4.403180    8.885460
  C     -5.151030    3.762060    9.891100
  C     -5.796410    3.341340   11.027850
  C     -7.176210    3.549100   11.188590
  C     -7.908580    4.176130   10.192360
  C     -7.257130    4.597010    9.048310
  C     -7.574350    3.013470   12.473710
  C     -6.441420    2.465260   13.101000
  C     -5.217500    2.635080   12.230890
  C     -4.605960    1.277590   11.838560
  C     -5.595750    0.371000   11.117380
  C     -4.150680    3.499190   12.928660
  C     -4.679510    4.865130   13.349510
  C     -6.535200    1.887260   14.342080
  C     -7.775610    1.852070   14.999000
  C     -8.892430    2.414830   14.363760
  C     -8.806160    2.986220   13.110790
  C     -7.951830    1.274890   16.309020
  C     -7.044430    0.548680   16.993360
  C     -7.259050    0.007960   18.294440
  C     -8.336910    0.158510   19.146880
  C     -8.160460   -0.532360   20.347560
  C     -6.941660   -1.217870   20.413380
  S     -6.009490   -1.007840   18.999860
  C     -6.865630   -1.882600   21.671350
  C     -8.033650   -1.610510   22.392760
  C     -8.887120   -0.753230   21.593300
  C    -10.109800   -0.248720   21.929970
  C    -10.720640   -0.520040   23.171630
  N    -11.223010   -0.735460   24.179950
  C    -10.844730    0.581780   21.059180
  N    -11.447590    1.258450   20.355880
  C     -8.042950   -2.233200   23.656630
  C     -6.906020   -2.951080   23.864330
  S     -5.793100   -2.891110   22.534290
  H      4.095000   -3.622850    5.359860
  H      5.551290   -2.907680    3.307120
  H      3.747410    2.384220    0.607860
  H      0.014390    3.831840    3.061830
  H      1.658880    6.616310   -0.887230
  H     -3.295520    8.659060    2.262160
  H     -2.678680   10.247160    0.310310
  H     -1.697700    4.756500    3.935640
  H     -3.451140    7.252710    3.820620
  H     -7.183210    7.651300    5.590760
  H     -6.571170    7.180670    3.983220
  H     -6.514640    8.888980    4.496160
  H     -6.769440    8.615800    8.619370
  H     -5.321980    8.668130    7.576730
  H     -5.281540    7.769300    9.118310
  H     -4.090230    3.612840    9.766340
  H     -8.971810    4.329980   10.301830
  H     -7.816290    5.072140    8.258060
  H     -4.247770    0.780210   12.742820
  H     -3.745910    1.457350   11.190430
  H     -6.467760    0.180700   11.739580
  H     -5.126530   -0.581190   10.880520
  H     -5.927330    0.831270   10.189630
  H     -3.308890    3.631090   12.245580
  H     -3.786080    2.965010   13.808810
  H     -5.038130    5.419730   12.485120
  H     -3.890580    5.442220   13.826820
  H     -5.502330    4.758800   14.053070
  H     -5.657680    1.477370   14.818180
  H     -9.845150    2.391410   14.873490
  H     -9.680990    3.408790   12.639640
  H     -8.921330    1.445470   16.757810
  H     -6.079660    0.327440   16.558730
  H     -9.202100    0.747260   18.905770
  H     -8.840710   -2.157730   24.372760
  H     -6.637930   -3.525590   24.728080

 Total Charge           Charge          ....    0
 Multiplicity           Mult            ....    1
 Number of Electrons    NEL             ....  584
 Basis Dimension        Dim             .... 1300

ORBITAL ENERGIES
----------------

  NO   OCC          E(Eh)            E(eV)
   0   2.0000     -89.017109     -2422.2787
   1   2.0000     -88.986502     -2421.4458
   2   2.0000     -88.984885     -2421.4018
   3   2.0000     -88.980477     -2421.2819
   4   2.0000     -88.978597     -2421.2307
   5   2.0000     -88.971133     -2421.0276
   6   2.0000     -88.952586     -2420.5229
   7   2.0000     -19.241794      -523.5958
   8   2.0000     -19.239519      -523.5339
   9   2.0000     -14.433183      -392.7469
  10   2.0000     -14.432734      -392.7347
  11   2.0000     -14.426456      -392.5638
  12   2.0000     -14.426157      -392.5557
  13   2.0000     -14.422588      -392.4586
  14   2.0000     -14.422155      -392.4468
  15   2.0000     -10.359816      -281.9049
  16   2.0000     -10.354691      -281.7655
  17   2.0000     -10.347533      -281.5707
  18   2.0000     -10.342998      -281.4473
  19   2.0000     -10.337560      -281.2993
  20   2.0000     -10.336001      -281.2569
  21   2.0000     -10.327028      -281.0127
  22   2.0000     -10.326961      -281.0109
  23   2.0000     -10.326573      -281.0003
  24   2.0000     -10.325920      -280.9826
  25   2.0000     -10.324166      -280.9348
  26   2.0000     -10.323782      -280.9244
  27   2.0000     -10.323651      -280.9208
  28   2.0000     -10.323470      -280.9159
  29   2.0000     -10.322830      -280.8985
  30   2.0000     -10.322495      -280.8894
  31   2.0000     -10.318696      -280.7860
  32   2.0000     -10.318607      -280.7836
  33   2.0000     -10.318025      -280.7677
  34   2.0000     -10.316530      -280.7271
  35   2.0000     -10.315852      -280.7086
  36   2.0000     -10.312036      -280.6048
  37   2.0000     -10.308637      -280.5123
  38   2.0000     -10.303907      -280.3836
  39   2.0000     -10.298138      -280.2266
  40   2.0000     -10.296048      -280.1697
  41   2.0000     -10.295412      -280.1524
  42   2.0000     -10.294709      -280.1333
  43   2.0000     -10.293611      -280.1034
  44   2.0000     -10.292812      -280.0816
  45   2.0000     -10.292468      -280.0723
  46   2.0000     -10.291724      -280.0521
  47   2.0000     -10.290524      -280.0194
  48   2.0000     -10.290065      -280.0069
  49   2.0000     -10.287267      -279.9308
  50   2.0000     -10.286352      -279.9059
  51   2.0000     -10.286018      -279.8968
  52   2.0000     -10.282746      -279.8077
  53   2.0000     -10.282445      -279.7995
  54   2.0000     -10.279334      -279.7149
  55   2.0000     -10.277488      -279.6647
  56   2.0000     -10.275895      -279.6213
  57   2.0000     -10.274223      -279.5758
  58   2.0000     -10.272315      -279.5239
  59   2.0000     -10.270361      -279.4707
  60   2.0000     -10.269365      -279.4436
  61   2.0000     -10.268475      -279.4194
  62   2.0000     -10.267511      -279.3932
  63   2.0000     -10.267276      -279.3868
  64   2.0000     -10.266845      -279.3751
  65   2.0000     -10.266651      -279.3698
  66   2.0000     -10.264412      -279.3089
  67   2.0000     -10.263606      -279.2869
  68   2.0000     -10.262679      -279.2617
  69   2.0000     -10.260937      -279.2143
  70   2.0000     -10.260559      -279.2040
  71   2.0000     -10.260349      -279.1983
  72   2.0000     -10.260052      -279.1902
  73   2.0000     -10.259556      -279.1767
  74   2.0000     -10.259035      -279.1625
  75   2.0000     -10.258267      -279.1416
  76   2.0000     -10.243383      -278.7366
  77   2.0000     -10.241043      -278.6729
  78   2.0000      -8.109106      -220.6600
  79   2.0000      -8.080568      -219.8834
  80   2.0000      -8.079863      -219.8643
  81   2.0000      -8.075374      -219.7421
  82   2.0000      -8.073358      -219.6873
  83   2.0000      -8.066334      -219.4961
  84   2.0000      -8.048014      -218.9976
  85   2.0000      -6.080452      -165.4575
  86   2.0000      -6.072637      -165.2449
  87   2.0000      -6.071289      -165.2082
  88   2.0000      -6.049890      -164.6259
  89   2.0000      -6.049137      -164.6054
  90   2.0000      -6.045785      -164.5142
  91   2.0000      -6.044685      -164.4843
  92   2.0000      -6.044633      -164.4828
  93   2.0000      -6.042833      -164.4338
  94   2.0000      -6.042503      -164.4249
  95   2.0000      -6.042457      -164.4236
  96   2.0000      -6.040210      -164.3625
  97   2.0000      -6.038434      -164.3141
  98   2.0000      -6.038023      -164.3030
  99   2.0000      -6.036010      -164.2482
 100   2.0000      -6.035862      -164.2441
 101   2.0000      -6.031445      -164.1240
 102   2.0000      -6.028014      -164.0306
 103   2.0000      -6.017405      -163.7419
 104   2.0000      -6.013209      -163.6277
 105   2.0000      -6.010101      -163.5432
 106   2.0000      -1.154894       -31.4263
 107   2.0000      -1.128859       -30.7178
 108   2.0000      -1.117964       -30.4214
 109   2.0000      -1.039303       -28.2809
 110   2.0000      -1.033622       -28.1263
 111   2.0000      -1.017825       -27.6964
 112   2.0000      -1.013451       -27.5774
 113   2.0000      -1.003936       -27.3185
 114   2.0000      -1.002425       -27.2774
 115   2.0000      -1.000011       -27.2117
 116   2.0000      -0.992099       -26.9964
 117   2.0000      -0.985279       -26.8108
 118   2.0000      -0.982835       -26.7443
 119   2.0000      -0.974293       -26.5118
 120   2.0000      -0.966555       -26.3013
 121   2.0000      -0.955607       -26.0034
 122   2.0000      -0.950398       -25.8616
 123   2.0000      -0.948651       -25.8141
 124   2.0000      -0.937478       -25.5101
 125   2.0000      -0.922793       -25.1105
 126   2.0000      -0.914119       -24.8744
 127   2.0000      -0.906827       -24.6760
 128   2.0000      -0.904059       -24.6007
 129   2.0000      -0.886900       -24.1338
 130   2.0000      -0.882923       -24.0256
 131   2.0000      -0.877587       -23.8804
 132   2.0000      -0.862767       -23.4771
 133   2.0000      -0.861119       -23.4322
 134   2.0000      -0.853903       -23.2359
 135   2.0000      -0.852037       -23.1851
 136   2.0000      -0.847905       -23.0727
 137   2.0000      -0.842575       -22.9276
 138   2.0000      -0.841131       -22.8883
 139   2.0000      -0.833011       -22.6674
 140   2.0000      -0.827540       -22.5185
 141   2.0000      -0.826482       -22.4897
 142   2.0000      -0.822850       -22.3909
 143   2.0000      -0.815838       -22.2001
 144   2.0000      -0.807178       -21.9644
 145   2.0000      -0.790537       -21.5116
 146   2.0000      -0.781714       -21.2715
 147   2.0000      -0.779497       -21.2112
 148   2.0000      -0.774684       -21.0802
 149   2.0000      -0.770791       -20.9743
 150   2.0000      -0.768069       -20.9002
 151   2.0000      -0.760325       -20.6895
 152   2.0000      -0.755960       -20.5707
 153   2.0000      -0.740888       -20.1606
 154   2.0000      -0.724675       -19.7194
 155   2.0000      -0.722648       -19.6642
 156   2.0000      -0.712316       -19.3831
 157   2.0000      -0.705120       -19.1873
 158   2.0000      -0.698939       -19.0191
 159   2.0000      -0.694841       -18.9076
 160   2.0000      -0.690427       -18.7875
 161   2.0000      -0.687900       -18.7187
 162   2.0000      -0.677434       -18.4339
 163   2.0000      -0.672036       -18.2870
 164   2.0000      -0.670939       -18.2572
 165   2.0000      -0.670021       -18.2322
 166   2.0000      -0.666748       -18.1431
 167   2.0000      -0.664011       -18.0687
 168   2.0000      -0.658646       -17.9227
 169   2.0000      -0.649251       -17.6670
 170   2.0000      -0.647874       -17.6296
 171   2.0000      -0.643652       -17.5147
 172   2.0000      -0.633739       -17.2449
 173   2.0000      -0.628062       -17.0904
 174   2.0000      -0.621292       -16.9062
 175   2.0000      -0.620595       -16.8873
 176   2.0000      -0.614997       -16.7349
 177   2.0000      -0.611749       -16.6465
 178   2.0000      -0.607555       -16.5324
 179   2.0000      -0.606028       -16.4909
 180   2.0000      -0.604554       -16.4508
 181   2.0000      -0.600693       -16.3457
 182   2.0000      -0.592816       -16.1313
 183   2.0000      -0.587008       -15.9733
 184   2.0000      -0.585668       -15.9368
 185   2.0000      -0.575519       -15.6607
 186   2.0000      -0.566995       -15.4287
 187   2.0000      -0.564611       -15.3638
 188   2.0000      -0.559423       -15.2227
 189   2.0000      -0.557169       -15.1613
 190   2.0000      -0.554226       -15.0812
 191   2.0000      -0.552573       -15.0363
 192   2.0000      -0.542976       -14.7751
 193   2.0000      -0.541936       -14.7468
 194   2.0000      -0.540339       -14.7034
 195   2.0000      -0.538131       -14.6433
 196   2.0000      -0.537202       -14.6180
 197   2.0000      -0.536350       -14.5948
 198   2.0000      -0.533846       -14.5267
 199   2.0000      -0.530587       -14.4380
 200   2.0000      -0.529535       -14.4094
 201   2.0000      -0.526757       -14.3338
 202   2.0000      -0.522120       -14.2076
 203   2.0000      -0.517364       -14.0782
 204   2.0000      -0.514299       -13.9948
 205   2.0000      -0.513097       -13.9621
 206   2.0000      -0.509729       -13.8704
 207   2.0000      -0.509175       -13.8553
 208   2.0000      -0.508689       -13.8421
 209   2.0000      -0.506886       -13.7931
 210   2.0000      -0.505093       -13.7443
 211   2.0000      -0.501748       -13.6533
 212   2.0000      -0.499077       -13.5806
 213   2.0000      -0.495678       -13.4881
 214   2.0000      -0.491427       -13.3724
 215   2.0000      -0.490696       -13.3525
 216   2.0000      -0.489728       -13.3262
 217   2.0000      -0.487402       -13.2629
 218   2.0000      -0.485175       -13.2023
 219   2.0000      -0.483347       -13.1525
 220   2.0000      -0.482530       -13.1303
 221   2.0000      -0.480515       -13.0755
 222   2.0000      -0.476265       -12.9598
 223   2.0000      -0.474323       -12.9070
 224   2.0000      -0.472514       -12.8578
 225   2.0000      -0.466195       -12.6858
 226   2.0000      -0.465596       -12.6695
 227   2.0000      -0.463771       -12.6199
 228   2.0000      -0.460241       -12.5238
 229   2.0000      -0.458521       -12.4770
 230   2.0000      -0.457833       -12.4583
 231   2.0000      -0.454677       -12.3724
 232   2.0000      -0.453923       -12.3519
 233   2.0000      -0.453652       -12.3445
 234   2.0000      -0.452991       -12.3265
 235   2.0000      -0.450708       -12.2644
 236   2.0000      -0.449826       -12.2404
 237   2.0000      -0.448861       -12.2141
 238   2.0000      -0.445473       -12.1219
 239   2.0000      -0.443163       -12.0591
 240   2.0000      -0.441055       -12.0017
 241   2.0000      -0.440114       -11.9761
 242   2.0000      -0.438897       -11.9430
 243   2.0000      -0.438073       -11.9206
 244   2.0000      -0.436537       -11.8788
 245   2.0000      -0.435670       -11.8552
 246   2.0000      -0.433744       -11.8028
 247   2.0000      -0.433037       -11.7835
 248   2.0000      -0.432675       -11.7737
 249   2.0000      -0.430482       -11.7140
 250   2.0000      -0.429313       -11.6822
 251   2.0000      -0.427348       -11.6287
 252   2.0000      -0.423617       -11.5272
 253   2.0000      -0.420527       -11.4431
 254   2.0000      -0.420022       -11.4294
 255   2.0000      -0.419607       -11.4181
 256   2.0000      -0.418328       -11.3833
 257   2.0000      -0.415655       -11.3106
 258   2.0000      -0.415045       -11.2940
 259   2.0000      -0.413516       -11.2523
 260   2.0000      -0.413043       -11.2395
 261   2.0000      -0.407858       -11.0984
 262   2.0000      -0.404941       -11.0190
 263   2.0000      -0.402885       -10.9631
 264   2.0000      -0.402316       -10.9476
 265   2.0000      -0.391131       -10.6432
 266   2.0000      -0.390223       -10.6185
 267   2.0000      -0.386678       -10.5220
 268   2.0000      -0.385609       -10.4930
 269   2.0000      -0.382492       -10.4081
 270   2.0000      -0.379792       -10.3347
 271   2.0000      -0.376087       -10.2338
 272   2.0000      -0.363987        -9.9046
 273   2.0000      -0.358209        -9.7474
 274   2.0000      -0.355923        -9.6852
 275   2.0000      -0.352627        -9.5955
 276   2.0000      -0.345263        -9.3951
 277   2.0000      -0.343316        -9.3421
 278   2.0000      -0.337964        -9.1965
 279   2.0000      -0.331582        -9.0228
 280   2.0000      -0.324137        -8.8202
 281   2.0000      -0.317384        -8.6364
 282   2.0000      -0.315481        -8.5847
 283   2.0000      -0.312980        -8.5166
 284   2.0000      -0.310917        -8.4605
 285   2.0000      -0.305543        -8.3142
 286   2.0000      -0.294834        -8.0228
 287   2.0000      -0.289928        -7.8893
 288   2.0000      -0.275291        -7.4910
 289   2.0000      -0.260316        -7.0836
 290   2.0000      -0.239826        -6.5260
 291   2.0000      -0.216605        -5.8941
 292   0.0000      -0.099808        -2.7159
 293   0.0000      -0.093403        -2.5416
 294   0.0000      -0.069043        -1.8788
 295   0.0000      -0.042761        -1.1636
 296   0.0000      -0.037018        -1.0073

MULLIKEN ATOMIC CHARGES
-----------------------
   0 C :   -0.084708
   1 C :    0.040254
   2 C :   -0.033717
   3 C :   -0.115366
   4 S :    0.176539
   5 C :   -0.098557
   6 C :    0.019427
   7 C :    0.296521
   8 C :   -0.298435
   9 C :   -0.186709
  10 N :    0.169680
  11 C :   -0.192302
  12 N :    0.174995
  13 C :   -0.058597
  14 C :   -0.064395
  15 S :    0.162720
  16 C :   -0.013861
  17 C :   -0.093841
  18 C :    0.045556
  19 C :    0.068636
  20 C :   -0.124618
  21 S :    0.122211
  22 C :   -0.116056
  23 C :    0.053145
  24 C :   -0.006214
  25 C :   -0.067908
  26 S :    0.123703
  27 C :    0.105832
  28 C :    0.002231
  29 C :   -0.080947
  30 C :    0.060885
  31 C :    0.089026
  32 O :   -0.344935
  33 C :    0.186419
  34 C :    0.066193
  35 O :   -0.350673
  36 C :    0.195101
  37 C :    0.061405
  38 C :   -0.009702
  39 C :    0.026303
  40 N :   -0.299534
  41 S :    0.489350
  42 N :   -0.278033
  43 C :    0.004465
  44 C :   -0.053365
  45 C :   -0.003020
  46 C :    0.118358
  47 C :   -0.067977
  48 C :    0.020466
  49 C :    0.105579
  50 C :    0.016785
  51 C :   -0.141426
  52 C :    0.071334
  53 C :    0.025122
  54 C :    0.069829
  55 C :    0.024625
  56 C :   -0.091634
  57 C :    0.125167
  58 C :   -0.023275
  59 C :   -0.046528
  60 C :   -0.015326
  61 C :    0.061044
  62 C :   -0.076239
  63 C :   -0.032718
  64 C :    0.000380
  65 C :   -0.108871
  66 S :    0.174454
  67 C :   -0.116730
  68 C :   -0.035805
  69 C :    0.302321
  70 C :   -0.302637
  71 C :   -0.192003
  72 N :    0.171176
  73 C :   -0.182393
  74 N :    0.162442
  75 C :    0.034665
  76 C :   -0.085229
  77 S :    0.174001
  78 H :    0.034713
  79 H :    0.011638
  80 H :    0.020138
  81 H :    0.000326
  82 H :    0.035735
  83 H :   -0.008715
  84 H :    0.021135
  85 H :   -0.018116
  86 H :   -0.052942
  87 H :    0.038438
  88 H :    0.017124
  89 H :    0.029936
  90 H :    0.032212
  91 H :    0.031442
  92 H :    0.018846
  93 H :   -0.034061
  94 H :   -0.039049
  95 H :   -0.022284
  96 H :   -0.009256
  97 H :   -0.000179
  98 H :    0.018976
  99 H :    0.003580
 100 H :    0.028113
 101 H :   -0.003566
 102 H :   -0.006303
 103 H :    0.019506
 104 H :    0.006724
 105 H :    0.023363
 106 H :   -0.046962
 107 H :   -0.025859
 108 H :   -0.036229
 109 H :   -0.015532
 110 H :   -0.024414
 111 H :    0.003181
 112 H :    0.011302
 113 H :    0.032974
Sum of atomic charges:   -0.0000000

LOEWDIN ATOMIC CHARGES
----------------------
   0 C :   -0.179694
   1 C :   -0.033516
   2 C :   -0.079892
   3 C :   -0.181019
   4 S :    0.472513
   5 C :   -0.183544
   6 C :   -0.068261
   7 C :    0.084338
   8 C :   -0.104579
   9 C :   -0.016192
  10 N :   -0.035307
  11 C :   -0.016836
  12 N :   -0.034574
  13 C :   -0.043778
  14 C :   -0.176471
  15 S :    0.474184
  16 C :   -0.184223
  17 C :   -0.027953
  18 C :   -0.021355
  19 C :   -0.050407
  20 C :   -0.139907
  21 S :    0.452234
  22 C :   -0.200358
  23 C :   -0.036805
  24 C :   -0.064651
  25 C :   -0.168353
  26 S :    0.420624
  27 C :   -0.044139
  28 C :   -0.008018
  29 C :   -0.040748
  30 C :   -0.043587
  31 C :    0.034292
  32 O :   -0.123993
  33 C :    0.077012
  34 C :    0.035989
  35 O :   -0.123124
  36 C :    0.079818
  37 C :   -0.044256
  38 C :   -0.043867
  39 C :   -0.038108
  40 N :   -0.287880
  41 S :    0.618177
  42 N :   -0.282626
  43 C :   -0.018786
  44 C :   -0.008297
  45 C :   -0.002599
  46 C :   -0.018084
  47 C :   -0.025464
  48 C :   -0.007509
  49 C :   -0.013997
  50 C :    0.005305
  51 C :   -0.035511
  52 C :   -0.011874
  53 C :   -0.057593
  54 C :   -0.012007
  55 C :   -0.058254
  56 C :   -0.017853
  57 C :   -0.027937
  58 C :   -0.016578
  59 C :   -0.019300
  60 C :   -0.003327
  61 C :   -0.053813
  62 C :   -0.158919
  63 C :   -0.034122
  64 C :   -0.067855
  65 C :   -0.192882
  66 S :    0.468691
  67 C :   -0.179364
  68 C :   -0.082596
  69 C :    0.085846
  70 C :   -0.108438
  71 C :   -0.016764
  72 N :   -0.037480
  73 C :   -0.015057
  74 N :   -0.040244
  75 C :   -0.034510
  76 C :   -0.182691
  77 S :    0.471394
  78 H :    0.026934
  79 H :    0.042435
  80 H :    0.034325
  81 H :    0.029609
  82 H :    0.036615
  83 H :    0.030144
  84 H :    0.022040
  85 H :    0.022906
  86 H :    0.022695
  87 H :    0.013419
  88 H :    0.014318
  89 H :    0.023758
  90 H :    0.025066
  91 H :    0.013646
  92 H :    0.015962
  93 H :    0.022986
  94 H :    0.025180
  95 H :    0.027041
  96 H :    0.016867
  97 H :    0.021094
  98 H :    0.024444
  99 H :    0.022059
 100 H :    0.028111
 101 H :    0.019592
 102 H :    0.018063
 103 H :    0.024774
 104 H :    0.022829
 105 H :    0.025855
 106 H :    0.021030
 107 H :    0.027012
 108 H :    0.026995
 109 H :    0.030231
 110 H :    0.023712
 111 H :    0.037549
 112 H :    0.041907
 113 H :    0.026105

  Mayer bond orders larger than 0.100000
B(  0-C ,  1-C ) :   1.5513 B(  0-C ,  4-S ) :   1.1449 B(  0-C , 78-H ) :   0.9648
B(  1-C ,  2-C ) :   1.2720 B(  1-C , 79-H ) :   0.9964 B(  2-C ,  3-C ) :   1.4536
B(  2-C ,  7-C ) :   1.0221 B(  3-C ,  4-S ) :   1.1360 B(  3-C ,  5-C ) :   1.1828
B(  5-C ,  6-C ) :   1.4674 B(  5-C , 15-S ) :   1.1187 B(  6-C ,  7-C ) :   0.9950
B(  6-C , 13-C ) :   1.2954 B(  7-C ,  8-C ) :   1.7057 B(  8-C ,  9-C ) :   1.1349
B(  8-C , 11-C ) :   1.1323 B(  9-C , 10-N ) :   2.9892 B( 11-C , 12-N ) :   3.0035
B( 13-C , 14-C ) :   1.4636 B( 13-C , 80-H ) :   0.9802 B( 14-C , 15-S ) :   1.1093
B( 14-C , 16-C ) :   1.1625 B( 16-C , 17-C ) :   1.5313 B( 16-C , 21-S ) :   1.0467
B( 17-C , 18-C ) :   1.2513 B( 17-C , 81-H ) :   0.9591 B( 18-C , 19-C ) :   1.0459
B( 18-C , 27-C ) :   1.3874 B( 19-C , 20-C ) :   1.6131 B( 19-C , 22-C ) :   1.1754
B( 20-C , 21-S ) :   1.1315 B( 20-C , 82-H ) :   0.9410 B( 22-C , 23-C ) :   1.4513
B( 22-C , 26-S ) :   1.0778 B( 23-C , 24-C ) :   1.2150 B( 23-C , 27-C ) :   1.0678
B( 24-C , 25-C ) :   1.5842 B( 24-C , 83-H ) :   1.0017 B( 25-C , 26-S ) :   1.1531
B( 25-C , 84-H ) :   0.9644 B( 27-C , 28-C ) :   1.1642 B( 28-C , 29-C ) :   1.5875
B( 28-C , 85-H ) :   0.9431 B( 29-C , 30-C ) :   1.1602 B( 29-C , 86-H ) :   0.9720
B( 30-C , 31-C ) :   1.4118 B( 30-C , 37-C ) :   0.1229 B( 30-C , 39-C ) :   1.1217
B( 31-C , 32-O ) :   1.1170 B( 31-C , 34-C ) :   1.1488 B( 32-O , 33-C ) :   0.9264
B( 33-C , 87-H ) :   0.9657 B( 33-C , 88-H ) :   0.9675 B( 33-C , 89-H ) :   0.9835
B( 34-C , 35-O ) :   1.1015 B( 34-C , 37-C ) :   1.4886 B( 35-O , 36-C ) :   0.9287
B( 36-C , 90-H ) :   0.9833 B( 36-C , 91-H ) :   0.9668 B( 36-C , 92-H ) :   0.9676
B( 37-C , 38-C ) :   1.1940 B( 37-C , 43-C ) :   0.9566 B( 38-C , 39-C ) :   1.1479
B( 38-C , 42-N ) :   1.5401 B( 39-C , 40-N ) :   1.5270 B( 40-N , 41-S ) :   1.2403
B( 40-N , 42-N ) :   0.1462 B( 41-S , 42-N ) :   1.2558 B( 43-C , 44-C ) :   1.3330
B( 43-C , 48-C ) :   1.3836 B( 44-C , 45-C ) :   1.3976 B( 44-C , 93-H ) :   0.9977
B( 45-C , 46-C ) :   1.3671 B( 45-C , 51-C ) :   0.9150 B( 46-C , 47-C ) :   1.3378
B( 46-C , 49-C ) :   0.9878 B( 47-C , 48-C ) :   1.3755 B( 47-C , 94-H ) :   0.9938
B( 48-C , 95-H ) :   0.9862 B( 49-C , 50-C ) :   1.3548 B( 49-C , 59-C ) :   1.3473
B( 50-C , 51-C ) :   0.9160 B( 50-C , 56-C ) :   1.4122 B( 51-C , 52-C ) :   1.0379
B( 51-C , 54-C ) :   1.0384 B( 52-C , 53-C ) :   1.1027 B( 52-C , 96-H ) :   0.9390
B( 52-C , 97-H ) :   0.9381 B( 53-C , 98-H ) :   0.9649 B( 53-C , 99-H ) :   0.9634
B( 53-C ,100-H ) :   0.9636 B( 54-C , 55-C ) :   1.1020 B( 54-C ,101-H ) :   0.9388
B( 54-C ,102-H ) :   0.9388 B( 55-C ,103-H ) :   0.9643 B( 55-C ,104-H ) :   0.9638
B( 55-C ,105-H ) :   0.9639 B( 56-C , 57-C ) :   1.2949 B( 56-C ,106-H ) :   0.9993
B( 57-C , 58-C ) :   1.3347 B( 57-C , 60-C ) :   1.0723 B( 58-C , 59-C ) :   1.3717
B( 58-C ,107-H ) :   0.9939 B( 59-C ,108-H ) :   0.9918 B( 60-C , 61-C ) :   1.7117
B( 60-C ,109-H ) :   0.9826 B( 61-C , 62-C ) :   1.0979 B( 61-C ,110-H ) :   0.9536
B( 62-C , 63-C ) :   1.4753 B( 62-C , 66-S ) :   1.1123 B( 63-C , 64-C ) :   1.2926
B( 63-C ,111-H ) :   0.9914 B( 64-C , 65-C ) :   1.4621 B( 64-C , 69-C ) :   0.9958
B( 65-C , 66-S ) :   1.1172 B( 65-C , 67-C ) :   1.1821 B( 67-C , 68-C ) :   1.4582
B( 67-C , 77-S ) :   1.1396 B( 68-C , 69-C ) :   1.0179 B( 68-C , 75-C ) :   1.2736
B( 69-C , 70-C ) :   1.7062 B( 70-C , 71-C ) :   1.1301 B( 70-C , 73-C ) :   1.1334
B( 71-C , 72-N ) :   3.0035 B( 73-C , 74-N ) :   2.9869 B( 75-C , 76-C ) :   1.5559
B( 75-C ,112-H ) :   0.9955 B( 76-C , 77-S ) :   1.1423 B( 76-C ,113-H ) :   0.9640

-----------------------------------------------------------------------------
         ABSORPTION SPECTRUM VIA TRANSITION ELECTRIC DIPOLE MOMENTS
-----------------------------------------------------------------------------
State   Energy  Wavelength   fosc         T2         TX        TY        TZ
        (cm-1)    (nm)                  (au**2)     (au)      (au)      (au)
-----------------------------------------------------------------------------
   0   10815.2    924.6   0.095959086   2.92096   1.16778  -1.23557  -0.17499
   1   13373.8    747.7   0.101523659   2.49912   0.13726   0.64551  -1.43652
   2   16630.8    601.3   0.796648880  15.76991   2.85106  -0.49712  -2.71923
   3   18069.0    553.4   0.008695979   0.15844   0.17061  -0.34269   0.10908
   4   21124.0    473.4   0.158783260   2.47459  -0.43685   1.26442  -0.82765
   5   21284.9    469.8   0.011673577   0.18055   0.20696  -0.36964  -0.03303
   6   23688.0    422.2   0.268072092   3.72562   0.03310  -1.26661   1.45610
   7   23917.9    418.1   0.399223938   5.49502  -1.71425   1.43560   0.70388
   8   25003.9    399.9   0.766850500  10.09668   0.47726   1.57953  -2.71551
   9   25821.7    387.3   0.017944731   0.22878  -0.20350   0.06327  -0.42822
  10   26170.2    382.1   0.008301115   0.10443   0.16682  -0.18824  -0.20289
  11   27415.0    364.8   0.523225040   6.28313  -0.07615  -1.03159   2.28323
  12   28049.0    356.5   0.737477089   8.65579   0.74488   1.13457  -2.61030
  13   28761.0    347.7   0.014406373   0.16490   0.21724   0.03987  -0.34076
  14   30567.1    327.1   0.091069727   0.98083   0.10697   0.22024  -0.95963
  15   31135.4    321.2   0.010565288   0.11171  -0.04246   0.28289  -0.17286
  16   31345.5    319.0   0.428778690   4.50332   1.65833  -0.60149  -1.17961
  17   31615.5    316.3   0.280150605   2.91720   1.19202   0.12019  -1.21732
  18   32089.2    311.6   0.167163856   1.71498  -0.66236   0.97571  -0.56944
  19   32159.9    310.9   0.594073092   6.08136   2.25537  -0.99323  -0.09044
  20   32398.6    308.7   0.154048370   1.56533   0.93648  -0.81720  -0.14328
  21   33164.7    301.5   0.187340288   1.85965  -0.16835   0.64650  -1.18884
  22   33471.2    298.8   0.225565854   2.21860  -0.98276   1.11662   0.07706
  23   33525.6    298.3   0.054393533   0.53413  -0.16630  -0.48126   0.52427
  24   33955.1    294.5   0.037725053   0.36576  -0.01821   0.34301  -0.49777
  25   34074.4    293.5   0.104080083   1.00558   0.70456  -0.70472   0.11198
  26   34530.6    289.6   0.649819449   6.19533  -0.57016  -1.58187   1.83520
  27   34633.9    288.7   0.111889096   1.06356  -0.49355   0.81762  -0.38917
  28   35139.3    284.6   0.009273003   0.08688   0.11138  -0.16863   0.21455
  29   35290.8    283.4   0.030368975   0.28330   0.13676  -0.49789   0.12924
  30   35420.6    282.3   0.478980463   4.45181   1.49097  -1.47051  -0.25775
  31   35977.1    278.0   0.038104606   0.34868   0.45111  -0.07706  -0.37315
  32   36356.2    275.1   0.116259977   1.05276   0.37537   0.50403  -0.81105
  33   36824.5    271.6   0.128958623   1.15289  -0.47251   0.92276  -0.27952
  34   37184.3    268.9   0.047917861   0.42424   0.30372  -0.57220   0.06772
  35   37313.5    268.0   0.006658095   0.05874  -0.17299   0.15292  -0.07373
  36   37510.2    266.6   0.008166550   0.07167  -0.06689  -0.24489   0.08501
  37   37708.2    265.2   0.091508493   0.79892  -0.22661   0.75329  -0.42440
  38   37981.9    263.3   0.000485042   0.00420  -0.05829   0.01024   0.02648
  39   38128.0    262.3   0.004168569   0.03599  -0.01859  -0.08002   0.17101
  40   38350.9    260.8   0.095841434   0.82272   0.73569  -0.36920  -0.38102
  41   38562.9    259.3   0.005618467   0.04796  -0.06526   0.20897   0.00619
  42   38933.7    256.8   0.019750426   0.16700   0.26170  -0.20821   0.23487
  43   39125.7    255.6   0.018122284   0.15248   0.02014  -0.28744   0.26355
  44   39158.4    255.4   0.028191224   0.23701   0.18126  -0.44303   0.08878
  45   39558.4    252.8   0.006716167   0.05589  -0.01463   0.15815  -0.17512
  46   40066.1    249.6   0.007486042   0.06151  -0.01163   0.08986  -0.23087
  47   40179.6    248.9   0.018049661   0.14789  -0.22203   0.05048   0.30991

FINAL SINGLE POINT ENERGY     -5683.965392592104

DIPOLE MOMENT
-------------
                                X             Y             Z
Electronic contribution:     50.95722     -36.49608     -25.83765
Nuclear contribution   :    -50.60201      36.74902      25.95047
                        -----------------------------------------
Total Dipole Moment    :      0.35521       0.25294       0.11282
                        -----------------------------------------
Magnitude (a.u.)       :      0.45042
Magnitude (Debye)      :      1.14489

Rotational constants in cm-1:     0.000981     0.000190     0.000162
Rotational constants in MHz :    29.420283     5.710340     4.844575

                             ****ORCA TERMINATED NORMALLY****
TOTAL RUN TIME: 0 days 0 hours 26 minutes 24 seconds 535 msec
