                         Program Version 4.2.0 -  RELEASE  -
|  1> # ORCA input file
|  2> # SCF done       -196.397421156987          0.000909171854
|  3> ! CAM-B3LYP def2-SVP def2/J RIJCOSX Grid4 TightSCF
|  4> %maxcore 5000
|  5> %tddft
|  6>     Mode sTDDFT
|  7>     Ethresh 5.0
|  8>     maxcore 5000
|  9> end
| 10>
| 11> %pal
| 12>   nprocs 6
| 13>   end
| 14> * xyz 0 1
| 15>    C       -4.29422        -0.00999        -1.97207
| 16>    O       -3.46464        -0.86468        -1.75007
| 17>    C       -4.02322         1.43770        -2.11730
| 18>    C       -5.21578         2.11911        -2.41082
| 19>    C       -5.18773         3.49359        -2.60074
| 20>    C       -3.97552         4.15793        -2.49100
| 21>    C       -2.81010         3.46266        -2.19529
| 22>    C       -2.81192         2.08748        -2.00462
| 23>   Br       -1.17598         4.41950        -2.05253
| 24>    C       -6.30935         1.15134        -2.44920
| 25>    C       -7.63549         1.46884        -2.59901
| 26>    C       -8.11567         2.78016        -2.79993
| 27>    N       -8.57342         3.81811        -2.97644
| 28>    C       -8.71437         0.56128        -2.54492
| 29>    N       -9.65060        -0.10236        -2.49193
| 30>    C       -5.74413        -0.16597        -2.22408
| 31>    C       -6.44379        -1.33707        -2.37365
| 32>    C       -6.07640        -2.66264        -2.09259
| 33>    C       -5.01624        -3.21431        -1.37840
| 34>    C       -5.09073        -4.59503        -1.30715
| 35>    C       -6.21993        -5.13065        -1.98574
| 36>    S       -7.18956        -3.91606        -2.67690
| 37>    C       -6.19394        -6.53046        -1.87030
| 38>    C       -5.04847        -6.89515        -1.12568
| 39>    C       -4.31937        -5.69074        -0.75311
| 40>    C       -3.16577        -5.63674        -0.02725
| 41>    C       -2.45388        -6.80058         0.33618
| 42>    N       -1.83828        -7.73503         0.58807
| 43>    C       -2.58612        -4.42581         0.40989
| 44>    N       -2.11052        -3.46406         0.81294
| 45>    C       -4.95543        -8.25175        -0.88902
| 46>    C       -6.02472        -8.96464        -1.43938
| 47>    S       -7.13022        -7.89614        -2.31031
| 48>    C       -6.32101       -10.32922        -1.33690
| 49>    C       -5.75219       -11.21252        -0.44268
| 50>    C       -6.04543       -12.59124        -0.31420
| 51>    C       -5.40058       -13.21225         0.71857
| 52>    C       -4.57043       -12.35136         1.46171
| 53>    S       -4.61217       -10.74047         0.79748
| 54>    C       -3.78493       -12.59212         2.57988
| 55>    C       -3.54125       -13.78666         3.28311
| 56>    C       -2.69583       -13.63080         4.34470
| 57>    C       -2.23466       -12.30598         4.53565
| 58>    S       -2.91973       -11.26354         3.31152
| 59>    C       -1.35644       -11.89424         5.51541
| 60>    C       -0.87207       -10.60234         5.74618
| 61>    C       -1.20113        -9.38043         5.14720
| 62>    C       -0.46626        -8.32882         5.66255
| 63>    C        0.45283        -8.72329         6.66433
| 64>    S        0.37551       -10.40011         6.98078
| 65>    C        1.17822        -7.59467         7.08266
| 66>    C        0.72563        -6.47176         6.34638
| 67>    C       -0.33330        -6.89228         5.45076
| 68>    C       -1.05395        -6.09043         4.61315
| 69>    C       -0.77494        -4.70892         4.51736
| 70>    N       -0.53605        -3.58898         4.46254
| 71>    C       -2.14134        -6.53920         3.83809
| 72>    N       -3.05793        -6.86032         3.22728
| 73>    C        1.41149        -5.30968         6.66307
| 74>    C        2.38536        -5.51555         7.63286
| 75>    S        2.41768        -7.19251         8.17931
| 76>    C        3.25239        -4.58046         8.22847
| 77>    C        3.60288        -3.33801         7.78326
| 78>    C        4.15230        -2.35768         8.75746
| 79>    O        4.53006        -2.58604         9.88276
| 80>    C        4.08208        -1.05039         8.06761
| 81>    C        3.65552        -1.24374         6.74099
| 82>    C        3.49703        -2.67763         6.50083
| 83>    C        3.52439        -3.26763         5.26366
| 84>    C        3.58445        -2.54684         4.05201
| 85>    N        3.65081        -2.00654         3.04217
| 86>    C        3.61208        -4.65797         5.05702
| 87>    N        3.71023        -5.78102         4.83840
| 88>    C        3.47009        -0.15022         5.90918
| 89>    C        3.72628         1.11734         6.41037
| 90>    C        4.16579         1.28546         7.71706
| 91>    C        4.34868         0.20584         8.57135
| 92>   Br        4.51643         3.03985         8.35494
| 93>    H       -6.07796         4.05349        -2.83474
| 94>    H       -3.93573         5.22646        -2.63707
| 95>    H       -1.91144         1.53908        -1.77518
| 96>    H       -7.44166        -1.24757        -2.78739
| 97>    H       -4.23668        -2.61613        -0.94336
| 98>    H       -4.13603        -8.71112        -0.37135
| 99>    H       -7.10665       -10.71379        -1.97353
|100>    H       -6.72709       -13.08324        -0.98532
|101>    H       -5.51320       -14.25268         0.96533
|102>    H       -3.98274       -14.72226         2.99044
|103>    H       -2.38798       -14.42928         4.99636
|104>    H       -0.97989       -12.66801         6.17236
|105>    H       -1.94406        -9.27575         4.37899
|106>    H        1.19717        -4.34101         6.24990
|107>    H        3.64605        -4.84186         9.20603
|108>    H        3.11965        -0.26320         4.89620
|109>    H        3.58280         1.98186         5.78061
|110>    H        4.68398         0.33470         9.58872
|111> *
|112>
|113>                          ****END OF INPUT****

CARTESIAN COORDINATES (ANGSTROEM)
---------------------------------
  C     -4.294220   -0.009990   -1.972070
  O     -3.464640   -0.864680   -1.750070
  C     -4.023220    1.437700   -2.117300
  C     -5.215780    2.119110   -2.410820
  C     -5.187730    3.493590   -2.600740
  C     -3.975520    4.157930   -2.491000
  C     -2.810100    3.462660   -2.195290
  C     -2.811920    2.087480   -2.004620
  Br    -1.175980    4.419500   -2.052530
  C     -6.309350    1.151340   -2.449200
  C     -7.635490    1.468840   -2.599010
  C     -8.115670    2.780160   -2.799930
  N     -8.573420    3.818110   -2.976440
  C     -8.714370    0.561280   -2.544920
  N     -9.650600   -0.102360   -2.491930
  C     -5.744130   -0.165970   -2.224080
  C     -6.443790   -1.337070   -2.373650
  C     -6.076400   -2.662640   -2.092590
  C     -5.016240   -3.214310   -1.378400
  C     -5.090730   -4.595030   -1.307150
  C     -6.219930   -5.130650   -1.985740
  S     -7.189560   -3.916060   -2.676900
  C     -6.193940   -6.530460   -1.870300
  C     -5.048470   -6.895150   -1.125680
  C     -4.319370   -5.690740   -0.753110
  C     -3.165770   -5.636740   -0.027250
  C     -2.453880   -6.800580    0.336180
  N     -1.838280   -7.735030    0.588070
  C     -2.586120   -4.425810    0.409890
  N     -2.110520   -3.464060    0.812940
  C     -4.955430   -8.251750   -0.889020
  C     -6.024720   -8.964640   -1.439380
  S     -7.130220   -7.896140   -2.310310
  C     -6.321010  -10.329220   -1.336900
  C     -5.752190  -11.212520   -0.442680
  C     -6.045430  -12.591240   -0.314200
  C     -5.400580  -13.212250    0.718570
  C     -4.570430  -12.351360    1.461710
  S     -4.612170  -10.740470    0.797480
  C     -3.784930  -12.592120    2.579880
  C     -3.541250  -13.786660    3.283110
  C     -2.695830  -13.630800    4.344700
  C     -2.234660  -12.305980    4.535650
  S     -2.919730  -11.263540    3.311520
  C     -1.356440  -11.894240    5.515410
  C     -0.872070  -10.602340    5.746180
  C     -1.201130   -9.380430    5.147200
  C     -0.466260   -8.328820    5.662550
  C      0.452830   -8.723290    6.664330
  S      0.375510  -10.400110    6.980780
  C      1.178220   -7.594670    7.082660
  C      0.725630   -6.471760    6.346380
  C     -0.333300   -6.892280    5.450760
  C     -1.053950   -6.090430    4.613150
  C     -0.774940   -4.708920    4.517360
  N     -0.536050   -3.588980    4.462540
  C     -2.141340   -6.539200    3.838090
  N     -3.057930   -6.860320    3.227280
  C      1.411490   -5.309680    6.663070
  C      2.385360   -5.515550    7.632860
  S      2.417680   -7.192510    8.179310
  C      3.252390   -4.580460    8.228470
  C      3.602880   -3.338010    7.783260
  C      4.152300   -2.357680    8.757460
  O      4.530060   -2.586040    9.882760
  C      4.082080   -1.050390    8.067610
  C      3.655520   -1.243740    6.740990
  C      3.497030   -2.677630    6.500830
  C      3.524390   -3.267630    5.263660
  C      3.584450   -2.546840    4.052010
  N      3.650810   -2.006540    3.042170
  C      3.612080   -4.657970    5.057020
  N      3.710230   -5.781020    4.838400
  C      3.470090   -0.150220    5.909180
  C      3.726280    1.117340    6.410370
  C      4.165790    1.285460    7.717060
  C      4.348680    0.205840    8.571350
  Br     4.516430    3.039850    8.354940
  H     -6.077960    4.053490   -2.834740
  H     -3.935730    5.226460   -2.637070
  H     -1.911440    1.539080   -1.775180
  H     -7.441660   -1.247570   -2.787390
  H     -4.236680   -2.616130   -0.943360
  H     -4.136030   -8.711120   -0.371350
  H     -7.106650  -10.713790   -1.973530
  H     -6.727090  -13.083240   -0.985320
  H     -5.513200  -14.252680    0.965330
  H     -3.982740  -14.722260    2.990440
  H     -2.387980  -14.429280    4.996360
  H     -0.979890  -12.668010    6.172360
  H     -1.944060   -9.275750    4.378990
  H      1.197170   -4.341010    6.249900
  H      3.646050   -4.841860    9.206030
  H      3.119650   -0.263200    4.896200
  H      3.582800    1.981860    5.780610
  H      4.683980    0.334700    9.588720

 Total Charge           Charge          ....    0
 Multiplicity           Mult            ....    1
 Number of Electrons    NEL             ....  616
 Basis Dimension        Dim             .... 1242

ORBITAL ENERGIES
----------------

  NO   OCC          E(Eh)            E(eV)
   0   2.0000    -482.868684    -13139.5249
   1   2.0000    -482.866454    -13139.4642
   2   2.0000     -88.994012     -2421.6502
   3   2.0000     -88.991396     -2421.5790
   4   2.0000     -88.990294     -2421.5490
   5   2.0000     -88.989460     -2421.5263
   6   2.0000     -88.963633     -2420.8235
   7   2.0000     -88.961987     -2420.7787
   8   2.0000     -62.546397     -1701.9740
   9   2.0000     -62.544166     -1701.9133
  10   2.0000     -56.380229     -1534.1840
  11   2.0000     -56.378000     -1534.1234
  12   2.0000     -56.377710     -1534.1155
  13   2.0000     -56.377709     -1534.1155
  14   2.0000     -56.375484     -1534.0549
  15   2.0000     -56.375470     -1534.0545
  16   2.0000     -19.216730      -522.9138
  17   2.0000     -19.216440      -522.9059
  18   2.0000     -14.433520      -392.7560
  19   2.0000     -14.429811      -392.6551
  20   2.0000     -14.424369      -392.5070
  21   2.0000     -14.423457      -392.4822
  22   2.0000     -14.415823      -392.2745
  23   2.0000     -14.413974      -392.2242
  24   2.0000     -14.410750      -392.1364
  25   2.0000     -14.410516      -392.1301
  26   2.0000     -10.367713      -282.1198
  27   2.0000     -10.367489      -282.1137
  28   2.0000     -10.367096      -282.1030
  29   2.0000     -10.362697      -281.9833
  30   2.0000     -10.353952      -281.7454
  31   2.0000     -10.348092      -281.5859
  32   2.0000     -10.343724      -281.4670
  33   2.0000     -10.343317      -281.4560
  34   2.0000     -10.342609      -281.4367
  35   2.0000     -10.341577      -281.4086
  36   2.0000     -10.341327      -281.4018
  37   2.0000     -10.339275      -281.3460
  38   2.0000     -10.338884      -281.3353
  39   2.0000     -10.338324      -281.3201
  40   2.0000     -10.333762      -281.1960
  41   2.0000     -10.333267      -281.1825
  42   2.0000     -10.332827      -281.1705
  43   2.0000     -10.332073      -281.1500
  44   2.0000     -10.330366      -281.1035
  45   2.0000     -10.329484      -281.0795
  46   2.0000     -10.329008      -281.0666
  47   2.0000     -10.327915      -281.0368
  48   2.0000     -10.327690      -281.0307
  49   2.0000     -10.327135      -281.0156
  50   2.0000     -10.325402      -280.9685
  51   2.0000     -10.325061      -280.9592
  52   2.0000     -10.323775      -280.9242
  53   2.0000     -10.323606      -280.9196
  54   2.0000     -10.322919      -280.9009
  55   2.0000     -10.322102      -280.8787
  56   2.0000     -10.317129      -280.7434
  57   2.0000     -10.317053      -280.7413
  58   2.0000     -10.313847      -280.6541
  59   2.0000     -10.313088      -280.6334
  60   2.0000     -10.311778      -280.5978
  61   2.0000     -10.311422      -280.5881
  62   2.0000     -10.309499      -280.5357
  63   2.0000     -10.307900      -280.4922
  64   2.0000     -10.306455      -280.4529
  65   2.0000     -10.306187      -280.4456
  66   2.0000     -10.305065      -280.4151
  67   2.0000     -10.304839      -280.4089
  68   2.0000     -10.304752      -280.4066
  69   2.0000     -10.304571      -280.4016
  70   2.0000     -10.304498      -280.3997
  71   2.0000     -10.303933      -280.3843
  72   2.0000     -10.303445      -280.3710
  73   2.0000     -10.303006      -280.3590
  74   2.0000     -10.302503      -280.3454
  75   2.0000     -10.301605      -280.3209
  76   2.0000     -10.300451      -280.2895
  77   2.0000     -10.299803      -280.2719
  78   2.0000     -10.299012      -280.2504
  79   2.0000     -10.298137      -280.2266
  80   2.0000     -10.298081      -280.2250
  81   2.0000     -10.297850      -280.2188
  82   2.0000     -10.297088      -280.1980
  83   2.0000     -10.296737      -280.1885
  84   2.0000     -10.295789      -280.1627
  85   2.0000     -10.293318      -280.0954
  86   2.0000      -8.775681      -238.7984
  87   2.0000      -8.773451      -238.7377
  88   2.0000      -8.088778      -220.1068
  89   2.0000      -8.086161      -220.0356
  90   2.0000      -8.085147      -220.0080
  91   2.0000      -8.084133      -219.9804
  92   2.0000      -8.059626      -219.3136
  93   2.0000      -8.058159      -219.2737
  94   2.0000      -6.611508      -179.9083
  95   2.0000      -6.609303      -179.8483
  96   2.0000      -6.597786      -179.5349
  97   2.0000      -6.597386      -179.5240
  98   2.0000      -6.595572      -179.4746
  99   2.0000      -6.595108      -179.4620
 100   2.0000      -6.057943      -164.8450
 101   2.0000      -6.055388      -164.7755
 102   2.0000      -6.054275      -164.7452
 103   2.0000      -6.053844      -164.7335
 104   2.0000      -6.053441      -164.7225
 105   2.0000      -6.051357      -164.6658
 106   2.0000      -6.051181      -164.6610
 107   2.0000      -6.050206      -164.6345
 108   2.0000      -6.049364      -164.6116
 109   2.0000      -6.048395      -164.5852
 110   2.0000      -6.047554      -164.5623
 111   2.0000      -6.046273      -164.5274
 112   2.0000      -6.029364      -164.0673
 113   2.0000      -6.027893      -164.0273
 114   2.0000      -6.025155      -163.9528
 115   2.0000      -6.023630      -163.9113
 116   2.0000      -6.020668      -163.8307
 117   2.0000      -6.019188      -163.7904
 118   2.0000      -2.727458       -74.2179
 119   2.0000      -2.725202       -74.1565
 120   2.0000      -2.723679       -74.1151
 121   2.0000      -2.723375       -74.1068
 122   2.0000      -2.721472       -74.0550
 123   2.0000      -2.721175       -74.0469
 124   2.0000      -2.712469       -73.8100
 125   2.0000      -2.712459       -73.8098
 126   2.0000      -2.710235       -73.7492
 127   2.0000      -2.710217       -73.7488
 128   2.0000      -1.132137       -30.8070
 129   2.0000      -1.132136       -30.8070
 130   2.0000      -1.048256       -28.5245
 131   2.0000      -1.045087       -28.4383
 132   2.0000      -1.024091       -27.8669
 133   2.0000      -1.018709       -27.7205
 134   2.0000      -1.016955       -27.6728
 135   2.0000      -1.016303       -27.6550
 136   2.0000      -1.015401       -27.6305
 137   2.0000      -1.008672       -27.4474
 138   2.0000      -1.002804       -27.2877
 139   2.0000      -1.000752       -27.2319
 140   2.0000      -0.999412       -27.1954
 141   2.0000      -0.998708       -27.1762
 142   2.0000      -0.997483       -27.1429
 143   2.0000      -0.991015       -26.9669
 144   2.0000      -0.990567       -26.9547
 145   2.0000      -0.989127       -26.9155
 146   2.0000      -0.965300       -26.2671
 147   2.0000      -0.962171       -26.1820
 148   2.0000      -0.958913       -26.0934
 149   2.0000      -0.955716       -26.0064
 150   2.0000      -0.926447       -25.2099
 151   2.0000      -0.921925       -25.0869
 152   2.0000      -0.908907       -24.7326
 153   2.0000      -0.907330       -24.6897
 154   2.0000      -0.905485       -24.6395
 155   2.0000      -0.898930       -24.4611
 156   2.0000      -0.892144       -24.2765
 157   2.0000      -0.882930       -24.0258
 158   2.0000      -0.877530       -23.8788
 159   2.0000      -0.874224       -23.7888
 160   2.0000      -0.870671       -23.6922
 161   2.0000      -0.862217       -23.4621
 162   2.0000      -0.859948       -23.4004
 163   2.0000      -0.858655       -23.3652
 164   2.0000      -0.856887       -23.3171
 165   2.0000      -0.848967       -23.1016
 166   2.0000      -0.846560       -23.0361
 167   2.0000      -0.838180       -22.8080
 168   2.0000      -0.827430       -22.5155
 169   2.0000      -0.806063       -21.9341
 170   2.0000      -0.799020       -21.7424
 171   2.0000      -0.788402       -21.4535
 172   2.0000      -0.777874       -21.1670
 173   2.0000      -0.772895       -21.0315
 174   2.0000      -0.765638       -20.8341
 175   2.0000      -0.764643       -20.8070
 176   2.0000      -0.758153       -20.6304
 177   2.0000      -0.743748       -20.2384
 178   2.0000      -0.722918       -19.6716
 179   2.0000      -0.713646       -19.4193
 180   2.0000      -0.707447       -19.2506
 181   2.0000      -0.700342       -19.0573
 182   2.0000      -0.694729       -18.9045
 183   2.0000      -0.693626       -18.8745
 184   2.0000      -0.692596       -18.8465
 185   2.0000      -0.687424       -18.7057
 186   2.0000      -0.685613       -18.6565
 187   2.0000      -0.679827       -18.4990
 188   2.0000      -0.679446       -18.4887
 189   2.0000      -0.674687       -18.3592
 190   2.0000      -0.666476       -18.1357
 191   2.0000      -0.652892       -17.7661
 192   2.0000      -0.649573       -17.6758
 193   2.0000      -0.642404       -17.4807
 194   2.0000      -0.638796       -17.3825
 195   2.0000      -0.636563       -17.3218
 196   2.0000      -0.633019       -17.2253
 197   2.0000      -0.624525       -16.9942
 198   2.0000      -0.620884       -16.8951
 199   2.0000      -0.617511       -16.8033
 200   2.0000      -0.614979       -16.7344
 201   2.0000      -0.612651       -16.6711
 202   2.0000      -0.609871       -16.5954
 203   2.0000      -0.601354       -16.3637
 204   2.0000      -0.596285       -16.2257
 205   2.0000      -0.588200       -16.0057
 206   2.0000      -0.584308       -15.8998
 207   2.0000      -0.577845       -15.7240
 208   2.0000      -0.575680       -15.6650
 209   2.0000      -0.567493       -15.4423
 210   2.0000      -0.556896       -15.1539
 211   2.0000      -0.551908       -15.0182
 212   2.0000      -0.550934       -14.9917
 213   2.0000      -0.549780       -14.9603
 214   2.0000      -0.547491       -14.8980
 215   2.0000      -0.542247       -14.7553
 216   2.0000      -0.541046       -14.7226
 217   2.0000      -0.538420       -14.6512
 218   2.0000      -0.536681       -14.6038
 219   2.0000      -0.536400       -14.5962
 220   2.0000      -0.535085       -14.5604
 221   2.0000      -0.531455       -14.4616
 222   2.0000      -0.525682       -14.3045
 223   2.0000      -0.524964       -14.2850
 224   2.0000      -0.518901       -14.1200
 225   2.0000      -0.517624       -14.0853
 226   2.0000      -0.516668       -14.0592
 227   2.0000      -0.511470       -13.9178
 228   2.0000      -0.510444       -13.8899
 229   2.0000      -0.510003       -13.8779
 230   2.0000      -0.504960       -13.7406
 231   2.0000      -0.503607       -13.7038
 232   2.0000      -0.501419       -13.6443
 233   2.0000      -0.500610       -13.6223
 234   2.0000      -0.499532       -13.5930
 235   2.0000      -0.497540       -13.5387
 236   2.0000      -0.495225       -13.4758
 237   2.0000      -0.492938       -13.4135
 238   2.0000      -0.490426       -13.3452
 239   2.0000      -0.488316       -13.2878
 240   2.0000      -0.485059       -13.1991
 241   2.0000      -0.481140       -13.0925
 242   2.0000      -0.477906       -13.0045
 243   2.0000      -0.476459       -12.9651
 244   2.0000      -0.472337       -12.8529
 245   2.0000      -0.471252       -12.8234
 246   2.0000      -0.468906       -12.7596
 247   2.0000      -0.465366       -12.6633
 248   2.0000      -0.464146       -12.6301
 249   2.0000      -0.461084       -12.5467
 250   2.0000      -0.460422       -12.5287
 251   2.0000      -0.458544       -12.4776
 252   2.0000      -0.456218       -12.4143
 253   2.0000      -0.453321       -12.3355
 254   2.0000      -0.451190       -12.2775
 255   2.0000      -0.450438       -12.2570
 256   2.0000      -0.449973       -12.2444
 257   2.0000      -0.447803       -12.1854
 258   2.0000      -0.447493       -12.1769
 259   2.0000      -0.446357       -12.1460
 260   2.0000      -0.446022       -12.1369
 261   2.0000      -0.445633       -12.1263
 262   2.0000      -0.443954       -12.0806
 263   2.0000      -0.441616       -12.0170
 264   2.0000      -0.440706       -11.9922
 265   2.0000      -0.440084       -11.9753
 266   2.0000      -0.439488       -11.9591
 267   2.0000      -0.439111       -11.9488
 268   2.0000      -0.436863       -11.8876
 269   2.0000      -0.431702       -11.7472
 270   2.0000      -0.429310       -11.6821
 271   2.0000      -0.427351       -11.6288
 272   2.0000      -0.425569       -11.5803
 273   2.0000      -0.425410       -11.5760
 274   2.0000      -0.424511       -11.5515
 275   2.0000      -0.421945       -11.4817
 276   2.0000      -0.420927       -11.4540
 277   2.0000      -0.418561       -11.3896
 278   2.0000      -0.417977       -11.3737
 279   2.0000      -0.415811       -11.3148
 280   2.0000      -0.409930       -11.1548
 281   2.0000      -0.408850       -11.1254
 282   2.0000      -0.405091       -11.0231
 283   2.0000      -0.402509       -10.9528
 284   2.0000      -0.396545       -10.7905
 285   2.0000      -0.392403       -10.6778
 286   2.0000      -0.380634       -10.3576
 287   2.0000      -0.368470       -10.0266
 288   2.0000      -0.363644        -9.8953
 289   2.0000      -0.361161        -9.8277
 290   2.0000      -0.357941        -9.7401
 291   2.0000      -0.355656        -9.6779
 292   2.0000      -0.351643        -9.5687
 293   2.0000      -0.350113        -9.5271
 294   2.0000      -0.347854        -9.4656
 295   2.0000      -0.345654        -9.4057
 296   2.0000      -0.341581        -9.2949
 297   2.0000      -0.338435        -9.2093
 298   2.0000      -0.337158        -9.1745
 299   2.0000      -0.333507        -9.0752
 300   2.0000      -0.325662        -8.8617
 301   2.0000      -0.319588        -8.6964
 302   2.0000      -0.314419        -8.5558
 303   2.0000      -0.306380        -8.3370
 304   2.0000      -0.303278        -8.2526
 305   2.0000      -0.283619        -7.7177
 306   2.0000      -0.261843        -7.1251
 307   2.0000      -0.220874        -6.0103
 308   0.0000      -0.122824        -3.3422
 309   0.0000      -0.108248        -2.9456
 310   0.0000      -0.090639        -2.4664
 311   0.0000      -0.084727        -2.3055
 312   0.0000      -0.079173        -2.1544

MULLIKEN ATOMIC CHARGES
-----------------------
   0 C :    0.152700
   1 O :   -0.147137
   2 C :   -0.023560
   3 C :    0.032580
   4 C :   -0.025655
   5 C :    0.047269
   6 C :   -0.003421
   7 C :   -0.010867
   8 Br:   -0.020181
   9 C :    0.306258
  10 C :   -0.349805
  11 C :   -0.190029
  12 N :    0.151017
  13 C :   -0.199775
  14 N :    0.154284
  15 C :   -0.099108
  16 C :    0.039101
  17 C :   -0.116854
  18 C :    0.010616
  19 C :   -0.014612
  20 C :   -0.080516
  21 S :    0.198695
  22 C :   -0.106386
  23 C :    0.006104
  24 C :    0.313028
  25 C :   -0.287500
  26 C :   -0.177261
  27 N :    0.167132
  28 C :   -0.198971
  29 N :    0.200928
  30 C :   -0.045875
  31 C :   -0.086734
  32 S :    0.188787
  33 C :    0.030155
  34 C :   -0.030716
  35 C :    0.035360
  36 C :    0.035268
  37 C :   -0.034177
  38 S :    0.077184
  39 C :   -0.027455
  40 C :    0.034945
  41 C :    0.033420
  42 C :   -0.029003
  43 S :    0.074654
  44 C :    0.036887
  45 C :   -0.092522
  46 C :   -0.040103
  47 C :    0.008518
  48 C :   -0.108939
  49 S :    0.186945
  50 C :   -0.066583
  51 C :   -0.010476
  52 C :    0.317577
  53 C :   -0.291290
  54 C :   -0.191087
  55 N :    0.175474
  56 C :   -0.150325
  57 N :    0.155328
  58 C :    0.002540
  59 C :   -0.112037
  60 S :    0.210070
  61 C :    0.080882
  62 C :   -0.138580
  63 C :    0.134059
  64 O :   -0.140509
  65 C :   -0.001980
  66 C :    0.009096
  67 C :    0.261620
  68 C :   -0.323618
  69 C :   -0.178064
  70 N :    0.163463
  71 C :   -0.200950
  72 N :    0.168585
  73 C :   -0.016296
  74 C :    0.045782
  75 C :   -0.005408
  76 C :   -0.012074
  77 Br:   -0.021669
  78 H :    0.006859
  79 H :    0.004743
  80 H :    0.007145
  81 H :    0.011943
  82 H :    0.038805
  83 H :    0.037023
  84 H :   -0.009774
  85 H :   -0.005144
  86 H :   -0.007116
  87 H :   -0.008067
  88 H :   -0.006196
  89 H :   -0.011923
  90 H :    0.031146
  91 H :    0.025026
  92 H :    0.020226
  93 H :    0.016851
  94 H :    0.007560
  95 H :    0.002690
Sum of atomic charges:   -0.0000000

LOEWDIN ATOMIC CHARGES
----------------------
   0 C :    0.085731
   1 O :   -0.133220
   2 C :   -0.036003
   3 C :   -0.017131
   4 C :    0.007253
   5 C :   -0.014940
   6 C :   -0.098157
   7 C :    0.001260
   8 Br:    0.115243
   9 C :    0.076334
  10 C :   -0.144178
  11 C :   -0.018959
  12 N :   -0.054782
  13 C :   -0.024385
  14 N :   -0.054943
  15 C :   -0.105757
  16 C :    0.043358
  17 C :   -0.180089
  18 C :    0.024185
  19 C :   -0.075802
  20 C :   -0.151915
  21 S :    0.486340
  22 C :   -0.200345
  23 C :   -0.041072
  24 C :    0.073177
  25 C :   -0.084361
  26 C :   -0.013284
  27 N :   -0.034329
  28 C :   -0.023396
  29 N :   -0.012941
  30 C :   -0.045548
  31 C :   -0.149193
  32 S :    0.466344
  33 C :   -0.078926
  34 C :   -0.137243
  35 C :   -0.028858
  36 C :   -0.029271
  37 C :   -0.176116
  38 S :    0.417729
  39 C :   -0.170969
  40 C :   -0.031683
  41 C :   -0.026320
  42 C :   -0.142150
  43 S :    0.411860
  44 C :   -0.077406
  45 C :   -0.151564
  46 C :   -0.038400
  47 C :   -0.047647
  48 C :   -0.194146
  49 S :    0.473052
  50 C :   -0.153238
  51 C :   -0.067683
  52 C :    0.081494
  53 C :   -0.093298
  54 C :   -0.013818
  55 N :   -0.024306
  56 C :   -0.008461
  57 N :   -0.032078
  58 C :    0.012341
  59 C :   -0.183682
  60 S :    0.493117
  61 C :    0.043404
  62 C :   -0.097830
  63 C :    0.083608
  64 O :   -0.140257
  65 C :   -0.040584
  66 C :   -0.011949
  67 C :    0.064223
  68 C :   -0.135031
  69 C :   -0.020584
  70 N :   -0.043178
  71 C :   -0.015789
  72 N :   -0.045611
  73 C :    0.009428
  74 C :   -0.011364
  75 C :   -0.099671
  76 C :    0.000020
  77 Br:    0.113968
  78 H :    0.042418
  79 H :    0.039781
  80 H :    0.045757
  81 H :    0.042605
  82 H :    0.045082
  83 H :    0.025953
  84 H :    0.035901
  85 H :    0.035927
  86 H :    0.034798
  87 H :    0.034852
  88 H :    0.035729
  89 H :    0.035412
  90 H :    0.027868
  91 H :    0.042929
  92 H :    0.045526
  93 H :    0.045102
  94 H :    0.040891
  95 H :    0.043839

  Mayer bond orders larger than 0.100000
B(  0-C ,  1-O ) :   2.1831 B(  0-C ,  2-C ) :   0.9444 B(  0-C , 15-C ) :   0.9534
B(  2-C ,  3-C ) :   1.3336 B(  2-C ,  7-C ) :   1.3823 B(  3-C ,  4-C ) :   1.3641
B(  3-C ,  9-C ) :   0.9899 B(  4-C ,  5-C ) :   1.3826 B(  4-C , 78-H ) :   0.9837
B(  5-C ,  6-C ) :   1.3900 B(  5-C , 79-H ) :   0.9844 B(  6-C ,  7-C ) :   1.3335
B(  6-C ,  8-Br) :   0.9925 B(  7-C , 80-H ) :   1.0078 B(  9-C , 10-C ) :   1.6206
B(  9-C , 15-C ) :   1.0917 B( 10-C , 11-C ) :   1.1451 B( 10-C , 13-C ) :   1.1400
B( 11-C , 12-N ) :   2.9745 B( 13-C , 14-N ) :   2.9821 B( 15-C , 16-C ) :   1.5621
B( 16-C , 17-C ) :   1.2390 B( 16-C , 81-H ) :   0.9150 B( 17-C , 18-C ) :   1.3799
B( 17-C , 21-S ) :   1.0618 B( 18-C , 19-C ) :   1.3463 B( 18-C , 82-H ) :   0.9718
B( 19-C , 20-C ) :   1.3492 B( 19-C , 24-C ) :   0.9996 B( 20-C , 21-S ) :   1.1633
B( 20-C , 22-C ) :   1.2473 B( 22-C , 23-C ) :   1.3993 B( 22-C , 32-S ) :   1.0926
B( 23-C , 24-C ) :   0.9979 B( 23-C , 30-C ) :   1.3717 B( 24-C , 25-C ) :   1.7141
B( 25-C , 26-C ) :   1.1417 B( 25-C , 28-C ) :   1.1419 B( 26-C , 27-N ) :   2.9466
B( 28-C , 29-N ) :   2.9936 B( 30-C , 31-C ) :   1.3760 B( 30-C , 83-H ) :   0.9572
B( 31-C , 32-S ) :   1.1016 B( 31-C , 33-C ) :   1.1948 B( 33-C , 34-C ) :   1.5558
B( 33-C , 84-H ) :   0.9576 B( 34-C , 35-C ) :   1.1633 B( 34-C , 38-S ) :   1.0559
B( 35-C , 36-C ) :   1.5701 B( 35-C , 85-H ) :   0.9990 B( 36-C , 37-C ) :   1.2038
B( 36-C , 86-H ) :   0.9943 B( 37-C , 38-S ) :   1.0572 B( 37-C , 39-C ) :   1.4688
B( 39-C , 40-C ) :   1.2062 B( 39-C , 43-S ) :   1.0575 B( 40-C , 41-C ) :   1.5686
B( 40-C , 87-H ) :   0.9946 B( 41-C , 42-C ) :   1.1630 B( 41-C , 88-H ) :   0.9991
B( 42-C , 43-S ) :   1.0544 B( 42-C , 44-C ) :   1.5650 B( 44-C , 45-C ) :   1.1965
B( 44-C , 89-H ) :   0.9505 B( 45-C , 46-C ) :   1.3786 B( 45-C , 49-S ) :   1.1018
B( 46-C , 47-C ) :   1.3693 B( 46-C , 90-H ) :   0.9685 B( 47-C , 48-C ) :   1.4033
B( 47-C , 52-C ) :   0.9888 B( 48-C , 49-S ) :   1.1056 B( 48-C , 50-C ) :   1.2335
B( 50-C , 51-C ) :   1.3830 B( 50-C , 60-S ) :   1.1539 B( 51-C , 52-C ) :   1.0059
B( 51-C , 58-C ) :   1.3725 B( 52-C , 53-C ) :   1.7073 B( 53-C , 54-C ) :   1.1385
B( 53-C , 56-C ) :   1.1466 B( 54-C , 55-N ) :   2.9759 B( 56-C , 57-N ) :   2.9166
B( 58-C , 59-C ) :   1.3786 B( 58-C , 91-H ) :   0.9789 B( 59-C , 60-S ) :   1.0766
B( 59-C , 61-C ) :   1.1561 B( 61-C , 62-C ) :   1.6441 B( 61-C , 92-H ) :   0.9299
B( 62-C , 63-C ) :   0.9527 B( 62-C , 67-C ) :   1.0466 B( 63-C , 64-O ) :   2.2664
B( 63-C , 65-C ) :   0.9197 B( 65-C , 66-C ) :   1.3331 B( 65-C , 76-C ) :   1.3818
B( 66-C , 67-C ) :   1.0004 B( 66-C , 73-C ) :   1.3747 B( 67-C , 68-C ) :   1.6495
B( 68-C , 69-C ) :   1.1250 B( 68-C , 71-C ) :   1.1718 B( 69-C , 70-N ) :   2.9995
B( 71-C , 72-N ) :   2.9981 B( 73-C , 74-C ) :   1.3792 B( 73-C , 93-H ) :   0.9855
B( 74-C , 75-C ) :   1.3897 B( 74-C , 94-H ) :   0.9861 B( 75-C , 76-C ) :   1.3409
B( 75-C , 77-Br) :   0.9921 B( 76-C , 95-H ) :   1.0068

-----------------------------------------------------------------------------
         ABSORPTION SPECTRUM VIA TRANSITION ELECTRIC DIPOLE MOMENTS
-----------------------------------------------------------------------------
State   Energy  Wavelength   fosc         T2         TX        TY        TZ
        (cm-1)    (nm)                  (au**2)     (au)      (au)      (au)
-----------------------------------------------------------------------------
   0    7335.7   1363.2   0.378043255  16.96578  -2.65581   0.81460  -3.04120
   1    9523.1   1050.1   0.191260332   6.61185  -0.18989  -2.53242   0.40328
   2   13595.6    735.5   0.485561932  11.75769  -2.28736   0.37096  -2.52747
   3   16055.3    622.8   0.078791711   1.61561  -0.43015  -1.18239  -0.18040
   4   17534.4    570.3   1.323775734  24.85418  -1.02934  -4.83807   0.62268
   5   18087.5    552.9   0.008905237   0.16208  -0.01298   0.37527   0.14521
   6   19372.7    516.2   0.285654107   4.85430  -0.12673  -1.97540  -0.96749
   7   21937.7    455.8   0.440955244   6.61726   0.62327   2.49498  -0.06235
   8   22453.2    445.4   0.027566932   0.40419   0.06819  -0.32507  -0.54210
   9   23650.8    422.8   0.316525991   4.40595   0.93277   1.84800   0.34755
  10   24232.8    412.7   0.060193013   0.81775  -0.29960  -0.81865  -0.24040
  11   24597.2    406.6   0.091112342   1.21946   0.89920  -0.64072  -0.01964
  12   24849.1    402.4   0.047760878   0.63276  -0.25201  -0.70277   0.27453
  13   26363.4    379.3   0.068690731   0.85777  -0.37578   0.69611  -0.48166
  14   26820.6    372.8   0.022088099   0.27112   0.00301   0.48831   0.18073
  15   27378.3    365.3   0.077790751   0.93540   0.01980   0.90251   0.34710
  16   27714.8    360.8   0.417749668   4.96227  -1.57421  -1.20003  -1.02179
  17   28143.9    355.3   0.245642973   2.87339  -0.56658   1.26708  -0.97309
  18   28810.6    347.1   0.031510065   0.36006  -0.32449   0.47813  -0.16174
  19   29030.7    344.5   0.062535650   0.70916  -0.66438   0.34329  -0.38719
  20   29311.0    341.2   0.125016767   1.40415  -0.92724   0.13336  -0.72566
  21   29408.6    340.0   0.042055325   0.47078  -0.26264  -0.62417   0.11053
  22   30256.7    330.5   0.011913684   0.12963   0.19524   0.28153  -0.11067
  23   30316.5    329.9   0.027772932   0.30159   0.02704  -0.47624   0.27214
  24   30626.8    326.5   0.079965668   0.85956   0.59516  -0.63691   0.31575
  25   30994.8    322.6   0.016337125   0.17352   0.27776  -0.19683  -0.24007
  26   31222.6    320.3   0.023260957   0.24526  -0.25202  -0.05368  -0.42293
  27   31466.8    317.8   0.034582773   0.36181   0.58006   0.03434   0.15544
  28   31821.3    314.3   0.120300575   1.24459   0.83203   0.26388   0.69475
  29   32067.5    311.8   0.240632552   2.47038  -0.23793   1.55246   0.06031
  30   32103.9    311.5   0.050036067   0.51310  -0.42818   0.03074  -0.57342
  31   32325.7    309.4   0.421220551   4.28980  -1.25104  -1.62591  -0.28480
  32   32631.0    306.5   0.042090191   0.42465   0.08019  -0.62553  -0.16411
  33   32683.0    306.0   0.147410911   1.48485   0.09212  -0.91932   0.79449
  34   32844.0    304.5   0.008085930   0.08105  -0.26236   0.10046  -0.04609
  35   33132.5    301.8   0.319116915   3.17082  -1.52641   0.18343  -0.89847
  36   33209.5    301.1   0.053547668   0.53083   0.13022   0.45050   0.55761
  37   33486.0    298.6   0.261088072   2.56684  -0.32006  -1.56395  -0.13582
  38   33616.9    297.5   0.024478087   0.23972   0.43667   0.15419  -0.15894
  39   33834.0    295.6   0.041550339   0.40429   0.16936   0.10903   0.60310
  40   34109.0    293.2   0.033581267   0.32412   0.12731  -0.20515   0.51558
  41   34188.9    292.5   0.293336010   2.82459   1.27877  -0.04781   1.08952
  42   34469.1    290.1   0.086132984   0.82265  -0.87659  -0.12809   0.19451
  43   34562.2    289.3   0.113978081   1.08567  -0.52837   0.28571  -0.85138
  44   34776.2    287.6   0.193636412   1.83308   1.15846   0.54022   0.44632
  45   34999.9    285.7   0.182366286   1.71535   1.05156   0.24716   0.74059
  46   35232.0    283.8   0.304927480   2.84928  -0.08683   1.46813   0.82845
  47   35709.5    280.0   0.042377667   0.39069  -0.55102  -0.24811  -0.15969
  48   35870.4    278.8   0.016236786   0.14902   0.21073   0.31290   0.08187
  49   35973.3    278.0   0.015695941   0.14364   0.34281  -0.15128   0.05691
  50   36368.5    275.0   0.014169171   0.12826   0.22506  -0.18443   0.20880
  51   36549.2    273.6   0.072035995   0.64885   0.78951  -0.15105   0.05201
  52   36741.9    272.2   0.174629829   1.56471  -1.14168  -0.28147  -0.42666
  53   37002.7    270.3   0.031405661   0.27942  -0.39439  -0.27977  -0.21355
  54   37080.4    269.7   0.123205487   1.09386   0.03488   1.02368   0.21146
  55   37216.0    268.7   0.126965622   1.12314   0.06849  -0.51988  -0.92096
  56   37313.9    268.0   0.008210810   0.07244  -0.23684  -0.10659  -0.07061
  57   37549.2    266.3   0.028921409   0.25357   0.49645   0.02020  -0.08184
  58   37768.0    264.8   0.011806875   0.10292  -0.26876   0.16487  -0.05919
  59   37946.3    263.5   0.023357611   0.20264   0.12450  -0.37397   0.21747
  60   38077.8    262.6   0.022461783   0.19420  -0.03355  -0.42018   0.12853
  61   38195.3    261.8   0.001975283   0.01703   0.06809  -0.05497   0.09678
  62   38326.3    260.9   0.004142463   0.03558   0.09497   0.15061   0.06229
  63   38370.3    260.6   0.026996022   0.23162  -0.26976   0.37917  -0.12281
  64   38703.2    258.4   0.020616265   0.17536   0.35181   0.20942  -0.08796
  65   38769.5    257.9   0.014773330   0.12545   0.15407   0.13470   0.28908
  66   38947.1    256.8   0.001110779   0.00939   0.08171   0.04254   0.03006
  67   39064.8    256.0   0.034825840   0.29349   0.13242   0.51669   0.09477
  68   39196.4    255.1   0.040329610   0.33873   0.02805   0.58006   0.03841
  69   39244.8    254.8   0.005385301   0.04518   0.01257   0.15428  -0.14565
  70   39272.6    254.6   0.015404079   0.12913   0.31329   0.10612   0.14042
  71   39739.0    251.6   0.041184664   0.34119   0.23400  -0.53451  -0.02702
  72   39931.2    250.4   0.001785532   0.01472  -0.04881   0.11099   0.00445
  73   40124.3    249.2   0.016440071   0.13489  -0.34353   0.12981  -0.00526

FINAL SINGLE POINT ENERGY    -10418.111517157535

DIPOLE MOMENT
-------------
                                X             Y             Z
Electronic contribution:     70.43744     161.70072      17.20093
Nuclear contribution   :    -71.23989    -167.06651     -16.13665
                        -----------------------------------------
Total Dipole Moment    :     -0.80245      -5.36579       1.06428
                        -----------------------------------------
Magnitude (a.u.)       :      5.52886
Magnitude (Debye)      :     14.05325

Rotational constants in cm-1:     0.000442     0.000419     0.000223
Rotational constants in MHz :    13.240033    12.573102     6.693271

                             ****ORCA TERMINATED NORMALLY****
TOTAL RUN TIME: 0 days 0 hours 13 minutes 12 seconds 304 msec
