                         Program Version 4.2.0 -  RELEASE  -
|  1> # ORCA input file
|  2> # SCF done       -163.884659075020          0.000854658664
|  3> ! CAM-B3LYP def2-SVP def2/J RIJCOSX Grid4 TightSCF
|  4> %maxcore 5000
|  5> %tddft
|  6>     Mode sTDDFT
|  7>     Ethresh 5.0
|  8>     maxcore 5000
|  9> end
| 10>
| 11> %pal
| 12>   nprocs 6
| 13>   end
| 14> * xyz 0 1
| 15>    C       -1.89640         0.84931        -0.85768
| 16>    C       -1.95528        -0.51561        -0.83894
| 17>    C       -0.75335        -1.01466        -0.23904
| 18>    C        0.03645         0.12142         0.16137
| 19>    O        1.08343         0.23977         0.77392
| 20>    N       -0.71482         1.22131        -0.28880
| 21>    C       -0.85928        -2.40384        -0.20269
| 22>    O       -2.08880        -2.76527        -0.71809
| 23>    C       -2.79623        -1.65550        -1.14542
| 24>    O       -3.88198        -1.74811        -1.64909
| 25>    C       -0.04814        -3.43967         0.23754
| 26>    C        1.30380        -3.39490         0.55288
| 27>    C        2.03110        -4.46974         1.10476
| 28>    C        3.36808        -4.21749         1.25721
| 29>    C        3.74345        -2.94129         0.80988
| 30>    S        2.36252        -2.05617         0.22061
| 31>    C        5.02401        -2.37929         0.81690
| 32>    C        6.21861        -2.95988         1.25863
| 33>    C        7.31208        -2.13520         1.12888
| 34>    C        7.01693        -0.88298         0.58028
| 35>    S        5.30812        -0.76546         0.22798
| 36>    C        7.91783         0.15691         0.33437
| 37>    C        7.57688         1.36974        -0.20604
| 38>    C        8.46942         2.41744        -0.44727
| 39>    C        8.16064         3.66582        -0.99731
| 40>    C        9.24072         4.50908        -1.11505
| 41>    C       10.44120         3.95234        -0.65932
| 42>    S       10.17553         2.32807        -0.07811
| 43>    C       11.70609         4.54335        -0.63102
| 44>    C       12.04423         5.83645        -1.05956
| 45>    C       13.37072         6.13622        -0.89439
| 46>    C       14.12229         5.08962        -0.33001
| 47>    S       13.11090         3.70393        -0.01383
| 48>    C       15.47324         5.09428        -0.03261
| 49>    C       16.10510         3.99421         0.52977
| 50>    S       17.85372         4.01848         0.93576
| 51>    C       17.66903         2.41026         1.49976
| 52>    C       16.33586         1.98117         1.34267
| 53>    N       15.50429         2.85626         0.81633
| 54>    C       16.17261         0.57580         1.82779
| 55>    C       17.56982         0.26001         2.27694
| 56>    C       18.41081         1.36285         2.06951
| 57>    S       20.02182         1.05663         2.57456
| 58>    C       19.57550        -0.56895         3.06553
| 59>    C       18.22866        -0.82361         2.83448
| 60>    C       20.57869        -1.40331         3.61436
| 61>    C       20.41458        -2.69630         3.98758
| 62>    C       21.44736        -3.50053         4.53467
| 63>    S       23.03558        -2.85745         4.84627
| 64>    C       23.59776        -4.38744         5.45740
| 65>    C       22.60190        -5.34253         5.39494
| 66>    C       21.38795        -4.83971         4.88596
| 67>    C       20.17096        -5.69484         4.70326
| 68>    C       20.27839        -7.01248         5.46817
| 69>    C       20.07502        -6.93917         6.97921
| 70>    O       20.14760        -7.93957         7.64901
| 71>    C       19.77648        -5.59531         7.58602
| 72>    C       21.65044        -7.64314         5.19363
| 73>    C       22.75772        -6.77713         5.79054
| 74>    C       24.96102        -4.44634         5.91080
| 75>    C       25.51671        -5.37117         6.69189
| 76>    H       -2.60115         1.57031        -1.22439
| 77>    H       -0.41648         2.17232        -0.13904
| 78>    H       -0.52985        -4.40656         0.29972
| 79>    H        1.55040        -5.39023         1.38459
| 80>    H        4.07080        -4.91522         1.67552
| 81>    H        6.26005        -3.95581         1.66093
| 82>    H        8.31195        -2.40745         1.41807
| 83>    H        8.95302        -0.02381         0.59638
| 84>    H        6.54177         1.54740        -0.46922
| 85>    H        7.15880         3.92148        -1.29396
| 86>    H        9.18416         5.50493        -1.51568
| 87>    H       11.32159         6.51635        -1.47380
| 88>    H       13.82144         7.07578        -1.16075
| 89>    H       16.05518         5.97917        -0.23925
| 90>    H       15.83060        -0.08640         1.03028
| 91>    H       15.44928         0.51433         2.64302
| 92>    H       17.76301        -1.76257         3.07180
| 93>    H       21.55655        -0.95339         3.73032
| 94>    H       19.45357        -3.17342         3.86122
| 95>    H       20.07025        -5.92624         3.63683
| 96>    H       19.27268        -5.14814         4.99489
| 97>    H       19.50531        -7.69848         5.10117
| 98>    H       20.51805        -4.86254         7.27931
| 99>    H       19.76604        -5.68196         8.66932
|100>    H       18.80002        -5.25231         7.25072
|101>    H       21.79196        -7.73785         4.11524
|102>    H       21.69004        -8.63818         5.63745
|103>    H       23.73308        -7.14324         5.46211
|104>    H       22.72172        -6.85738         6.88206
|105>    H       25.56598        -3.61046         5.58073
|106>    H       24.97287        -6.20225         7.10086
|107>    H       26.55610        -5.30209         6.96343
|108> *
|109>
|110>                          ****END OF INPUT****

CARTESIAN COORDINATES (ANGSTROEM)
---------------------------------
  C     -1.896400    0.849310   -0.857680
  C     -1.955280   -0.515610   -0.838940
  C     -0.753350   -1.014660   -0.239040
  C      0.036450    0.121420    0.161370
  O      1.083430    0.239770    0.773920
  N     -0.714820    1.221310   -0.288800
  C     -0.859280   -2.403840   -0.202690
  O     -2.088800   -2.765270   -0.718090
  C     -2.796230   -1.655500   -1.145420
  O     -3.881980   -1.748110   -1.649090
  C     -0.048140   -3.439670    0.237540
  C      1.303800   -3.394900    0.552880
  C      2.031100   -4.469740    1.104760
  C      3.368080   -4.217490    1.257210
  C      3.743450   -2.941290    0.809880
  S      2.362520   -2.056170    0.220610
  C      5.024010   -2.379290    0.816900
  C      6.218610   -2.959880    1.258630
  C      7.312080   -2.135200    1.128880
  C      7.016930   -0.882980    0.580280
  S      5.308120   -0.765460    0.227980
  C      7.917830    0.156910    0.334370
  C      7.576880    1.369740   -0.206040
  C      8.469420    2.417440   -0.447270
  C      8.160640    3.665820   -0.997310
  C      9.240720    4.509080   -1.115050
  C     10.441200    3.952340   -0.659320
  S     10.175530    2.328070   -0.078110
  C     11.706090    4.543350   -0.631020
  C     12.044230    5.836450   -1.059560
  C     13.370720    6.136220   -0.894390
  C     14.122290    5.089620   -0.330010
  S     13.110900    3.703930   -0.013830
  C     15.473240    5.094280   -0.032610
  C     16.105100    3.994210    0.529770
  S     17.853720    4.018480    0.935760
  C     17.669030    2.410260    1.499760
  C     16.335860    1.981170    1.342670
  N     15.504290    2.856260    0.816330
  C     16.172610    0.575800    1.827790
  C     17.569820    0.260010    2.276940
  C     18.410810    1.362850    2.069510
  S     20.021820    1.056630    2.574560
  C     19.575500   -0.568950    3.065530
  C     18.228660   -0.823610    2.834480
  C     20.578690   -1.403310    3.614360
  C     20.414580   -2.696300    3.987580
  C     21.447360   -3.500530    4.534670
  S     23.035580   -2.857450    4.846270
  C     23.597760   -4.387440    5.457400
  C     22.601900   -5.342530    5.394940
  C     21.387950   -4.839710    4.885960
  C     20.170960   -5.694840    4.703260
  C     20.278390   -7.012480    5.468170
  C     20.075020   -6.939170    6.979210
  O     20.147600   -7.939570    7.649010
  C     19.776480   -5.595310    7.586020
  C     21.650440   -7.643140    5.193630
  C     22.757720   -6.777130    5.790540
  C     24.961020   -4.446340    5.910800
  C     25.516710   -5.371170    6.691890
  H     -2.601150    1.570310   -1.224390
  H     -0.416480    2.172320   -0.139040
  H     -0.529850   -4.406560    0.299720
  H      1.550400   -5.390230    1.384590
  H      4.070800   -4.915220    1.675520
  H      6.260050   -3.955810    1.660930
  H      8.311950   -2.407450    1.418070
  H      8.953020   -0.023810    0.596380
  H      6.541770    1.547400   -0.469220
  H      7.158800    3.921480   -1.293960
  H      9.184160    5.504930   -1.515680
  H     11.321590    6.516350   -1.473800
  H     13.821440    7.075780   -1.160750
  H     16.055180    5.979170   -0.239250
  H     15.830600   -0.086400    1.030280
  H     15.449280    0.514330    2.643020
  H     17.763010   -1.762570    3.071800
  H     21.556550   -0.953390    3.730320
  H     19.453570   -3.173420    3.861220
  H     20.070250   -5.926240    3.636830
  H     19.272680   -5.148140    4.994890
  H     19.505310   -7.698480    5.101170
  H     20.518050   -4.862540    7.279310
  H     19.766040   -5.681960    8.669320
  H     18.800020   -5.252310    7.250720
  H     21.791960   -7.737850    4.115240
  H     21.690040   -8.638180    5.637450
  H     23.733080   -7.143240    5.462110
  H     22.721720   -6.857380    6.882060
  H     25.565980   -3.610460    5.580730
  H     24.972870   -6.202250    7.100860
  H     26.556100   -5.302090    6.963430

 Total Charge           Charge          ....    0
 Multiplicity           Mult            ....    1
 Number of Electrons    NEL             ....  478
 Basis Dimension        Dim             .... 1042

ORBITAL ENERGIES
----------------

  NO   OCC          E(Eh)            E(eV)
   0   2.0000     -88.969917     -2420.9945
   1   2.0000     -88.965381     -2420.8711
   2   2.0000     -88.954818     -2420.5836
   3   2.0000     -88.950284     -2420.4603
   4   2.0000     -88.949214     -2420.4312
   5   2.0000     -88.948197     -2420.4035
   6   2.0000     -88.939449     -2420.1654
   7   2.0000     -19.247890      -523.7617
   8   2.0000     -19.200128      -522.4620
   9   2.0000     -19.176560      -521.8207
  10   2.0000     -19.162249      -521.4313
  11   2.0000     -14.438549      -392.8929
  12   2.0000     -14.416254      -392.2862
  13   2.0000     -10.378091      -282.4022
  14   2.0000     -10.353424      -281.7310
  15   2.0000     -10.351634      -281.6823
  16   2.0000     -10.338784      -281.3326
  17   2.0000     -10.337007      -281.2843
  18   2.0000     -10.317236      -280.7463
  19   2.0000     -10.317069      -280.7417
  20   2.0000     -10.315847      -280.7085
  21   2.0000     -10.313194      -280.6363
  22   2.0000     -10.312560      -280.6190
  23   2.0000     -10.312553      -280.6188
  24   2.0000     -10.312314      -280.6123
  25   2.0000     -10.310369      -280.5594
  26   2.0000     -10.307980      -280.4944
  27   2.0000     -10.307741      -280.4879
  28   2.0000     -10.307506      -280.4815
  29   2.0000     -10.307374      -280.4779
  30   2.0000     -10.300952      -280.3032
  31   2.0000     -10.296334      -280.1775
  32   2.0000     -10.295205      -280.1468
  33   2.0000     -10.293130      -280.0903
  34   2.0000     -10.292933      -280.0849
  35   2.0000     -10.291647      -280.0499
  36   2.0000     -10.291154      -280.0365
  37   2.0000     -10.290174      -280.0099
  38   2.0000     -10.289685      -279.9966
  39   2.0000     -10.288784      -279.9720
  40   2.0000     -10.288404      -279.9617
  41   2.0000     -10.285775      -279.8902
  42   2.0000     -10.285669      -279.8873
  43   2.0000     -10.285541      -279.8838
  44   2.0000     -10.285249      -279.8758
  45   2.0000     -10.285050      -279.8704
  46   2.0000     -10.281674      -279.7786
  47   2.0000     -10.281041      -279.7613
  48   2.0000     -10.281032      -279.7611
  49   2.0000     -10.280071      -279.7350
  50   2.0000     -10.277398      -279.6622
  51   2.0000     -10.277293      -279.6594
  52   2.0000     -10.274632      -279.5870
  53   2.0000     -10.272936      -279.5408
  54   2.0000     -10.270980      -279.4876
  55   2.0000     -10.268038      -279.4075
  56   2.0000     -10.266071      -279.3540
  57   2.0000     -10.265955      -279.3508
  58   2.0000     -10.264024      -279.2983
  59   2.0000     -10.249105      -278.8923
  60   2.0000     -10.247432      -278.8468
  61   2.0000      -8.065015      -219.4602
  62   2.0000      -8.060435      -219.3356
  63   2.0000      -8.051065      -219.0806
  64   2.0000      -8.046508      -218.9566
  65   2.0000      -8.044067      -218.8902
  66   2.0000      -8.043911      -218.8859
  67   2.0000      -8.035084      -218.6457
  68   2.0000      -6.034224      -164.1996
  69   2.0000      -6.030482      -164.0978
  70   2.0000      -6.029785      -164.0788
  71   2.0000      -6.026961      -164.0019
  72   2.0000      -6.025710      -163.9679
  73   2.0000      -6.022515      -163.8810
  74   2.0000      -6.020615      -163.8293
  75   2.0000      -6.016587      -163.7197
  76   2.0000      -6.016046      -163.7049
  77   2.0000      -6.013893      -163.6464
  78   2.0000      -6.013041      -163.6232
  79   2.0000      -6.012368      -163.6049
  80   2.0000      -6.011981      -163.5943
  81   2.0000      -6.009384      -163.5237
  82   2.0000      -6.009227      -163.5194
  83   2.0000      -6.007836      -163.4815
  84   2.0000      -6.006042      -163.4327
  85   2.0000      -6.005306      -163.4127
  86   2.0000      -6.004576      -163.3928
  87   2.0000      -6.000350      -163.2778
  88   2.0000      -5.996502      -163.1731
  89   2.0000      -1.178473       -32.0679
  90   2.0000      -1.119445       -30.4616
  91   2.0000      -1.103017       -30.0146
  92   2.0000      -1.084981       -29.5238
  93   2.0000      -1.071807       -29.1653
  94   2.0000      -1.032002       -28.0822
  95   2.0000      -1.002613       -27.2825
  96   2.0000      -0.999232       -27.1905
  97   2.0000      -0.995610       -27.0919
  98   2.0000      -0.987885       -26.8817
  99   2.0000      -0.979933       -26.6653
 100   2.0000      -0.971745       -26.4425
 101   2.0000      -0.935625       -25.4597
 102   2.0000      -0.924336       -25.1525
 103   2.0000      -0.911876       -24.8134
 104   2.0000      -0.902964       -24.5709
 105   2.0000      -0.900799       -24.5120
 106   2.0000      -0.890860       -24.2415
 107   2.0000      -0.885030       -24.0829
 108   2.0000      -0.875256       -23.8169
 109   2.0000      -0.867114       -23.5954
 110   2.0000      -0.857660       -23.3381
 111   2.0000      -0.850286       -23.1375
 112   2.0000      -0.849344       -23.1118
 113   2.0000      -0.843493       -22.9526
 114   2.0000      -0.838147       -22.8071
 115   2.0000      -0.829556       -22.5734
 116   2.0000      -0.825699       -22.4684
 117   2.0000      -0.821024       -22.3412
 118   2.0000      -0.819422       -22.2976
 119   2.0000      -0.817221       -22.2377
 120   2.0000      -0.803703       -21.8699
 121   2.0000      -0.796885       -21.6843
 122   2.0000      -0.783139       -21.3103
 123   2.0000      -0.776400       -21.1269
 124   2.0000      -0.767887       -20.8953
 125   2.0000      -0.748027       -20.3549
 126   2.0000      -0.733907       -19.9706
 127   2.0000      -0.731246       -19.8982
 128   2.0000      -0.727703       -19.8018
 129   2.0000      -0.719359       -19.5747
 130   2.0000      -0.703834       -19.1523
 131   2.0000      -0.698729       -19.0134
 132   2.0000      -0.685223       -18.6459
 133   2.0000      -0.677217       -18.4280
 134   2.0000      -0.670652       -18.2494
 135   2.0000      -0.667223       -18.1561
 136   2.0000      -0.661037       -17.9877
 137   2.0000      -0.657076       -17.8800
 138   2.0000      -0.645146       -17.5553
 139   2.0000      -0.638827       -17.3834
 140   2.0000      -0.632881       -17.2216
 141   2.0000      -0.629537       -17.1306
 142   2.0000      -0.626311       -17.0428
 143   2.0000      -0.623651       -16.9704
 144   2.0000      -0.616668       -16.7804
 145   2.0000      -0.610709       -16.6182
 146   2.0000      -0.609692       -16.5906
 147   2.0000      -0.599210       -16.3053
 148   2.0000      -0.596709       -16.2373
 149   2.0000      -0.586424       -15.9574
 150   2.0000      -0.584005       -15.8916
 151   2.0000      -0.582125       -15.8404
 152   2.0000      -0.572803       -15.5868
 153   2.0000      -0.572188       -15.5700
 154   2.0000      -0.568019       -15.4566
 155   2.0000      -0.559708       -15.2304
 156   2.0000      -0.556272       -15.1369
 157   2.0000      -0.555944       -15.1280
 158   2.0000      -0.555422       -15.1138
 159   2.0000      -0.554171       -15.0798
 160   2.0000      -0.546870       -14.8811
 161   2.0000      -0.544343       -14.8123
 162   2.0000      -0.541066       -14.7232
 163   2.0000      -0.537732       -14.6324
 164   2.0000      -0.531121       -14.4525
 165   2.0000      -0.528071       -14.3695
 166   2.0000      -0.527113       -14.3435
 167   2.0000      -0.518485       -14.1087
 168   2.0000      -0.510205       -13.8834
 169   2.0000      -0.506947       -13.7947
 170   2.0000      -0.506515       -13.7830
 171   2.0000      -0.504449       -13.7268
 172   2.0000      -0.501410       -13.6441
 173   2.0000      -0.500906       -13.6303
 174   2.0000      -0.499620       -13.5953
 175   2.0000      -0.497521       -13.5382
 176   2.0000      -0.497200       -13.5295
 177   2.0000      -0.495541       -13.4844
 178   2.0000      -0.492957       -13.4140
 179   2.0000      -0.491030       -13.3616
 180   2.0000      -0.490206       -13.3392
 181   2.0000      -0.485965       -13.2238
 182   2.0000      -0.484800       -13.1921
 183   2.0000      -0.481742       -13.1089
 184   2.0000      -0.481497       -13.1022
 185   2.0000      -0.475542       -12.9401
 186   2.0000      -0.473904       -12.8956
 187   2.0000      -0.472070       -12.8457
 188   2.0000      -0.470895       -12.8137
 189   2.0000      -0.469913       -12.7870
 190   2.0000      -0.468056       -12.7364
 191   2.0000      -0.463621       -12.6158
 192   2.0000      -0.462693       -12.5905
 193   2.0000      -0.458433       -12.4746
 194   2.0000      -0.457673       -12.4539
 195   2.0000      -0.452172       -12.3042
 196   2.0000      -0.449867       -12.2415
 197   2.0000      -0.444677       -12.1003
 198   2.0000      -0.443943       -12.0803
 199   2.0000      -0.440497       -11.9865
 200   2.0000      -0.438641       -11.9360
 201   2.0000      -0.434662       -11.8278
 202   2.0000      -0.430902       -11.7254
 203   2.0000      -0.430271       -11.7083
 204   2.0000      -0.429550       -11.6886
 205   2.0000      -0.426032       -11.5929
 206   2.0000      -0.423397       -11.5212
 207   2.0000      -0.422165       -11.4877
 208   2.0000      -0.420679       -11.4473
 209   2.0000      -0.414997       -11.2926
 210   2.0000      -0.410288       -11.1645
 211   2.0000      -0.406478       -11.0608
 212   2.0000      -0.404680       -11.0119
 213   2.0000      -0.400997       -10.9117
 214   2.0000      -0.397276       -10.8104
 215   2.0000      -0.389035       -10.5862
 216   2.0000      -0.386125       -10.5070
 217   2.0000      -0.383079       -10.4241
 218   2.0000      -0.375204       -10.2098
 219   2.0000      -0.357172        -9.7191
 220   2.0000      -0.355189        -9.6652
 221   2.0000      -0.344697        -9.3797
 222   2.0000      -0.341124        -9.2825
 223   2.0000      -0.338970        -9.2238
 224   2.0000      -0.336571        -9.1586
 225   2.0000      -0.331963        -9.0332
 226   2.0000      -0.328791        -8.9469
 227   2.0000      -0.326887        -8.8950
 228   2.0000      -0.325333        -8.8528
 229   2.0000      -0.321522        -8.7491
 230   2.0000      -0.316132        -8.6024
 231   2.0000      -0.309107        -8.4112
 232   2.0000      -0.307591        -8.3700
 233   2.0000      -0.297122        -8.0851
 234   2.0000      -0.282592        -7.6897
 235   2.0000      -0.262366        -7.1393
 236   2.0000      -0.242294        -6.5932
 237   2.0000      -0.223697        -6.0871
 238   2.0000      -0.188239        -5.1222
 239   0.0000      -0.116741        -3.1767
 240   0.0000      -0.066141        -1.7998
 241   0.0000      -0.045898        -1.2490
 242   0.0000      -0.021829        -0.5940
 243   0.0000      -0.001025        -0.0279

MULLIKEN ATOMIC CHARGES
-----------------------
   0 C :    0.036270
   1 C :   -0.076713
   2 C :   -0.090361
   3 C :    0.119676
   4 O :   -0.207381
   5 N :   -0.118440
   6 C :    0.161059
   7 O :   -0.260667
   8 C :    0.220871
   9 O :   -0.152545
  10 C :   -0.076223
  11 C :   -0.016758
  12 C :    0.018399
  13 C :    0.033592
  14 C :   -0.064217
  15 S :    0.182915
  16 C :   -0.031453
  17 C :    0.012647
  18 C :    0.033376
  19 C :   -0.036895
  20 S :    0.113059
  21 C :    0.007323
  22 C :   -0.012707
  23 C :   -0.021215
  24 C :    0.024256
  25 C :    0.024442
  26 C :   -0.050764
  27 S :    0.096172
  28 C :   -0.033406
  29 C :    0.019473
  30 C :    0.037817
  31 C :   -0.026710
  32 S :    0.133743
  33 C :    0.021867
  34 C :   -0.073102
  35 S :    0.128663
  36 C :   -0.063245
  37 C :   -0.226711
  38 N :   -0.053576
  39 C :    0.386950
  40 C :   -0.159099
  41 C :   -0.100676
  42 S :    0.150112
  43 C :   -0.076473
  44 C :   -0.019923
  45 C :    0.039656
  46 C :   -0.014966
  47 C :   -0.092593
  48 S :    0.096624
  49 C :   -0.141586
  50 C :   -0.055160
  51 C :   -0.122536
  52 C :    0.188152
  53 C :   -0.090755
  54 C :   -0.052494
  55 O :   -0.188180
  56 C :    0.086657
  57 C :    0.065932
  58 C :    0.076505
  59 C :    0.027302
  60 C :   -0.030733
  61 H :    0.012595
  62 H :    0.125062
  63 H :   -0.004866
  64 H :   -0.014061
  65 H :   -0.016086
  66 H :   -0.014159
  67 H :   -0.012311
  68 H :   -0.004516
  69 H :    0.000660
  70 H :   -0.008252
  71 H :   -0.011848
  72 H :   -0.014341
  73 H :   -0.012107
  74 H :   -0.013557
  75 H :    0.037660
  76 H :    0.038084
  77 H :   -0.029713
  78 H :   -0.011655
  79 H :   -0.019327
  80 H :    0.019110
  81 H :    0.002943
  82 H :    0.021113
  83 H :    0.042859
  84 H :    0.030465
  85 H :    0.029371
  86 H :    0.005674
  87 H :    0.019225
  88 H :    0.022102
  89 H :    0.039702
  90 H :   -0.008364
  91 H :    0.018563
  92 H :    0.024729
Sum of atomic charges:   -0.0000000

LOEWDIN ATOMIC CHARGES
----------------------
   0 C :    0.062339
   1 C :   -0.135906
   2 C :   -0.149910
   3 C :    0.049627
   4 O :   -0.225727
   5 N :    0.031575
   6 C :    0.098189
   7 O :   -0.063467
   8 C :    0.095174
   9 O :   -0.157324
  10 C :   -0.104134
  11 C :   -0.122461
  12 C :   -0.049260
  13 C :   -0.027107
  14 C :   -0.198268
  15 S :    0.476550
  16 C :   -0.153975
  17 C :   -0.046758
  18 C :   -0.026837
  19 C :   -0.160087
  20 S :    0.410386
  21 C :   -0.037866
  22 C :   -0.064491
  23 C :   -0.138017
  24 C :   -0.039751
  25 C :   -0.029267
  26 C :   -0.177713
  27 S :    0.394888
  28 C :   -0.177150
  29 C :   -0.037306
  30 C :   -0.032145
  31 C :   -0.138107
  32 S :    0.430722
  33 C :   -0.085448
  34 C :   -0.129959
  35 S :    0.403562
  36 C :   -0.212435
  37 C :   -0.030657
  38 N :   -0.104565
  39 C :   -0.012522
  40 C :   -0.044330
  41 C :   -0.203953
  42 S :    0.436876
  43 C :   -0.161753
  44 C :   -0.057064
  45 C :   -0.053179
  46 C :   -0.038855
  47 C :   -0.177477
  48 S :    0.425291
  49 C :   -0.172194
  50 C :   -0.060330
  51 C :   -0.064209
  52 C :   -0.024363
  53 C :   -0.060191
  54 C :    0.088328
  55 O :   -0.146336
  56 C :   -0.080517
  57 C :   -0.010546
  58 C :   -0.030181
  59 C :   -0.042881
  60 C :   -0.045809
  61 H :    0.030448
  62 H :    0.086462
  63 H :    0.042821
  64 H :    0.032157
  65 H :    0.030402
  66 H :    0.031616
  67 H :    0.033721
  68 H :    0.029737
  69 H :    0.031008
  70 H :    0.035325
  71 H :    0.032764
  72 H :    0.030322
  73 H :    0.033473
  74 H :    0.035189
  75 H :    0.056530
  76 H :    0.056743
  77 H :    0.028332
  78 H :    0.021133
  79 H :    0.028117
  80 H :    0.038463
  81 H :    0.025325
  82 H :    0.043266
  83 H :    0.044599
  84 H :    0.037973
  85 H :    0.042841
  86 H :    0.023353
  87 H :    0.030643
  88 H :    0.035942
  89 H :    0.033138
  90 H :    0.028367
  91 H :    0.022142
  92 H :    0.026927

  Mayer bond orders larger than 0.100000
B(  0-C ,  1-C ) :   1.4935 B(  0-C ,  5-N ) :   1.1963 B(  0-C , 61-H ) :   0.9849
B(  1-C ,  2-C ) :   1.1808 B(  1-C ,  8-C ) :   0.9560 B(  2-C ,  3-C ) :   0.9992
B(  2-C ,  6-C ) :   1.3115 B(  3-C ,  4-O ) :   2.1128 B(  3-C ,  5-N ) :   1.0707
B(  5-N , 62-H ) :   0.9308 B(  6-C ,  7-O ) :   1.0913 B(  6-C , 10-C ) :   1.3242
B(  7-O ,  8-C ) :   1.0227 B(  8-C ,  9-O ) :   2.2569 B( 10-C , 11-C ) :   1.3958
B( 10-C , 63-H ) :   0.9530 B( 11-C , 12-C ) :   1.2057 B( 11-C , 15-S ) :   1.1222
B( 12-C , 13-C ) :   1.5141 B( 12-C , 64-H ) :   1.0000 B( 13-C , 14-C ) :   1.2482
B( 13-C , 65-H ) :   0.9930 B( 14-C , 15-S ) :   1.0843 B( 14-C , 16-C ) :   1.3775
B( 16-C , 17-C ) :   1.2719 B( 16-C , 20-S ) :   1.0910 B( 17-C , 18-C ) :   1.4796
B( 17-C , 66-H ) :   0.9949 B( 18-C , 19-C ) :   1.2417 B( 18-C , 67-H ) :   1.0008
B( 19-C , 20-S ) :   1.0552 B( 19-C , 21-C ) :   1.4231 B( 21-C , 22-C ) :   1.3100
B( 21-C , 68-H ) :   0.9730 B( 22-C , 23-C ) :   1.4182 B( 22-C , 69-H ) :   0.9731
B( 23-C , 24-C ) :   1.2381 B( 23-C , 27-S ) :   1.0680 B( 24-C , 25-C ) :   1.4854
B( 24-C , 70-H ) :   1.0015 B( 25-C , 26-C ) :   1.2671 B( 25-C , 71-H ) :   0.9944
B( 26-C , 27-S ) :   1.0632 B( 26-C , 28-C ) :   1.4067 B( 28-C , 29-C ) :   1.2402
B( 28-C , 32-S ) :   1.0339 B( 29-C , 30-C ) :   1.5307 B( 29-C , 72-H ) :   0.9954
B( 30-C , 31-C ) :   1.1887 B( 30-C , 73-H ) :   0.9994 B( 31-C , 32-S ) :   1.0781
B( 31-C , 33-C ) :   1.5103 B( 33-C , 34-C ) :   1.2292 B( 33-C , 74-H ) :   0.9562
B( 34-C , 35-S ) :   1.0397 B( 34-C , 38-N ) :   1.5297 B( 35-S , 36-C ) :   1.0856
B( 36-C , 37-C ) :   1.4411 B( 36-C , 41-C ) :   1.2233 B( 37-C , 38-N ) :   1.4895
B( 37-C , 39-C ) :   1.0441 B( 39-C , 40-C ) :   0.9806 B( 39-C , 75-H ) :   0.8612
B( 39-C , 76-H ) :   0.8608 B( 40-C , 41-C ) :   1.4951 B( 40-C , 44-C ) :   1.3323
B( 41-C , 42-S ) :   1.0805 B( 42-S , 43-C ) :   1.1048 B( 43-C , 44-C ) :   1.4481
B( 43-C , 45-C ) :   1.1353 B( 44-C , 77-H ) :   0.9957 B( 45-C , 46-C ) :   1.6608
B( 45-C , 78-H ) :   0.9578 B( 46-C , 47-C ) :   1.1724 B( 46-C , 79-H ) :   0.9675
B( 47-C , 48-S ) :   1.1080 B( 47-C , 51-C ) :   1.4813 B( 48-S , 49-C ) :   1.1158
B( 49-C , 50-C ) :   1.5323 B( 49-C , 59-C ) :   1.0970 B( 50-C , 51-C ) :   1.2983
B( 50-C , 58-C ) :   1.0531 B( 51-C , 52-C ) :   1.0415 B( 52-C , 53-C ) :   1.0509
B( 52-C , 80-H ) :   0.8943 B( 52-C , 81-H ) :   0.8988 B( 53-C , 54-C ) :   0.8844
B( 53-C , 57-C ) :   1.0478 B( 53-C , 82-H ) :   0.8938 B( 54-C , 55-O ) :   2.1843
B( 54-C , 56-C ) :   1.0707 B( 56-C , 83-H ) :   0.9370 B( 56-C , 84-H ) :   0.9450
B( 56-C , 85-H ) :   0.9307 B( 57-C , 58-C ) :   1.0906 B( 57-C , 86-H ) :   0.9488
B( 57-C , 87-H ) :   0.9273 B( 58-C , 88-H ) :   0.9103 B( 58-C , 89-H ) :   0.9007
B( 59-C , 60-C ) :   1.9321 B( 59-C , 90-H ) :   0.9471 B( 60-C , 91-H ) :   0.9578
B( 60-C , 92-H ) :   0.9445

-----------------------------------------------------------------------------
         ABSORPTION SPECTRUM VIA TRANSITION ELECTRIC DIPOLE MOMENTS
-----------------------------------------------------------------------------
State   Energy  Wavelength   fosc         T2         TX        TY        TZ
        (cm-1)    (nm)                  (au**2)     (au)      (au)      (au)
-----------------------------------------------------------------------------
   0    4457.0   2243.7   0.683524578  50.48768   6.88982   1.65887   0.51602
   1   11498.1    869.7   0.048572934   1.39074  -0.85303   0.60048  -0.55001
   2   14779.7    676.6   0.262575699   5.84876   1.22062  -1.65011   1.27906
   3   16124.0    620.2   0.195132060   3.98412  -0.07329  -1.91977   0.54151
   4   19672.0    508.3   0.018730615   0.31346   0.23877  -0.46699   0.19586
   5   20570.5    486.1   1.350414416  21.61214   1.96962  -3.87261   1.65398
   6   22452.1    445.4   0.064591815   0.94710  -0.37965   0.78209  -0.43738
   7   23304.6    429.1   0.455270488   6.43137   0.39416  -2.34843   0.87229
   8   24504.2    408.1   0.030087895   0.40423  -0.48111   0.20958  -0.35893
   9   25406.1    393.6   0.232435373   3.01190  -0.73370   1.48359  -0.52205
  10   26413.2    378.6   0.127766108   1.59247   1.11526  -0.26747   0.52641
  11   28002.1    357.1   0.032514091   0.38226  -0.47259   0.34612  -0.19779
  12   28355.6    352.7   0.011532215   0.13389  -0.31025   0.14076  -0.13350
  13   28637.4    349.2   0.007997877   0.09194  -0.26122   0.10589  -0.11177
  14   29314.4    341.1   0.022126501   0.24849  -0.01924  -0.49802   0.00951
  15   29826.7    335.3   0.046690894   0.51535  -0.37163   0.54268  -0.28765
  16   30702.8    325.7   0.054310003   0.58234   0.04979   0.76090  -0.02997
  17   31171.3    320.8   0.019961201   0.21082  -0.26757  -0.36851   0.05849
  18   31644.9    316.0   0.030271384   0.31492  -0.04757   0.50118  -0.24794
  19   31981.9    312.7   0.000299009   0.00308   0.02655  -0.04561  -0.01711
  20   32078.4    311.7   0.014263062   0.14638   0.34424  -0.13467   0.09868
  21   32688.4    305.9   0.007698917   0.07754  -0.27585  -0.02132  -0.03146
  22   32956.0    303.4   0.005138784   0.05133   0.04246   0.21931  -0.03784
  23   33382.5    299.6   0.016917298   0.16684  -0.33345  -0.21051  -0.10646
  24   33566.3    297.9   0.060229882   0.59072  -0.55083  -0.53574   0.01701
  25   33619.9    297.4   0.036546086   0.35787   0.55935   0.09870   0.18776
  26   34017.9    294.0   0.011689836   0.11313  -0.27299   0.16429  -0.10777
  27   34436.6    290.4   0.011678257   0.11164  -0.29155  -0.05300  -0.15438
  28   34628.2    288.8   0.003184709   0.03028   0.17006  -0.02878   0.02300
  29   34883.1    286.7   0.040469561   0.38194  -0.05538   0.60087  -0.13351
  30   35197.1    284.1   0.014287092   0.13363   0.31959   0.14846   0.09723
  31   35552.5    281.3   0.205679128   1.90457  -1.28792   0.03825  -0.49432
  32   35865.5    278.8   0.007694430   0.07063   0.02268   0.26034   0.04833
  33   36134.4    276.7   0.025887566   0.23586  -0.44867  -0.05259  -0.17829
  34   36553.3    273.6   0.070980292   0.63927  -0.72880  -0.26756  -0.19113
  35   37260.3    268.4   0.000590392   0.00522  -0.06952  -0.01595   0.01137
  36   37774.9    264.7   0.000479428   0.00418  -0.03232   0.00369  -0.05585
  37   38047.5    262.8   0.003477840   0.03009   0.13570   0.00230   0.10804
  38   38759.3    258.0   0.008086354   0.06868  -0.12296  -0.23112  -0.01223
  39   38951.9    256.7   0.006116403   0.05169   0.15500  -0.10741   0.12702
  40   39273.8    254.6   0.022001049   0.18442  -0.33149  -0.22015  -0.16147
  41   39457.0    253.4   0.012106078   0.10101  -0.12652  -0.28752   0.04830
  42   39567.8    252.7   0.008091378   0.06732   0.21701   0.12665   0.06471
  43   40208.6    248.7   0.009615505   0.07873   0.06500   0.27128  -0.03016

FINAL SINGLE POINT ENERGY     -5042.314224718787

DIPOLE MOMENT
-------------
                                X             Y             Z
Electronic contribution:    -74.37352      49.07107     -36.23254
Nuclear contribution   :     79.22511     -47.13871      36.23226
                        -----------------------------------------
Total Dipole Moment    :      4.85159       1.93237      -0.00027
                        -----------------------------------------
Magnitude (a.u.)       :      5.22226
Magnitude (Debye)      :     13.27393

Rotational constants in cm-1:     0.001223     0.000233     0.000197
Rotational constants in MHz :    36.653544     6.990483     5.905134

                             ****ORCA TERMINATED NORMALLY****
TOTAL RUN TIME: 0 days 0 hours 8 minutes 47 seconds 566 msec
