                         Program Version 4.2.0 -  RELEASE  -
|  1> # ORCA input file
|  2> # SCF done       -165.705568597651          0.000286231133
|  3> ! CAM-B3LYP def2-SVP def2/J RIJCOSX Grid4 TightSCF
|  4> %maxcore 5000
|  5> %tddft
|  6>     Mode sTDDFT
|  7>     Ethresh 5.0
|  8>     maxcore 5000
|  9> end
| 10>
| 11> %pal
| 12>   nprocs 6
| 13>   end
| 14> * xyz 0 1
| 15>    C       13.91432        -8.96922         3.71818
| 16>    C       13.18106        -8.39351         4.71426
| 17>    C       12.23758        -7.49172         4.11009
| 18>    C       12.42895        -7.53964         2.67165
| 19>    O       11.90066        -6.98286         1.74096
| 20>    N       13.47947        -8.47415         2.52694
| 21>    C       11.51183        -6.93159         5.13400
| 22>    O       11.93990        -7.42119         6.33648
| 23>    C       12.97834        -8.33771         6.14713
| 24>    O       13.50391        -8.89198         7.06874
| 25>    C       10.46034        -5.99952         5.13266
| 26>    S        9.71697        -5.49453         6.67646
| 27>    C        8.67275        -4.50477         5.75544
| 28>    C        8.96093        -4.62589         4.37801
| 29>    N        9.94095        -5.44789         4.06649
| 30>    C        8.04483        -3.76933         3.56554
| 31>    C        7.19593        -3.15710         4.63897
| 32>    C        7.59751        -3.60842         5.90307
| 33>    S        6.64892        -2.94426         7.17078
| 34>    C        5.68962        -2.05580         6.00049
| 35>    C        6.12278        -2.28214         4.69933
| 36>    C        4.59603        -1.24270         6.38350
| 37>    C        4.17056        -1.08832         7.66373
| 38>    C        3.05553        -0.33688         8.10950
| 39>    S        2.43276        -0.67935         9.69741
| 40>    C        1.10765         0.44049         9.49136
| 41>    C        1.18670         1.06632         8.24257
| 42>    C        2.29127         0.65001         7.49019
| 43>    C        2.64534         1.31099         6.19507
| 44>    C        2.10197         2.74312         6.19895
| 45>    C        2.75999         3.62414         7.25713
| 46>    O        2.12447         4.37667         7.94942
| 47>    C        4.26066         3.51906         7.36076
| 48>    C        0.58785         2.68389         6.39309
| 49>    C        0.22720         2.10935         7.76627
| 50>    C        0.20329         0.55864        10.56404
| 51>    C       -0.98940         1.22995        10.59006
| 52>    C       -1.82091         1.27302        11.71395
| 53>    C       -3.07079         1.85101        11.70877
| 54>    C       -3.98318         1.93852        12.78415
| 55>    C       -5.17244         2.52331        12.46103
| 56>    C       -5.26266         2.92274        11.10957
| 57>    S       -3.78273         2.56109        10.26654
| 58>    C       -6.34266         3.50096        10.46075
| 59>    C       -7.61875         3.79378        10.98773
| 60>    C       -8.46687         4.33229        10.06857
| 61>    C       -7.91217         4.46677         8.76851
| 62>    S       -6.27146         3.90519         8.76246
| 63>    C       -8.57413         5.07861         7.71683
| 64>    C       -8.19189         5.24524         6.38949
| 65>    S       -8.96835         6.55201         5.48688
| 66>    C       -7.93666         6.30522         4.01547
| 67>    O       -8.04248         7.03122         3.06352
| 68>    C       -7.09319         5.16103         4.27037
| 69>    C       -7.27505         4.58759         5.56768
| 70>    C       -6.58971         3.35737         5.77328
| 71>    O       -6.63680         2.55419         6.67665
| 72>    S       -5.54831         3.08804         4.30393
| 73>    C       -6.18362         4.48952         3.47227
| 74>    C       -5.68821         4.70605         2.14395
| 75>    C       -5.99745         5.71219         1.32374
| 76>    H       14.70772        -9.69044         3.77444
| 77>    H       13.84961        -8.73053         1.62468
| 78>    H        7.46188        -4.36177         2.85848
| 79>    H        8.59626        -3.02215         2.99218
| 80>    H        5.65513        -1.82219         3.84746
| 81>    H        4.06937        -0.77539         5.56571
| 82>    H        4.69036        -1.64170         8.43699
| 83>    H        2.19144         0.76800         5.35990
| 84>    H        3.72592         1.30128         6.05271
| 85>    H        2.32835         3.21149         5.23300
| 86>    H        4.51616         2.61492         7.91154
| 87>    H        4.64576         4.37445         7.91001
| 88>    H        4.72317         3.47028         6.37870
| 89>    H        0.15876         2.06457         5.60326
| 90>    H        0.16155         3.68341         6.30832
| 91>    H       -0.77860         1.68560         7.71384
| 92>    H        0.21251         2.91837         8.50156
| 93>    H        0.49051         0.02183        11.46097
| 94>    H       -1.35201         1.73829         9.71188
| 95>    H       -1.48186         0.81953        12.63621
| 96>    H       -3.73620         1.56335        13.76175
| 97>    H       -5.98269         2.66997        13.15201
| 98>    H       -7.87921         3.59517        12.01157
| 99>    H       -9.48161         4.62418        10.27360
|100>    H       -9.50406         5.56600         7.98631
|101>    H       -4.98643         3.94633         1.82034
|102>    H       -6.68718         6.48945         1.59856
|103>    H       -5.55833         5.76899         0.34227
|104> *
|105>
|106>                          ****END OF INPUT****

CARTESIAN COORDINATES (ANGSTROEM)
---------------------------------
  C     13.914320   -8.969220    3.718180
  C     13.181060   -8.393510    4.714260
  C     12.237580   -7.491720    4.110090
  C     12.428950   -7.539640    2.671650
  O     11.900660   -6.982860    1.740960
  N     13.479470   -8.474150    2.526940
  C     11.511830   -6.931590    5.134000
  O     11.939900   -7.421190    6.336480
  C     12.978340   -8.337710    6.147130
  O     13.503910   -8.891980    7.068740
  C     10.460340   -5.999520    5.132660
  S      9.716970   -5.494530    6.676460
  C      8.672750   -4.504770    5.755440
  C      8.960930   -4.625890    4.378010
  N      9.940950   -5.447890    4.066490
  C      8.044830   -3.769330    3.565540
  C      7.195930   -3.157100    4.638970
  C      7.597510   -3.608420    5.903070
  S      6.648920   -2.944260    7.170780
  C      5.689620   -2.055800    6.000490
  C      6.122780   -2.282140    4.699330
  C      4.596030   -1.242700    6.383500
  C      4.170560   -1.088320    7.663730
  C      3.055530   -0.336880    8.109500
  S      2.432760   -0.679350    9.697410
  C      1.107650    0.440490    9.491360
  C      1.186700    1.066320    8.242570
  C      2.291270    0.650010    7.490190
  C      2.645340    1.310990    6.195070
  C      2.101970    2.743120    6.198950
  C      2.759990    3.624140    7.257130
  O      2.124470    4.376670    7.949420
  C      4.260660    3.519060    7.360760
  C      0.587850    2.683890    6.393090
  C      0.227200    2.109350    7.766270
  C      0.203290    0.558640   10.564040
  C     -0.989400    1.229950   10.590060
  C     -1.820910    1.273020   11.713950
  C     -3.070790    1.851010   11.708770
  C     -3.983180    1.938520   12.784150
  C     -5.172440    2.523310   12.461030
  C     -5.262660    2.922740   11.109570
  S     -3.782730    2.561090   10.266540
  C     -6.342660    3.500960   10.460750
  C     -7.618750    3.793780   10.987730
  C     -8.466870    4.332290   10.068570
  C     -7.912170    4.466770    8.768510
  S     -6.271460    3.905190    8.762460
  C     -8.574130    5.078610    7.716830
  C     -8.191890    5.245240    6.389490
  S     -8.968350    6.552010    5.486880
  C     -7.936660    6.305220    4.015470
  O     -8.042480    7.031220    3.063520
  C     -7.093190    5.161030    4.270370
  C     -7.275050    4.587590    5.567680
  C     -6.589710    3.357370    5.773280
  O     -6.636800    2.554190    6.676650
  S     -5.548310    3.088040    4.303930
  C     -6.183620    4.489520    3.472270
  C     -5.688210    4.706050    2.143950
  C     -5.997450    5.712190    1.323740
  H     14.707720   -9.690440    3.774440
  H     13.849610   -8.730530    1.624680
  H      7.461880   -4.361770    2.858480
  H      8.596260   -3.022150    2.992180
  H      5.655130   -1.822190    3.847460
  H      4.069370   -0.775390    5.565710
  H      4.690360   -1.641700    8.436990
  H      2.191440    0.768000    5.359900
  H      3.725920    1.301280    6.052710
  H      2.328350    3.211490    5.233000
  H      4.516160    2.614920    7.911540
  H      4.645760    4.374450    7.910010
  H      4.723170    3.470280    6.378700
  H      0.158760    2.064570    5.603260
  H      0.161550    3.683410    6.308320
  H     -0.778600    1.685600    7.713840
  H      0.212510    2.918370    8.501560
  H      0.490510    0.021830   11.460970
  H     -1.352010    1.738290    9.711880
  H     -1.481860    0.819530   12.636210
  H     -3.736200    1.563350   13.761750
  H     -5.982690    2.669970   13.152010
  H     -7.879210    3.595170   12.011570
  H     -9.481610    4.624180   10.273600
  H     -9.504060    5.566000    7.986310
  H     -4.986430    3.946330    1.820340
  H     -6.687180    6.489450    1.598560
  H     -5.558330    5.768990    0.342270

 Total Charge           Charge          ....    0
 Multiplicity           Mult            ....    1
 Number of Electrons    NEL             ....  478
 Basis Dimension        Dim             .... 1022

ORBITAL ENERGIES
----------------

  NO   OCC          E(Eh)            E(eV)
   0   2.0000     -88.981355     -2421.3058
   1   2.0000     -88.972913     -2421.0760
   2   2.0000     -88.959052     -2420.6989
   3   2.0000     -88.954719     -2420.5810
   4   2.0000     -88.948637     -2420.4155
   5   2.0000     -88.926363     -2419.8094
   6   2.0000     -88.925309     -2419.7807
   7   2.0000     -19.280432      -524.6472
   8   2.0000     -19.208532      -522.6907
   9   2.0000     -19.203920      -522.5652
  10   2.0000     -19.200604      -522.4750
  11   2.0000     -19.191306      -522.2220
  12   2.0000     -19.191172      -522.2183
  13   2.0000     -14.462008      -393.5312
  14   2.0000     -14.426302      -392.5596
  15   2.0000     -10.405476      -283.1474
  16   2.0000     -10.381959      -282.5075
  17   2.0000     -10.369366      -282.1648
  18   2.0000     -10.367614      -282.1171
  19   2.0000     -10.357884      -281.8524
  20   2.0000     -10.354121      -281.7500
  21   2.0000     -10.345425      -281.5133
  22   2.0000     -10.344695      -281.4935
  23   2.0000     -10.326389      -280.9953
  24   2.0000     -10.321357      -280.8584
  25   2.0000     -10.316598      -280.7289
  26   2.0000     -10.316559      -280.7278
  27   2.0000     -10.316415      -280.7239
  28   2.0000     -10.313554      -280.6461
  29   2.0000     -10.313165      -280.6355
  30   2.0000     -10.312845      -280.6268
  31   2.0000     -10.311916      -280.6015
  32   2.0000     -10.311302      -280.5848
  33   2.0000     -10.306467      -280.4532
  34   2.0000     -10.306347      -280.4500
  35   2.0000     -10.298303      -280.2311
  36   2.0000     -10.298295      -280.2308
  37   2.0000     -10.296797      -280.1901
  38   2.0000     -10.296773      -280.1894
  39   2.0000     -10.296166      -280.1729
  40   2.0000     -10.296154      -280.1726
  41   2.0000     -10.294238      -280.1204
  42   2.0000     -10.293485      -280.1000
  43   2.0000     -10.289794      -279.9995
  44   2.0000     -10.288100      -279.9534
  45   2.0000     -10.287593      -279.9396
  46   2.0000     -10.287265      -279.9307
  47   2.0000     -10.287242      -279.9301
  48   2.0000     -10.284389      -279.8525
  49   2.0000     -10.283857      -279.8380
  50   2.0000     -10.279283      -279.7135
  51   2.0000     -10.278180      -279.6835
  52   2.0000     -10.276491      -279.6375
  53   2.0000     -10.275237      -279.6034
  54   2.0000     -10.273672      -279.5608
  55   2.0000     -10.271478      -279.5011
  56   2.0000     -10.270923      -279.4860
  57   2.0000     -10.270207      -279.4665
  58   2.0000     -10.268034      -279.4074
  59   2.0000     -10.265513      -279.3388
  60   2.0000     -10.261115      -279.2191
  61   2.0000      -8.075811      -219.7540
  62   2.0000      -8.067825      -219.5367
  63   2.0000      -8.054949      -219.1863
  64   2.0000      -8.050825      -219.0741
  65   2.0000      -8.043932      -218.8865
  66   2.0000      -8.024134      -218.3478
  67   2.0000      -8.023182      -218.3219
  68   2.0000      -6.044913      -164.4904
  69   2.0000      -6.040956      -164.3828
  70   2.0000      -6.038237      -164.3088
  71   2.0000      -6.037209      -164.2808
  72   2.0000      -6.033131      -164.1698
  73   2.0000      -6.029809      -164.0794
  74   2.0000      -6.024062      -163.9231
  75   2.0000      -6.020468      -163.8253
  76   2.0000      -6.020237      -163.8190
  77   2.0000      -6.017073      -163.7329
  78   2.0000      -6.016463      -163.7163
  79   2.0000      -6.013391      -163.6327
  80   2.0000      -6.011898      -163.5921
  81   2.0000      -6.009105      -163.5161
  82   2.0000      -6.005577      -163.4201
  83   2.0000      -5.993255      -163.0848
  84   2.0000      -5.992609      -163.0672
  85   2.0000      -5.989529      -162.9834
  86   2.0000      -5.988753      -162.9623
  87   2.0000      -5.985610      -162.8767
  88   2.0000      -5.984108      -162.8359
  89   2.0000      -1.209747       -32.9189
  90   2.0000      -1.130739       -30.7690
  91   2.0000      -1.127939       -30.6928
  92   2.0000      -1.123263       -30.5656
  93   2.0000      -1.115198       -30.3461
  94   2.0000      -1.112668       -30.2772
  95   2.0000      -1.079843       -29.3840
  96   2.0000      -1.058945       -28.8154
  97   2.0000      -1.008016       -27.4295
  98   2.0000      -1.002057       -27.2674
  99   2.0000      -0.997461       -27.1423
 100   2.0000      -0.979429       -26.6516
 101   2.0000      -0.972544       -26.4643
 102   2.0000      -0.943645       -25.6779
 103   2.0000      -0.931852       -25.3570
 104   2.0000      -0.927473       -25.2378
 105   2.0000      -0.921016       -25.0621
 106   2.0000      -0.911499       -24.8031
 107   2.0000      -0.909503       -24.7488
 108   2.0000      -0.900673       -24.5086
 109   2.0000      -0.880426       -23.9576
 110   2.0000      -0.869224       -23.6528
 111   2.0000      -0.863667       -23.5016
 112   2.0000      -0.858847       -23.3704
 113   2.0000      -0.854550       -23.2535
 114   2.0000      -0.850795       -23.1513
 115   2.0000      -0.844552       -22.9814
 116   2.0000      -0.836481       -22.7618
 117   2.0000      -0.826659       -22.4945
 118   2.0000      -0.825487       -22.4626
 119   2.0000      -0.815347       -22.1867
 120   2.0000      -0.808080       -21.9890
 121   2.0000      -0.804392       -21.8886
 122   2.0000      -0.799779       -21.7631
 123   2.0000      -0.787288       -21.4232
 124   2.0000      -0.778342       -21.1798
 125   2.0000      -0.762213       -20.7409
 126   2.0000      -0.758372       -20.6363
 127   2.0000      -0.746065       -20.3015
 128   2.0000      -0.734841       -19.9960
 129   2.0000      -0.728171       -19.8145
 130   2.0000      -0.716710       -19.5027
 131   2.0000      -0.701241       -19.0817
 132   2.0000      -0.695132       -18.9155
 133   2.0000      -0.690207       -18.7815
 134   2.0000      -0.677584       -18.4380
 135   2.0000      -0.667525       -18.1643
 136   2.0000      -0.666374       -18.1330
 137   2.0000      -0.664065       -18.0701
 138   2.0000      -0.659597       -17.9486
 139   2.0000      -0.651795       -17.7363
 140   2.0000      -0.638367       -17.3708
 141   2.0000      -0.634755       -17.2725
 142   2.0000      -0.631278       -17.1779
 143   2.0000      -0.626317       -17.0429
 144   2.0000      -0.619873       -16.8676
 145   2.0000      -0.615019       -16.7355
 146   2.0000      -0.610793       -16.6205
 147   2.0000      -0.602154       -16.3855
 148   2.0000      -0.592637       -16.1265
 149   2.0000      -0.591273       -16.0894
 150   2.0000      -0.587661       -15.9911
 151   2.0000      -0.583621       -15.8811
 152   2.0000      -0.580708       -15.8019
 153   2.0000      -0.576380       -15.6841
 154   2.0000      -0.575322       -15.6553
 155   2.0000      -0.572069       -15.5668
 156   2.0000      -0.568760       -15.4767
 157   2.0000      -0.565748       -15.3948
 158   2.0000      -0.561887       -15.2897
 159   2.0000      -0.559046       -15.2124
 160   2.0000      -0.549991       -14.9660
 161   2.0000      -0.543877       -14.7996
 162   2.0000      -0.540715       -14.7136
 163   2.0000      -0.538772       -14.6607
 164   2.0000      -0.534357       -14.5406
 165   2.0000      -0.526959       -14.3393
 166   2.0000      -0.524746       -14.2791
 167   2.0000      -0.523133       -14.2352
 168   2.0000      -0.522024       -14.2050
 169   2.0000      -0.517906       -14.0929
 170   2.0000      -0.516649       -14.0587
 171   2.0000      -0.515889       -14.0381
 172   2.0000      -0.512893       -13.9565
 173   2.0000      -0.509137       -13.8543
 174   2.0000      -0.507571       -13.8117
 175   2.0000      -0.504904       -13.7391
 176   2.0000      -0.501670       -13.6511
 177   2.0000      -0.499659       -13.5964
 178   2.0000      -0.498775       -13.5724
 179   2.0000      -0.497610       -13.5407
 180   2.0000      -0.495871       -13.4933
 181   2.0000      -0.490715       -13.3530
 182   2.0000      -0.484920       -13.1954
 183   2.0000      -0.483899       -13.1676
 184   2.0000      -0.482332       -13.1249
 185   2.0000      -0.481961       -13.1148
 186   2.0000      -0.480391       -13.0721
 187   2.0000      -0.476914       -12.9775
 188   2.0000      -0.475940       -12.9510
 189   2.0000      -0.474812       -12.9203
 190   2.0000      -0.473050       -12.8723
 191   2.0000      -0.470203       -12.7949
 192   2.0000      -0.466671       -12.6988
 193   2.0000      -0.462742       -12.5918
 194   2.0000      -0.461568       -12.5599
 195   2.0000      -0.460592       -12.5333
 196   2.0000      -0.457496       -12.4491
 197   2.0000      -0.456116       -12.4115
 198   2.0000      -0.445160       -12.1134
 199   2.0000      -0.440321       -11.9818
 200   2.0000      -0.436173       -11.8689
 201   2.0000      -0.434225       -11.8159
 202   2.0000      -0.434200       -11.8152
 203   2.0000      -0.430714       -11.7203
 204   2.0000      -0.429416       -11.6850
 205   2.0000      -0.425820       -11.5872
 206   2.0000      -0.423702       -11.5295
 207   2.0000      -0.421601       -11.4723
 208   2.0000      -0.419811       -11.4236
 209   2.0000      -0.419513       -11.4155
 210   2.0000      -0.414968       -11.2918
 211   2.0000      -0.413508       -11.2521
 212   2.0000      -0.405348       -11.0301
 213   2.0000      -0.404111       -10.9964
 214   2.0000      -0.402193       -10.9442
 215   2.0000      -0.394786       -10.7427
 216   2.0000      -0.391735       -10.6596
 217   2.0000      -0.380964       -10.3666
 218   2.0000      -0.364464        -9.9176
 219   2.0000      -0.363165        -9.8822
 220   2.0000      -0.360119        -9.7993
 221   2.0000      -0.359494        -9.7823
 222   2.0000      -0.347972        -9.4688
 223   2.0000      -0.341353        -9.2887
 224   2.0000      -0.334869        -9.1123
 225   2.0000      -0.334580        -9.1044
 226   2.0000      -0.334319        -9.0973
 227   2.0000      -0.331136        -9.0107
 228   2.0000      -0.323035        -8.7902
 229   2.0000      -0.319584        -8.6963
 230   2.0000      -0.318120        -8.6565
 231   2.0000      -0.316133        -8.6024
 232   2.0000      -0.305194        -8.3047
 233   2.0000      -0.303303        -8.2533
 234   2.0000      -0.292821        -7.9681
 235   2.0000      -0.272479        -7.4145
 236   2.0000      -0.256333        -6.9752
 237   2.0000      -0.238757        -6.4969
 238   2.0000      -0.211659        -5.7595
 239   0.0000      -0.102482        -2.7887
 240   0.0000      -0.082541        -2.2461
 241   0.0000      -0.051523        -1.4020
 242   0.0000      -0.033432        -0.9097
 243   0.0000      -0.013065        -0.3555

MULLIKEN ATOMIC CHARGES
-----------------------
   0 C :    0.056977
   1 C :   -0.082301
   2 C :   -0.062602
   3 C :    0.130844
   4 O :   -0.139031
   5 N :   -0.133037
   6 C :    0.202164
   7 O :   -0.263494
   8 C :    0.231096
   9 O :   -0.130735
  10 C :   -0.201907
  11 S :    0.184114
  12 C :   -0.038071
  13 C :   -0.242168
  14 N :    0.043082
  15 C :    0.396822
  16 C :   -0.144437
  17 C :   -0.101416
  18 S :    0.144054
  19 C :   -0.048531
  20 C :   -0.028630
  21 C :    0.000397
  22 C :    0.033549
  23 C :   -0.125954
  24 S :    0.123983
  25 C :   -0.129578
  26 C :   -0.053366
  27 C :   -0.116081
  28 C :    0.147104
  29 C :   -0.112608
  30 C :   -0.009974
  31 O :   -0.175573
  32 C :    0.059765
  33 C :    0.117063
  34 C :    0.062647
  35 C :    0.056226
  36 C :   -0.026009
  37 C :    0.017678
  38 C :   -0.037829
  39 C :    0.053042
  40 C :    0.017943
  41 C :   -0.021069
  42 S :    0.090436
  43 C :   -0.077079
  44 C :    0.039837
  45 C :    0.022154
  46 C :   -0.011747
  47 S :    0.180989
  48 C :   -0.006742
  49 C :   -0.107901
  50 S :    0.023436
  51 C :    0.042633
  52 O :   -0.164992
  53 C :    0.064496
  54 C :    0.057714
  55 C :    0.002539
  56 O :   -0.191155
  57 S :    0.020951
  58 C :   -0.129940
  59 C :    0.020339
  60 C :   -0.001432
  61 H :    0.027888
  62 H :    0.135060
  63 H :    0.043595
  64 H :    0.043422
  65 H :   -0.021196
  66 H :   -0.011320
  67 H :   -0.009544
  68 H :    0.024952
  69 H :    0.013723
  70 H :    0.021913
  71 H :    0.048460
  72 H :    0.033129
  73 H :    0.028139
  74 H :   -0.001188
  75 H :    0.014456
  76 H :    0.041527
  77 H :    0.049013
  78 H :   -0.016697
  79 H :    0.005120
  80 H :   -0.009551
  81 H :   -0.006621
  82 H :   -0.007792
  83 H :   -0.015183
  84 H :   -0.012410
  85 H :   -0.011521
  86 H :   -0.013334
  87 H :    0.054145
  88 H :    0.023131
Sum of atomic charges:    0.0000000

LOEWDIN ATOMIC CHARGES
----------------------
   0 C :    0.092778
   1 C :   -0.142190
   2 C :   -0.110039
   3 C :    0.074005
   4 O :   -0.164905
   5 N :    0.027202
   6 C :    0.076202
   7 O :   -0.067351
   8 C :    0.103246
   9 O :   -0.138692
  10 C :   -0.159920
  11 S :    0.453580
  12 C :   -0.201035
  13 C :   -0.036616
  14 N :   -0.044241
  15 C :   -0.010644
  16 C :   -0.040239
  17 C :   -0.200496
  18 S :    0.438001
  19 C :   -0.157392
  20 C :   -0.052802
  21 C :   -0.040229
  22 C :   -0.052204
  23 C :   -0.169134
  24 S :    0.435329
  25 C :   -0.174453
  26 C :   -0.036440
  27 C :   -0.062384
  28 C :   -0.020682
  29 C :   -0.060062
  30 C :    0.089665
  31 O :   -0.135761
  32 C :   -0.077845
  33 C :   -0.015654
  34 C :   -0.030895
  35 C :   -0.018476
  36 C :   -0.043879
  37 C :   -0.021653
  38 C :   -0.157672
  39 C :   -0.013902
  40 C :   -0.040864
  41 C :   -0.144977
  42 S :    0.396133
  43 C :   -0.200155
  44 C :   -0.027173
  45 C :   -0.043087
  46 C :   -0.121913
  47 S :    0.484395
  48 C :   -0.104777
  49 C :   -0.102492
  50 S :    0.323279
  51 C :   -0.041975
  52 O :   -0.155767
  53 C :   -0.133172
  54 C :   -0.156083
  55 C :   -0.077749
  56 O :   -0.191812
  57 S :    0.331893
  58 C :   -0.105509
  59 C :   -0.062090
  60 C :    0.005717
  61 H :    0.037291
  62 H :    0.091574
  63 H :    0.059645
  64 H :    0.059820
  65 H :    0.032127
  66 H :    0.034960
  67 H :    0.022037
  68 H :    0.035183
  69 H :    0.027231
  70 H :    0.041190
  71 H :    0.049461
  72 H :    0.040210
  73 H :    0.035091
  74 H :    0.023625
  75 H :    0.033533
  76 H :    0.036597
  77 H :    0.040870
  78 H :    0.029604
  79 H :    0.023002
  80 H :    0.035502
  81 H :    0.036335
  82 H :    0.033789
  83 H :    0.031167
  84 H :    0.032911
  85 H :    0.034172
  86 H :    0.026224
  87 H :    0.026831
  88 H :    0.026069

  Mayer bond orders larger than 0.100000
B(  0-C ,  1-C ) :   1.4922 B(  0-C ,  5-N ) :   1.2122 B(  0-C , 61-H ) :   0.9834
B(  1-C ,  2-C ) :   1.1477 B(  1-C ,  8-C ) :   0.9656 B(  2-C ,  3-C ) :   0.9324
B(  2-C ,  6-C ) :   1.4693 B(  3-C ,  4-O ) :   2.2590 B(  3-C ,  5-N ) :   1.0433
B(  5-N , 62-H ) :   0.9272 B(  6-C ,  7-O ) :   1.1804 B(  6-C , 10-C ) :   1.1239
B(  7-O ,  8-C ) :   0.9783 B(  8-C ,  9-O ) :   2.2758 B( 10-C , 11-S ) :   1.0521
B( 10-C , 14-N ) :   1.6706 B( 11-S , 12-C ) :   1.1128 B( 11-S , 14-N ) :   0.1083
B( 12-C , 13-C ) :   1.4171 B( 12-C , 17-C ) :   1.2118 B( 13-C , 14-N ) :   1.4954
B( 13-C , 15-C ) :   1.0405 B( 15-C , 16-C ) :   0.9798 B( 15-C , 63-H ) :   0.8618
B( 15-C , 64-H ) :   0.8592 B( 16-C , 17-C ) :   1.5051 B( 16-C , 20-C ) :   1.3030
B( 17-C , 18-S ) :   1.0769 B( 18-S , 19-C ) :   1.1012 B( 19-C , 20-C ) :   1.4302
B( 19-C , 21-C ) :   1.1781 B( 20-C , 65-H ) :   1.0076 B( 21-C , 22-C ) :   1.6303
B( 21-C , 66-H ) :   0.9718 B( 22-C , 23-C ) :   1.1505 B( 22-C , 67-H ) :   0.9439
B( 23-C , 24-S ) :   1.1263 B( 23-C , 27-C ) :   1.4563 B( 24-S , 25-C ) :   1.1053
B( 25-C , 26-C ) :   1.4392 B( 25-C , 35-C ) :   1.1712 B( 26-C , 27-C ) :   1.3534
B( 26-C , 34-C ) :   1.0707 B( 27-C , 28-C ) :   1.0550 B( 28-C , 29-C ) :   1.0407
B( 28-C , 68-H ) :   0.8923 B( 28-C , 69-H ) :   0.9089 B( 29-C , 30-C ) :   0.8981
B( 29-C , 33-C ) :   1.0604 B( 29-C , 70-H ) :   0.8898 B( 30-C , 31-O ) :   2.1980
B( 30-C , 32-C ) :   1.0450 B( 32-C , 71-H ) :   0.9373 B( 32-C , 72-H ) :   0.9469
B( 32-C , 73-H ) :   0.9518 B( 33-C , 34-C ) :   1.0802 B( 33-C , 74-H ) :   0.9359
B( 33-C , 75-H ) :   0.9195 B( 34-C , 76-H ) :   0.9033 B( 34-C , 77-H ) :   0.8992
B( 35-C , 36-C ) :   1.5941 B( 35-C , 78-H ) :   0.9541 B( 36-C , 37-C ) :   1.1877
B( 36-C , 79-H ) :   0.9644 B( 37-C , 38-C ) :   1.5224 B( 37-C , 80-H ) :   0.9860
B( 38-C , 39-C ) :   1.1609 B( 38-C , 42-S ) :   1.0306 B( 39-C , 40-C ) :   1.5646
B( 39-C , 81-H ) :   0.9992 B( 40-C , 41-C ) :   1.2045 B( 40-C , 82-H ) :   0.9954
B( 41-C , 42-S ) :   1.0860 B( 41-C , 43-C ) :   1.4544 B( 43-C , 44-C ) :   1.2007
B( 43-C , 47-S ) :   1.0740 B( 44-C , 45-C ) :   1.5643 B( 44-C , 83-H ) :   0.9917
B( 45-C , 46-C ) :   1.1728 B( 45-C , 84-H ) :   0.9977 B( 46-C , 47-S ) :   1.1327
B( 46-C , 48-C ) :   1.4644 B( 48-C , 49-C ) :   1.3203 B( 48-C , 85-H ) :   0.9404
B( 49-C , 50-S ) :   1.0534 B( 49-C , 54-C ) :   1.3509 B( 50-S , 51-C ) :   1.0137
B( 50-S , 52-O ) :   0.1068 B( 51-C , 52-O ) :   2.0961 B( 51-C , 53-C ) :   0.9478
B( 53-C , 54-C ) :   1.1467 B( 53-C , 58-C ) :   1.4823 B( 54-C , 55-C ) :   1.0289
B( 55-C , 56-O ) :   2.0527 B( 55-C , 57-S ) :   0.9784 B( 56-O , 57-S ) :   0.1008
B( 57-S , 58-C ) :   1.1056 B( 58-C , 59-C ) :   1.1390 B( 59-C , 60-C ) :   1.9117
B( 59-C , 86-H ) :   0.9458 B( 60-C , 87-H ) :   0.9298 B( 60-C , 88-H ) :   0.9433

-----------------------------------------------------------------------------
         ABSORPTION SPECTRUM VIA TRANSITION ELECTRIC DIPOLE MOMENTS
-----------------------------------------------------------------------------
State   Energy  Wavelength   fosc         T2         TX        TY        TZ
        (cm-1)    (nm)                  (au**2)     (au)      (au)      (au)
-----------------------------------------------------------------------------
   0   10886.1    918.6   1.445049904  43.70040   5.69395  -3.11593   1.25314
   1   17516.7    570.9   1.872385670  35.18998  -3.79827   2.59343   3.74663
   2   17911.0    558.3   0.006971238   0.12813   0.02734  -0.24983  -0.25490
   3   20462.2    488.7   0.033046542   0.53168   0.02757   0.12908   0.71712
   4   22223.8    450.0   0.348194240   5.15798  -1.03258  -0.15837   2.01660
   5   22785.0    438.9   0.084788363   1.22507   0.71249  -0.83708   0.12935
   6   24728.5    404.4   0.190883632   2.54125  -1.26519   0.59223   0.76798
   7   25368.5    394.2   0.075873591   0.98463  -0.84324   0.26586   0.45044
   8   26767.8    373.6   0.016294519   0.20040  -0.33514   0.02014   0.29611
   9   27612.5    362.2   0.218620199   2.60651   0.27754   0.33796  -1.55411
  10   28108.2    355.8   0.003673139   0.04302   0.12265  -0.14783   0.07825
  11   28581.4    349.9   0.015053836   0.17340  -0.21731   0.30600   0.18038
  12   29726.3    336.4   0.025275951   0.27993   0.28679  -0.28251   0.34332
  13   29877.4    334.7   0.001832930   0.02020  -0.01846  -0.13212   0.04898
  14   29953.7    333.8   0.209103062   2.29819  -0.63229   0.91750  -1.02791
  15   30251.7    330.6   0.021967617   0.23906  -0.23183   0.05501   0.42696
  16   30441.5    328.5   0.014003148   0.15144   0.17039   0.00234  -0.34986
  17   31207.1    320.4   0.018752078   0.19782  -0.03839  -0.26555   0.35473
  18   32465.2    308.0   0.052743600   0.53484  -0.34584   0.52987  -0.36672
  19   32883.6    304.1   0.026361332   0.26391   0.44056  -0.11386  -0.23845
  20   33335.2    300.0   0.065428771   0.64616   0.67537  -0.30503  -0.31144
  21   33500.1    298.5   0.004960827   0.04875   0.08011  -0.09950  -0.18009
  22   33585.2    297.8   0.004779229   0.04685   0.07652  -0.12327   0.16061
  23   34233.2    292.1   0.091571016   0.88062   0.40063  -0.43056   0.73125
  24   34714.8    288.1   0.022079048   0.20938  -0.18543   0.41826   0.00766
  25   35543.7    281.3   0.011531284   0.10680  -0.24942   0.16025   0.13752
  26   35670.9    280.3   0.008785731   0.08108   0.16169  -0.17234  -0.15888
  27   36204.0    276.2   0.066993285   0.60919   0.69320  -0.27648  -0.22851
  28   36542.4    273.7   0.037737193   0.33998  -0.31299   0.03042   0.49101
  29   36769.5    272.0   0.005193422   0.04650  -0.04459  -0.15244   0.14585
  30   37125.2    269.4   0.039212437   0.34772  -0.10491   0.08852   0.57348
  31   37167.9    269.0   0.063148698   0.55933  -0.00103  -0.05850   0.74559
  32   37664.0    265.5   0.006931851   0.06059  -0.00003   0.00047   0.24615
  33   38075.6    262.6   0.010518967   0.09095   0.25501  -0.16096  -0.00347
  34   38225.2    261.6   0.024081240   0.20740  -0.23689   0.37868   0.08881
  35   38348.6    260.8   0.033456344   0.28721   0.15724  -0.29882   0.41616
  36   38632.6    258.8   0.056385034   0.48049  -0.06327   0.32263  -0.61024
  37   38885.5    257.2   0.012621484   0.10686  -0.06291  -0.04892   0.31702
  38   39202.1    255.1   0.051242753   0.43033   0.07090  -0.42198   0.49723
  39   39664.6    252.1   0.016742533   0.13896  -0.30746   0.12162   0.17216
  40   39744.3    251.6   0.013482344   0.11168  -0.10953   0.07084   0.30767

FINAL SINGLE POINT ENERGY     -5114.114247747006

DIPOLE MOMENT
-------------
                                X             Y             Z
Electronic contribution:     12.17082     -30.27334       0.23655
Nuclear contribution   :    -10.28226      29.18961       0.72140
                        -----------------------------------------
Total Dipole Moment    :      1.88856      -1.08373       0.95795
                        -----------------------------------------
Magnitude (a.u.)       :      2.37882
Magnitude (Debye)      :      6.04648

Rotational constants in cm-1:     0.002179     0.000235     0.000220
Rotational constants in MHz :    65.322284     7.052052     6.605185

                             ****ORCA TERMINATED NORMALLY****
TOTAL RUN TIME: 0 days 0 hours 8 minutes 17 seconds 877 msec
