                         Program Version 4.2.0 -  RELEASE  -
|  1> # ORCA input file
|  2> # SCF done       -143.680300668533          0.000627289083
|  3> ! CAM-B3LYP def2-SVP def2/J RIJCOSX Grid4 TightSCF
|  4> %maxcore 5000
|  5> %tddft
|  6>     Mode sTDDFT
|  7>     Ethresh 5.0
|  8>     maxcore 5000
|  9> end
| 10>
| 11> %pal
| 12>   nprocs 6
| 13>   end
| 14> * xyz 0 1
| 15>    C        6.62328        -3.26806        -2.91886
| 16>    S        6.92222        -1.74666        -2.18577
| 17>    C        5.21615        -1.37914        -2.12500
| 18>    C        4.47504        -2.42268        -2.66446
| 19>    C        5.29109        -3.50395        -3.11739
| 20>    C        4.78215        -4.67949        -3.70121
| 21>    N        4.37130        -5.63710        -4.17750
| 22>    C        3.07576        -2.41142        -2.75146
| 23>    N        1.93027        -2.39687        -2.81996
| 24>    C        4.70400        -0.17423        -1.58748
| 25>    C        5.47808         0.81217        -1.06579
| 26>    C        4.94799         2.00898        -0.51432
| 27>    C        5.71329         3.01975         0.03301
| 28>    O        5.15079         4.15107         0.58898
| 29>    C        3.78984         4.21918         0.54945
| 30>    C        3.00211         3.18324        -0.02780
| 31>    C        1.67204         3.44105         0.02601
| 32>    S        1.36092         4.95758         0.78522
| 33>    C        3.04310         5.24350         1.03106
| 34>    O        3.56592         2.06726        -0.56352
| 35>    C        7.13375         3.01611         0.08086
| 36>    C        7.86359         4.00039         0.67013
| 37>    C        9.27428         4.02819         0.70562
| 38>    S       10.23707         2.80620        -0.08119
| 39>    C       11.72540         3.57841         0.40681
| 40>    C       11.46386         4.71030         1.17327
| 41>    C       10.09387         4.96707         1.32322
| 42>    C        9.56614         6.12984         2.10678
| 43>    C       10.64860         7.17515         2.36672
| 44>    C       11.04498         8.05161         1.18066
| 45>    O       11.92536         8.86727         1.29859
| 46>    C       10.29725         7.86845        -0.11245
| 47>    C       11.90523         6.47090         2.89433
| 48>    C       12.50465         5.57717         1.80993
| 49>    C       12.92653         2.97268        -0.03782
| 50>    C       14.17636         3.50454        -0.00408
| 51>    C       15.35195         2.87874        -0.47569
| 52>    S       16.82428         3.83208        -0.45449
| 53>    C       17.78624         2.55526        -1.15081
| 54>    C       16.98017         1.45688        -1.36541
| 55>    C       15.61745         1.61272        -0.99367
| 56>    C       14.88025         0.42043        -1.24340
| 57>    C       15.63033        -0.57159        -1.77705
| 58>    C       15.19703        -1.93822        -2.16276
| 59>    S       17.31144        -0.11673        -2.01335
| 60>    C       19.16446         2.73373        -1.41831
| 61>    S       20.11827         1.46487        -2.13414
| 62>    C       21.53748         2.48059        -2.10950
| 63>    C       21.25773         3.71820        -1.57117
| 64>    C       19.92716         3.86050        -1.18346
| 65>    C       22.75319         2.01979        -2.59428
| 66>    C       23.79991         1.59224        -3.03115
| 67>    C       25.03002         1.14000        -3.52769
| 68>    C       25.21719        -0.08459        -4.01719
| 69>    H        7.44097        -3.91535        -3.16856
| 70>    H        3.62856        -0.06521        -1.60395
| 71>    H        6.54895         0.68586        -1.05585
| 72>    H        0.86774         2.83417        -0.33306
| 73>    H        3.37980         6.13876         1.51012
| 74>    H        7.65377         2.19269        -0.38011
| 75>    H        7.34601         4.81815         1.14986
| 76>    H        9.20741         5.75962         3.07366
| 77>    H        8.70784         6.57287         1.59965
| 78>    H       10.29258         7.86959         3.13745
| 79>    H       10.74785         8.49020        -0.88204
| 80>    H        9.25910         8.16717         0.01980
| 81>    H       10.31576         6.82634        -0.42161
| 82>    H       11.64016         5.87106         3.76716
| 83>    H       12.64269         7.21501         3.19583
| 84>    H       13.28787         4.95149         2.24427
| 85>    H       12.96647         6.21016         1.04464
| 86>    H       12.79222         2.00178        -0.49115
| 87>    H       14.32609         4.50428         0.37187
| 88>    H       13.83512         0.29537        -1.02919
| 89>    H       15.75597        -2.68733        -1.60230
| 90>    H       15.38291        -2.11181        -3.22246
| 91>    H       14.13587        -2.06718        -1.96411
| 92>    H       22.00410         4.48551        -1.46861
| 93>    H       19.51519         4.75192        -0.74401
| 94>    H       25.84012         1.85887        -3.49152
| 95>    H       24.41575        -0.80344        -4.05637
| 96>    H       26.17531        -0.39938        -4.39243
| 97> *
| 98>
| 99>                          ****END OF INPUT****

CARTESIAN COORDINATES (ANGSTROEM)
---------------------------------
  C      6.623280   -3.268060   -2.918860
  S      6.922220   -1.746660   -2.185770
  C      5.216150   -1.379140   -2.125000
  C      4.475040   -2.422680   -2.664460
  C      5.291090   -3.503950   -3.117390
  C      4.782150   -4.679490   -3.701210
  N      4.371300   -5.637100   -4.177500
  C      3.075760   -2.411420   -2.751460
  N      1.930270   -2.396870   -2.819960
  C      4.704000   -0.174230   -1.587480
  C      5.478080    0.812170   -1.065790
  C      4.947990    2.008980   -0.514320
  C      5.713290    3.019750    0.033010
  O      5.150790    4.151070    0.588980
  C      3.789840    4.219180    0.549450
  C      3.002110    3.183240   -0.027800
  C      1.672040    3.441050    0.026010
  S      1.360920    4.957580    0.785220
  C      3.043100    5.243500    1.031060
  O      3.565920    2.067260   -0.563520
  C      7.133750    3.016110    0.080860
  C      7.863590    4.000390    0.670130
  C      9.274280    4.028190    0.705620
  S     10.237070    2.806200   -0.081190
  C     11.725400    3.578410    0.406810
  C     11.463860    4.710300    1.173270
  C     10.093870    4.967070    1.323220
  C      9.566140    6.129840    2.106780
  C     10.648600    7.175150    2.366720
  C     11.044980    8.051610    1.180660
  O     11.925360    8.867270    1.298590
  C     10.297250    7.868450   -0.112450
  C     11.905230    6.470900    2.894330
  C     12.504650    5.577170    1.809930
  C     12.926530    2.972680   -0.037820
  C     14.176360    3.504540   -0.004080
  C     15.351950    2.878740   -0.475690
  S     16.824280    3.832080   -0.454490
  C     17.786240    2.555260   -1.150810
  C     16.980170    1.456880   -1.365410
  C     15.617450    1.612720   -0.993670
  C     14.880250    0.420430   -1.243400
  C     15.630330   -0.571590   -1.777050
  C     15.197030   -1.938220   -2.162760
  S     17.311440   -0.116730   -2.013350
  C     19.164460    2.733730   -1.418310
  S     20.118270    1.464870   -2.134140
  C     21.537480    2.480590   -2.109500
  C     21.257730    3.718200   -1.571170
  C     19.927160    3.860500   -1.183460
  C     22.753190    2.019790   -2.594280
  C     23.799910    1.592240   -3.031150
  C     25.030020    1.140000   -3.527690
  C     25.217190   -0.084590   -4.017190
  H      7.440970   -3.915350   -3.168560
  H      3.628560   -0.065210   -1.603950
  H      6.548950    0.685860   -1.055850
  H      0.867740    2.834170   -0.333060
  H      3.379800    6.138760    1.510120
  H      7.653770    2.192690   -0.380110
  H      7.346010    4.818150    1.149860
  H      9.207410    5.759620    3.073660
  H      8.707840    6.572870    1.599650
  H     10.292580    7.869590    3.137450
  H     10.747850    8.490200   -0.882040
  H      9.259100    8.167170    0.019800
  H     10.315760    6.826340   -0.421610
  H     11.640160    5.871060    3.767160
  H     12.642690    7.215010    3.195830
  H     13.287870    4.951490    2.244270
  H     12.966470    6.210160    1.044640
  H     12.792220    2.001780   -0.491150
  H     14.326090    4.504280    0.371870
  H     13.835120    0.295370   -1.029190
  H     15.755970   -2.687330   -1.602300
  H     15.382910   -2.111810   -3.222460
  H     14.135870   -2.067180   -1.964110
  H     22.004100    4.485510   -1.468610
  H     19.515190    4.751920   -0.744010
  H     25.840120    1.858870   -3.491520
  H     24.415750   -0.803440   -4.056370
  H     26.175310   -0.399380   -4.392430

 Total Charge           Charge          ....    0
 Multiplicity           Mult            ....    1
 Number of Electrons    NEL             ....  420
 Basis Dimension        Dim             ....  920

ORBITAL ENERGIES
----------------

  NO   OCC          E(Eh)            E(eV)
   0   2.0000     -88.989054     -2421.5153
   1   2.0000     -88.961738     -2420.7720
   2   2.0000     -88.961115     -2420.7550
   3   2.0000     -88.959495     -2420.7109
   4   2.0000     -88.956341     -2420.6251
   5   2.0000     -88.952291     -2420.5149
   6   2.0000     -19.285164      -524.7760
   7   2.0000     -19.279335      -524.6174
   8   2.0000     -19.204042      -522.5685
   9   2.0000     -14.410146      -392.1200
  10   2.0000     -14.408178      -392.0664
  11   2.0000     -10.361319      -281.9458
  12   2.0000     -10.355479      -281.7869
  13   2.0000     -10.353341      -281.7287
  14   2.0000     -10.346071      -281.5309
  15   2.0000     -10.344722      -281.4942
  16   2.0000     -10.338562      -281.3266
  17   2.0000     -10.331829      -281.1434
  18   2.0000     -10.331199      -281.1262
  19   2.0000     -10.325609      -280.9741
  20   2.0000     -10.314290      -280.6661
  21   2.0000     -10.311406      -280.5876
  22   2.0000     -10.311077      -280.5787
  23   2.0000     -10.310846      -280.5724
  24   2.0000     -10.310133      -280.5530
  25   2.0000     -10.308167      -280.4995
  26   2.0000     -10.307913      -280.4926
  27   2.0000     -10.307858      -280.4911
  28   2.0000     -10.303944      -280.3846
  29   2.0000     -10.302588      -280.3477
  30   2.0000     -10.302322      -280.3404
  31   2.0000     -10.299550      -280.2650
  32   2.0000     -10.297182      -280.2006
  33   2.0000     -10.295008      -280.1414
  34   2.0000     -10.294662      -280.1320
  35   2.0000     -10.290895      -280.0295
  36   2.0000     -10.289902      -280.0025
  37   2.0000     -10.288569      -279.9662
  38   2.0000     -10.287668      -279.9417
  39   2.0000     -10.287208      -279.9292
  40   2.0000     -10.287110      -279.9265
  41   2.0000     -10.284841      -279.8647
  42   2.0000     -10.283463      -279.8272
  43   2.0000     -10.282140      -279.7913
  44   2.0000     -10.281821      -279.7826
  45   2.0000     -10.278052      -279.6800
  46   2.0000     -10.277889      -279.6756
  47   2.0000     -10.277547      -279.6663
  48   2.0000     -10.275460      -279.6095
  49   2.0000     -10.272539      -279.5300
  50   2.0000     -10.271999      -279.5153
  51   2.0000     -10.271238      -279.4946
  52   2.0000     -10.268663      -279.4245
  53   2.0000     -10.267574      -279.3949
  54   2.0000      -8.084650      -219.9945
  55   2.0000      -8.057471      -219.2549
  56   2.0000      -8.056273      -219.2223
  57   2.0000      -8.054833      -219.1831
  58   2.0000      -8.051915      -219.1038
  59   2.0000      -8.048176      -219.0020
  60   2.0000      -6.053829      -164.7331
  61   2.0000      -6.049627      -164.6187
  62   2.0000      -6.047021      -164.5478
  63   2.0000      -6.026964      -164.0020
  64   2.0000      -6.025678      -163.9670
  65   2.0000      -6.024204      -163.9269
  66   2.0000      -6.022805      -163.8889
  67   2.0000      -6.021591      -163.8558
  68   2.0000      -6.021074      -163.8417
  69   2.0000      -6.020050      -163.8139
  70   2.0000      -6.019170      -163.7899
  71   2.0000      -6.018153      -163.7623
  72   2.0000      -6.017962      -163.7571
  73   2.0000      -6.017304      -163.7392
  74   2.0000      -6.016779      -163.7249
  75   2.0000      -6.013971      -163.6485
  76   2.0000      -6.013691      -163.6408
  77   2.0000      -6.009303      -163.5214
  78   2.0000      -1.208339       -32.8806
  79   2.0000      -1.171237       -31.8710
  80   2.0000      -1.123413       -30.5696
  81   2.0000      -1.025641       -27.9091
  82   2.0000      -1.010677       -27.5019
  83   2.0000      -0.995912       -27.1001
  84   2.0000      -0.991575       -26.9821
  85   2.0000      -0.990424       -26.9508
  86   2.0000      -0.986322       -26.8392
  87   2.0000      -0.983023       -26.7494
  88   2.0000      -0.949541       -25.8383
  89   2.0000      -0.937028       -25.4978
  90   2.0000      -0.930265       -25.3138
  91   2.0000      -0.918840       -25.0029
  92   2.0000      -0.904468       -24.6118
  93   2.0000      -0.892412       -24.2838
  94   2.0000      -0.884939       -24.0804
  95   2.0000      -0.882563       -24.0157
  96   2.0000      -0.869531       -23.6611
  97   2.0000      -0.859733       -23.3945
  98   2.0000      -0.853651       -23.2290
  99   2.0000      -0.843494       -22.9527
 100   2.0000      -0.841168       -22.8894
 101   2.0000      -0.837766       -22.7968
 102   2.0000      -0.827959       -22.5299
 103   2.0000      -0.827667       -22.5220
 104   2.0000      -0.821464       -22.3532
 105   2.0000      -0.817404       -22.2427
 106   2.0000      -0.809389       -22.0246
 107   2.0000      -0.793340       -21.5879
 108   2.0000      -0.778516       -21.1845
 109   2.0000      -0.769319       -20.9342
 110   2.0000      -0.751672       -20.4540
 111   2.0000      -0.735118       -20.0036
 112   2.0000      -0.730789       -19.8858
 113   2.0000      -0.720837       -19.6150
 114   2.0000      -0.716925       -19.5085
 115   2.0000      -0.704571       -19.1723
 116   2.0000      -0.704073       -19.1588
 117   2.0000      -0.693965       -18.8837
 118   2.0000      -0.692904       -18.8549
 119   2.0000      -0.681048       -18.5323
 120   2.0000      -0.674279       -18.3481
 121   2.0000      -0.669178       -18.2093
 122   2.0000      -0.659024       -17.9330
 123   2.0000      -0.637403       -17.3446
 124   2.0000      -0.635489       -17.2925
 125   2.0000      -0.632542       -17.2123
 126   2.0000      -0.627391       -17.0722
 127   2.0000      -0.623101       -16.9554
 128   2.0000      -0.607890       -16.5415
 129   2.0000      -0.603904       -16.4331
 130   2.0000      -0.600670       -16.3451
 131   2.0000      -0.589473       -16.0404
 132   2.0000      -0.578788       -15.7496
 133   2.0000      -0.578167       -15.7327
 134   2.0000      -0.574794       -15.6410
 135   2.0000      -0.574068       -15.6212
 136   2.0000      -0.564954       -15.3732
 137   2.0000      -0.561701       -15.2847
 138   2.0000      -0.559951       -15.2370
 139   2.0000      -0.553710       -15.0672
 140   2.0000      -0.546152       -14.8616
 141   2.0000      -0.539060       -14.6686
 142   2.0000      -0.535697       -14.5770
 143   2.0000      -0.532449       -14.4887
 144   2.0000      -0.529278       -14.4024
 145   2.0000      -0.525985       -14.3128
 146   2.0000      -0.525431       -14.2977
 147   2.0000      -0.524021       -14.2593
 148   2.0000      -0.520651       -14.1676
 149   2.0000      -0.515036       -14.0148
 150   2.0000      -0.513957       -13.9855
 151   2.0000      -0.509087       -13.8530
 152   2.0000      -0.507888       -13.8203
 153   2.0000      -0.505801       -13.7635
 154   2.0000      -0.504506       -13.7283
 155   2.0000      -0.502816       -13.6823
 156   2.0000      -0.497117       -13.5272
 157   2.0000      -0.494810       -13.4645
 158   2.0000      -0.491942       -13.3864
 159   2.0000      -0.490163       -13.3380
 160   2.0000      -0.486095       -13.2273
 161   2.0000      -0.484631       -13.1875
 162   2.0000      -0.481478       -13.1017
 163   2.0000      -0.478709       -13.0263
 164   2.0000      -0.477358       -12.9896
 165   2.0000      -0.475567       -12.9408
 166   2.0000      -0.473632       -12.8882
 167   2.0000      -0.471383       -12.8270
 168   2.0000      -0.460607       -12.5337
 169   2.0000      -0.456380       -12.4187
 170   2.0000      -0.453302       -12.3350
 171   2.0000      -0.450496       -12.2586
 172   2.0000      -0.448580       -12.2065
 173   2.0000      -0.447363       -12.1734
 174   2.0000      -0.446336       -12.1454
 175   2.0000      -0.437509       -11.9052
 176   2.0000      -0.437160       -11.8957
 177   2.0000      -0.436808       -11.8861
 178   2.0000      -0.436009       -11.8644
 179   2.0000      -0.434511       -11.8236
 180   2.0000      -0.433010       -11.7828
 181   2.0000      -0.428800       -11.6682
 182   2.0000      -0.424820       -11.5599
 183   2.0000      -0.423954       -11.5364
 184   2.0000      -0.420666       -11.4469
 185   2.0000      -0.416735       -11.3399
 186   2.0000      -0.411895       -11.2082
 187   2.0000      -0.410441       -11.1687
 188   2.0000      -0.409425       -11.1410
 189   2.0000      -0.406960       -11.0739
 190   2.0000      -0.406723       -11.0675
 191   2.0000      -0.403175       -10.9709
 192   2.0000      -0.401242       -10.9183
 193   2.0000      -0.393396       -10.7049
 194   2.0000      -0.389608       -10.6018
 195   2.0000      -0.364251        -9.9118
 196   2.0000      -0.342967        -9.3326
 197   2.0000      -0.339849        -9.2478
 198   2.0000      -0.338425        -9.2090
 199   2.0000      -0.336039        -9.1441
 200   2.0000      -0.324876        -8.8403
 201   2.0000      -0.320205        -8.7132
 202   2.0000      -0.315764        -8.5924
 203   2.0000      -0.314078        -8.5465
 204   2.0000      -0.304191        -8.2775
 205   2.0000      -0.298984        -8.1358
 206   2.0000      -0.294640        -8.0176
 207   2.0000      -0.276585        -7.5263
 208   2.0000      -0.247832        -6.7439
 209   2.0000      -0.220051        -5.9879
 210   0.0000      -0.081633        -2.2214
 211   0.0000      -0.055742        -1.5168
 212   0.0000      -0.025523        -0.6945
 213   0.0000      -0.008966        -0.2440
 214   0.0000      -0.000104        -0.0028

MULLIKEN ATOMIC CHARGES
-----------------------
   0 C :   -0.072887
   1 S :    0.139106
   2 C :   -0.078851
   3 C :    0.008011
   4 C :   -0.054316
   5 C :   -0.197042
   6 N :    0.188891
   7 C :   -0.262196
   8 N :    0.195423
   9 C :    0.002214
  10 C :   -0.066857
  11 C :    0.167627
  12 C :    0.200921
  13 O :   -0.257720
  14 C :    0.218203
  15 C :    0.220406
  16 C :   -0.168430
  17 S :    0.115124
  18 C :   -0.173752
  19 O :   -0.258774
  20 C :   -0.086559
  21 C :    0.015168
  22 C :   -0.085952
  23 S :    0.083253
  24 C :   -0.105833
  25 C :   -0.078324
  26 C :   -0.113146
  27 C :    0.185194
  28 C :   -0.092108
  29 C :   -0.051352
  30 O :   -0.186414
  31 C :    0.085167
  32 C :    0.078539
  33 C :    0.079239
  34 C :    0.034534
  35 C :    0.057397
  36 C :   -0.133077
  37 S :    0.131881
  38 C :   -0.081246
  39 C :   -0.081356
  40 C :    0.132096
  41 C :   -0.020100
  42 C :   -0.195163
  43 C :    0.116938
  44 S :    0.108698
  45 C :   -0.077035
  46 S :    0.151455
  47 C :   -0.135017
  48 C :    0.065001
  49 C :   -0.025837
  50 C :    0.087286
  51 C :   -0.084782
  52 C :   -0.091006
  53 C :    0.000100
  54 H :    0.040701
  55 H :    0.029543
  56 H :   -0.001322
  57 H :    0.032065
  58 H :    0.022869
  59 H :   -0.006575
  60 H :    0.001843
  61 H :    0.021961
  62 H :    0.008234
  63 H :    0.024198
  64 H :    0.031040
  65 H :    0.032724
  66 H :    0.041079
  67 H :    0.005620
  68 H :    0.020877
  69 H :    0.023885
  70 H :    0.044325
  71 H :   -0.044553
  72 H :   -0.031555
  73 H :   -0.022851
  74 H :    0.039681
  75 H :    0.039471
  76 H :    0.020584
  77 H :   -0.009989
  78 H :   -0.008730
  79 H :    0.032092
  80 H :    0.030810
  81 H :    0.029237
Sum of atomic charges:    0.0000000

LOEWDIN ATOMIC CHARGES
----------------------
   0 C :   -0.143340
   1 S :    0.468059
   2 C :   -0.124966
   3 C :   -0.095520
   4 C :   -0.084301
   5 C :   -0.031843
   6 N :   -0.035241
   7 C :   -0.034106
   8 N :   -0.041458
   9 C :   -0.046602
  10 C :   -0.019943
  11 C :    0.014025
  12 C :    0.046345
  13 O :   -0.050705
  14 C :   -0.009971
  15 C :   -0.008106
  16 C :   -0.206252
  17 S :    0.441360
  18 C :   -0.210011
  19 O :   -0.053575
  20 C :   -0.060996
  21 C :   -0.017617
  22 C :   -0.184544
  23 S :    0.418222
  24 C :   -0.154940
  25 C :   -0.065082
  26 C :   -0.050765
  27 C :   -0.023575
  28 C :   -0.060078
  29 C :    0.088449
  30 O :   -0.144875
  31 C :   -0.080267
  32 C :   -0.009995
  33 C :   -0.031911
  34 C :   -0.054283
  35 C :   -0.038025
  36 C :   -0.172722
  37 S :    0.443499
  38 C :   -0.204110
  39 C :   -0.192647
  40 C :   -0.064814
  41 C :   -0.076818
  42 C :   -0.138510
  43 C :   -0.059033
  44 S :    0.380667
  45 C :   -0.182380
  46 S :    0.445947
  47 C :   -0.189189
  48 C :   -0.031793
  49 C :   -0.065937
  50 C :   -0.060728
  51 C :   -0.027413
  52 C :   -0.042847
  53 C :   -0.017758
  54 H :    0.037349
  55 H :    0.046031
  56 H :    0.026832
  57 H :    0.032266
  58 H :    0.028549
  59 H :    0.023150
  60 H :    0.034582
  61 H :    0.040572
  62 H :    0.028136
  63 H :    0.044686
  64 H :    0.038504
  65 H :    0.043818
  66 H :    0.044081
  67 H :    0.023825
  68 H :    0.031624
  69 H :    0.035625
  70 H :    0.033618
  71 H :    0.023889
  72 H :    0.027836
  73 H :    0.025611
  74 H :    0.040705
  75 H :    0.040558
  76 H :    0.038025
  77 H :    0.035882
  78 H :    0.027057
  79 H :    0.044631
  80 H :    0.028870
  81 H :    0.026702

  Mayer bond orders larger than 0.100000
B(  0-C ,  1-S ) :   1.1625 B(  0-C ,  4-C ) :   1.5709 B(  0-C , 54-H ) :   0.9735
B(  1-S ,  2-C ) :   1.1298 B(  2-C ,  3-C ) :   1.4693 B(  2-C ,  9-C ) :   1.1636
B(  3-C ,  4-C ) :   1.2927 B(  3-C ,  7-C ) :   1.1535 B(  4-C ,  5-C ) :   1.1230
B(  5-C ,  6-N ) :   3.0423 B(  7-C ,  8-N ) :   3.0040 B(  9-C , 10-C ) :   1.6208
B(  9-C , 55-H ) :   0.9720 B( 10-C , 11-C ) :   1.2017 B( 10-C , 56-H ) :   0.9588
B( 11-C , 12-C ) :   1.4201 B( 11-C , 19-O ) :   1.0623 B( 12-C , 13-O ) :   1.0752
B( 12-C , 20-C ) :   1.1928 B( 13-O , 14-C ) :   1.0398 B( 14-C , 15-C ) :   1.2054
B( 14-C , 18-C ) :   1.5689 B( 15-C , 16-C ) :   1.5736 B( 15-C , 19-O ) :   1.0495
B( 16-C , 17-S ) :   1.1433 B( 16-C , 57-H ) :   0.9713 B( 17-S , 18-C ) :   1.1461
B( 18-C , 58-H ) :   0.9733 B( 20-C , 21-C ) :   1.6226 B( 20-C , 59-H ) :   0.9557
B( 21-C , 22-C ) :   1.1587 B( 21-C , 60-H ) :   0.9743 B( 22-C , 23-S ) :   1.0932
B( 22-C , 26-C ) :   1.4553 B( 23-S , 24-C ) :   1.1195 B( 24-C , 25-C ) :   1.4723
B( 24-C , 34-C ) :   1.1657 B( 25-C , 26-C ) :   1.3292 B( 25-C , 33-C ) :   1.0568
B( 26-C , 27-C ) :   1.0429 B( 27-C , 28-C ) :   1.0528 B( 27-C , 61-H ) :   0.8935
B( 27-C , 62-H ) :   0.8979 B( 28-C , 29-C ) :   0.8832 B( 28-C , 32-C ) :   1.0474
B( 28-C , 63-H ) :   0.8927 B( 29-C , 30-O ) :   2.1849 B( 29-C , 31-C ) :   1.0707
B( 31-C , 64-H ) :   0.9451 B( 31-C , 65-H ) :   0.9322 B( 31-C , 66-H ) :   0.9367
B( 32-C , 33-C ) :   1.0873 B( 32-C , 67-H ) :   0.9480 B( 32-C , 68-H ) :   0.9256
B( 33-C , 69-H ) :   0.9092 B( 33-C , 70-H ) :   0.8933 B( 34-C , 35-C ) :   1.6411
B( 34-C , 71-H ) :   0.9431 B( 35-C , 36-C ) :   1.1705 B( 35-C , 72-H ) :   0.9417
B( 36-C , 37-S ) :   1.1048 B( 36-C , 38-C ) :   0.1021 B( 36-C , 40-C ) :   1.3896
B( 37-S , 38-C ) :   1.1293 B( 38-C , 39-C ) :   1.4996 B( 38-C , 45-C ) :   1.1654
B( 39-C , 40-C ) :   1.2526 B( 39-C , 44-S ) :   1.0416 B( 40-C , 41-C ) :   1.1272
B( 41-C , 42-C ) :   1.6907 B( 41-C , 73-H ) :   0.9920 B( 42-C , 43-C ) :   1.0705
B( 42-C , 44-S ) :   1.0689 B( 43-C , 74-H ) :   0.9475 B( 43-C , 75-H ) :   0.9475
B( 43-C , 76-H ) :   0.9563 B( 45-C , 46-S ) :   1.1269 B( 45-C , 47-C ) :   0.1026
B( 45-C , 49-C ) :   1.4804 B( 46-S , 47-C ) :   1.1000 B( 47-C , 48-C ) :   1.5068
B( 47-C , 50-C ) :   0.9603 B( 48-C , 49-C ) :   1.2756 B( 48-C , 77-H ) :   1.0004
B( 49-C , 78-H ) :   0.9925 B( 50-C , 51-C ) :   2.3548 B( 51-C , 52-C ) :   1.0180
B( 52-C , 53-C ) :   1.9309 B( 52-C , 79-H ) :   0.9613 B( 53-C , 80-H ) :   0.9636
B( 53-C , 81-H ) :   0.9549

-----------------------------------------------------------------------------
         ABSORPTION SPECTRUM VIA TRANSITION ELECTRIC DIPOLE MOMENTS
-----------------------------------------------------------------------------
State   Energy  Wavelength   fosc         T2         TX        TY        TZ
        (cm-1)    (nm)                  (au**2)     (au)      (au)      (au)
-----------------------------------------------------------------------------
   0   16182.3    618.0   1.621261884  32.98279  -5.63624  -1.10169  -0.04279
   1   22097.2    452.5   1.061849313  15.81980  -2.37963   2.54580   1.91730
   2   22976.5    435.2   0.090460803   1.29614  -1.00848  -0.50820  -0.14437
   3   27853.7    359.0   0.027729242   0.32774   0.55857  -0.02364  -0.12323
   4   28158.5    355.1   0.029672215   0.34691  -0.07635  -0.55491   0.18208
   5   30291.9    330.1   0.027141395   0.29497  -0.32663  -0.34193  -0.26715
   6   30958.4    323.0   0.052224789   0.55536   0.13280   0.71346   0.16941
   7   31639.1    316.1   0.368055640   3.82971   0.01047  -1.79080  -0.78907
   8   32863.3    304.3   0.343016471   3.43621   1.84921   0.08298  -0.09864
   9   34515.1    289.7   0.028155489   0.26855  -0.08109  -0.35572  -0.36802
  10   34661.5    288.5   0.078341901   0.74409  -0.28551  -0.72208  -0.37573
  11   34790.8    287.4   0.120763533   1.14274   0.61381   0.82181   0.30102
  12   35464.8    282.0   0.025636787   0.23798   0.48388  -0.04908  -0.03789
  13   35702.9    280.1   0.181938284   1.67763   0.82434  -0.90588  -0.42127
  14   37045.9    269.9   0.009240351   0.08212  -0.23248  -0.15005  -0.07452
  15   37307.5    268.0   0.028997050   0.25588   0.49006   0.12536   0.00260
  16   37867.1    264.1   0.000933266   0.00811  -0.05028  -0.01530  -0.07315
  17   38238.8    261.5   0.033343424   0.28707   0.49144  -0.21333  -0.00634
  18   38607.3    259.0   0.007319928   0.06242  -0.17040  -0.17325  -0.05803
  19   38930.2    256.9   0.005235249   0.04427  -0.11218   0.11430   0.13646
  20   39652.4    252.2   0.056024240   0.46514   0.51101  -0.39008  -0.22768
  21   40036.1    249.8   0.029543282   0.24293  -0.44682   0.12542   0.16600

FINAL SINGLE POINT ENERGY     -4376.332959941482

DIPOLE MOMENT
-------------
                                X             Y             Z
Electronic contribution:    -30.61979     -25.97952     -12.00273
Nuclear contribution   :     32.70144      27.45563      13.28118
                        -----------------------------------------
Total Dipole Moment    :      2.08165       1.47611       1.27845
                        -----------------------------------------
Magnitude (a.u.)       :      2.85423
Magnitude (Debye)      :      7.25487

Rotational constants in cm-1:     0.001668     0.000462     0.000366
Rotational constants in MHz :    50.003195    13.857507    10.981057

                             ****ORCA TERMINATED NORMALLY****
TOTAL RUN TIME: 0 days 0 hours 5 minutes 52 seconds 612 msec
