                         Program Version 4.2.0 -  RELEASE  -
|  1> # ORCA input file
|  2> # SCF done       -135.173483616724          0.000651465209
|  3> ! CAM-B3LYP def2-SVP def2/J RIJCOSX Grid4 TightSCF
|  4> %maxcore 5000
|  5> %tddft
|  6>     Mode sTDDFT
|  7>     Ethresh 5.0
|  8>     maxcore 5000
|  9> end
| 10>
| 11> %pal
| 12>   nprocs 6
| 13>   end
| 14> * xyz 0 1
| 15>    C       -2.03811         3.40160         2.27314
| 16>    O       -3.13777         2.69162         1.99003
| 17>    C       -3.10563         2.41511         0.67370
| 18>    C       -1.99381         2.93807         0.10054
| 19>    C       -1.27428         3.59720         1.14561
| 20>    C       -0.03257         4.29939         0.99321
| 21>    C        0.62379         4.95113         1.97613
| 22>    C        1.84567         5.64726         1.76648
| 23>    C        2.48680         6.33897         2.74068
| 24>    C        3.69258         7.06475         2.57065
| 25>    S        4.34335         7.97079         3.93208
| 26>    C        5.65566         8.51872         2.98044
| 27>    C        5.59226         8.01793         1.67742
| 28>    C        4.49291         7.20326         1.44346
| 29>    C        6.75875         8.54168         0.94243
| 30>    O        7.06060         8.33551        -0.20906
| 31>    C        7.48954         9.39598         1.95873
| 32>    C        6.79338         9.34674         3.14822
| 33>    C        8.67738        10.11418         1.72158
| 34>    C        9.34954        10.11786         0.53195
| 35>    C       10.54173        10.81923         0.27609
| 36>    S       11.29128        10.65603        -1.31000
| 37>    C       12.56985        11.69259        -0.84502
| 38>    C       12.41733        12.14918         0.47371
| 39>    C       11.28672        11.66324         1.10359
| 40>    C       13.57014        13.02507         0.76497
| 41>    O       13.82627        13.63262         1.77573
| 42>    C       14.39270        13.00106        -0.50324
| 43>    C       13.75073        12.20156        -1.42915
| 44>    C       15.60845        13.70218        -0.58160
| 45>    C       16.45789        13.67050        -1.65223
| 46>    C       17.69603        14.33132        -1.73050
| 47>    S       18.70580        14.07048        -3.15197
| 48>    C       19.92466        15.08173        -2.50800
| 49>    C       19.55975        15.60697        -1.26035
| 50>    C       18.31683        15.19017        -0.82063
| 51>    C       20.68156        16.45757        -0.80584
| 52>    O       20.77609        17.10969         0.20402
| 53>    C       21.71604        16.33608        -1.90152
| 54>    C       21.21576        15.51720        -2.89038
| 55>    C       22.96073        16.98983        -1.79288
| 56>    C       23.99016        16.86984        -2.67671
| 57>    C       25.23806        17.51687        -2.52849
| 58>    O       25.45522        18.35461        -1.48417
| 59>    C       26.71201        18.80968        -1.58735
| 60>    C       27.33934        18.29279        -2.67584
| 61>    C       26.39714        17.43946        -3.31546
| 62>    C       26.57324        16.65349        -4.49616
| 63>    C       27.71305        16.57341        -5.20967
| 64>    C       27.84938        15.76353        -6.38736
| 65>    C       28.97593        15.67005        -7.09385
| 66>    H       -1.90297         3.70685         3.29133
| 67>    H       -3.92084         1.84707         0.27148
| 68>    H       -1.70614         2.87664        -0.92883
| 69>    H        0.38435         4.29459        -0.00565
| 70>    H        0.21370         4.96546         2.97659
| 71>    H        2.25867         5.61934         0.76779
| 72>    H        2.05547         6.36400         3.73332
| 73>    H        4.27821         6.72884         0.50406
| 74>    H        7.06427         9.85183         4.05759
| 75>    H        9.06226        10.68636         2.55678
| 76>    H        8.95166         9.53339        -0.28520
| 77>    H       11.00202        11.89922         2.11234
| 78>    H       14.07855        11.98864        -2.42971
| 79>    H       15.86724        14.27605         0.29779
| 80>    H       16.18613        13.07390        -2.51259
| 81>    H       17.86670        15.48254         0.10991
| 82>    H       21.70744        15.24150        -3.80502
| 83>    H       23.08853        17.61251        -0.91716
| 84>    H       23.88405        16.23791        -3.54549
| 85>    H       27.04572        19.49285        -0.83071
| 86>    H       28.34387        18.49297        -2.98520
| 87>    H       25.71420        16.08144        -4.82181
| 88>    H       28.58714        17.13065        -4.90332
| 89>    H       26.97242        15.20664        -6.69260
| 90>    H       29.86362        16.21187        -6.81183
| 91>    H       29.04895        15.05315        -7.97233
| 92> *
| 93>
| 94>                          ****END OF INPUT****

CARTESIAN COORDINATES (ANGSTROEM)
---------------------------------
  C     -2.038110    3.401600    2.273140
  O     -3.137770    2.691620    1.990030
  C     -3.105630    2.415110    0.673700
  C     -1.993810    2.938070    0.100540
  C     -1.274280    3.597200    1.145610
  C     -0.032570    4.299390    0.993210
  C      0.623790    4.951130    1.976130
  C      1.845670    5.647260    1.766480
  C      2.486800    6.338970    2.740680
  C      3.692580    7.064750    2.570650
  S      4.343350    7.970790    3.932080
  C      5.655660    8.518720    2.980440
  C      5.592260    8.017930    1.677420
  C      4.492910    7.203260    1.443460
  C      6.758750    8.541680    0.942430
  O      7.060600    8.335510   -0.209060
  C      7.489540    9.395980    1.958730
  C      6.793380    9.346740    3.148220
  C      8.677380   10.114180    1.721580
  C      9.349540   10.117860    0.531950
  C     10.541730   10.819230    0.276090
  S     11.291280   10.656030   -1.310000
  C     12.569850   11.692590   -0.845020
  C     12.417330   12.149180    0.473710
  C     11.286720   11.663240    1.103590
  C     13.570140   13.025070    0.764970
  O     13.826270   13.632620    1.775730
  C     14.392700   13.001060   -0.503240
  C     13.750730   12.201560   -1.429150
  C     15.608450   13.702180   -0.581600
  C     16.457890   13.670500   -1.652230
  C     17.696030   14.331320   -1.730500
  S     18.705800   14.070480   -3.151970
  C     19.924660   15.081730   -2.508000
  C     19.559750   15.606970   -1.260350
  C     18.316830   15.190170   -0.820630
  C     20.681560   16.457570   -0.805840
  O     20.776090   17.109690    0.204020
  C     21.716040   16.336080   -1.901520
  C     21.215760   15.517200   -2.890380
  C     22.960730   16.989830   -1.792880
  C     23.990160   16.869840   -2.676710
  C     25.238060   17.516870   -2.528490
  O     25.455220   18.354610   -1.484170
  C     26.712010   18.809680   -1.587350
  C     27.339340   18.292790   -2.675840
  C     26.397140   17.439460   -3.315460
  C     26.573240   16.653490   -4.496160
  C     27.713050   16.573410   -5.209670
  C     27.849380   15.763530   -6.387360
  C     28.975930   15.670050   -7.093850
  H     -1.902970    3.706850    3.291330
  H     -3.920840    1.847070    0.271480
  H     -1.706140    2.876640   -0.928830
  H      0.384350    4.294590   -0.005650
  H      0.213700    4.965460    2.976590
  H      2.258670    5.619340    0.767790
  H      2.055470    6.364000    3.733320
  H      4.278210    6.728840    0.504060
  H      7.064270    9.851830    4.057590
  H      9.062260   10.686360    2.556780
  H      8.951660    9.533390   -0.285200
  H     11.002020   11.899220    2.112340
  H     14.078550   11.988640   -2.429710
  H     15.867240   14.276050    0.297790
  H     16.186130   13.073900   -2.512590
  H     17.866700   15.482540    0.109910
  H     21.707440   15.241500   -3.805020
  H     23.088530   17.612510   -0.917160
  H     23.884050   16.237910   -3.545490
  H     27.045720   19.492850   -0.830710
  H     28.343870   18.492970   -2.985200
  H     25.714200   16.081440   -4.821810
  H     28.587140   17.130650   -4.903320
  H     26.972420   15.206640   -6.692600
  H     29.863620   16.211870   -6.811830
  H     29.048950   15.053150   -7.972330

 Total Charge           Charge          ....    0
 Multiplicity           Mult            ....    1
 Number of Electrons    NEL             ....  372
 Basis Dimension        Dim             ....  856

ORBITAL ENERGIES
----------------

  NO   OCC          E(Eh)            E(eV)
   0   2.0000     -88.970589     -2421.0128
   1   2.0000     -88.966539     -2420.9026
   2   2.0000     -88.965996     -2420.8878
   3   2.0000     -19.285538      -524.7862
   4   2.0000     -19.283216      -524.7230
   5   2.0000     -19.221399      -523.0409
   6   2.0000     -19.221324      -523.0388
   7   2.0000     -19.220603      -523.0192
   8   2.0000     -10.364648      -282.0364
   9   2.0000     -10.362646      -281.9819
  10   2.0000     -10.361643      -281.9546
  11   2.0000     -10.326027      -280.9855
  12   2.0000     -10.324200      -280.9358
  13   2.0000     -10.312849      -280.6269
  14   2.0000     -10.312306      -280.6121
  15   2.0000     -10.307828      -280.4903
  16   2.0000     -10.305830      -280.4359
  17   2.0000     -10.304787      -280.4075
  18   2.0000     -10.302078      -280.3338
  19   2.0000     -10.301210      -280.3102
  20   2.0000     -10.301009      -280.3047
  21   2.0000     -10.294642      -280.1315
  22   2.0000     -10.292323      -280.0683
  23   2.0000     -10.289889      -280.0021
  24   2.0000     -10.286313      -279.9048
  25   2.0000     -10.285236      -279.8755
  26   2.0000     -10.283593      -279.8308
  27   2.0000     -10.282903      -279.8120
  28   2.0000     -10.282052      -279.7889
  29   2.0000     -10.280695      -279.7519
  30   2.0000     -10.280652      -279.7508
  31   2.0000     -10.279504      -279.7195
  32   2.0000     -10.277831      -279.6740
  33   2.0000     -10.277034      -279.6523
  34   2.0000     -10.276569      -279.6397
  35   2.0000     -10.275992      -279.6240
  36   2.0000     -10.274265      -279.5770
  37   2.0000     -10.273889      -279.5667
  38   2.0000     -10.273010      -279.5428
  39   2.0000     -10.271855      -279.5114
  40   2.0000     -10.271106      -279.4910
  41   2.0000     -10.271060      -279.4897
  42   2.0000     -10.270870      -279.4846
  43   2.0000     -10.270040      -279.4620
  44   2.0000     -10.268529      -279.4209
  45   2.0000     -10.267542      -279.3940
  46   2.0000     -10.267276      -279.3868
  47   2.0000     -10.266950      -279.3779
  48   2.0000     -10.266258      -279.3591
  49   2.0000     -10.261617      -279.2328
  50   2.0000     -10.260274      -279.1962
  51   2.0000      -8.065597      -219.4760
  52   2.0000      -8.061569      -219.3664
  53   2.0000      -8.061011      -219.3513
  54   2.0000      -6.034637      -164.2108
  55   2.0000      -6.030721      -164.1043
  56   2.0000      -6.030604      -164.1011
  57   2.0000      -6.030084      -164.0869
  58   2.0000      -6.028140      -164.0340
  59   2.0000      -6.026641      -163.9932
  60   2.0000      -6.026139      -163.9796
  61   2.0000      -6.024132      -163.9250
  62   2.0000      -6.023515      -163.9082
  63   2.0000      -1.205104       -32.7925
  64   2.0000      -1.201408       -32.6920
  65   2.0000      -1.131917       -30.8010
  66   2.0000      -1.131442       -30.7881
  67   2.0000      -1.130411       -30.7601
  68   2.0000      -1.001327       -27.2475
  69   2.0000      -0.998153       -27.1611
  70   2.0000      -0.997017       -27.1302
  71   2.0000      -0.942959       -25.6592
  72   2.0000      -0.938078       -25.5264
  73   2.0000      -0.932174       -25.3657
  74   2.0000      -0.921597       -25.0779
  75   2.0000      -0.913694       -24.8629
  76   2.0000      -0.899234       -24.4694
  77   2.0000      -0.889812       -24.2130
  78   2.0000      -0.881945       -23.9989
  79   2.0000      -0.880590       -23.9621
  80   2.0000      -0.867176       -23.5971
  81   2.0000      -0.845280       -23.0012
  82   2.0000      -0.844029       -22.9672
  83   2.0000      -0.841538       -22.8994
  84   2.0000      -0.838708       -22.8224
  85   2.0000      -0.832896       -22.6642
  86   2.0000      -0.822490       -22.3811
  87   2.0000      -0.815285       -22.1850
  88   2.0000      -0.801748       -21.8167
  89   2.0000      -0.781331       -21.2611
  90   2.0000      -0.757076       -20.6011
  91   2.0000      -0.750707       -20.4278
  92   2.0000      -0.748506       -20.3679
  93   2.0000      -0.741798       -20.1853
  94   2.0000      -0.738029       -20.0828
  95   2.0000      -0.720156       -19.5964
  96   2.0000      -0.710630       -19.3372
  97   2.0000      -0.692242       -18.8369
  98   2.0000      -0.676877       -18.4188
  99   2.0000      -0.670210       -18.2373
 100   2.0000      -0.665175       -18.1003
 101   2.0000      -0.658295       -17.9131
 102   2.0000      -0.646806       -17.6005
 103   2.0000      -0.642311       -17.4782
 104   2.0000      -0.638583       -17.3767
 105   2.0000      -0.635526       -17.2935
 106   2.0000      -0.632631       -17.2148
 107   2.0000      -0.627956       -17.0875
 108   2.0000      -0.624869       -17.0036
 109   2.0000      -0.620345       -16.8805
 110   2.0000      -0.614132       -16.7114
 111   2.0000      -0.612549       -16.6683
 112   2.0000      -0.605316       -16.4715
 113   2.0000      -0.597731       -16.2651
 114   2.0000      -0.590103       -16.0575
 115   2.0000      -0.581915       -15.8347
 116   2.0000      -0.565317       -15.3831
 117   2.0000      -0.563568       -15.3355
 118   2.0000      -0.563329       -15.3290
 119   2.0000      -0.559310       -15.2196
 120   2.0000      -0.551218       -14.9994
 121   2.0000      -0.549632       -14.9562
 122   2.0000      -0.549082       -14.9413
 123   2.0000      -0.541126       -14.7248
 124   2.0000      -0.540235       -14.7005
 125   2.0000      -0.540043       -14.6953
 126   2.0000      -0.531934       -14.4746
 127   2.0000      -0.523575       -14.2472
 128   2.0000      -0.520189       -14.1551
 129   2.0000      -0.519051       -14.1241
 130   2.0000      -0.518624       -14.1125
 131   2.0000      -0.517084       -14.0706
 132   2.0000      -0.515774       -14.0349
 133   2.0000      -0.513628       -13.9765
 134   2.0000      -0.508582       -13.8392
 135   2.0000      -0.501765       -13.6537
 136   2.0000      -0.497494       -13.5375
 137   2.0000      -0.493159       -13.4195
 138   2.0000      -0.490769       -13.3545
 139   2.0000      -0.487570       -13.2675
 140   2.0000      -0.482425       -13.1274
 141   2.0000      -0.477020       -12.9804
 142   2.0000      -0.471964       -12.8428
 143   2.0000      -0.471167       -12.8211
 144   2.0000      -0.468399       -12.7458
 145   2.0000      -0.468054       -12.7364
 146   2.0000      -0.466547       -12.6954
 147   2.0000      -0.466424       -12.6920
 148   2.0000      -0.465430       -12.6650
 149   2.0000      -0.462963       -12.5979
 150   2.0000      -0.461725       -12.5642
 151   2.0000      -0.459037       -12.4910
 152   2.0000      -0.453689       -12.3455
 153   2.0000      -0.444860       -12.1053
 154   2.0000      -0.441060       -12.0019
 155   2.0000      -0.438759       -11.9393
 156   2.0000      -0.436622       -11.8811
 157   2.0000      -0.434641       -11.8272
 158   2.0000      -0.427129       -11.6228
 159   2.0000      -0.424824       -11.5601
 160   2.0000      -0.424420       -11.5490
 161   2.0000      -0.423878       -11.5343
 162   2.0000      -0.423020       -11.5110
 163   2.0000      -0.421910       -11.4807
 164   2.0000      -0.421789       -11.4775
 165   2.0000      -0.421289       -11.4639
 166   2.0000      -0.414714       -11.2849
 167   2.0000      -0.405549       -11.0356
 168   2.0000      -0.389648       -10.6029
 169   2.0000      -0.374673       -10.1954
 170   2.0000      -0.365963        -9.9584
 171   2.0000      -0.354935        -9.6583
 172   2.0000      -0.336025        -9.1437
 173   2.0000      -0.333667        -9.0795
 174   2.0000      -0.333373        -9.0715
 175   2.0000      -0.332581        -9.0500
 176   2.0000      -0.330942        -9.0054
 177   2.0000      -0.329523        -8.9668
 178   2.0000      -0.328601        -8.9417
 179   2.0000      -0.316288        -8.6066
 180   2.0000      -0.304236        -8.2787
 181   2.0000      -0.291539        -7.9332
 182   2.0000      -0.274111        -7.4589
 183   2.0000      -0.251550        -6.8450
 184   2.0000      -0.228211        -6.2099
 185   2.0000      -0.206490        -5.6189
 186   0.0000      -0.093986        -2.5575
 187   0.0000      -0.075375        -2.0511
 188   0.0000      -0.062937        -1.7126
 189   0.0000      -0.025484        -0.6934
 190   0.0000      -0.016663        -0.4534

MULLIKEN ATOMIC CHARGES
-----------------------
   0 C :    0.066472
   1 O :   -0.178901
   2 C :    0.132227
   3 C :   -0.044511
   4 C :    0.046810
   5 C :    0.020609
   6 C :    0.023026
   7 C :    0.012113
   8 C :    0.041324
   9 C :   -0.094770
  10 S :    0.158102
  11 C :   -0.037133
  12 C :   -0.015365
  13 C :   -0.001571
  14 C :    0.168779
  15 O :   -0.125620
  16 C :    0.003514
  17 C :   -0.053837
  18 C :   -0.043744
  19 C :    0.049874
  20 C :   -0.092239
  21 S :    0.170611
  22 C :   -0.045947
  23 C :   -0.007213
  24 C :   -0.007373
  25 C :    0.160095
  26 O :   -0.116381
  27 C :   -0.036739
  28 C :   -0.038999
  29 C :   -0.004220
  30 C :    0.060335
  31 C :   -0.097814
  32 S :    0.158616
  33 C :   -0.046976
  34 C :   -0.006058
  35 C :   -0.004357
  36 C :    0.160928
  37 O :   -0.110522
  38 C :   -0.038199
  39 C :   -0.030904
  40 C :    0.005551
  41 C :   -0.025988
  42 C :    0.120714
  43 O :   -0.191085
  44 C :    0.159278
  45 C :   -0.047006
  46 C :    0.068552
  47 C :   -0.011173
  48 C :    0.011083
  49 C :    0.004538
  50 C :   -0.016906
  51 H :    0.002186
  52 H :    0.008417
  53 H :   -0.014990
  54 H :   -0.023867
  55 H :   -0.021535
  56 H :   -0.012278
  57 H :   -0.023123
  58 H :   -0.011894
  59 H :   -0.013233
  60 H :   -0.028849
  61 H :    0.006119
  62 H :   -0.008120
  63 H :   -0.012900
  64 H :   -0.005457
  65 H :   -0.025327
  66 H :    0.000424
  67 H :   -0.013763
  68 H :    0.006208
  69 H :   -0.014184
  70 H :    0.012253
  71 H :   -0.012097
  72 H :   -0.027208
  73 H :   -0.019940
  74 H :   -0.012226
  75 H :    0.012414
  76 H :    0.021369
Sum of atomic charges:   -0.0000000

LOEWDIN ATOMIC CHARGES
----------------------
   0 C :    0.031839
   1 O :    0.025732
   2 C :    0.028856
   3 C :   -0.070332
   4 C :   -0.080202
   5 C :   -0.018638
   6 C :   -0.025901
   7 C :   -0.018083
   8 C :   -0.053585
   9 C :   -0.170445
  10 S :    0.456257
  11 C :   -0.175673
  12 C :   -0.107305
  13 C :   -0.021809
  14 C :    0.106616
  15 O :   -0.109600
  16 C :   -0.055659
  17 C :   -0.016405
  18 C :   -0.030190
  19 C :   -0.032447
  20 C :   -0.171397
  21 S :    0.465405
  22 C :   -0.171328
  23 C :   -0.107760
  24 C :   -0.015104
  25 C :    0.100121
  26 O :   -0.107197
  27 C :   -0.058579
  28 C :   -0.013012
  29 C :   -0.025260
  30 C :   -0.030054
  31 C :   -0.170833
  32 S :    0.456316
  33 C :   -0.171257
  34 C :   -0.105261
  35 C :   -0.011461
  36 C :    0.099873
  37 O :   -0.101872
  38 C :   -0.056933
  39 C :   -0.011662
  40 C :   -0.020261
  41 C :   -0.022955
  42 C :    0.027134
  43 O :    0.017534
  44 C :    0.052113
  45 C :   -0.067780
  46 C :   -0.056259
  47 C :   -0.023398
  48 C :   -0.020186
  49 C :   -0.026235
  50 C :   -0.046437
  51 H :    0.018692
  52 H :    0.021391
  53 H :    0.028798
  54 H :    0.027760
  55 H :    0.024722
  56 H :    0.026804
  57 H :    0.025646
  58 H :    0.035300
  59 H :    0.029582
  60 H :    0.026919
  61 H :    0.031200
  62 H :    0.036233
  63 H :    0.027668
  64 H :    0.032591
  65 H :    0.024758
  66 H :    0.039959
  67 H :    0.027634
  68 H :    0.036858
  69 H :    0.030800
  70 H :    0.025007
  71 H :    0.029440
  72 H :    0.025363
  73 H :    0.025423
  74 H :    0.027163
  75 H :    0.021105
  76 H :    0.024146

  Mayer bond orders larger than 0.100000
B(  0-C ,  1-O ) :   1.1726 B(  0-C ,  4-C ) :   1.5063 B(  0-C , 51-H ) :   1.0034
B(  1-O ,  2-C ) :   1.1463 B(  2-C ,  3-C ) :   1.5746 B(  2-C , 52-H ) :   1.0016
B(  3-C ,  4-C ) :   1.2065 B(  3-C , 53-H ) :   1.0096 B(  4-C ,  5-C ) :   1.0719
B(  5-C ,  6-C ) :   1.6865 B(  5-C , 54-H ) :   0.9802 B(  6-C ,  7-C ) :   1.1428
B(  6-C , 55-H ) :   0.9829 B(  7-C ,  8-C ) :   1.6698 B(  7-C , 56-H ) :   0.9826
B(  8-C ,  9-C ) :   1.1107 B(  8-C , 57-H ) :   0.9661 B(  9-C , 10-S ) :   1.1062
B(  9-C , 13-C ) :   1.4523 B( 10-S , 11-C ) :   1.1292 B( 11-C , 12-C ) :   1.4485
B( 11-C , 17-C ) :   1.0607 B( 12-C , 13-C ) :   1.3185 B( 12-C , 14-C ) :   0.9404
B( 13-C , 58-H ) :   0.9993 B( 14-C , 15-O ) :   2.2189 B( 14-C , 16-C ) :   0.9089
B( 16-C , 17-C ) :   1.5698 B( 16-C , 18-C ) :   1.1856 B( 17-C , 59-H ) :   1.0246
B( 18-C , 19-C ) :   1.6171 B( 18-C , 60-H ) :   0.9784 B( 19-C , 20-C ) :   1.1337
B( 19-C , 61-H ) :   0.9530 B( 20-C , 21-S ) :   1.1077 B( 20-C , 24-C ) :   1.4142
B( 21-S , 22-C ) :   1.1360 B( 22-C , 23-C ) :   1.4198 B( 22-C , 28-C ) :   1.0908
B( 23-C , 24-C ) :   1.3399 B( 23-C , 25-C ) :   0.9200 B( 24-C , 62-H ) :   1.0003
B( 25-C , 26-O ) :   2.2694 B( 25-C , 27-C ) :   0.9136 B( 27-C , 28-C ) :   1.5766
B( 27-C , 29-C ) :   1.1820 B( 28-C , 63-H ) :   1.0128 B( 29-C , 30-C ) :   1.6011
B( 29-C , 64-H ) :   0.9707 B( 30-C , 31-C ) :   1.1639 B( 30-C , 65-H ) :   0.9593
B( 31-C , 32-S ) :   1.1002 B( 31-C , 35-C ) :   1.4138 B( 32-S , 33-C ) :   1.1347
B( 33-C , 34-C ) :   1.4276 B( 33-C , 39-C ) :   1.0848 B( 34-C , 35-C ) :   1.3376
B( 34-C , 36-C ) :   0.9147 B( 35-C , 66-H ) :   1.0015 B( 36-C , 37-O ) :   2.2812
B( 36-C , 38-C ) :   0.9148 B( 38-C , 39-C ) :   1.5935 B( 38-C , 40-C ) :   1.1374
B( 39-C , 67-H ) :   1.0123 B( 40-C , 41-C ) :   1.5877 B( 40-C , 68-H ) :   0.9865
B( 41-C , 42-C ) :   1.1949 B( 41-C , 69-H ) :   0.9548 B( 42-C , 43-O ) :   1.1517
B( 42-C , 46-C ) :   1.3747 B( 43-O , 44-C ) :   1.1394 B( 44-C , 45-C ) :   1.5596
B( 44-C , 70-H ) :   1.0028 B( 45-C , 46-C ) :   1.2117 B( 45-C , 71-H ) :   0.9984
B( 46-C , 47-C ) :   1.0961 B( 47-C , 48-C ) :   1.7295 B( 47-C , 72-H ) :   0.9681
B( 48-C , 49-C ) :   1.1025 B( 48-C , 73-H ) :   0.9772 B( 49-C , 50-C ) :   1.9038
B( 49-C , 74-H ) :   0.9761 B( 50-C , 75-H ) :   0.9575 B( 50-C , 76-H ) :   0.9518

-----------------------------------------------------------------------------
         ABSORPTION SPECTRUM VIA TRANSITION ELECTRIC DIPOLE MOMENTS
-----------------------------------------------------------------------------
State   Energy  Wavelength   fosc         T2         TX        TY        TZ
        (cm-1)    (nm)                  (au**2)     (au)      (au)      (au)
-----------------------------------------------------------------------------
   0   10304.1    970.5   1.644630119  52.54537  -6.40944  -2.96442   1.63604
   1   13621.1    734.2   0.012629976   0.30526   0.01574  -0.53298  -0.14472
   2   14851.8    673.3   0.053510816   1.18615   1.00381   0.42104  -0.03537
   3   17502.5    571.3   0.100365889   1.88782  -1.28085  -0.37553   0.32592
   4   20809.8    480.5   0.014797705   0.23410  -0.16431  -0.21277   0.40228
   5   23335.5    428.5   0.633568265   8.93825  -2.65178  -1.20866   0.66742
   6   23568.8    424.3   0.013760391   0.19221   0.25744   0.19480   0.29662
   7   25745.7    388.4   0.632703109   8.09042   2.30481   1.66041   0.14602
   8   26396.3    378.8   0.058133245   0.72503  -0.75709  -0.37537   0.10463
   9   26420.2    378.5   0.304452297   3.79366   1.73432   0.86012  -0.21440
  10   26445.6    378.1   0.301283246   3.75057  -1.72448  -0.83576   0.27971
  11   26499.0    377.4   0.004369597   0.05429  -0.19376  -0.12481   0.03412
  12   27675.4    361.3   0.397203860   4.72493   1.90368   0.23370  -1.02289
  13   28126.7    355.5   0.072597171   0.84972   0.86003   0.23561  -0.23358
  14   28849.3    346.6   0.077667942   0.88630   0.83338   0.17289  -0.40235
  15   29877.8    334.7   0.025891396   0.28529   0.48127  -0.14439   0.18115
  16   30616.6    326.6   0.048706196   0.52372  -0.29615   0.26714   0.60387
  17   31571.5    316.7   0.063345092   0.66053   0.37223   0.49563   0.52567
  18   32980.1    303.2   0.044312963   0.44234   0.54582   0.21011  -0.31667
  19   33388.4    299.5   0.040354140   0.39789  -0.27242  -0.31366  -0.47466
  20   33901.0    295.0   0.170077577   1.65162  -1.08306  -0.69081   0.03704
  21   34426.2    290.5   0.119551943   1.14326   0.73991   0.61949   0.46045
  22   35325.9    283.1   0.177803535   1.65700  -0.96348  -0.77763  -0.35214
  23   35845.8    279.0   0.052683552   0.48385  -0.46657  -0.38805  -0.33997
  24   36115.1    276.9   0.071227875   0.64929   0.75629   0.04271  -0.27474
  25   36794.2    271.8   0.017463622   0.15625  -0.17486  -0.27082  -0.22877
  26   37158.2    269.1   0.245421370   2.17437  -1.18765  -0.53285   0.69276
  27   37438.0    267.1   0.108387775   0.95311  -0.19901   0.43355   0.85179
  28   38296.2    261.1   0.061441460   0.52818   0.23099  -0.14241  -0.67420
  29   38646.1    258.8   0.082281305   0.70092   0.26358   0.55215   0.57147
  30   38946.8    256.8   0.038140242   0.32239   0.24195   0.35627   0.37003
  31   39253.3    254.8   0.037828316   0.31726   0.39171   0.32512   0.24108
  32   39504.4    253.1   0.019672478   0.16394  -0.12985  -0.20027  -0.32707
  33   39662.1    252.1   0.000583744   0.00485  -0.02226   0.02612  -0.06056
  34   39726.2    251.7   0.000913045   0.00757  -0.02422  -0.01837  -0.08150
  35   39769.3    251.5   0.023256211   0.19252  -0.05535  -0.09482  -0.42481

FINAL SINGLE POINT ENERGY     -3221.785379285097

DIPOLE MOMENT
-------------
                                X             Y             Z
Electronic contribution:    -22.73131       1.30396      15.91202
Nuclear contribution   :     23.11613      -1.94408     -17.07257
                        -----------------------------------------
Total Dipole Moment    :      0.38482      -0.64012      -1.16054
                        -----------------------------------------
Magnitude (a.u.)       :      1.38010
Magnitude (Debye)      :      3.50795

Rotational constants in cm-1:     0.007630     0.000205     0.000201
Rotational constants in MHz :   228.734990     6.153123     6.012525

                             ****ORCA TERMINATED NORMALLY****
TOTAL RUN TIME: 0 days 0 hours 5 minutes 9 seconds 185 msec
