                         Program Version 4.2.0 -  RELEASE  -
|  1> # ORCA input file
|  2> # SCF done       -162.365543262648          0.000692020788
|  3> ! CAM-B3LYP def2-SVP def2/J RIJCOSX Grid4 TightSCF
|  4> %maxcore 5000
|  5> %tddft
|  6>     Mode sTDDFT
|  7>     Ethresh 5.0
|  8>     maxcore 5000
|  9> end
| 10>
| 11> %pal
| 12>   nprocs 6
| 13>   end
| 14> * xyz 0 1
| 15>    C       -1.29820        -1.76010         4.29341
| 16>    C       -1.98483        -1.89187         3.05622
| 17>    C       -1.46336        -1.29006         1.92297
| 18>    C       -0.26838        -0.55669         2.00077
| 19>    C        0.40916        -0.43171         3.24694
| 20>    C       -0.13714        -1.05339         4.38929
| 21>    N        1.55655         0.27022         3.34443
| 22>    C        2.01105         0.82298         2.25257
| 23>    C        1.34123         0.69990         1.01426
| 24>    N        0.23152         0.02907         0.88981
| 25>    C       -3.21611        -2.63822         2.96659
| 26>    C       -4.02981        -2.87597         1.87144
| 27>    C       -5.15149        -3.65652         2.29414
| 28>    C       -4.98818        -3.94945         3.70909
| 29>    O       -5.61022        -4.61898         4.49872
| 30>    N       -3.80493        -3.26954         4.03538
| 31>    C       -5.91875        -3.90729         1.17768
| 32>    O       -5.33706        -3.34514         0.08585
| 33>    C       -4.17454        -2.67399         0.44468
| 34>    O       -3.51544        -2.07876        -0.36440
| 35>    C       -7.14317        -4.62214         1.05437
| 36>    C       -7.53987        -5.26727        -0.13831
| 37>    C       -8.78361        -5.99546        -0.22534
| 38>    N       -9.14481        -6.54181        -1.39094
| 39>    C       -8.34981        -6.43232        -2.43086
| 40>    C       -7.07257        -5.79799        -2.31447
| 41>    N       -6.70795        -5.23910        -1.18918
| 42>    C       -6.19603        -5.79205        -3.42859
| 43>    N       -5.54192        -5.82506        -4.36818
| 44>    C       -8.78965        -6.95150        -3.66921
| 45>    N       -9.14960        -7.34248        -4.68561
| 46>    C       -9.63576        -6.16431         0.90176
| 47>    C       -9.25560        -5.47535         2.07196
| 48>    C       -8.03795        -4.70063         2.14081
| 49>    N       -7.94045        -4.03413         3.28740
| 50>    S       -9.20802        -4.37716         4.20232
| 51>    N       -9.97802        -5.34432         3.18290
| 52>    C      -10.83643        -6.92677         0.80772
| 53>    O      -11.39351        -7.10796        -0.40393
| 54>    C      -12.51823        -7.84084        -0.27215
| 55>    C      -12.69406        -8.16166         1.07174
| 56>    C      -11.62429        -7.58836         1.76228
| 57>    C      -11.39184        -7.83975         3.21395
| 58>    F      -10.09715        -7.94672         3.54147
| 59>    F      -11.94146        -6.92444         4.02519
| 60>    F      -11.95306        -9.01314         3.57517
| 61>    C      -13.30347        -8.17812        -1.39194
| 62>    C      -12.94008        -7.90269        -2.68434
| 63>    C      -13.74660        -8.22031        -3.78178
| 64>    C      -13.41074        -8.00472        -5.10116
| 65>    C      -12.20778        -7.49823        -5.65165
| 66>    C      -12.20737        -7.41915        -7.00930
| 67>    C      -13.41275        -7.85027        -7.61490
| 68>    S      -14.54384        -8.37721        -6.38602
| 69>    C      -13.71454        -7.87625        -8.95899
| 70>    C      -12.86647        -7.47543       -10.03147
| 71>    C      -13.42272        -7.60317       -11.25575
| 72>    C      -14.76279        -8.11717       -11.24576
| 73>    S      -15.25423        -8.42656        -9.57152
| 74>    C      -15.56191        -8.34503       -12.29663
| 75>    H       -1.69785        -2.22602         5.18149
| 76>    H       -1.95259        -1.36788         0.96419
| 77>    H        0.38850        -0.94993         5.32573
| 78>    H        2.93107         1.38541         2.33977
| 79>    H        1.73190         1.16483         0.11909
| 80>    H       -3.43001        -3.29086         4.97059
| 81>    H      -13.48029        -8.75456         1.49224
| 82>    H      -14.23120        -8.69121        -1.18505
| 83>    H      -11.98698        -7.42218        -2.85188
| 84>    H      -14.71393        -8.66202        -3.58049
| 85>    H      -11.36190        -7.23178        -5.04461
| 86>    H      -11.37145        -7.06620        -7.58493
| 87>    H      -11.87226        -7.10805        -9.85158
| 88>    H      -12.93784        -7.35294       -12.18241
| 89>    H      -15.22368        -8.14130       -13.29740
| 90>    H      -16.55675        -8.73367       -12.17793
| 91> *
| 92>
| 93>                          ****END OF INPUT****

CARTESIAN COORDINATES (ANGSTROEM)
---------------------------------
  C     -1.298200   -1.760100    4.293410
  C     -1.984830   -1.891870    3.056220
  C     -1.463360   -1.290060    1.922970
  C     -0.268380   -0.556690    2.000770
  C      0.409160   -0.431710    3.246940
  C     -0.137140   -1.053390    4.389290
  N      1.556550    0.270220    3.344430
  C      2.011050    0.822980    2.252570
  C      1.341230    0.699900    1.014260
  N      0.231520    0.029070    0.889810
  C     -3.216110   -2.638220    2.966590
  C     -4.029810   -2.875970    1.871440
  C     -5.151490   -3.656520    2.294140
  C     -4.988180   -3.949450    3.709090
  O     -5.610220   -4.618980    4.498720
  N     -3.804930   -3.269540    4.035380
  C     -5.918750   -3.907290    1.177680
  O     -5.337060   -3.345140    0.085850
  C     -4.174540   -2.673990    0.444680
  O     -3.515440   -2.078760   -0.364400
  C     -7.143170   -4.622140    1.054370
  C     -7.539870   -5.267270   -0.138310
  C     -8.783610   -5.995460   -0.225340
  N     -9.144810   -6.541810   -1.390940
  C     -8.349810   -6.432320   -2.430860
  C     -7.072570   -5.797990   -2.314470
  N     -6.707950   -5.239100   -1.189180
  C     -6.196030   -5.792050   -3.428590
  N     -5.541920   -5.825060   -4.368180
  C     -8.789650   -6.951500   -3.669210
  N     -9.149600   -7.342480   -4.685610
  C     -9.635760   -6.164310    0.901760
  C     -9.255600   -5.475350    2.071960
  C     -8.037950   -4.700630    2.140810
  N     -7.940450   -4.034130    3.287400
  S     -9.208020   -4.377160    4.202320
  N     -9.978020   -5.344320    3.182900
  C    -10.836430   -6.926770    0.807720
  O    -11.393510   -7.107960   -0.403930
  C    -12.518230   -7.840840   -0.272150
  C    -12.694060   -8.161660    1.071740
  C    -11.624290   -7.588360    1.762280
  C    -11.391840   -7.839750    3.213950
  F    -10.097150   -7.946720    3.541470
  F    -11.941460   -6.924440    4.025190
  F    -11.953060   -9.013140    3.575170
  C    -13.303470   -8.178120   -1.391940
  C    -12.940080   -7.902690   -2.684340
  C    -13.746600   -8.220310   -3.781780
  C    -13.410740   -8.004720   -5.101160
  C    -12.207780   -7.498230   -5.651650
  C    -12.207370   -7.419150   -7.009300
  C    -13.412750   -7.850270   -7.614900
  S    -14.543840   -8.377210   -6.386020
  C    -13.714540   -7.876250   -8.958990
  C    -12.866470   -7.475430  -10.031470
  C    -13.422720   -7.603170  -11.255750
  C    -14.762790   -8.117170  -11.245760
  S    -15.254230   -8.426560   -9.571520
  C    -15.561910   -8.345030  -12.296630
  H     -1.697850   -2.226020    5.181490
  H     -1.952590   -1.367880    0.964190
  H      0.388500   -0.949930    5.325730
  H      2.931070    1.385410    2.339770
  H      1.731900    1.164830    0.119090
  H     -3.430010   -3.290860    4.970590
  H    -13.480290   -8.754560    1.492240
  H    -14.231200   -8.691210   -1.185050
  H    -11.986980   -7.422180   -2.851880
  H    -14.713930   -8.662020   -3.580490
  H    -11.361900   -7.231780   -5.044610
  H    -11.371450   -7.066200   -7.584930
  H    -11.872260   -7.108050   -9.851580
  H    -12.937840   -7.352940  -12.182410
  H    -15.223680   -8.141300  -13.297400
  H    -16.556750   -8.733670  -12.177930

 Total Charge           Charge          ....    0
 Multiplicity           Mult            ....    1
 Number of Electrons    NEL             ....  432
 Basis Dimension        Dim             ....  932

ORBITAL ENERGIES
----------------

  NO   OCC          E(Eh)            E(eV)
   0   2.0000     -89.036817     -2422.8150
   1   2.0000     -88.948785     -2420.4195
   2   2.0000     -88.947874     -2420.3947
   3   2.0000     -24.794449      -674.6913
   4   2.0000     -24.790711      -674.5895
   5   2.0000     -24.786220      -674.4673
   6   2.0000     -19.302247      -525.2408
   7   2.0000     -19.272566      -524.4332
   8   2.0000     -19.201295      -522.4938
   9   2.0000     -19.193410      -522.2792
  10   2.0000     -14.460556      -393.4917
  11   2.0000     -14.456404      -393.3788
  12   2.0000     -14.451469      -393.2445
  13   2.0000     -14.444302      -393.0494
  14   2.0000     -14.440856      -392.9557
  15   2.0000     -14.433517      -392.7560
  16   2.0000     -14.424681      -392.5155
  17   2.0000     -14.424189      -392.5021
  18   2.0000     -14.422375      -392.4528
  19   2.0000     -10.517951      -286.2080
  20   2.0000     -10.400636      -283.0157
  21   2.0000     -10.383080      -282.5380
  22   2.0000     -10.377095      -282.3751
  23   2.0000     -10.373921      -282.2887
  24   2.0000     -10.363861      -282.0150
  25   2.0000     -10.359307      -281.8911
  26   2.0000     -10.352177      -281.6971
  27   2.0000     -10.351234      -281.6714
  28   2.0000     -10.349886      -281.6347
  29   2.0000     -10.348878      -281.6073
  30   2.0000     -10.339852      -281.3617
  31   2.0000     -10.338144      -281.3152
  32   2.0000     -10.329734      -281.0863
  33   2.0000     -10.328759      -281.0598
  34   2.0000     -10.321568      -280.8641
  35   2.0000     -10.319724      -280.8140
  36   2.0000     -10.319015      -280.7947
  37   2.0000     -10.317582      -280.7557
  38   2.0000     -10.317329      -280.7488
  39   2.0000     -10.316906      -280.7373
  40   2.0000     -10.316272      -280.7200
  41   2.0000     -10.314550      -280.6732
  42   2.0000     -10.313058      -280.6326
  43   2.0000     -10.310424      -280.5609
  44   2.0000     -10.309397      -280.5330
  45   2.0000     -10.305519      -280.4274
  46   2.0000     -10.297327      -280.2045
  47   2.0000     -10.295936      -280.1667
  48   2.0000     -10.293426      -280.0984
  49   2.0000     -10.291568      -280.0478
  50   2.0000     -10.291150      -280.0364
  51   2.0000     -10.290577      -280.0208
  52   2.0000     -10.286669      -279.9145
  53   2.0000     -10.284842      -279.8648
  54   2.0000     -10.284171      -279.8465
  55   2.0000     -10.280976      -279.7596
  56   2.0000     -10.280289      -279.7409
  57   2.0000     -10.279291      -279.7137
  58   2.0000     -10.277198      -279.6568
  59   2.0000     -10.273562      -279.5578
  60   2.0000      -8.127970      -221.1733
  61   2.0000      -8.045437      -218.9275
  62   2.0000      -8.044552      -218.9034
  63   2.0000      -6.099001      -165.9623
  64   2.0000      -6.091129      -165.7480
  65   2.0000      -6.090962      -165.7435
  66   2.0000      -6.015157      -163.6807
  67   2.0000      -6.014311      -163.6577
  68   2.0000      -6.011136      -163.5713
  69   2.0000      -6.010444      -163.5525
  70   2.0000      -6.006297      -163.4396
  71   2.0000      -6.005173      -163.4091
  72   2.0000      -1.381795       -37.6005
  73   2.0000      -1.285787       -34.9880
  74   2.0000      -1.279344       -34.8127
  75   2.0000      -1.228495       -33.4290
  76   2.0000      -1.206359       -32.8267
  77   2.0000      -1.136325       -30.9210
  78   2.0000      -1.132329       -30.8122
  79   2.0000      -1.116678       -30.3863
  80   2.0000      -1.110512       -30.2186
  81   2.0000      -1.079316       -29.3697
  82   2.0000      -1.062226       -28.9046
  83   2.0000      -1.042120       -28.3575
  84   2.0000      -1.015778       -27.6407
  85   2.0000      -1.002054       -27.2673
  86   2.0000      -1.001969       -27.2650
  87   2.0000      -0.998887       -27.1811
  88   2.0000      -0.990680       -26.9578
  89   2.0000      -0.977289       -26.5934
  90   2.0000      -0.976101       -26.5611
  91   2.0000      -0.960258       -26.1300
  92   2.0000      -0.930970       -25.3330
  93   2.0000      -0.926694       -25.2166
  94   2.0000      -0.912692       -24.8356
  95   2.0000      -0.904180       -24.6040
  96   2.0000      -0.901755       -24.5380
  97   2.0000      -0.886084       -24.1116
  98   2.0000      -0.878480       -23.9046
  99   2.0000      -0.865706       -23.5570
 100   2.0000      -0.854033       -23.2394
 101   2.0000      -0.850401       -23.1406
 102   2.0000      -0.841553       -22.8998
 103   2.0000      -0.829894       -22.5826
 104   2.0000      -0.822198       -22.3731
 105   2.0000      -0.817887       -22.2558
 106   2.0000      -0.801204       -21.8019
 107   2.0000      -0.799646       -21.7595
 108   2.0000      -0.793168       -21.5832
 109   2.0000      -0.771324       -20.9888
 110   2.0000      -0.761404       -20.7189
 111   2.0000      -0.752028       -20.4637
 112   2.0000      -0.741600       -20.1800
 113   2.0000      -0.734773       -19.9942
 114   2.0000      -0.731799       -19.9133
 115   2.0000      -0.722497       -19.6601
 116   2.0000      -0.711663       -19.3653
 117   2.0000      -0.706131       -19.2148
 118   2.0000      -0.702829       -19.1249
 119   2.0000      -0.694292       -18.8927
 120   2.0000      -0.686805       -18.6889
 121   2.0000      -0.682776       -18.5793
 122   2.0000      -0.678701       -18.4684
 123   2.0000      -0.673019       -18.3138
 124   2.0000      -0.664603       -18.0848
 125   2.0000      -0.659594       -17.9485
 126   2.0000      -0.646467       -17.5913
 127   2.0000      -0.643162       -17.5013
 128   2.0000      -0.639232       -17.3944
 129   2.0000      -0.636050       -17.3078
 130   2.0000      -0.632460       -17.2101
 131   2.0000      -0.627203       -17.0671
 132   2.0000      -0.613344       -16.6899
 133   2.0000      -0.606953       -16.5160
 134   2.0000      -0.605521       -16.4771
 135   2.0000      -0.603485       -16.4217
 136   2.0000      -0.598387       -16.2829
 137   2.0000      -0.592603       -16.1255
 138   2.0000      -0.589817       -16.0497
 139   2.0000      -0.581528       -15.8242
 140   2.0000      -0.579799       -15.7771
 141   2.0000      -0.577525       -15.7153
 142   2.0000      -0.571676       -15.5561
 143   2.0000      -0.567588       -15.4449
 144   2.0000      -0.564447       -15.3594
 145   2.0000      -0.563075       -15.3221
 146   2.0000      -0.552931       -15.0460
 147   2.0000      -0.542418       -14.7599
 148   2.0000      -0.540460       -14.7067
 149   2.0000      -0.537674       -14.6309
 150   2.0000      -0.536579       -14.6011
 151   2.0000      -0.532313       -14.4850
 152   2.0000      -0.531375       -14.4594
 153   2.0000      -0.530674       -14.4404
 154   2.0000      -0.525721       -14.3056
 155   2.0000      -0.524946       -14.2845
 156   2.0000      -0.523658       -14.2495
 157   2.0000      -0.517202       -14.0738
 158   2.0000      -0.513545       -13.9743
 159   2.0000      -0.509681       -13.8691
 160   2.0000      -0.509308       -13.8590
 161   2.0000      -0.506821       -13.7913
 162   2.0000      -0.500812       -13.6278
 163   2.0000      -0.500677       -13.6241
 164   2.0000      -0.499129       -13.5820
 165   2.0000      -0.494067       -13.4443
 166   2.0000      -0.484256       -13.1773
 167   2.0000      -0.482680       -13.1344
 168   2.0000      -0.478976       -13.0336
 169   2.0000      -0.477966       -13.0061
 170   2.0000      -0.477087       -12.9822
 171   2.0000      -0.475834       -12.9481
 172   2.0000      -0.475168       -12.9300
 173   2.0000      -0.468972       -12.7614
 174   2.0000      -0.468197       -12.7403
 175   2.0000      -0.467673       -12.7260
 176   2.0000      -0.463035       -12.5998
 177   2.0000      -0.461994       -12.5715
 178   2.0000      -0.461759       -12.5651
 179   2.0000      -0.460025       -12.5179
 180   2.0000      -0.451953       -12.2983
 181   2.0000      -0.449814       -12.2400
 182   2.0000      -0.447766       -12.1843
 183   2.0000      -0.446710       -12.1556
 184   2.0000      -0.443857       -12.0780
 185   2.0000      -0.431771       -11.7491
 186   2.0000      -0.429608       -11.6902
 187   2.0000      -0.429152       -11.6778
 188   2.0000      -0.425388       -11.5754
 189   2.0000      -0.423667       -11.5286
 190   2.0000      -0.420163       -11.4332
 191   2.0000      -0.417335       -11.3563
 192   2.0000      -0.413175       -11.2431
 193   2.0000      -0.407060       -11.0767
 194   2.0000      -0.406353       -11.0574
 195   2.0000      -0.405488       -11.0339
 196   2.0000      -0.399553       -10.8724
 197   2.0000      -0.385425       -10.4880
 198   2.0000      -0.385220       -10.4824
 199   2.0000      -0.379216       -10.3190
 200   2.0000      -0.373622       -10.1668
 201   2.0000      -0.358249        -9.7484
 202   2.0000      -0.357928        -9.7397
 203   2.0000      -0.347890        -9.4666
 204   2.0000      -0.344848        -9.3838
 205   2.0000      -0.343608        -9.3500
 206   2.0000      -0.341944        -9.3048
 207   2.0000      -0.336492        -9.1564
 208   2.0000      -0.334083        -9.0909
 209   2.0000      -0.329124        -8.9559
 210   2.0000      -0.323002        -8.7893
 211   2.0000      -0.320174        -8.7124
 212   2.0000      -0.310696        -8.4545
 213   2.0000      -0.281726        -7.6661
 214   2.0000      -0.251144        -6.8340
 215   2.0000      -0.215568        -5.8659
 216   0.0000      -0.126384        -3.4391
 217   0.0000      -0.075969        -2.0672
 218   0.0000      -0.070669        -1.9230
 219   0.0000      -0.047413        -1.2902
 220   0.0000      -0.035992        -0.9794

MULLIKEN ATOMIC CHARGES
-----------------------
   0 C :   -0.019056
   1 C :    0.146532
   2 C :   -0.059473
   3 C :   -0.003575
   4 C :   -0.026390
   5 C :    0.005845
   6 N :   -0.017380
   7 C :    0.025295
   8 C :    0.021743
   9 N :    0.006752
  10 C :    0.089647
  11 C :   -0.150649
  12 C :   -0.014427
  13 C :    0.137085
  14 O :   -0.158427
  15 N :   -0.117726
  16 C :   -0.010016
  17 O :   -0.217924
  18 C :    0.246591
  19 O :   -0.143064
  20 C :    0.108153
  21 C :   -0.049117
  22 C :   -0.090171
  23 N :    0.082238
  24 C :   -0.177888
  25 C :   -0.131482
  26 N :    0.096091
  27 C :   -0.197324
  28 N :    0.231159
  29 C :   -0.138233
  30 N :    0.185824
  31 C :    0.163641
  32 C :   -0.022618
  33 C :   -0.011393
  34 N :   -0.246863
  35 S :    0.559925
  36 N :   -0.267631
  37 C :    0.006991
  38 O :   -0.171566
  39 C :    0.221867
  40 C :   -0.077971
  41 C :   -0.105945
  42 C :    0.550687
  43 F :   -0.159816
  44 F :   -0.155113
  45 F :   -0.169322
  46 C :   -0.060589
  47 C :    0.041129
  48 C :    0.010046
  49 C :   -0.025751
  50 C :    0.050591
  51 C :    0.029360
  52 C :   -0.053359
  53 S :    0.100337
  54 C :   -0.060713
  55 C :    0.032746
  56 C :    0.058562
  57 C :   -0.068519
  58 S :    0.093694
  59 C :   -0.019435
  60 H :   -0.033137
  61 H :   -0.012042
  62 H :   -0.019666
  63 H :    0.014663
  64 H :    0.016176
  65 H :    0.129075
  66 H :    0.002199
  67 H :   -0.007308
  68 H :    0.013309
  69 H :   -0.017783
  70 H :   -0.029571
  71 H :   -0.003698
  72 H :   -0.002652
  73 H :   -0.005796
  74 H :    0.026070
  75 H :    0.026554
Sum of atomic charges:   -0.0000000

LOEWDIN ATOMIC CHARGES
----------------------
   0 C :   -0.014095
   1 C :   -0.042274
   2 C :    0.031393
   3 C :   -0.015640
   4 C :   -0.007709
   5 C :   -0.007024
   6 N :   -0.041542
   7 C :    0.008670
   8 C :    0.004879
   9 N :   -0.027789
  10 C :    0.087745
  11 C :   -0.136411
  12 C :   -0.102641
  13 C :    0.077834
  14 O :   -0.174648
  15 N :    0.029673
  16 C :    0.103938
  17 O :   -0.030641
  18 C :    0.102936
  19 O :   -0.142947
  20 C :   -0.063717
  21 C :    0.009014
  22 C :   -0.011464
  23 N :    0.005150
  24 C :   -0.046582
  25 C :   -0.023153
  26 N :    0.005780
  27 C :   -0.032430
  28 N :   -0.005083
  29 C :   -0.017109
  30 N :   -0.027113
  31 C :   -0.022209
  32 C :   -0.048908
  33 C :   -0.032874
  34 N :   -0.261764
  35 S :    0.695041
  36 N :   -0.275410
  37 C :    0.042744
  38 O :    0.041262
  39 C :    0.060085
  40 C :   -0.042716
  41 C :   -0.089420
  42 C :    0.167583
  43 F :   -0.054978
  44 F :   -0.055058
  45 F :   -0.067332
  46 C :   -0.066727
  47 C :    0.018236
  48 C :   -0.071059
  49 C :   -0.121922
  50 C :   -0.035110
  51 C :   -0.008985
  52 C :   -0.186793
  53 S :    0.381392
  54 C :   -0.162958
  55 C :   -0.024562
  56 C :   -0.021312
  57 C :   -0.140364
  58 S :    0.363887
  59 C :   -0.061575
  60 H :    0.025092
  61 H :    0.042671
  62 H :    0.038020
  63 H :    0.027152
  64 H :    0.027878
  65 H :    0.086036
  66 H :    0.038570
  67 H :    0.037101
  68 H :    0.035126
  69 H :    0.028407
  70 H :    0.029287
  71 H :    0.037136
  72 H :    0.035890
  73 H :    0.036148
  74 H :    0.031493
  75 H :    0.028798

  Mayer bond orders larger than 0.100000
B(  0-C ,  1-C ) :   1.1598 B(  0-C ,  5-C ) :   1.4962 B(  0-C , 60-H ) :   0.9977
B(  1-C ,  2-C ) :   1.3673 B(  1-C , 10-C ) :   1.0598 B(  2-C ,  3-C ) :   1.2225
B(  2-C ,  5-C ) :   0.1003 B(  2-C , 61-H ) :   0.9948 B(  3-C ,  4-C ) :   1.2343
B(  3-C ,  9-N ) :   1.4452 B(  4-C ,  5-C ) :   1.2348 B(  4-C ,  6-N ) :   1.4333
B(  5-C , 62-H ) :   1.0021 B(  6-N ,  7-C ) :   1.6727 B(  7-C ,  8-C ) :   1.2177
B(  7-C , 63-H ) :   0.9737 B(  8-C ,  9-N ) :   1.6833 B(  8-C , 64-H ) :   0.9742
B( 10-C , 11-C ) :   1.3865 B( 10-C , 15-N ) :   1.2371 B( 11-C , 12-C ) :   1.1688
B( 11-C , 18-C ) :   0.9825 B( 12-C , 13-C ) :   0.9186 B( 12-C , 16-C ) :   1.4584
B( 13-C , 14-O ) :   2.2200 B( 13-C , 15-N ) :   1.0517 B( 15-N , 65-H ) :   0.9136
B( 16-C , 17-O ) :   1.1943 B( 16-C , 20-C ) :   1.0601 B( 17-O , 18-C ) :   1.0225
B( 18-C , 19-O ) :   2.1511 B( 20-C , 21-C ) :   1.2498 B( 20-C , 31-C ) :   0.1346
B( 20-C , 33-C ) :   1.2403 B( 21-C , 22-C ) :   1.0974 B( 21-C , 26-N ) :   1.4877
B( 22-C , 23-N ) :   1.5092 B( 22-C , 31-C ) :   1.2102 B( 23-N , 24-C ) :   1.7267
B( 24-C , 25-C ) :   1.2102 B( 24-C , 29-C ) :   1.1605 B( 25-C , 26-N ) :   1.7425
B( 25-C , 27-C ) :   1.1456 B( 27-C , 28-N ) :   3.0440 B( 29-C , 30-N ) :   2.9320
B( 31-C , 32-C ) :   1.2428 B( 31-C , 37-C ) :   1.0896 B( 32-C , 33-C ) :   1.0844
B( 32-C , 36-N ) :   1.5334 B( 33-C , 34-N ) :   1.5447 B( 34-N , 35-S ) :   1.2825
B( 34-N , 36-N ) :   0.1455 B( 35-S , 36-N ) :   1.2935 B( 37-C , 38-O ) :   1.1947
B( 37-C , 39-C ) :   0.1021 B( 37-C , 41-C ) :   1.4199 B( 38-O , 39-C ) :   1.1559
B( 39-C , 40-C ) :   1.3186 B( 39-C , 46-C ) :   1.1855 B( 40-C , 41-C ) :   1.3177
B( 40-C , 66-H ) :   1.0194 B( 41-C , 42-C ) :   0.9500 B( 42-C , 43-F ) :   1.1639
B( 42-C , 44-F ) :   1.1813 B( 42-C , 45-F ) :   1.1624 B( 46-C , 47-C ) :   1.5400
B( 46-C , 67-H ) :   0.9729 B( 47-C , 48-C ) :   1.2397 B( 47-C , 68-H ) :   0.9771
B( 48-C , 49-C ) :   1.4797 B( 48-C , 69-H ) :   0.9691 B( 49-C , 50-C ) :   1.1600
B( 49-C , 53-S ) :   1.0595 B( 50-C , 51-C ) :   1.6083 B( 50-C , 70-H ) :   0.9759
B( 51-C , 52-C ) :   1.1752 B( 51-C , 71-H ) :   0.9938 B( 52-C , 53-S ) :   1.0385
B( 52-C , 54-C ) :   1.5314 B( 54-C , 55-C ) :   1.1561 B( 54-C , 58-S ) :   1.0613
B( 55-C , 56-C ) :   1.6601 B( 55-C , 72-H ) :   0.9914 B( 56-C , 57-C ) :   1.0782
B( 56-C , 73-H ) :   0.9937 B( 57-C , 58-S ) :   1.0052 B( 57-C , 59-C ) :   1.8633
B( 59-C , 74-H ) :   0.9516 B( 59-C , 75-H ) :   0.9416

-----------------------------------------------------------------------------
         ABSORPTION SPECTRUM VIA TRANSITION ELECTRIC DIPOLE MOMENTS
-----------------------------------------------------------------------------
State   Energy  Wavelength   fosc         T2         TX        TY        TZ
        (cm-1)    (nm)                  (au**2)     (au)      (au)      (au)
-----------------------------------------------------------------------------
   0    6534.2   1530.4   0.626602730  31.57017   3.83641   1.90967   3.63391
   1   12705.9    787.0   0.072964228   1.89052  -0.99877  -0.62900   0.70522
   2   17933.9    557.6   0.676331280  12.41539   0.85565   0.13875   3.41526
   3   19001.5    526.3   0.366051289   6.34205  -1.79937  -1.10755  -1.37028
   4   19407.2    515.3   0.557071463   9.44980  -0.22870   0.19871  -3.05909
   5   22831.8    438.0   0.187766961   2.70741   1.33536   0.71080  -0.64730
   6   24303.8    411.5   0.026259722   0.35571   0.35915   0.24354   0.40915
   7   24580.5    406.8   0.066547045   0.89128   0.46442  -0.03549   0.82118
   8   24892.0    401.7   0.007122019   0.09419   0.13772   0.17992   0.20701
   9   25682.5    389.4   0.028663923   0.36743  -0.00075  -0.00943  -0.60609
  10   26039.0    384.0   0.048038655   0.60735  -0.38621  -0.24726   0.63013
  11   26586.4    376.1   0.010467023   0.12961   0.11171   0.11956  -0.32068
  12   28307.5    353.3   0.029246308   0.34013  -0.55063  -0.16259   0.10248
  13   28645.6    349.1   0.036795186   0.42287   0.39760   0.30134   0.41711
  14   28924.9    345.7   0.006469697   0.07364   0.18520   0.02005   0.19732
  15   29315.6    341.1   0.170229033   1.91166   0.04071   0.27262   1.35487
  16   29571.9    338.2   0.009424400   0.10492  -0.08379  -0.23690  -0.20439
  17   30518.0    327.7   0.001067941   0.01152  -0.07682   0.02494   0.07068
  18   30755.7    325.1   0.050552874   0.54112   0.12301  -0.03473  -0.72442
  19   31205.5    320.5   0.225536441   2.37937   0.57663  -0.30851  -1.39703
  20   31267.1    319.8   0.043745969   0.46060   0.20395   0.11732  -0.63659
  21   31885.2    313.6   0.127371655   1.31510   0.08711   0.68505   0.91555
  22   32433.0    308.3   0.051452644   0.52227   0.02794   0.30720   0.65354
  23   32579.2    306.9   0.014143602   0.14292  -0.02757  -0.34129  -0.16026
  24   32814.5    304.7   0.029322603   0.29418   0.25460   0.23943   0.41476
  25   32962.0    303.4   0.081023953   0.80924   0.60758   0.03187  -0.66262
  26   33480.8    298.7   0.121345897   1.19318  -0.92708  -0.55356   0.16514
  27   34015.4    294.0   0.001624117   0.01572   0.06322  -0.08604   0.06572
  28   34130.8    293.0   0.061122869   0.58957   0.21421   0.08612  -0.73230
  29   34537.0    289.5   0.025753505   0.24549   0.43963   0.17687   0.14467
  30   34904.4    286.5   0.002015091   0.01901  -0.06080   0.00773   0.12349
  31   35381.7    282.6   0.022834958   0.21247  -0.39026  -0.23801  -0.05929
  32   35471.4    281.9   0.051552267   0.47846   0.21685  -0.05564  -0.65448
  33   35718.9    280.0   0.030420451   0.28038  -0.35375  -0.12956   0.37210
  34   36262.2    275.8   0.024953390   0.22654   0.05966   0.01030  -0.47210
  35   36482.6    274.1   0.026946940   0.24316  -0.28545  -0.05467  -0.39837
  36   36767.5    272.0   0.003469923   0.03107   0.03194   0.16023   0.06615
  37   37316.9    268.0   0.064895803   0.57252   0.28182   0.01622  -0.70202
  38   37772.6    264.7   0.037749868   0.32901  -0.26710   0.09283   0.49905
  39   38049.8    262.8   0.093015920   0.80479   0.19094   0.01547   0.87641
  40   38178.4    261.9   0.023694103   0.20431   0.19027   0.20592  -0.35456
  41   38846.9    257.4   0.057159991   0.48441   0.18675   0.56556   0.36011
  42   39228.6    254.9   0.138193408   1.15974   0.15661   0.42085   0.97883
  43   39303.8    254.4   0.132342313   1.10851  -0.65446  -0.34135   0.75078
  44   39393.7    253.8   0.085205103   0.71206   0.03473   0.17096   0.82560
  45   39745.9    251.6   0.007178405   0.05946   0.12040   0.21161  -0.01350
  46   39950.4    250.3   0.056600977   0.46642  -0.59706  -0.27908   0.17903

FINAL SINGLE POINT ENERGY     -3856.062062801256

DIPOLE MOMENT
-------------
                                X             Y             Z
Electronic contribution:     -8.14900      -8.88465      43.82193
Nuclear contribution   :      7.02636       9.22083     -43.82913
                        -----------------------------------------
Total Dipole Moment    :     -1.12264       0.33618      -0.00720
                        -----------------------------------------
Magnitude (a.u.)       :      1.17192
Magnitude (Debye)      :      2.97878

Rotational constants in cm-1:     0.001881     0.000459     0.000376
Rotational constants in MHz :    56.404214    13.774870    11.259411

                             ****ORCA TERMINATED NORMALLY****
TOTAL RUN TIME: 0 days 0 hours 7 minutes 30 seconds 775 msec
