                         Program Version 4.2.0 -  RELEASE  -
|  1> # ORCA input file
|  2> # SCF done       -134.441079042315          0.000284715603
|  3> ! CAM-B3LYP def2-SVP def2/J RIJCOSX Grid4 TightSCF
|  4> %maxcore 5000
|  5> %tddft
|  6>     Mode sTDDFT
|  7>     Ethresh 5.0
|  8>     maxcore 5000
|  9> end
| 10>
| 11> %pal
| 12>   nprocs 6
| 13>   end
| 14> * xyz 0 1
| 15>    C       -3.33812        -1.07388         0.57340
| 16>    C       -3.56637         0.21912         1.10507
| 17>    C       -2.64601         0.78081         1.95504
| 18>    C       -1.46289         0.08752         2.27268
| 19>    C       -1.23111        -1.20180         1.71588
| 20>    C       -2.20221        -1.76917         0.86557
| 21>    N       -0.10209        -1.88342         1.99900
| 22>    C        0.75641        -1.30889         2.79748
| 23>    C        0.52662        -0.03225         3.35224
| 24>    N       -0.55583         0.65166         3.09909
| 25>    C       -4.81290         0.91964         0.75064
| 26>    C       -5.22125         1.00188        -0.61331
| 27>    C       -6.45420         1.51469        -0.94160
| 28>    C       -7.30605         2.00959         0.06121
| 29>    C       -6.87326         1.98781         1.41774
| 30>    C       -5.62331         1.42466         1.73524
| 31>    N       -7.65804         2.47876         2.39970
| 32>    C       -8.81790         2.96429         2.04853
| 33>    C       -9.24940         2.98108         0.70488
| 34>    N       -8.51330         2.51703        -0.26787
| 35>    C       -4.32119         0.57408        -1.66892
| 36>    S       -2.62517         1.12644        -1.67252
| 37>    C       -2.41381         0.21639        -3.10832
| 38>    C       -3.60401        -0.41100        -3.47148
| 39>    N       -4.64696        -0.17944        -2.66842
| 40>    C       -3.41071        -1.26260        -4.68600
| 41>    C       -1.94630        -1.06006        -4.94658
| 42>    C       -1.40396        -0.16712        -4.02450
| 43>    S        0.26524         0.11513        -4.28594
| 44>    C        0.25733        -1.01886        -5.62113
| 45>    C       -0.99761        -1.54990        -5.84191
| 46>    C        1.49333        -1.32767        -6.27316
| 47>    C        1.73087        -2.49192        -6.89769
| 48>    C        2.99385        -2.85043        -7.52223
| 49>    C        3.48330        -4.18716        -7.39641
| 50>    C        4.62356        -4.56814        -8.05785
| 51>    C        5.34263        -3.64709        -8.84173
| 52>    C        4.88318        -2.30239        -8.93038
| 53>    C        3.70247        -1.93330        -8.26485
| 54>    N        5.56262        -1.39022        -9.65898
| 55>    C        6.64129        -1.80060       -10.26922
| 56>    C        7.09231        -3.13468       -10.18551
| 57>    N        6.46023        -4.03956        -9.48705
| 58>    C        2.80888        -5.13935        -6.49840
| 59>    C        2.57007        -6.46750        -6.92178
| 60>    C        1.96760        -7.37716        -6.10085
| 61>    C        1.57423        -7.00117        -4.80033
| 62>    C        1.81582        -5.66869        -4.36284
| 63>    C        2.44020        -4.75542        -5.22954
| 64>    N        1.44743        -5.27111        -3.12512
| 65>    C        0.87454        -6.15947        -2.36065
| 66>    C        0.64108        -7.48318        -2.79245
| 67>    N        0.97834        -7.89581        -3.98416
| 68>    H       -4.09103        -1.50863        -0.06860
| 69>    H       -2.79198         1.76488         2.37271
| 70>    H       -2.01750        -2.75239         0.46175
| 71>    H        1.65961        -1.86213         3.01854
| 72>    H        1.24766         0.42768         4.01509
| 73>    H       -6.77543         1.56047        -1.96996
| 74>    H       -5.33605         1.36932         2.77395
| 75>    H       -9.43981         3.35722         2.84179
| 76>    H      -10.21531         3.38517         0.43251
| 77>    H       -4.02590        -0.92351        -5.52176
| 78>    H       -3.66067        -2.30694        -4.49200
| 79>    H       -1.20547        -2.24834        -6.63189
| 80>    H        2.28806        -0.60179        -6.16355
| 81>    H        0.96227        -3.25280        -6.91151
| 82>    H        5.01540        -5.56977        -7.96644
| 83>    H        3.34850        -0.92041        -8.37845
| 84>    H        7.18064        -1.06363       -10.84947
| 85>    H        7.98659        -3.45726       -10.70192
| 86>    H        2.86066        -6.74988        -7.92309
| 87>    H        1.77856        -8.39104        -6.41757
| 88>    H        2.63390        -3.76010        -4.86133
| 89>    H        0.58223        -5.83247        -1.37150
| 90>    H        0.16731        -8.20785        -2.14353
| 91> *
| 92>
| 93>                          ****END OF INPUT****

CARTESIAN COORDINATES (ANGSTROEM)
---------------------------------
  C     -3.338120   -1.073880    0.573400
  C     -3.566370    0.219120    1.105070
  C     -2.646010    0.780810    1.955040
  C     -1.462890    0.087520    2.272680
  C     -1.231110   -1.201800    1.715880
  C     -2.202210   -1.769170    0.865570
  N     -0.102090   -1.883420    1.999000
  C      0.756410   -1.308890    2.797480
  C      0.526620   -0.032250    3.352240
  N     -0.555830    0.651660    3.099090
  C     -4.812900    0.919640    0.750640
  C     -5.221250    1.001880   -0.613310
  C     -6.454200    1.514690   -0.941600
  C     -7.306050    2.009590    0.061210
  C     -6.873260    1.987810    1.417740
  C     -5.623310    1.424660    1.735240
  N     -7.658040    2.478760    2.399700
  C     -8.817900    2.964290    2.048530
  C     -9.249400    2.981080    0.704880
  N     -8.513300    2.517030   -0.267870
  C     -4.321190    0.574080   -1.668920
  S     -2.625170    1.126440   -1.672520
  C     -2.413810    0.216390   -3.108320
  C     -3.604010   -0.411000   -3.471480
  N     -4.646960   -0.179440   -2.668420
  C     -3.410710   -1.262600   -4.686000
  C     -1.946300   -1.060060   -4.946580
  C     -1.403960   -0.167120   -4.024500
  S      0.265240    0.115130   -4.285940
  C      0.257330   -1.018860   -5.621130
  C     -0.997610   -1.549900   -5.841910
  C      1.493330   -1.327670   -6.273160
  C      1.730870   -2.491920   -6.897690
  C      2.993850   -2.850430   -7.522230
  C      3.483300   -4.187160   -7.396410
  C      4.623560   -4.568140   -8.057850
  C      5.342630   -3.647090   -8.841730
  C      4.883180   -2.302390   -8.930380
  C      3.702470   -1.933300   -8.264850
  N      5.562620   -1.390220   -9.658980
  C      6.641290   -1.800600  -10.269220
  C      7.092310   -3.134680  -10.185510
  N      6.460230   -4.039560   -9.487050
  C      2.808880   -5.139350   -6.498400
  C      2.570070   -6.467500   -6.921780
  C      1.967600   -7.377160   -6.100850
  C      1.574230   -7.001170   -4.800330
  C      1.815820   -5.668690   -4.362840
  C      2.440200   -4.755420   -5.229540
  N      1.447430   -5.271110   -3.125120
  C      0.874540   -6.159470   -2.360650
  C      0.641080   -7.483180   -2.792450
  N      0.978340   -7.895810   -3.984160
  H     -4.091030   -1.508630   -0.068600
  H     -2.791980    1.764880    2.372710
  H     -2.017500   -2.752390    0.461750
  H      1.659610   -1.862130    3.018540
  H      1.247660    0.427680    4.015090
  H     -6.775430    1.560470   -1.969960
  H     -5.336050    1.369320    2.773950
  H     -9.439810    3.357220    2.841790
  H    -10.215310    3.385170    0.432510
  H     -4.025900   -0.923510   -5.521760
  H     -3.660670   -2.306940   -4.492000
  H     -1.205470   -2.248340   -6.631890
  H      2.288060   -0.601790   -6.163550
  H      0.962270   -3.252800   -6.911510
  H      5.015400   -5.569770   -7.966440
  H      3.348500   -0.920410   -8.378450
  H      7.180640   -1.063630  -10.849470
  H      7.986590   -3.457260  -10.701920
  H      2.860660   -6.749880   -7.923090
  H      1.778560   -8.391040   -6.417570
  H      2.633900   -3.760100   -4.861330
  H      0.582230   -5.832470   -1.371500
  H      0.167310   -8.207850   -2.143530

 Total Charge           Charge          ....    0
 Multiplicity           Mult            ....    1
 Number of Electrons    NEL             ....  370
 Basis Dimension        Dim             ....  865

ORBITAL ENERGIES
----------------

  NO   OCC          E(Eh)            E(eV)
   0   2.0000     -88.962234     -2420.7855
   1   2.0000     -88.957539     -2420.6577
   2   2.0000     -14.418512      -392.3477
   3   2.0000     -14.418361      -392.3435
   4   2.0000     -14.416707      -392.2985
   5   2.0000     -14.416407      -392.2904
   6   2.0000     -14.415929      -392.2774
   7   2.0000     -14.415868      -392.2757
   8   2.0000     -14.415828      -392.2746
   9   2.0000     -14.415672      -392.2704
  10   2.0000     -14.409534      -392.1034
  11   2.0000     -10.331043      -281.1220
  12   2.0000     -10.313235      -280.6374
  13   2.0000     -10.312803      -280.6256
  14   2.0000     -10.311563      -280.5919
  15   2.0000     -10.311024      -280.5772
  16   2.0000     -10.310881      -280.5733
  17   2.0000     -10.310682      -280.5679
  18   2.0000     -10.310583      -280.5652
  19   2.0000     -10.310309      -280.5578
  20   2.0000     -10.310255      -280.5563
  21   2.0000     -10.310016      -280.5498
  22   2.0000     -10.308402      -280.5059
  23   2.0000     -10.308352      -280.5045
  24   2.0000     -10.308221      -280.5010
  25   2.0000     -10.307908      -280.4924
  26   2.0000     -10.307905      -280.4924
  27   2.0000     -10.307733      -280.4877
  28   2.0000     -10.300358      -280.2870
  29   2.0000     -10.298687      -280.2415
  30   2.0000     -10.297601      -280.2120
  31   2.0000     -10.297285      -280.2034
  32   2.0000     -10.294722      -280.1336
  33   2.0000     -10.293374      -280.0970
  34   2.0000     -10.289101      -279.9807
  35   2.0000     -10.289008      -279.9781
  36   2.0000     -10.288516      -279.9648
  37   2.0000     -10.288313      -279.9592
  38   2.0000     -10.283614      -279.8314
  39   2.0000     -10.281192      -279.7655
  40   2.0000     -10.280336      -279.7422
  41   2.0000     -10.279229      -279.7120
  42   2.0000     -10.278408      -279.6897
  43   2.0000     -10.277871      -279.6751
  44   2.0000     -10.275663      -279.6150
  45   2.0000     -10.275542      -279.6117
  46   2.0000     -10.275209      -279.6026
  47   2.0000     -10.274723      -279.5894
  48   2.0000     -10.274545      -279.5846
  49   2.0000     -10.273797      -279.5642
  50   2.0000     -10.273617      -279.5593
  51   2.0000     -10.273349      -279.5520
  52   2.0000     -10.272518      -279.5294
  53   2.0000      -8.056882      -219.2389
  54   2.0000      -8.052735      -219.1261
  55   2.0000      -6.026109      -163.9788
  56   2.0000      -6.022147      -163.8710
  57   2.0000      -6.022055      -163.8685
  58   2.0000      -6.019041      -163.7864
  59   2.0000      -6.017981      -163.7576
  60   2.0000      -6.014840      -163.6721
  61   2.0000      -1.073799       -29.2196
  62   2.0000      -1.071363       -29.1533
  63   2.0000      -1.071050       -29.1448
  64   2.0000      -1.070792       -29.1377
  65   2.0000      -1.064307       -28.9613
  66   2.0000      -0.996603       -27.1190
  67   2.0000      -0.994269       -27.0554
  68   2.0000      -0.994079       -27.0503
  69   2.0000      -0.993756       -27.0415
  70   2.0000      -0.992420       -27.0051
  71   2.0000      -0.969716       -26.3873
  72   2.0000      -0.968588       -26.3566
  73   2.0000      -0.939933       -25.5769
  74   2.0000      -0.938766       -25.5451
  75   2.0000      -0.923530       -25.1305
  76   2.0000      -0.891375       -24.2555
  77   2.0000      -0.887049       -24.1378
  78   2.0000      -0.873947       -23.7813
  79   2.0000      -0.872335       -23.7374
  80   2.0000      -0.860978       -23.4284
  81   2.0000      -0.844067       -22.9682
  82   2.0000      -0.842895       -22.9363
  83   2.0000      -0.839288       -22.8382
  84   2.0000      -0.827059       -22.5054
  85   2.0000      -0.826859       -22.5000
  86   2.0000      -0.824835       -22.4449
  87   2.0000      -0.786044       -21.3894
  88   2.0000      -0.778787       -21.1919
  89   2.0000      -0.765086       -20.8190
  90   2.0000      -0.764535       -20.8041
  91   2.0000      -0.756760       -20.5925
  92   2.0000      -0.741107       -20.1665
  93   2.0000      -0.740881       -20.1604
  94   2.0000      -0.728728       -19.8297
  95   2.0000      -0.718193       -19.5430
  96   2.0000      -0.716268       -19.4906
  97   2.0000      -0.702868       -19.1260
  98   2.0000      -0.701911       -19.1000
  99   2.0000      -0.694099       -18.8874
 100   2.0000      -0.687614       -18.7109
 101   2.0000      -0.685617       -18.6566
 102   2.0000      -0.659333       -17.9414
 103   2.0000      -0.644340       -17.5334
 104   2.0000      -0.635919       -17.3042
 105   2.0000      -0.634623       -17.2690
 106   2.0000      -0.626964       -17.0605
 107   2.0000      -0.622543       -16.9403
 108   2.0000      -0.622167       -16.9300
 109   2.0000      -0.617363       -16.7993
 110   2.0000      -0.607877       -16.5412
 111   2.0000      -0.604800       -16.4575
 112   2.0000      -0.603249       -16.4152
 113   2.0000      -0.594947       -16.1893
 114   2.0000      -0.591075       -16.0840
 115   2.0000      -0.589584       -16.0434
 116   2.0000      -0.587115       -15.9762
 117   2.0000      -0.577503       -15.7147
 118   2.0000      -0.563633       -15.3372
 119   2.0000      -0.555069       -15.1042
 120   2.0000      -0.549714       -14.9585
 121   2.0000      -0.546473       -14.8703
 122   2.0000      -0.535438       -14.5700
 123   2.0000      -0.531949       -14.4751
 124   2.0000      -0.531060       -14.4509
 125   2.0000      -0.528118       -14.3708
 126   2.0000      -0.525692       -14.3048
 127   2.0000      -0.524686       -14.2774
 128   2.0000      -0.523675       -14.2499
 129   2.0000      -0.520507       -14.1637
 130   2.0000      -0.520169       -14.1545
 131   2.0000      -0.518870       -14.1192
 132   2.0000      -0.518323       -14.1043
 133   2.0000      -0.516276       -14.0486
 134   2.0000      -0.515003       -14.0139
 135   2.0000      -0.511737       -13.9251
 136   2.0000      -0.510508       -13.8916
 137   2.0000      -0.506108       -13.7719
 138   2.0000      -0.503756       -13.7079
 139   2.0000      -0.490227       -13.3398
 140   2.0000      -0.482554       -13.1310
 141   2.0000      -0.480024       -13.0621
 142   2.0000      -0.470930       -12.8147
 143   2.0000      -0.470184       -12.7944
 144   2.0000      -0.467563       -12.7230
 145   2.0000      -0.462830       -12.5942
 146   2.0000      -0.454844       -12.3769
 147   2.0000      -0.448290       -12.1986
 148   2.0000      -0.445617       -12.1258
 149   2.0000      -0.444303       -12.0901
 150   2.0000      -0.441586       -12.0162
 151   2.0000      -0.435066       -11.8387
 152   2.0000      -0.433175       -11.7873
 153   2.0000      -0.432411       -11.7665
 154   2.0000      -0.426158       -11.5964
 155   2.0000      -0.424944       -11.5633
 156   2.0000      -0.423411       -11.5216
 157   2.0000      -0.417188       -11.3523
 158   2.0000      -0.416525       -11.3342
 159   2.0000      -0.415711       -11.3121
 160   2.0000      -0.414830       -11.2881
 161   2.0000      -0.413267       -11.2456
 162   2.0000      -0.412630       -11.2282
 163   2.0000      -0.388692       -10.5768
 164   2.0000      -0.381214       -10.3734
 165   2.0000      -0.379363       -10.3230
 166   2.0000      -0.378867       -10.3095
 167   2.0000      -0.378660       -10.3039
 168   2.0000      -0.356504        -9.7010
 169   2.0000      -0.348133        -9.4732
 170   2.0000      -0.340018        -9.2524
 171   2.0000      -0.337096        -9.1728
 172   2.0000      -0.334698        -9.1076
 173   2.0000      -0.319833        -8.7031
 174   2.0000      -0.317080        -8.6282
 175   2.0000      -0.316241        -8.6053
 176   2.0000      -0.315817        -8.5938
 177   2.0000      -0.314266        -8.5516
 178   2.0000      -0.314158        -8.5487
 179   2.0000      -0.313963        -8.5434
 180   2.0000      -0.311537        -8.4774
 181   2.0000      -0.297454        -8.0941
 182   2.0000      -0.293427        -7.9845
 183   2.0000      -0.289046        -7.8653
 184   2.0000      -0.239193        -6.5088
 185   0.0000      -0.050204        -1.3661
 186   0.0000      -0.043735        -1.1901
 187   0.0000      -0.040967        -1.1148
 188   0.0000      -0.033522        -0.9122
 189   0.0000      -0.023473        -0.6387

MULLIKEN ATOMIC CHARGES
-----------------------
   0 C :    0.059049
   1 C :   -0.005187
   2 C :   -0.033004
   3 C :    0.005382
   4 C :   -0.018182
   5 C :    0.010361
   6 N :   -0.018374
   7 C :    0.019360
   8 C :    0.020096
   9 N :   -0.020350
  10 C :    0.109097
  11 C :    0.122545
  12 C :   -0.043335
  13 C :    0.000528
  14 C :    0.003565
  15 C :   -0.062861
  16 N :   -0.016715
  17 C :    0.021292
  18 C :    0.021570
  19 N :   -0.016004
  20 C :   -0.191589
  21 S :    0.159006
  22 C :   -0.057901
  23 C :   -0.232174
  24 N :   -0.005923
  25 C :    0.390644
  26 C :   -0.167151
  27 C :   -0.104201
  28 S :    0.153445
  29 C :   -0.086193
  30 C :   -0.011371
  31 C :    0.044456
  32 C :   -0.041759
  33 C :    0.095161
  34 C :    0.102327
  35 C :   -0.063227
  36 C :   -0.010112
  37 C :    0.002554
  38 C :   -0.076598
  39 N :   -0.015454
  40 C :    0.018849
  41 C :    0.019613
  42 N :   -0.015679
  43 C :    0.035139
  44 C :    0.016291
  45 C :    0.011942
  46 C :   -0.023541
  47 C :    0.003173
  48 C :   -0.036140
  49 N :   -0.012740
  50 C :    0.019270
  51 C :    0.017491
  52 N :   -0.018091
  53 H :    0.004102
  54 H :   -0.029831
  55 H :   -0.027157
  56 H :    0.008768
  57 H :    0.010106
  58 H :   -0.022237
  59 H :   -0.025710
  60 H :    0.010984
  61 H :    0.010362
  62 H :    0.034272
  63 H :    0.031858
  64 H :   -0.022984
  65 H :   -0.005655
  66 H :    0.020860
  67 H :   -0.028971
  68 H :   -0.031699
  69 H :    0.009515
  70 H :    0.008735
  71 H :   -0.013181
  72 H :   -0.024739
  73 H :   -0.019057
  74 H :    0.013026
  75 H :    0.010280
Sum of atomic charges:    0.0000000

LOEWDIN ATOMIC CHARGES
----------------------
   0 C :   -0.010430
   1 C :   -0.030390
   2 C :   -0.010405
   3 C :   -0.012865
   4 C :   -0.013693
   5 C :   -0.009981
   6 N :   -0.041259
   7 C :   -0.000972
   8 C :   -0.000604
   9 N :   -0.042061
  10 C :   -0.009920
  11 C :   -0.044116
  12 C :    0.015547
  13 C :   -0.015540
  14 C :   -0.011993
  15 C :   -0.003379
  16 N :   -0.040708
  17 C :    0.001831
  18 C :    0.000704
  19 N :   -0.038786
  20 C :   -0.124086
  21 S :    0.432380
  22 C :   -0.210244
  23 C :   -0.049414
  24 N :   -0.081641
  25 C :   -0.012139
  26 C :   -0.048540
  27 C :   -0.203546
  28 S :    0.438909
  29 C :   -0.168863
  30 C :   -0.053101
  31 C :   -0.038378
  32 C :   -0.017581
  33 C :   -0.013647
  34 C :   -0.008039
  35 C :   -0.006954
  36 C :   -0.016108
  37 C :   -0.014351
  38 C :   -0.008309
  39 N :   -0.042186
  40 C :   -0.000777
  41 C :   -0.002235
  42 N :   -0.041467
  43 C :   -0.017905
  44 C :   -0.010942
  45 C :   -0.010021
  46 C :   -0.016030
  47 C :   -0.015284
  48 C :   -0.001162
  49 N :   -0.038869
  50 C :    0.000487
  51 C :   -0.000999
  52 N :   -0.041415
  53 H :    0.035910
  54 H :    0.035010
  55 H :    0.035260
  56 H :    0.024722
  57 H :    0.024965
  58 H :    0.040803
  59 H :    0.037410
  60 H :    0.025688
  61 H :    0.025464
  62 H :    0.055920
  63 H :    0.053339
  64 H :    0.030264
  65 H :    0.028735
  66 H :    0.031266
  67 H :    0.035163
  68 H :    0.034360
  69 H :    0.024873
  70 H :    0.024663
  71 H :    0.032013
  72 H :    0.035594
  73 H :    0.038779
  74 H :    0.026290
  75 H :    0.024988

  Mayer bond orders larger than 0.100000
B(  0-C ,  1-C ) :   1.2352 B(  0-C ,  5-C ) :   1.4787 B(  0-C , 53-H ) :   0.9837
B(  1-C ,  2-C ) :   1.4469 B(  1-C , 10-C ) :   0.9379 B(  2-C ,  3-C ) :   1.2084
B(  2-C ,  5-C ) :   0.1022 B(  2-C , 54-H ) :   1.0189 B(  3-C ,  4-C ) :   1.2483
B(  3-C ,  9-N ) :   1.4225 B(  4-C ,  5-C ) :   1.2276 B(  4-C ,  6-N ) :   1.4315
B(  5-C , 55-H ) :   1.0081 B(  6-N ,  7-C ) :   1.6714 B(  7-C ,  8-C ) :   1.2294
B(  7-C , 56-H ) :   0.9743 B(  8-C ,  9-N ) :   1.6703 B(  8-C , 57-H ) :   0.9741
B( 10-C , 11-C ) :   1.2604 B( 10-C , 15-C ) :   1.4540 B( 11-C , 12-C ) :   1.4421
B( 11-C , 20-C ) :   0.9477 B( 12-C , 13-C ) :   1.1951 B( 12-C , 15-C ) :   0.1091
B( 12-C , 58-H ) :   1.0297 B( 13-C , 14-C ) :   1.2460 B( 13-C , 19-N ) :   1.4205
B( 14-C , 15-C ) :   1.2108 B( 14-C , 16-N ) :   1.4268 B( 15-C , 59-H ) :   1.0199
B( 16-N , 17-C ) :   1.6727 B( 17-C , 18-C ) :   1.2252 B( 17-C , 60-H ) :   0.9739
B( 18-C , 19-N ) :   1.6740 B( 18-C , 61-H ) :   0.9737 B( 20-C , 21-S ) :   1.0994
B( 20-C , 24-N ) :   1.7094 B( 21-S , 22-C ) :   1.0953 B( 21-S , 24-N ) :   0.1009
B( 22-C , 23-C ) :   1.5121 B( 22-C , 27-C ) :   1.1668 B( 23-C , 24-N ) :   1.3986
B( 23-C , 25-C ) :   1.0460 B( 25-C , 26-C ) :   0.9831 B( 25-C , 62-H ) :   0.8551
B( 25-C , 63-H ) :   0.8661 B( 26-C , 27-C ) :   1.5403 B( 26-C , 30-C ) :   1.2904
B( 27-C , 28-S ) :   1.0882 B( 28-S , 29-C ) :   1.1074 B( 29-C , 30-C ) :   1.4990
B( 29-C , 31-C ) :   1.0821 B( 30-C , 64-H ) :   0.9995 B( 31-C , 32-C ) :   1.7899
B( 31-C , 65-H ) :   0.9603 B( 32-C , 33-C ) :   1.0317 B( 32-C , 66-H ) :   0.9457
B( 33-C , 34-C ) :   1.2439 B( 33-C , 38-C ) :   1.4158 B( 34-C , 35-C ) :   1.4476
B( 34-C , 43-C ) :   0.9441 B( 35-C , 36-C ) :   1.2134 B( 35-C , 38-C ) :   0.1051
B( 35-C , 67-H ) :   1.0148 B( 36-C , 37-C ) :   1.2454 B( 36-C , 42-N ) :   1.4343
B( 37-C , 38-C ) :   1.2082 B( 37-C , 39-N ) :   1.4284 B( 38-C , 68-H ) :   1.0201
B( 39-N , 40-C ) :   1.6726 B( 40-C , 41-C ) :   1.2283 B( 40-C , 69-H ) :   0.9740
B( 41-C , 42-N ) :   1.6679 B( 41-C , 70-H ) :   0.9740 B( 43-C , 44-C ) :   1.2525
B( 43-C , 48-C ) :   1.4325 B( 44-C , 45-C ) :   1.4596 B( 44-C , 71-H ) :   0.9948
B( 45-C , 46-C ) :   1.2372 B( 45-C , 48-C ) :   0.1059 B( 45-C , 72-H ) :   1.0063
B( 46-C , 47-C ) :   1.2460 B( 46-C , 52-N ) :   1.4287 B( 47-C , 48-C ) :   1.2270
B( 47-C , 49-N ) :   1.4247 B( 48-C , 73-H ) :   1.0049 B( 49-N , 50-C ) :   1.6779
B( 50-C , 51-C ) :   1.2232 B( 50-C , 74-H ) :   0.9742 B( 51-C , 52-N ) :   1.6758
B( 51-C , 75-H ) :   0.9738

-----------------------------------------------------------------------------
         ABSORPTION SPECTRUM VIA TRANSITION ELECTRIC DIPOLE MOMENTS
-----------------------------------------------------------------------------
State   Energy  Wavelength   fosc         T2         TX        TY        TZ
        (cm-1)    (nm)                  (au**2)     (au)      (au)      (au)
-----------------------------------------------------------------------------
   0   25654.4    389.8   1.460739279  18.74501  -3.15917   1.30056   2.65955
   1   27639.0    361.8   0.102482638   1.22068  -0.76799   0.60112   0.51917
   2   28243.4    354.1   0.051261480   0.59752  -0.51797   0.13261  -0.55824
   3   29960.8    333.8   0.048574599   0.53374  -0.72544   0.07849   0.03637
   4   31985.4    312.6   0.152543219   1.57006   0.77892  -0.84233  -0.50382
   5   33699.5    296.7   0.011521815   0.11256   0.05836   0.30055   0.13719
   6   34274.1    291.8   0.026539340   0.25492  -0.13798  -0.20360   0.44094
   7   35594.0    280.9   0.106682944   0.98672   0.62638  -0.69538  -0.33288
   8   36162.5    276.5   0.059795048   0.54435   0.25072  -0.01486  -0.69374
   9   36955.7    270.6   0.026240367   0.23376  -0.10962  -0.16752   0.44009
  10   37640.3    265.7   0.428129529   3.74453  -1.85490   0.42781  -0.34762
  11   38330.8    260.9   0.134370840   1.15407   0.66307  -0.02217  -0.84494
  12   38839.6    257.5   0.291135839   2.46773  -0.68200  -0.42414   1.35007
  13   39411.4    253.7   0.194448568   1.62427   0.31888  -0.11381  -1.22867
  14   40123.1    249.2   0.123042146   1.00957   0.73176   0.47085  -0.50239

FINAL SINGLE POINT ENERGY     -2900.556576752491

DIPOLE MOMENT
-------------
                                X             Y             Z
Electronic contribution:     -4.82398      11.83736       5.50511
Nuclear contribution   :      4.85656     -12.00590      -5.66763
                        -----------------------------------------
Total Dipole Moment    :      0.03258      -0.16855      -0.16251
                        -----------------------------------------
Magnitude (a.u.)       :      0.23639
Magnitude (Debye)      :      0.60086

Rotational constants in cm-1:     0.002961     0.000653     0.000613
Rotational constants in MHz :    88.771769    19.589440    18.387995

                             ****ORCA TERMINATED NORMALLY****
TOTAL RUN TIME: 0 days 0 hours 5 minutes 20 seconds 182 msec
