                         Program Version 4.2.0 -  RELEASE  -
|  1> # ORCA input file
|  2> # SCF done       -138.624972596660          0.000958412712
|  3> ! CAM-B3LYP def2-SVP def2/J RIJCOSX Grid4 TightSCF
|  4> %maxcore 5000
|  5> %tddft
|  6>     Mode sTDDFT
|  7>     Ethresh 5.0
|  8>     maxcore 5000
|  9> end
| 10>
| 11> %pal
| 12>   nprocs 6
| 13>   end
| 14> * xyz 0 1
| 15>    C       -1.01646        -5.06355        -2.32273
| 16>    C       -2.09166        -5.94587        -2.61767
| 17>    C       -1.97799        -6.82162        -3.68308
| 18>    C       -0.81300        -6.83933        -4.46506
| 19>    C        0.25890        -5.95362        -4.15865
| 20>    C        0.12411        -5.06760        -3.06839
| 21>    N        1.38590        -5.95663        -4.89780
| 22>    C        1.44394        -6.79769        -5.89534
| 23>    C        0.38099        -7.67454        -6.20139
| 24>    N       -0.72217        -7.69894        -5.50528
| 25>    C       -3.27649        -5.89844        -1.79855
| 26>    C       -3.59724        -5.06422        -0.73984
| 27>    C       -4.90491        -5.41105        -0.27630
| 28>    C       -5.39945        -6.50827        -1.07913
| 29>    O       -6.43723        -7.13294        -1.05865
| 30>    N       -4.35176        -6.73936        -1.97578
| 31>    C       -5.22229        -4.55588         0.75569
| 32>    O       -4.18140        -3.69711         0.97214
| 33>    C       -3.14462        -3.96111         0.07955
| 34>    O       -2.12806        -3.31974         0.10070
| 35>    C       -6.38704        -4.45210         1.53030
| 36>    S       -6.53062        -3.19933         2.75290
| 37>    C       -8.10609        -3.73828         3.11640
| 38>    C       -8.50035        -4.84396         2.33508
| 39>    C       -7.52821        -5.24713         1.43712
| 40>    C       -9.88599        -5.23719         2.70952
| 41>    O      -10.55871        -6.13520         2.27290
| 42>    C      -10.25046        -4.24485         3.76202
| 43>    C       -9.16991        -3.37990         3.97650
| 44>    S       -9.51710        -2.18935         5.15801
| 45>    C      -11.13280        -2.84534         5.36452
| 46>    C      -11.35561        -3.94473         4.54596
| 47>    C      -12.04122        -2.23524         6.25977
| 48>    S      -13.66205        -2.84801         6.44995
| 49>    C      -14.04392        -1.57521         7.58324
| 50>    C      -12.95190        -0.74828         7.78984
| 51>    C      -11.83596        -1.11864         7.05166
| 52>    C      -15.29815        -1.45833         8.14060
| 53>    C      -16.41998        -1.35159         8.60527
| 54>    C      -17.68080        -1.17992         9.13735
| 55>    C      -18.02412        -0.09053         9.88652
| 56>    C      -19.30590         0.11805        10.41500
| 57>    C      -19.67409         1.22602        11.13639
| 58>    C      -20.95379         1.49860        11.68317
| 59>    C      -21.04203         2.68359        12.34287
| 60>    C      -19.83409         3.42417        12.35999
| 61>    S      -18.57849         2.54967        11.50435
| 62>    C      -19.60566         4.65097        12.93752
| 63>    C      -20.53810         5.45548        13.65139
| 64>    C      -20.03253         6.62199        14.10828
| 65>    C      -18.64922         6.83402        13.79031
| 66>    S      -18.04589         5.44530        12.87107
| 67>    C      -17.88680         7.88870        14.10849
| 68>    H       -1.11760        -4.38167        -1.49330
| 69>    H       -2.76159        -7.50961        -3.96040
| 70>    H        0.94328        -4.40114        -2.84976
| 71>    H        2.35244        -6.79251        -6.48259
| 72>    H        0.44595        -8.36417        -7.03244
| 73>    H       -4.39990        -7.46356        -2.67494
| 74>    H       -7.60996        -6.06009         0.73654
| 75>    H      -12.28747        -4.48057         4.53146
| 76>    H      -12.98869         0.09333         8.45784
| 77>    H      -10.89547        -0.59648         7.07527
| 78>    H      -18.41384        -1.94800         8.92389
| 79>    H      -17.27440         0.66678        10.07899
| 80>    H      -20.06410        -0.63469        10.23977
| 81>    H      -21.76807         0.80497        11.56665
| 82>    H      -21.93664         3.04739        12.81546
| 83>    H      -21.55452         5.13635        13.79928
| 84>    H      -20.58522         7.35648        14.66664
| 85>    H      -18.29521         8.71188        14.66765
| 86>    H      -16.85413         7.94916        13.81779
| 87> *
| 88>
| 89>                          ****END OF INPUT****

CARTESIAN COORDINATES (ANGSTROEM)
---------------------------------
  C     -1.016460   -5.063550   -2.322730
  C     -2.091660   -5.945870   -2.617670
  C     -1.977990   -6.821620   -3.683080
  C     -0.813000   -6.839330   -4.465060
  C      0.258900   -5.953620   -4.158650
  C      0.124110   -5.067600   -3.068390
  N      1.385900   -5.956630   -4.897800
  C      1.443940   -6.797690   -5.895340
  C      0.380990   -7.674540   -6.201390
  N     -0.722170   -7.698940   -5.505280
  C     -3.276490   -5.898440   -1.798550
  C     -3.597240   -5.064220   -0.739840
  C     -4.904910   -5.411050   -0.276300
  C     -5.399450   -6.508270   -1.079130
  O     -6.437230   -7.132940   -1.058650
  N     -4.351760   -6.739360   -1.975780
  C     -5.222290   -4.555880    0.755690
  O     -4.181400   -3.697110    0.972140
  C     -3.144620   -3.961110    0.079550
  O     -2.128060   -3.319740    0.100700
  C     -6.387040   -4.452100    1.530300
  S     -6.530620   -3.199330    2.752900
  C     -8.106090   -3.738280    3.116400
  C     -8.500350   -4.843960    2.335080
  C     -7.528210   -5.247130    1.437120
  C     -9.885990   -5.237190    2.709520
  O    -10.558710   -6.135200    2.272900
  C    -10.250460   -4.244850    3.762020
  C     -9.169910   -3.379900    3.976500
  S     -9.517100   -2.189350    5.158010
  C    -11.132800   -2.845340    5.364520
  C    -11.355610   -3.944730    4.545960
  C    -12.041220   -2.235240    6.259770
  S    -13.662050   -2.848010    6.449950
  C    -14.043920   -1.575210    7.583240
  C    -12.951900   -0.748280    7.789840
  C    -11.835960   -1.118640    7.051660
  C    -15.298150   -1.458330    8.140600
  C    -16.419980   -1.351590    8.605270
  C    -17.680800   -1.179920    9.137350
  C    -18.024120   -0.090530    9.886520
  C    -19.305900    0.118050   10.415000
  C    -19.674090    1.226020   11.136390
  C    -20.953790    1.498600   11.683170
  C    -21.042030    2.683590   12.342870
  C    -19.834090    3.424170   12.359990
  S    -18.578490    2.549670   11.504350
  C    -19.605660    4.650970   12.937520
  C    -20.538100    5.455480   13.651390
  C    -20.032530    6.621990   14.108280
  C    -18.649220    6.834020   13.790310
  S    -18.045890    5.445300   12.871070
  C    -17.886800    7.888700   14.108490
  H     -1.117600   -4.381670   -1.493300
  H     -2.761590   -7.509610   -3.960400
  H      0.943280   -4.401140   -2.849760
  H      2.352440   -6.792510   -6.482590
  H      0.445950   -8.364170   -7.032440
  H     -4.399900   -7.463560   -2.674940
  H     -7.609960   -6.060090    0.736540
  H    -12.287470   -4.480570    4.531460
  H    -12.988690    0.093330    8.457840
  H    -10.895470   -0.596480    7.075270
  H    -18.413840   -1.948000    8.923890
  H    -17.274400    0.666780   10.078990
  H    -20.064100   -0.634690   10.239770
  H    -21.768070    0.804970   11.566650
  H    -21.936640    3.047390   12.815460
  H    -21.554520    5.136350   13.799280
  H    -20.585220    7.356480   14.666640
  H    -18.295210    8.711880   14.667650
  H    -16.854130    7.949160   13.817790

 Total Charge           Charge          ....    0
 Multiplicity           Mult            ....    1
 Number of Electrons    NEL             ....  398
 Basis Dimension        Dim             ....  857

ORBITAL ENERGIES
----------------

  NO   OCC          E(Eh)            E(eV)
   0   2.0000     -88.987062     -2421.4611
   1   2.0000     -88.983144     -2421.3544
   2   2.0000     -88.962349     -2420.7886
   3   2.0000     -88.943294     -2420.2701
   4   2.0000     -88.940225     -2420.1866
   5   2.0000     -19.284218      -524.7503
   6   2.0000     -19.222281      -523.0649
   7   2.0000     -19.209831      -522.7261
   8   2.0000     -19.191907      -522.2383
   9   2.0000     -14.459668      -393.4676
  10   2.0000     -14.424045      -392.4982
  11   2.0000     -14.422317      -392.4512
  12   2.0000     -10.410016      -283.2709
  13   2.0000     -10.381646      -282.4990
  14   2.0000     -10.372884      -282.2605
  15   2.0000     -10.371387      -282.2198
  16   2.0000     -10.348062      -281.5851
  17   2.0000     -10.333112      -281.1783
  18   2.0000     -10.324471      -280.9431
  19   2.0000     -10.322931      -280.9012
  20   2.0000     -10.318551      -280.7821
  21   2.0000     -10.317810      -280.7619
  22   2.0000     -10.317513      -280.7538
  23   2.0000     -10.317101      -280.7426
  24   2.0000     -10.316934      -280.7380
  25   2.0000     -10.316179      -280.7175
  26   2.0000     -10.313549      -280.6459
  27   2.0000     -10.312545      -280.6186
  28   2.0000     -10.309619      -280.5390
  29   2.0000     -10.308899      -280.5194
  30   2.0000     -10.308275      -280.5024
  31   2.0000     -10.304168      -280.3907
  32   2.0000     -10.298261      -280.2299
  33   2.0000     -10.292981      -280.0862
  34   2.0000     -10.291614      -280.0490
  35   2.0000     -10.291233      -280.0387
  36   2.0000     -10.290217      -280.0110
  37   2.0000     -10.287620      -279.9404
  38   2.0000     -10.286876      -279.9201
  39   2.0000     -10.285950      -279.8949
  40   2.0000     -10.284814      -279.8640
  41   2.0000     -10.284689      -279.8606
  42   2.0000     -10.282459      -279.7999
  43   2.0000     -10.282304      -279.7957
  44   2.0000     -10.281007      -279.7604
  45   2.0000     -10.280807      -279.7550
  46   2.0000     -10.278485      -279.6918
  47   2.0000     -10.277593      -279.6675
  48   2.0000     -10.276568      -279.6396
  49   2.0000     -10.274347      -279.5792
  50   2.0000     -10.272803      -279.5372
  51   2.0000     -10.272449      -279.5275
  52   2.0000     -10.271509      -279.5020
  53   2.0000      -8.081339      -219.9044
  54   2.0000      -8.077748      -219.8067
  55   2.0000      -8.057793      -219.2637
  56   2.0000      -8.039639      -218.7697
  57   2.0000      -8.036977      -218.6973
  58   2.0000      -6.050531      -164.6433
  59   2.0000      -6.047038      -164.5483
  60   2.0000      -6.046342      -164.5293
  61   2.0000      -6.043862      -164.4618
  62   2.0000      -6.042917      -164.4361
  63   2.0000      -6.039993      -164.3566
  64   2.0000      -6.027202      -164.0085
  65   2.0000      -6.023036      -163.8951
  66   2.0000      -6.019667      -163.8035
  67   2.0000      -6.009383      -163.5236
  68   2.0000      -6.006799      -163.4533
  69   2.0000      -6.005454      -163.4167
  70   2.0000      -6.002886      -163.3468
  71   2.0000      -6.000419      -163.2797
  72   2.0000      -5.997487      -163.1999
  73   2.0000      -1.213765       -33.0282
  74   2.0000      -1.134984       -30.8845
  75   2.0000      -1.131248       -30.7828
  76   2.0000      -1.118816       -30.4445
  77   2.0000      -1.078514       -29.3479
  78   2.0000      -1.061054       -28.8727
  79   2.0000      -1.025894       -27.9160
  80   2.0000      -1.001364       -27.2485
  81   2.0000      -0.998757       -27.1776
  82   2.0000      -0.993633       -27.0381
  83   2.0000      -0.980831       -26.6898
  84   2.0000      -0.970864       -26.4186
  85   2.0000      -0.957071       -26.0432
  86   2.0000      -0.924863       -25.1668
  87   2.0000      -0.913115       -24.8471
  88   2.0000      -0.911156       -24.7938
  89   2.0000      -0.883524       -24.0419
  90   2.0000      -0.878073       -23.8936
  91   2.0000      -0.871451       -23.7134
  92   2.0000      -0.867951       -23.6182
  93   2.0000      -0.854420       -23.2500
  94   2.0000      -0.849884       -23.1265
  95   2.0000      -0.848792       -23.0968
  96   2.0000      -0.846073       -23.0228
  97   2.0000      -0.840726       -22.8773
  98   2.0000      -0.830984       -22.6122
  99   2.0000      -0.820679       -22.3318
 100   2.0000      -0.809868       -22.0376
 101   2.0000      -0.802818       -21.8458
 102   2.0000      -0.781843       -21.2750
 103   2.0000      -0.762510       -20.7489
 104   2.0000      -0.759112       -20.6565
 105   2.0000      -0.749811       -20.4034
 106   2.0000      -0.743116       -20.2212
 107   2.0000      -0.733170       -19.9506
 108   2.0000      -0.732075       -19.9208
 109   2.0000      -0.713493       -19.4151
 110   2.0000      -0.702591       -19.1185
 111   2.0000      -0.693055       -18.8590
 112   2.0000      -0.690636       -18.7932
 113   2.0000      -0.678805       -18.4712
 114   2.0000      -0.661802       -18.0086
 115   2.0000      -0.653926       -17.7942
 116   2.0000      -0.639447       -17.4002
 117   2.0000      -0.637879       -17.3576
 118   2.0000      -0.636623       -17.3234
 119   2.0000      -0.634058       -17.2536
 120   2.0000      -0.626311       -17.0428
 121   2.0000      -0.620932       -16.8964
 122   2.0000      -0.618775       -16.8377
 123   2.0000      -0.616479       -16.7752
 124   2.0000      -0.607702       -16.5364
 125   2.0000      -0.599759       -16.3203
 126   2.0000      -0.599603       -16.3160
 127   2.0000      -0.591815       -16.1041
 128   2.0000      -0.582125       -15.8404
 129   2.0000      -0.578080       -15.7303
 130   2.0000      -0.577342       -15.7103
 131   2.0000      -0.570082       -15.5127
 132   2.0000      -0.568239       -15.4626
 133   2.0000      -0.552874       -15.0445
 134   2.0000      -0.548686       -14.9305
 135   2.0000      -0.539053       -14.6684
 136   2.0000      -0.537880       -14.6365
 137   2.0000      -0.537747       -14.6328
 138   2.0000      -0.532337       -14.4856
 139   2.0000      -0.531348       -14.4587
 140   2.0000      -0.528657       -14.3855
 141   2.0000      -0.525995       -14.3131
 142   2.0000      -0.524110       -14.2618
 143   2.0000      -0.517777       -14.0894
 144   2.0000      -0.515580       -14.0297
 145   2.0000      -0.514219       -13.9926
 146   2.0000      -0.511485       -13.9182
 147   2.0000      -0.503339       -13.6966
 148   2.0000      -0.501320       -13.6416
 149   2.0000      -0.497759       -13.5447
 150   2.0000      -0.496498       -13.5104
 151   2.0000      -0.496109       -13.4998
 152   2.0000      -0.487779       -13.2731
 153   2.0000      -0.485904       -13.2221
 154   2.0000      -0.481643       -13.1062
 155   2.0000      -0.479924       -13.0594
 156   2.0000      -0.478889       -13.0312
 157   2.0000      -0.477152       -12.9840
 158   2.0000      -0.471921       -12.8416
 159   2.0000      -0.467707       -12.7269
 160   2.0000      -0.466735       -12.7005
 161   2.0000      -0.466319       -12.6892
 162   2.0000      -0.463677       -12.6173
 163   2.0000      -0.459724       -12.5097
 164   2.0000      -0.458942       -12.4884
 165   2.0000      -0.454049       -12.3553
 166   2.0000      -0.445839       -12.1319
 167   2.0000      -0.443348       -12.0641
 168   2.0000      -0.441187       -12.0053
 169   2.0000      -0.438227       -11.9248
 170   2.0000      -0.429067       -11.6755
 171   2.0000      -0.428777       -11.6676
 172   2.0000      -0.422239       -11.4897
 173   2.0000      -0.420739       -11.4489
 174   2.0000      -0.420355       -11.4384
 175   2.0000      -0.411207       -11.1895
 176   2.0000      -0.401019       -10.9123
 177   2.0000      -0.397673       -10.8212
 178   2.0000      -0.385998       -10.5035
 179   2.0000      -0.382758       -10.4154
 180   2.0000      -0.365703        -9.9513
 181   2.0000      -0.364626        -9.9220
 182   2.0000      -0.350620        -9.5408
 183   2.0000      -0.346157        -9.4194
 184   2.0000      -0.342710        -9.3256
 185   2.0000      -0.340897        -9.2763
 186   2.0000      -0.339035        -9.2256
 187   2.0000      -0.338754        -9.2180
 188   2.0000      -0.338180        -9.2023
 189   2.0000      -0.334681        -9.1071
 190   2.0000      -0.329814        -8.9747
 191   2.0000      -0.328774        -8.9464
 192   2.0000      -0.321527        -8.7492
 193   2.0000      -0.318647        -8.6708
 194   2.0000      -0.317680        -8.6445
 195   2.0000      -0.293393        -7.9836
 196   2.0000      -0.265132        -7.2146
 197   2.0000      -0.238132        -6.4799
 198   2.0000      -0.211698        -5.7606
 199   0.0000      -0.094439        -2.5698
 200   0.0000      -0.074438        -2.0256
 201   0.0000      -0.062902        -1.7117
 202   0.0000      -0.034481        -0.9383
 203   0.0000      -0.028354        -0.7715

MULLIKEN ATOMIC CHARGES
-----------------------
   0 C :   -0.002233
   1 C :    0.151002
   2 C :   -0.095556
   3 C :   -0.010304
   4 C :   -0.023710
   5 C :    0.016966
   6 N :   -0.013279
   7 C :    0.024098
   8 C :    0.020625
   9 N :   -0.015622
  10 C :    0.087176
  11 C :   -0.128565
  12 C :   -0.082128
  13 C :    0.150434
  14 O :   -0.177673
  15 N :   -0.116197
  16 C :    0.177502
  17 O :   -0.255178
  18 C :    0.244425
  19 O :   -0.145037
  20 C :   -0.152138
  21 S :    0.230848
  22 C :   -0.062835
  23 C :   -0.045223
  24 C :   -0.019951
  25 C :    0.202731
  26 O :   -0.094694
  27 C :   -0.026782
  28 C :   -0.093655
  29 S :    0.181727
  30 C :   -0.032970
  31 C :   -0.047401
  32 C :   -0.065259
  33 S :    0.160220
  34 C :   -0.138323
  35 C :    0.057075
  36 C :   -0.016053
  37 C :    0.054050
  38 C :   -0.007111
  39 C :   -0.102760
  40 C :    0.024800
  41 C :   -0.024792
  42 C :   -0.011761
  43 C :    0.034836
  44 C :    0.031308
  45 C :   -0.053010
  46 S :    0.074628
  47 C :   -0.063685
  48 C :    0.029795
  49 C :    0.052067
  50 C :   -0.065671
  51 S :    0.083413
  52 C :   -0.026588
  53 H :   -0.001197
  54 H :   -0.044554
  55 H :   -0.016385
  56 H :    0.013668
  57 H :    0.014105
  58 H :    0.132758
  59 H :    0.022647
  60 H :    0.004982
  61 H :   -0.007550
  62 H :   -0.007454
  63 H :    0.019571
  64 H :    0.011961
  65 H :   -0.014858
  66 H :   -0.011786
  67 H :   -0.013762
  68 H :   -0.011126
  69 H :   -0.009686
  70 H :    0.021593
  71 H :    0.023487
Sum of atomic charges:    0.0000000

LOEWDIN ATOMIC CHARGES
----------------------
   0 C :    0.008563
   1 C :   -0.033687
   2 C :   -0.008414
   3 C :   -0.014926
   4 C :   -0.008093
   5 C :   -0.005023
   6 N :   -0.038488
   7 C :    0.005084
   8 C :    0.001991
   9 N :   -0.041376
  10 C :    0.077311
  11 C :   -0.132860
  12 C :   -0.128335
  13 C :    0.073207
  14 O :   -0.192255
  15 N :    0.035122
  16 C :    0.089101
  17 O :   -0.059025
  18 C :    0.109112
  19 O :   -0.144432
  20 C :   -0.204351
  21 S :    0.498465
  22 C :   -0.160842
  23 C :   -0.102555
  24 C :    0.023262
  25 C :    0.091962
  26 O :   -0.100745
  27 C :   -0.080772
  28 C :   -0.195323
  29 S :    0.470052
  30 C :   -0.167403
  31 C :   -0.033630
  32 C :   -0.189182
  33 S :    0.451478
  34 C :   -0.177230
  35 C :   -0.035190
  36 C :   -0.059489
  37 C :   -0.069084
  38 C :   -0.016990
  39 C :   -0.052258
  40 C :   -0.001967
  41 C :   -0.067205
  42 C :   -0.135283
  43 C :   -0.037007
  44 C :   -0.026333
  45 C :   -0.182680
  46 S :    0.367175
  47 C :   -0.173640
  48 C :   -0.027035
  49 C :   -0.029108
  50 C :   -0.139623
  51 S :    0.354137
  52 C :   -0.072727
  53 H :    0.036461
  54 H :    0.028575
  55 H :    0.039920
  56 H :    0.026827
  57 H :    0.026663
  58 H :    0.088975
  59 H :    0.048413
  60 H :    0.037396
  61 H :    0.036531
  62 H :    0.027097
  63 H :    0.041472
  64 H :    0.029060
  65 H :    0.032652
  66 H :    0.033737
  67 H :    0.031639
  68 H :    0.032544
  69 H :    0.034008
  70 H :    0.029431
  71 H :    0.027143

  Mayer bond orders larger than 0.100000
B(  0-C ,  1-C ) :   1.2170 B(  0-C ,  5-C ) :   1.4843 B(  0-C , 53-H ) :   0.9737
B(  1-C ,  2-C ) :   1.3180 B(  1-C , 10-C ) :   1.0582 B(  2-C ,  3-C ) :   1.2464
B(  2-C , 54-H ) :   1.0104 B(  3-C ,  4-C ) :   1.2435 B(  3-C ,  9-N ) :   1.4334
B(  4-C ,  5-C ) :   1.2208 B(  4-C ,  6-N ) :   1.4364 B(  5-C , 55-H ) :   1.0083
B(  6-N ,  7-C ) :   1.6694 B(  7-C ,  8-C ) :   1.2255 B(  7-C , 56-H ) :   0.9740
B(  8-C ,  9-N ) :   1.6741 B(  8-C , 57-H ) :   0.9740 B( 10-C , 11-C ) :   1.3949
B( 10-C , 15-N ) :   1.2303 B( 11-C , 12-C ) :   1.1718 B( 11-C , 18-C ) :   0.9865
B( 12-C , 13-C ) :   0.9514 B( 12-C , 16-C ) :   1.4231 B( 13-C , 14-O ) :   2.1507
B( 13-C , 15-N ) :   1.0709 B( 15-N , 58-H ) :   0.9130 B( 16-C , 17-O ) :   1.1646
B( 16-C , 20-C ) :   1.2106 B( 17-O , 18-C ) :   1.0075 B( 18-C , 19-O ) :   2.1531
B( 20-C , 21-S ) :   1.0568 B( 20-C , 24-C ) :   1.4249 B( 21-S , 22-C ) :   1.1554
B( 22-C , 23-C ) :   1.4219 B( 22-C , 28-C ) :   1.1534 B( 23-C , 24-C ) :   1.3334
B( 23-C , 25-C ) :   0.8997 B( 24-C , 59-H ) :   0.9859 B( 25-C , 26-O ) :   2.3405
B( 25-C , 27-C ) :   0.9005 B( 27-C , 28-C ) :   1.4670 B( 27-C , 31-C ) :   1.3253
B( 28-C , 29-S ) :   1.1120 B( 29-S , 30-C ) :   1.1149 B( 30-C , 31-C ) :   1.4414
B( 30-C , 32-C ) :   1.1764 B( 31-C , 60-H ) :   0.9977 B( 32-C , 33-S ) :   1.1272
B( 32-C , 34-C ) :   0.1014 B( 32-C , 36-C ) :   1.4739 B( 33-S , 34-C ) :   1.1018
B( 34-C , 35-C ) :   1.4841 B( 34-C , 37-C ) :   0.9907 B( 35-C , 36-C ) :   1.2869
B( 35-C , 61-H ) :   1.0014 B( 36-C , 62-H ) :   0.9900 B( 37-C , 38-C ) :   2.2307
B( 38-C , 39-C ) :   1.0217 B( 39-C , 40-C ) :   1.6420 B( 39-C , 63-H ) :   0.9610
B( 40-C , 41-C ) :   1.1697 B( 40-C , 64-H ) :   0.9755 B( 41-C , 42-C ) :   1.5661
B( 41-C , 65-H ) :   0.9790 B( 42-C , 43-C ) :   1.1390 B( 42-C , 46-S ) :   1.0363
B( 43-C , 44-C ) :   1.6025 B( 43-C , 66-H ) :   0.9989 B( 44-C , 45-C ) :   1.1756
B( 44-C , 67-H ) :   0.9928 B( 45-C , 46-S ) :   1.0363 B( 45-C , 47-C ) :   1.5527
B( 47-C , 48-C ) :   1.1514 B( 47-C , 51-S ) :   1.0490 B( 48-C , 49-C ) :   1.6618
B( 48-C , 68-H ) :   0.9923 B( 49-C , 50-C ) :   1.0801 B( 49-C , 69-H ) :   0.9930
B( 50-C , 51-S ) :   1.0067 B( 50-C , 52-C ) :   1.8654 B( 52-C , 70-H ) :   0.9503
B( 52-C , 71-H ) :   0.9414

-----------------------------------------------------------------------------
         ABSORPTION SPECTRUM VIA TRANSITION ELECTRIC DIPOLE MOMENTS
-----------------------------------------------------------------------------
State   Energy  Wavelength   fosc         T2         TX        TY        TZ
        (cm-1)    (nm)                  (au**2)     (au)      (au)      (au)
-----------------------------------------------------------------------------
   0   13529.7    739.1   2.138172045  52.02707   4.50803  -3.40644  -4.48340
   1   17455.0    572.9   0.414778321   7.82299   0.14417  -2.63394  -0.92981
   2   19466.6    513.7   0.406579589   6.87592  -0.97566   1.76732   1.67350
   3   20668.6    483.8   0.491167969   7.82339  -1.78882   0.79319   1.99859
   4   23777.4    420.6   0.071068589   0.98399  -0.86468  -0.47927  -0.08126
   5   25231.1    396.3   0.065100796   0.84942   0.71203   0.57584   0.10415
   6   26078.0    383.5   0.120136973   1.51662   1.09033   0.21737  -0.52967
   7   26539.3    376.8   0.260043320   3.22576  -1.59956  -0.80021   0.16384
   8   27722.4    360.7   0.000016984   0.00020   0.01055   0.00816  -0.00488
   9   28783.9    347.4   0.019898743   0.22759   0.28242   0.37325   0.09228
  10   29884.9    334.6   0.120391549   1.32623  -1.09368  -0.16688   0.31978
  11   30454.5    328.4   0.004341734   0.04693  -0.09887   0.14591  -0.12597
  12   31347.5    319.0   0.042410169   0.44539   0.62064   0.07483  -0.23368
  13   31541.3    317.0   0.000440695   0.00460  -0.00124   0.03292  -0.05929
  14   31765.5    314.8   0.024839288   0.25743   0.46060   0.20192  -0.06713
  15   32277.7    309.8   0.046448173   0.47374   0.48575   0.45937   0.16360
  16   32999.3    303.0   0.011492839   0.11466   0.18612   0.23175   0.16219
  17   33574.1    297.8   0.027003890   0.26479   0.33671  -0.21766  -0.32255
  18   33766.1    296.2   0.021635885   0.21095   0.08448   0.36422   0.26674
  19   34428.0    290.5   0.049837613   0.47656  -0.10267   0.42569   0.53368
  20   34521.9    289.7   0.001827067   0.01742  -0.11271  -0.04844  -0.04872
  21   34591.9    289.1   0.000510255   0.00486  -0.01324   0.03060   0.06119
  22   35665.4    280.4   0.245720896   2.26815  -1.22304   0.16241   0.86368
  23   36367.5    275.0   0.096856052   0.87678   0.74989  -0.09480  -0.55268
  24   37074.7    269.7   0.010339431   0.09181   0.24640  -0.14582  -0.09917
  25   37332.5    267.9   0.023971716   0.21139  -0.36665   0.04223   0.27419
  26   37551.9    266.3   0.019556839   0.17145  -0.25027  -0.13462   0.30116
  27   37754.2    264.9   0.108249871   0.94393  -0.73838   0.28357   0.56419
  28   38254.7    261.4   0.020425202   0.17578   0.29107  -0.07508  -0.29226
  29   38753.2    258.0   0.011737180   0.09971  -0.22840  -0.20075  -0.08510
  30   38982.4    256.5   0.000017289   0.00015  -0.00190   0.00705  -0.00963
  31   39019.3    256.3   0.014658713   0.12368   0.00681  -0.32725  -0.12861
  32   39308.3    254.4   0.036832874   0.30848  -0.36935   0.26408   0.31988
  33   39606.4    252.5   0.147805195   1.22857   0.08396  -0.86631  -0.68632
  34   39847.2    251.0   0.136555085   1.12820  -0.52976  -0.80571  -0.44540
  35   40059.9    249.6   0.045320992   0.37245  -0.27902  -0.43718  -0.32167
  36   40101.7    249.4   0.001454004   0.01194  -0.06326   0.05115  -0.07293

FINAL SINGLE POINT ENERGY     -4026.645206586967

DIPOLE MOMENT
-------------
                                X             Y             Z
Electronic contribution:     27.35930     -19.41068     -19.54465
Nuclear contribution   :    -29.01942      20.79349      20.91182
                        -----------------------------------------
Total Dipole Moment    :     -1.66012       1.38281       1.36717
                        -----------------------------------------
Magnitude (a.u.)       :      2.55682
Magnitude (Debye)      :      6.49892

Rotational constants in cm-1:     0.005469     0.000220     0.000213
Rotational constants in MHz :   163.948217     6.601908     6.383864

                             ****ORCA TERMINATED NORMALLY****
TOTAL RUN TIME: 0 days 0 hours 4 minutes 58 seconds 113 msec
