                         Program Version 4.2.0 -  RELEASE  -
|  1> # ORCA input file
|  2> # SCF done       -181.118525164564          0.000818078110
|  3> ! CAM-B3LYP def2-SVP def2/J RIJCOSX Grid4 TightSCF
|  4> %maxcore 5000
|  5> %tddft
|  6>     Mode sTDDFT
|  7>     Ethresh 5.0
|  8>     maxcore 5000
|  9> end
| 10>
| 11> %pal
| 12>   nprocs 6
| 13>   end
| 14> * xyz 0 1
| 15>    C        0.08904        -8.74629         8.45468
| 16>    S       -1.18639        -8.89375         7.33232
| 17>    C       -0.09849        -8.86209         5.96888
| 18>    C        1.22550        -8.74732         6.41518
| 19>    C        1.32118        -8.67847         7.84168
| 20>    C        2.59281        -8.55501         8.45077
| 21>    C        3.72058        -8.51975         7.69055
| 22>    C        5.08338        -8.39261         8.29231
| 23>    C        3.61880        -8.61279         6.26291
| 24>    O        4.82085        -8.59379         5.62173
| 25>    C        4.84725        -8.75249         4.22651
| 26>    C        2.40179        -8.71432         5.64054
| 27>    C       -0.56881        -8.92889         4.64353
| 28>    C       -1.87613        -9.08962         4.29736
| 29>    C       -2.34878        -9.11130         2.97219
| 30>    S       -4.04356        -9.37876         2.66006
| 31>    C       -3.87151        -9.24043         0.93326
| 32>    C       -2.52927        -9.00240         0.62807
| 33>    C       -1.67601        -8.92827         1.75971
| 34>    N       -0.35416        -8.65964         1.60810
| 35>    C        0.08198        -8.50016         0.39323
| 36>    O        1.36391        -8.22232         0.14909
| 37>    C        2.20641        -8.04100         1.28008
| 38>    C        1.95898        -6.70349         1.96746
| 39>    C       -0.78912        -8.61562        -0.76667
| 40>    O       -0.21864        -8.48746        -1.95852
| 41>    C       -1.06603        -8.58765        -3.10118
| 42>    C       -1.79307        -7.28077        -3.38353
| 43>    N       -2.06256        -8.84692        -0.63212
| 44>    C       -4.91353        -9.29222        -0.00992
| 45>    S       -4.54192        -8.94499        -1.67058
| 46>    C       -6.22511        -9.11075        -2.12989
| 47>    C       -7.01467        -9.43428        -1.02582
| 48>    C       -6.27226        -9.55022         0.15459
| 49>    C       -6.89551        -9.93257         1.45816
| 50>    C       -8.19200       -10.70473         1.20664
| 51>    C       -7.97162       -12.08598         0.59884
| 52>    O       -8.71293       -12.54487        -0.23222
| 53>    C       -6.79369       -12.86504         1.12857
| 54>    C       -9.10287        -9.85255         0.32208
| 55>    C       -8.49253        -9.65436        -1.06629
| 56>    C       -6.52023        -8.89074        -3.48993
| 57>    C       -7.72667        -8.96655        -4.11994
| 58>    C       -7.89834        -8.70623        -5.49321
| 59>    S       -6.54694        -8.33284        -6.52032
| 60>    C       -7.53187        -8.20895        -7.94913
| 61>    C       -8.87722        -8.44959        -7.63535
| 62>    C       -9.08871        -8.71644        -6.24073
| 63>    C      -10.40895        -8.93330        -5.77184
| 64>    C      -10.73259        -9.12040        -4.41079
| 65>    N      -11.08905        -9.24930        -3.32711
| 66>    C      -11.46988        -8.92734        -6.66215
| 67>    C      -11.26199        -8.69860        -8.01969
| 68>    C       -9.99274        -8.45211        -8.51426
| 69>    C       -9.89438        -8.21410        -9.90120
| 70>    N       -9.90877        -8.03112       -11.03506
| 71>    C       -6.96131        -7.89758        -9.20059
| 72>    C       -5.64015        -7.65065        -9.39979
| 73>    C       -5.06331        -7.33372       -10.65383
| 74>    S       -3.35030        -7.01998       -10.75235
| 75>    C       -3.45807        -6.74228       -12.46907
| 76>    C       -4.75631        -6.89127       -12.91281
| 77>    C       -5.65335        -7.22079       -11.90020
| 78>    C       -2.33543        -6.41881       -13.21648
| 79>    C       -1.34084        -6.13988       -13.85118
| 80>    C       -0.19776        -5.81507       -14.59366
| 81>    C       -0.19864        -5.64947       -15.91550
| 82>    H       -0.12639        -8.71834         9.50419
| 83>    H        2.65297        -8.49252         9.52702
| 84>    H        5.02222        -8.32045         9.37459
| 85>    H        5.58359        -7.50828         7.90096
| 86>    H        5.69253        -9.25429         8.02371
| 87>    H        5.90070        -8.76099         3.95039
| 88>    H        4.34776        -7.92341         3.71489
| 89>    H        4.38441        -9.69629         3.91985
| 90>    H        2.32027        -8.77612         4.56781
| 91>    H        0.16063        -8.83783         3.85301
| 92>    H       -2.62107        -9.20426         5.07498
| 93>    H        3.22080        -8.09132         0.87716
| 94>    H        2.04534        -8.86881         1.98003
| 95>    H        2.06556        -5.89336         1.25028
| 96>    H        2.67596        -6.55786         2.77088
| 97>    H        0.95563        -6.67767         2.38466
| 98>    H       -1.79049        -9.39260        -2.94319
| 99>    H       -0.39089        -8.84282        -3.92111
|100>    H       -2.47093        -7.05001        -2.56651
|101>    H       -2.36861        -7.37815        -4.29915
|102>    H       -1.07802        -6.46955        -3.49649
|103>    H       -7.12387        -9.02805         2.03155
|104>    H       -6.19598       -10.51546         2.05766
|105>    H       -8.68645       -10.88530         2.16985
|106>    H       -5.87830       -12.45886         0.70140
|107>    H       -6.88384       -13.90563         0.82676
|108>    H       -6.73143       -12.79717         2.21140
|109>    H       -9.25397        -8.88542         0.80521
|110>    H      -10.07394       -10.33383         0.20894
|111>    H       -8.98419        -8.80725        -1.54920
|112>    H       -8.69674       -10.54171        -1.67208
|113>    H       -5.66012        -8.62210        -4.09414
|114>    H       -8.61092        -9.24381        -3.57576
|115>    H      -12.47058        -9.09649        -6.29399
|116>    H      -12.10204        -8.70245        -8.69806
|117>    H       -7.63747        -7.85295       -10.03929
|118>    H       -4.96411        -7.69101        -8.55476
|119>    H       -5.02895        -6.76082       -13.94502
|120>    H       -6.70410        -7.37452       -12.06741
|121>    H        0.71316        -5.70420       -14.01694
|122>    H       -1.09944        -5.75847       -16.49621
|123>    H        0.70095        -5.40126       -16.45140
|124> *
|125>
|126>                          ****END OF INPUT****

CARTESIAN COORDINATES (ANGSTROEM)
---------------------------------
  C      0.089040   -8.746290    8.454680
  S     -1.186390   -8.893750    7.332320
  C     -0.098490   -8.862090    5.968880
  C      1.225500   -8.747320    6.415180
  C      1.321180   -8.678470    7.841680
  C      2.592810   -8.555010    8.450770
  C      3.720580   -8.519750    7.690550
  C      5.083380   -8.392610    8.292310
  C      3.618800   -8.612790    6.262910
  O      4.820850   -8.593790    5.621730
  C      4.847250   -8.752490    4.226510
  C      2.401790   -8.714320    5.640540
  C     -0.568810   -8.928890    4.643530
  C     -1.876130   -9.089620    4.297360
  C     -2.348780   -9.111300    2.972190
  S     -4.043560   -9.378760    2.660060
  C     -3.871510   -9.240430    0.933260
  C     -2.529270   -9.002400    0.628070
  C     -1.676010   -8.928270    1.759710
  N     -0.354160   -8.659640    1.608100
  C      0.081980   -8.500160    0.393230
  O      1.363910   -8.222320    0.149090
  C      2.206410   -8.041000    1.280080
  C      1.958980   -6.703490    1.967460
  C     -0.789120   -8.615620   -0.766670
  O     -0.218640   -8.487460   -1.958520
  C     -1.066030   -8.587650   -3.101180
  C     -1.793070   -7.280770   -3.383530
  N     -2.062560   -8.846920   -0.632120
  C     -4.913530   -9.292220   -0.009920
  S     -4.541920   -8.944990   -1.670580
  C     -6.225110   -9.110750   -2.129890
  C     -7.014670   -9.434280   -1.025820
  C     -6.272260   -9.550220    0.154590
  C     -6.895510   -9.932570    1.458160
  C     -8.192000  -10.704730    1.206640
  C     -7.971620  -12.085980    0.598840
  O     -8.712930  -12.544870   -0.232220
  C     -6.793690  -12.865040    1.128570
  C     -9.102870   -9.852550    0.322080
  C     -8.492530   -9.654360   -1.066290
  C     -6.520230   -8.890740   -3.489930
  C     -7.726670   -8.966550   -4.119940
  C     -7.898340   -8.706230   -5.493210
  S     -6.546940   -8.332840   -6.520320
  C     -7.531870   -8.208950   -7.949130
  C     -8.877220   -8.449590   -7.635350
  C     -9.088710   -8.716440   -6.240730
  C    -10.408950   -8.933300   -5.771840
  C    -10.732590   -9.120400   -4.410790
  N    -11.089050   -9.249300   -3.327110
  C    -11.469880   -8.927340   -6.662150
  C    -11.261990   -8.698600   -8.019690
  C     -9.992740   -8.452110   -8.514260
  C     -9.894380   -8.214100   -9.901200
  N     -9.908770   -8.031120  -11.035060
  C     -6.961310   -7.897580   -9.200590
  C     -5.640150   -7.650650   -9.399790
  C     -5.063310   -7.333720  -10.653830
  S     -3.350300   -7.019980  -10.752350
  C     -3.458070   -6.742280  -12.469070
  C     -4.756310   -6.891270  -12.912810
  C     -5.653350   -7.220790  -11.900200
  C     -2.335430   -6.418810  -13.216480
  C     -1.340840   -6.139880  -13.851180
  C     -0.197760   -5.815070  -14.593660
  C     -0.198640   -5.649470  -15.915500
  H     -0.126390   -8.718340    9.504190
  H      2.652970   -8.492520    9.527020
  H      5.022220   -8.320450    9.374590
  H      5.583590   -7.508280    7.900960
  H      5.692530   -9.254290    8.023710
  H      5.900700   -8.760990    3.950390
  H      4.347760   -7.923410    3.714890
  H      4.384410   -9.696290    3.919850
  H      2.320270   -8.776120    4.567810
  H      0.160630   -8.837830    3.853010
  H     -2.621070   -9.204260    5.074980
  H      3.220800   -8.091320    0.877160
  H      2.045340   -8.868810    1.980030
  H      2.065560   -5.893360    1.250280
  H      2.675960   -6.557860    2.770880
  H      0.955630   -6.677670    2.384660
  H     -1.790490   -9.392600   -2.943190
  H     -0.390890   -8.842820   -3.921110
  H     -2.470930   -7.050010   -2.566510
  H     -2.368610   -7.378150   -4.299150
  H     -1.078020   -6.469550   -3.496490
  H     -7.123870   -9.028050    2.031550
  H     -6.195980  -10.515460    2.057660
  H     -8.686450  -10.885300    2.169850
  H     -5.878300  -12.458860    0.701400
  H     -6.883840  -13.905630    0.826760
  H     -6.731430  -12.797170    2.211400
  H     -9.253970   -8.885420    0.805210
  H    -10.073940  -10.333830    0.208940
  H     -8.984190   -8.807250   -1.549200
  H     -8.696740  -10.541710   -1.672080
  H     -5.660120   -8.622100   -4.094140
  H     -8.610920   -9.243810   -3.575760
  H    -12.470580   -9.096490   -6.293990
  H    -12.102040   -8.702450   -8.698060
  H     -7.637470   -7.852950  -10.039290
  H     -4.964110   -7.691010   -8.554760
  H     -5.028950   -6.760820  -13.945020
  H     -6.704100   -7.374520  -12.067410
  H      0.713160   -5.704200  -14.016940
  H     -1.099440   -5.758470  -16.496210
  H      0.700950   -5.401260  -16.451400

 Total Charge           Charge          ....    0
 Multiplicity           Mult            ....    1
 Number of Electrons    NEL             ....  506
 Basis Dimension        Dim             .... 1168

ORBITAL ENERGIES
----------------

  NO   OCC          E(Eh)            E(eV)
   0   2.0000     -88.968351     -2420.9519
   1   2.0000     -88.963932     -2420.8317
   2   2.0000     -88.954772     -2420.5824
   3   2.0000     -88.950536     -2420.4671
   4   2.0000     -88.942934     -2420.2603
   5   2.0000     -19.262775      -524.1668
   6   2.0000     -19.262485      -524.1589
   7   2.0000     -19.249179      -523.7968
   8   2.0000     -19.196743      -522.3699
   9   2.0000     -14.421382      -392.4258
  10   2.0000     -14.420896      -392.4125
  11   2.0000     -14.414098      -392.2275
  12   2.0000     -14.413671      -392.2159
  13   2.0000     -10.385824      -282.6126
  14   2.0000     -10.383650      -282.5535
  15   2.0000     -10.346554      -281.5441
  16   2.0000     -10.330655      -281.1114
  17   2.0000     -10.329971      -281.0928
  18   2.0000     -10.328101      -281.0419
  19   2.0000     -10.327264      -281.0191
  20   2.0000     -10.326647      -281.0023
  21   2.0000     -10.323125      -280.9065
  22   2.0000     -10.315404      -280.6964
  23   2.0000     -10.313833      -280.6537
  24   2.0000     -10.313763      -280.6518
  25   2.0000     -10.310454      -280.5617
  26   2.0000     -10.307795      -280.4894
  27   2.0000     -10.306500      -280.4541
  28   2.0000     -10.305157      -280.4176
  29   2.0000     -10.304380      -280.3964
  30   2.0000     -10.304326      -280.3950
  31   2.0000     -10.303170      -280.3635
  32   2.0000     -10.302990      -280.3586
  33   2.0000     -10.302299      -280.3398
  34   2.0000     -10.301681      -280.3230
  35   2.0000     -10.301533      -280.3190
  36   2.0000     -10.297729      -280.2154
  37   2.0000     -10.289515      -279.9919
  38   2.0000     -10.289329      -279.9869
  39   2.0000     -10.285038      -279.8701
  40   2.0000     -10.284775      -279.8630
  41   2.0000     -10.283987      -279.8415
  42   2.0000     -10.282493      -279.8008
  43   2.0000     -10.280417      -279.7444
  44   2.0000     -10.274907      -279.5944
  45   2.0000     -10.274630      -279.5869
  46   2.0000     -10.274414      -279.5810
  47   2.0000     -10.274103      -279.5725
  48   2.0000     -10.273488      -279.5558
  49   2.0000     -10.273358      -279.5523
  50   2.0000     -10.271598      -279.5044
  51   2.0000     -10.271491      -279.5015
  52   2.0000     -10.271489      -279.5014
  53   2.0000     -10.270805      -279.4828
  54   2.0000     -10.270663      -279.4789
  55   2.0000     -10.268312      -279.4150
  56   2.0000     -10.268221      -279.4125
  57   2.0000     -10.267031      -279.3801
  58   2.0000     -10.266494      -279.3655
  59   2.0000     -10.264881      -279.3216
  60   2.0000     -10.264226      -279.3038
  61   2.0000     -10.263741      -279.2906
  62   2.0000     -10.259906      -279.1862
  63   2.0000     -10.258823      -279.1568
  64   2.0000     -10.256979      -279.1066
  65   2.0000     -10.253449      -279.0105
  66   2.0000     -10.253364      -279.0082
  67   2.0000      -8.063331      -219.4144
  68   2.0000      -8.058042      -219.2705
  69   2.0000      -8.049991      -219.0514
  70   2.0000      -8.046281      -218.9504
  71   2.0000      -8.036934      -218.6961
  72   2.0000      -6.032262      -164.1462
  73   2.0000      -6.028370      -164.0403
  74   2.0000      -6.027314      -164.0115
  75   2.0000      -6.026009      -163.9761
  76   2.0000      -6.023229      -163.9004
  77   2.0000      -6.020409      -163.8236
  78   2.0000      -6.018954      -163.7841
  79   2.0000      -6.015517      -163.6905
  80   2.0000      -6.014813      -163.6714
  81   2.0000      -6.012947      -163.6206
  82   2.0000      -6.011488      -163.5809
  83   2.0000      -6.008377      -163.4963
  84   2.0000      -6.006388      -163.4421
  85   2.0000      -6.002111      -163.3257
  86   2.0000      -5.998956      -163.2399
  87   2.0000      -1.191466       -32.4214
  88   2.0000      -1.168127       -31.7864
  89   2.0000      -1.152418       -31.3589
  90   2.0000      -1.116066       -30.3697
  91   2.0000      -1.070823       -29.1386
  92   2.0000      -1.017850       -27.6971
  93   2.0000      -1.002533       -27.2803
  94   2.0000      -1.000294       -27.2194
  95   2.0000      -0.993140       -27.0247
  96   2.0000      -0.986551       -26.8454
  97   2.0000      -0.984269       -26.7833
  98   2.0000      -0.978051       -26.6141
  99   2.0000      -0.966767       -26.3071
 100   2.0000      -0.954552       -25.9747
 101   2.0000      -0.927050       -25.2263
 102   2.0000      -0.921125       -25.0651
 103   2.0000      -0.914803       -24.8931
 104   2.0000      -0.897137       -24.4123
 105   2.0000      -0.894164       -24.3314
 106   2.0000      -0.886140       -24.1131
 107   2.0000      -0.882468       -24.0132
 108   2.0000      -0.880035       -23.9470
 109   2.0000      -0.862954       -23.4822
 110   2.0000      -0.856801       -23.3147
 111   2.0000      -0.851509       -23.1707
 112   2.0000      -0.850118       -23.1329
 113   2.0000      -0.842139       -22.9158
 114   2.0000      -0.841041       -22.8859
 115   2.0000      -0.831769       -22.6336
 116   2.0000      -0.828412       -22.5422
 117   2.0000      -0.825570       -22.4649
 118   2.0000      -0.819553       -22.3012
 119   2.0000      -0.811690       -22.0872
 120   2.0000      -0.806688       -21.9511
 121   2.0000      -0.797840       -21.7103
 122   2.0000      -0.785317       -21.3696
 123   2.0000      -0.777447       -21.1554
 124   2.0000      -0.773471       -21.0472
 125   2.0000      -0.772568       -21.0226
 126   2.0000      -0.765070       -20.8186
 127   2.0000      -0.753807       -20.5121
 128   2.0000      -0.741678       -20.1821
 129   2.0000      -0.730013       -19.8647
 130   2.0000      -0.721331       -19.6284
 131   2.0000      -0.713155       -19.4059
 132   2.0000      -0.711357       -19.3570
 133   2.0000      -0.697466       -18.9790
 134   2.0000      -0.694116       -18.8879
 135   2.0000      -0.688165       -18.7259
 136   2.0000      -0.685149       -18.6439
 137   2.0000      -0.684193       -18.6178
 138   2.0000      -0.674158       -18.3448
 139   2.0000      -0.667359       -18.1598
 140   2.0000      -0.660072       -17.9615
 141   2.0000      -0.656915       -17.8756
 142   2.0000      -0.650465       -17.7001
 143   2.0000      -0.644871       -17.5478
 144   2.0000      -0.637314       -17.3422
 145   2.0000      -0.630892       -17.1675
 146   2.0000      -0.626427       -17.0459
 147   2.0000      -0.619012       -16.8442
 148   2.0000      -0.612295       -16.6614
 149   2.0000      -0.608905       -16.5691
 150   2.0000      -0.601748       -16.3744
 151   2.0000      -0.599211       -16.3054
 152   2.0000      -0.594985       -16.1904
 153   2.0000      -0.592239       -16.1156
 154   2.0000      -0.587845       -15.9961
 155   2.0000      -0.583285       -15.8720
 156   2.0000      -0.573333       -15.6012
 157   2.0000      -0.572826       -15.5874
 158   2.0000      -0.571457       -15.5501
 159   2.0000      -0.565112       -15.3775
 160   2.0000      -0.560023       -15.2390
 161   2.0000      -0.557381       -15.1671
 162   2.0000      -0.555236       -15.1087
 163   2.0000      -0.551959       -15.0196
 164   2.0000      -0.549874       -14.9628
 165   2.0000      -0.545756       -14.8508
 166   2.0000      -0.540603       -14.7105
 167   2.0000      -0.534109       -14.5338
 168   2.0000      -0.531543       -14.4640
 169   2.0000      -0.530363       -14.4319
 170   2.0000      -0.526634       -14.3304
 171   2.0000      -0.525100       -14.2887
 172   2.0000      -0.524192       -14.2640
 173   2.0000      -0.521930       -14.2024
 174   2.0000      -0.519777       -14.1439
 175   2.0000      -0.518736       -14.1155
 176   2.0000      -0.515299       -14.0220
 177   2.0000      -0.505514       -13.7557
 178   2.0000      -0.502627       -13.6772
 179   2.0000      -0.499962       -13.6047
 180   2.0000      -0.499514       -13.5925
 181   2.0000      -0.496724       -13.5166
 182   2.0000      -0.494751       -13.4629
 183   2.0000      -0.493913       -13.4401
 184   2.0000      -0.487209       -13.2576
 185   2.0000      -0.485495       -13.2110
 186   2.0000      -0.484648       -13.1879
 187   2.0000      -0.481068       -13.0905
 188   2.0000      -0.480394       -13.0722
 189   2.0000      -0.479332       -13.0433
 190   2.0000      -0.477427       -12.9914
 191   2.0000      -0.475835       -12.9481
 192   2.0000      -0.473321       -12.8797
 193   2.0000      -0.470340       -12.7986
 194   2.0000      -0.468817       -12.7572
 195   2.0000      -0.467395       -12.7185
 196   2.0000      -0.465757       -12.6739
 197   2.0000      -0.465030       -12.6541
 198   2.0000      -0.462552       -12.5867
 199   2.0000      -0.460850       -12.5404
 200   2.0000      -0.460023       -12.5179
 201   2.0000      -0.457755       -12.4562
 202   2.0000      -0.456853       -12.4316
 203   2.0000      -0.454384       -12.3644
 204   2.0000      -0.449691       -12.2367
 205   2.0000      -0.447132       -12.1671
 206   2.0000      -0.446935       -12.1617
 207   2.0000      -0.445225       -12.1152
 208   2.0000      -0.443352       -12.0642
 209   2.0000      -0.439887       -11.9699
 210   2.0000      -0.439486       -11.9590
 211   2.0000      -0.436278       -11.8717
 212   2.0000      -0.430789       -11.7224
 213   2.0000      -0.429952       -11.6996
 214   2.0000      -0.428868       -11.6701
 215   2.0000      -0.424897       -11.5620
 216   2.0000      -0.424058       -11.5392
 217   2.0000      -0.423469       -11.5232
 218   2.0000      -0.418169       -11.3790
 219   2.0000      -0.416406       -11.3310
 220   2.0000      -0.414254       -11.2724
 221   2.0000      -0.411647       -11.2015
 222   2.0000      -0.409564       -11.1448
 223   2.0000      -0.408443       -11.1143
 224   2.0000      -0.407790       -11.0965
 225   2.0000      -0.405993       -11.0476
 226   2.0000      -0.405179       -11.0255
 227   2.0000      -0.401813       -10.9339
 228   2.0000      -0.400839       -10.9074
 229   2.0000      -0.399674       -10.8757
 230   2.0000      -0.391624       -10.6566
 231   2.0000      -0.387581       -10.5466
 232   2.0000      -0.381781       -10.3888
 233   2.0000      -0.380701       -10.3594
 234   2.0000      -0.372647       -10.1403
 235   2.0000      -0.371346       -10.1048
 236   2.0000      -0.366278        -9.9669
 237   2.0000      -0.355221        -9.6661
 238   2.0000      -0.338382        -9.2079
 239   2.0000      -0.335316        -9.1244
 240   2.0000      -0.333362        -9.0712
 241   2.0000      -0.332130        -9.0377
 242   2.0000      -0.326438        -8.8828
 243   2.0000      -0.318855        -8.6765
 244   2.0000      -0.311934        -8.4882
 245   2.0000      -0.307516        -8.3679
 246   2.0000      -0.300283        -8.1711
 247   2.0000      -0.292102        -7.9485
 248   2.0000      -0.286917        -7.8074
 249   2.0000      -0.278865        -7.5883
 250   2.0000      -0.257235        -6.9997
 251   2.0000      -0.227383        -6.1874
 252   2.0000      -0.201133        -5.4731
 253   0.0000      -0.088316        -2.4032
 254   0.0000      -0.061699        -1.6789
 255   0.0000      -0.039582        -1.0771
 256   0.0000      -0.023182        -0.6308
 257   0.0000      -0.014094        -0.3835

MULLIKEN ATOMIC CHARGES
-----------------------
   0 C :   -0.123399
   1 S :    0.127710
   2 C :   -0.124174
   3 C :    0.144065
   4 C :    0.108126
   5 C :   -0.070146
   6 C :   -0.094279
   7 C :    0.129976
   8 C :    0.223503
   9 O :   -0.313400
  10 C :    0.190371
  11 C :   -0.151502
  12 C :   -0.005364
  13 C :    0.006380
  14 C :   -0.145134
  15 S :    0.125581
  16 C :   -0.156370
  17 C :    0.033949
  18 C :    0.055281
  19 N :   -0.044132
  20 C :    0.085600
  21 O :   -0.270758
  22 C :    0.180395
  23 C :   -0.036084
  24 C :    0.089755
  25 O :   -0.266304
  26 C :    0.177741
  27 C :   -0.027153
  28 N :   -0.061759
  29 C :   -0.096416
  30 S :    0.130191
  31 C :   -0.105962
  32 C :   -0.071996
  33 C :   -0.151860
  34 C :    0.152450
  35 C :   -0.107227
  36 C :   -0.017291
  37 O :   -0.177405
  38 C :    0.061090
  39 C :    0.122496
  40 C :    0.079828
  41 C :    0.049156
  42 C :   -0.045250
  43 C :   -0.102570
  44 S :    0.124749
  45 C :   -0.118924
  46 C :    0.160867
  47 C :    0.153286
  48 C :   -0.088717
  49 C :   -0.168469
  50 N :    0.103892
  51 C :    0.007852
  52 C :    0.019178
  53 C :   -0.095512
  54 C :   -0.177020
  55 N :    0.101211
  56 C :   -0.017401
  57 C :    0.056931
  58 C :   -0.082434
  59 S :    0.146571
  60 C :   -0.154610
  61 C :    0.063521
  62 C :   -0.005057
  63 C :    0.084934
  64 C :   -0.074990
  65 C :   -0.086820
  66 C :   -0.002449
  67 H :    0.013307
  68 H :   -0.041604
  69 H :    0.001212
  70 H :    0.024085
  71 H :    0.024668
  72 H :    0.036587
  73 H :    0.008926
  74 H :    0.024035
  75 H :   -0.073059
  76 H :   -0.008888
  77 H :   -0.028933
  78 H :    0.021515
  79 H :    0.024446
  80 H :    0.027085
  81 H :    0.023772
  82 H :    0.043517
  83 H :    0.028717
  84 H :    0.024191
  85 H :    0.036988
  86 H :    0.020187
  87 H :    0.025351
  88 H :    0.018338
  89 H :    0.014545
  90 H :    0.020167
  91 H :    0.047017
  92 H :    0.029493
  93 H :    0.030343
  94 H :   -0.005457
  95 H :    0.015168
  96 H :    0.035275
  97 H :    0.051967
  98 H :   -0.024202
  99 H :   -0.018064
 100 H :    0.002833
 101 H :    0.004773
 102 H :    0.000614
 103 H :   -0.016916
 104 H :   -0.011488
 105 H :    0.003364
 106 H :    0.029366
 107 H :    0.029973
 108 H :    0.028484
Sum of atomic charges:    0.0000000

LOEWDIN ATOMIC CHARGES
----------------------
   0 C :   -0.190964
   1 S :    0.462817
   2 C :   -0.192404
   3 C :   -0.034184
   4 C :   -0.060176
   5 C :   -0.017853
   6 C :   -0.037656
   7 C :   -0.041602
   8 C :    0.060177
   9 O :   -0.097230
  10 C :    0.075220
  11 C :   -0.087591
  12 C :   -0.026266
  13 C :   -0.068794
  14 C :   -0.177195
  15 S :    0.467440
  16 C :   -0.213756
  17 C :   -0.053339
  18 C :   -0.055687
  19 N :   -0.087368
  20 C :    0.047849
  21 O :   -0.068101
  22 C :    0.082912
  23 C :   -0.071793
  24 C :    0.050827
  25 O :   -0.063269
  26 C :    0.086833
  27 C :   -0.070157
  28 N :   -0.103546
  29 C :   -0.175853
  30 S :    0.465403
  31 C :   -0.185521
  32 C :   -0.038637
  33 C :   -0.072414
  34 C :   -0.029630
  35 C :   -0.059846
  36 C :    0.090004
  37 O :   -0.138201
  38 C :   -0.079057
  39 C :   -0.013883
  40 C :   -0.030741
  41 C :   -0.030222
  42 C :   -0.066989
  43 C :   -0.151401
  44 S :    0.478052
  45 C :   -0.172579
  46 C :   -0.032014
  47 C :   -0.039623
  48 C :   -0.042242
  49 C :   -0.020009
  50 N :   -0.051203
  51 C :    0.003396
  52 C :    0.012126
  53 C :   -0.049463
  54 C :   -0.021098
  55 N :   -0.058987
  56 C :   -0.041128
  57 C :   -0.048631
  58 C :   -0.166006
  59 S :    0.440849
  60 C :   -0.191262
  61 C :   -0.030255
  62 C :   -0.053480
  63 C :   -0.058891
  64 C :   -0.030298
  65 C :   -0.042856
  66 C :   -0.018937
  67 H :    0.022241
  68 H :    0.027281
  69 H :    0.026390
  70 H :    0.035381
  71 H :    0.035655
  72 H :    0.029500
  73 H :    0.011668
  74 H :    0.016333
  75 H :    0.022492
  76 H :    0.031096
  77 H :    0.017614
  78 H :    0.023610
  79 H :    0.013857
  80 H :    0.030213
  81 H :    0.028354
  82 H :    0.030816
  83 H :    0.016583
  84 H :    0.024620
  85 H :    0.023193
  86 H :    0.031383
  87 H :    0.027834
  88 H :    0.035013
  89 H :    0.012237
  90 H :    0.041772
  91 H :    0.048768
  92 H :    0.038159
  93 H :    0.035757
  94 H :    0.021967
  95 H :    0.033900
  96 H :    0.036161
  97 H :    0.040123
  98 H :    0.015385
  99 H :    0.037010
 100 H :    0.043858
 101 H :    0.044536
 102 H :    0.038800
 103 H :    0.017879
 104 H :    0.035348
 105 H :    0.035124
 106 H :    0.043433
 107 H :    0.028696
 108 H :    0.026345

  Mayer bond orders larger than 0.100000
B(  0-C ,  1-S ) :   1.1935 B(  0-C ,  2-C ) :   0.1014 B(  0-C ,  4-C ) :   1.4262
B(  0-C , 67-H ) :   0.9687 B(  1-S ,  2-C ) :   1.1259 B(  2-C ,  3-C ) :   1.3414
B(  2-C , 12-C ) :   1.1899 B(  3-C ,  4-C ) :   1.2006 B(  3-C , 11-C ) :   1.1736
B(  4-C ,  5-C ) :   1.1259 B(  5-C ,  6-C ) :   1.6045 B(  5-C , 68-H ) :   1.0049
B(  6-C ,  7-C ) :   1.0695 B(  6-C ,  8-C ) :   1.1910 B(  7-C , 69-H ) :   0.9525
B(  7-C , 70-H ) :   0.9480 B(  7-C , 71-H ) :   0.9478 B(  8-C ,  9-O ) :   1.1730
B(  8-C , 11-C ) :   1.4654 B(  9-O , 10-C ) :   0.9676 B( 10-C , 72-H ) :   0.9745
B( 10-C , 73-H ) :   0.9707 B( 10-C , 74-H ) :   0.9652 B( 11-C , 75-H ) :   0.9911
B( 12-C , 13-C ) :   1.6234 B( 12-C , 76-H ) :   0.9581 B( 13-C , 14-C ) :   1.1822
B( 13-C , 77-H ) :   0.9455 B( 14-C , 15-S ) :   1.1190 B( 14-C , 16-C ) :   0.1226
B( 14-C , 18-C ) :   1.3461 B( 15-S , 16-C ) :   1.1148 B( 16-C , 17-C ) :   1.3655
B( 16-C , 29-C ) :   1.2197 B( 17-C , 18-C ) :   1.2509 B( 17-C , 28-N ) :   1.3237
B( 18-C , 19-N ) :   1.3299 B( 19-N , 20-C ) :   1.6565 B( 20-C , 21-O ) :   1.2567
B( 20-C , 24-C ) :   1.0575 B( 21-O , 22-C ) :   0.9207 B( 22-C , 23-C ) :   1.1151
B( 22-C , 78-H ) :   0.9553 B( 22-C , 79-H ) :   0.9475 B( 23-C , 80-H ) :   0.9604
B( 23-C , 81-H ) :   0.9621 B( 23-C , 82-H ) :   0.9622 B( 24-C , 25-O ) :   1.2834
B( 24-C , 28-N ) :   1.6482 B( 25-O , 26-C ) :   0.9056 B( 26-C , 27-C ) :   1.1207
B( 26-C , 83-H ) :   0.9425 B( 26-C , 84-H ) :   0.9594 B( 27-C , 85-H ) :   0.9631
B( 27-C , 86-H ) :   0.9642 B( 27-C , 87-H ) :   0.9642 B( 29-C , 30-S ) :   1.1489
B( 29-C , 33-C ) :   1.4344 B( 30-S , 31-C ) :   1.0598 B( 31-C , 32-C ) :   1.4478
B( 31-C , 41-C ) :   1.1882 B( 32-C , 33-C ) :   1.3572 B( 32-C , 40-C ) :   1.0685
B( 33-C , 34-C ) :   1.0529 B( 34-C , 35-C ) :   1.0499 B( 34-C , 88-H ) :   0.8950
B( 34-C , 89-H ) :   0.8950 B( 35-C , 36-C ) :   0.8966 B( 35-C , 39-C ) :   1.0549
B( 35-C , 90-H ) :   0.8866 B( 36-C , 37-O ) :   2.1940 B( 36-C , 38-C ) :   1.0468
B( 38-C , 91-H ) :   0.9363 B( 38-C , 92-H ) :   0.9466 B( 38-C , 93-H ) :   0.9499
B( 39-C , 40-C ) :   1.0791 B( 39-C , 94-H ) :   0.9378 B( 39-C , 95-H ) :   0.9166
B( 40-C , 96-H ) :   0.8995 B( 40-C , 97-H ) :   0.8905 B( 41-C , 42-C ) :   1.5820
B( 41-C , 98-H ) :   0.9426 B( 42-C , 43-C ) :   1.2150 B( 42-C , 99-H ) :   0.9446
B( 43-C , 44-S ) :   1.1291 B( 43-C , 47-C ) :   1.3261 B( 44-S , 45-C ) :   1.1072
B( 45-C , 46-C ) :   1.3489 B( 45-C , 56-C ) :   1.2049 B( 46-C , 47-C ) :   1.1643
B( 46-C , 53-C ) :   1.2071 B( 47-C , 48-C ) :   1.2171 B( 48-C , 49-C ) :   1.0887
B( 48-C , 51-C ) :   1.5207 B( 49-C , 50-N ) :   2.9721 B( 51-C , 52-C ) :   1.2049
B( 51-C ,100-H ) :   0.9948 B( 52-C , 53-C ) :   1.5267 B( 52-C ,101-H ) :   0.9940
B( 53-C , 54-C ) :   1.0874 B( 54-C , 55-N ) :   2.9835 B( 56-C , 57-C ) :   1.6412
B( 56-C ,102-H ) :   0.9577 B( 57-C , 58-C ) :   1.1291 B( 57-C ,103-H ) :   0.9605
B( 58-C , 59-S ) :   1.1183 B( 58-C , 60-C ) :   0.1020 B( 58-C , 62-C ) :   1.4823
B( 59-S , 60-C ) :   1.1098 B( 60-C , 61-C ) :   1.4914 B( 60-C , 63-C ) :   0.9694
B( 61-C , 62-C ) :   1.2850 B( 61-C ,104-H ) :   1.0010 B( 62-C ,105-H ) :   0.9894
B( 63-C , 64-C ) :   2.3480 B( 64-C , 65-C ) :   1.0218 B( 65-C , 66-C ) :   1.9312
B( 65-C ,106-H ) :   0.9579 B( 66-C ,107-H ) :   0.9638 B( 66-C ,108-H ) :   0.9552

-----------------------------------------------------------------------------
         ABSORPTION SPECTRUM VIA TRANSITION ELECTRIC DIPOLE MOMENTS
-----------------------------------------------------------------------------
State   Energy  Wavelength   fosc         T2         TX        TY        TZ
        (cm-1)    (nm)                  (au**2)     (au)      (au)      (au)
-----------------------------------------------------------------------------
   0   10952.0    913.1   1.121254350  33.70429   1.53260  -0.62629   5.56446
   1   15995.7    625.2   0.721965451  14.85896  -2.84966  -0.27571  -2.58116
   2   18239.2    548.3   0.085534872   1.54388  -0.89597  -0.28335   0.81292
   3   21072.3    474.6   0.333501754   5.21030   1.29831   0.68989  -1.74606
   4   23105.2    432.8   0.280546137   3.99734  -1.74770  -0.37641   0.89510
   5   24316.1    411.3   0.260423068   3.52583   0.86148   0.09396   1.66579
   6   24657.1    405.6   0.115985871   1.54860  -0.83529  -0.18704   0.90328
   7   26916.7    371.5   0.626255171   7.65959  -2.74242  -0.37122   0.03025
   8   28097.2    355.9   0.050818233   0.59543   0.30339   0.13225  -0.69706
   9   28993.0    344.9   0.084192116   0.95599  -0.54701  -0.23000   0.77709
  10   30827.8    324.4   0.004371838   0.04669   0.20200   0.05983  -0.04802
  11   31002.8    322.6   0.197502401   2.09723  -1.27485  -0.28325   0.62591
  12   31026.0    322.3   0.004667985   0.04953   0.21583   0.01259  -0.05281
  13   31915.5    313.3   0.113704573   1.17288   0.63839   0.09540  -0.86962
  14   32773.7    305.1   0.022224362   0.22324  -0.47019   0.04643  -0.00295
  15   33299.8    300.3   0.077893460   0.77008   0.81007   0.10258   0.32146
  16   33512.3    298.4   0.006394717   0.06282  -0.22814  -0.00352   0.10372
  17   33848.6    295.4   0.005986791   0.05823  -0.05093   0.07250  -0.22445
  18   34171.9    292.6   0.018885590   0.18194  -0.42288  -0.05041  -0.02394
  19   34348.3    291.1   0.023579479   0.22600  -0.45323  -0.13886   0.03606
  20   34632.1    288.7   0.064799699   0.61598   0.68122   0.12551  -0.36902
  21   35039.9    285.4   0.011275456   0.10594  -0.21169   0.03453  -0.24481
  22   35371.9    282.7   0.019055886   0.17736  -0.20705   0.00531  -0.36669
  23   35732.4    279.9   0.261595041   2.41014  -1.47131  -0.25969   0.42183
  24   35799.7    279.3   0.011916421   0.10958   0.20784   0.01466   0.25723
  25   35915.7    278.4   0.040413368   0.37044   0.15086  -0.04507   0.58792
  26   36637.7    272.9   0.002396269   0.02153  -0.03525  -0.04167   0.13621
  27   37007.7    270.2   0.142833353   1.27061  -1.11831  -0.12470  -0.06669
  28   37356.1    267.7   0.091459598   0.80602   0.87270   0.19024  -0.09064
  29   38008.4    263.1   0.043672362   0.37827   0.45403   0.09550  -0.40374
  30   38160.2    262.1   0.094972204   0.81934   0.50870  -0.12749   0.73777
  31   38904.4    257.0   0.008469389   0.07167  -0.04082  -0.03293   0.26252
  32   39459.5    253.4   0.175809172   1.46678  -0.19481  -0.25417   1.16800
  33   39897.6    250.6   0.009127840   0.07532   0.12240  -0.02991   0.24380

FINAL SINGLE POINT ENERGY     -4589.869137750953

DIPOLE MOMENT
-------------
                                X             Y             Z
Electronic contribution:    -44.74984      -0.95819     -33.66113
Nuclear contribution   :     47.00251       1.32257      35.53821
                        -----------------------------------------
Total Dipole Moment    :      2.25267       0.36438       1.87708
                        -----------------------------------------
Magnitude (a.u.)       :      2.95478
Magnitude (Debye)      :      7.51046

Rotational constants in cm-1:     0.001245     0.000352     0.000278
Rotational constants in MHz :    37.309926    10.544742     8.340012

                             ****ORCA TERMINATED NORMALLY****
TOTAL RUN TIME: 0 days 0 hours 10 minutes 5 seconds 146 msec
