                         Program Version 4.2.0 -  RELEASE  -
|  1> # ORCA input file
|  2> # SCF done       -196.604307753465          0.000394239196
|  3> ! CAM-B3LYP def2-SVP def2/J RIJCOSX Grid4 TightSCF
|  4> %maxcore 5000
|  5> %tddft
|  6>     Mode sTDDFT
|  7>     Ethresh 5.0
|  8>     maxcore 5000
|  9> end
| 10>
| 11> %pal
| 12>   nprocs 6
| 13>   end
| 14> * xyz 0 1
| 15>    C       -0.70863         0.82434         1.98454
| 16>    S       -1.07174        -0.60109         2.84370
| 17>    C       -1.60452        -1.42387         1.40149
| 18>    C       -1.48806        -0.57514         0.28850
| 19>    C       -0.97413         0.71334         0.63508
| 20>    C       -0.80113         1.68896        -0.37467
| 21>    C       -1.12031         1.40728        -1.66800
| 22>    C       -0.95709         2.40906        -2.76564
| 23>    C       -1.63275         0.11239        -2.00783
| 24>    O       -1.91129        -0.04708        -3.32872
| 25>    C       -2.41807        -1.28252        -3.76877
| 26>    C       -1.81193        -0.85506        -1.05096
| 27>    C       -2.07578        -2.74632         1.42980
| 28>    C       -2.18315        -3.51292         2.55362
| 29>    C       -2.66472        -4.83213         2.56617
| 30>    S       -3.16189        -5.62261         1.09808
| 31>    C       -3.58321        -7.09866         1.91390
| 32>    C       -3.35671        -6.97734         3.29531
| 33>    C       -2.83533        -5.69497         3.66561
| 34>    C       -2.56742        -5.42737         5.03116
| 35>    C       -2.04449        -4.20442         5.50409
| 36>    N       -1.61901        -3.25032         5.98006
| 37>    C       -2.82158        -6.39699         5.98797
| 38>    C       -3.33656        -7.63857         5.62885
| 39>    C       -3.60453        -7.94267         4.30413
| 40>    C       -4.12015        -9.23148         4.05092
| 41>    N       -4.52334       -10.30144         3.94179
| 42>    C       -4.11357        -8.19643         1.22220
| 43>    C       -4.35708        -8.24980        -0.11860
| 44>    C       -4.98293        -9.35071        -0.73898
| 45>    S       -4.56219        -9.77835        -2.36987
| 46>    C       -5.41696       -11.29293        -2.29606
| 47>    C       -6.12222       -11.39835        -1.08587
| 48>    C       -5.88335       -10.28738        -0.20615
| 49>    C       -6.64145       -10.16886         0.98766
| 50>    C       -6.69704        -8.98830         1.76149
| 51>    N       -6.87138        -8.04688         2.39474
| 52>    C       -7.50208       -11.18754         1.35975
| 53>    C       -7.71916       -12.27563         0.52055
| 54>    C       -7.09390       -12.36427        -0.71381
| 55>    C       -7.59047       -13.36966        -1.57205
| 56>    N       -8.10979       -14.18419        -2.19246
| 57>    C       -5.25530       -12.19496        -3.37124
| 58>    C       -5.31296       -13.55083        -3.26657
| 59>    C       -5.22045       -14.42338        -4.38058
| 60>    C       -5.32593       -15.79796        -4.30126
| 61>    O       -5.29886       -16.60317        -5.42145
| 62>    C       -5.16286       -15.96323        -6.61316
| 63>    C       -5.03950       -14.54626        -6.69540
| 64>    C       -4.90535       -14.10299        -7.96959
| 65>    S       -4.92881       -15.41291        -9.09226
| 66>    C       -5.12091       -16.56766        -7.82646
| 67>    O       -5.06124       -13.75959        -5.58740
| 68>    C       -5.48930       -16.52344        -3.08547
| 69>    C       -5.74231       -17.85387        -3.04553
| 70>    C       -5.92400       -18.64776        -1.86416
| 71>    C       -6.40370       -19.93435        -2.00255
| 72>    C       -6.62695       -20.75129        -0.87519
| 73>    C       -7.11460       -22.04592        -0.73667
| 74>    C       -7.60207       -23.02344        -1.75872
| 75>    C       -9.03332       -22.68367        -2.22650
| 76>    N       -9.07805       -21.42031        -2.93929
| 77>    C       -6.66046       -23.17716        -2.96144
| 78>    N       -5.32945       -23.54128        -2.49988
| 79>    C       -7.10607       -22.34103         0.67855
| 80>    C       -7.47258       -23.44368         1.35861
| 81>    C       -7.32685       -23.53657         2.83706
| 82>    C       -6.86049       -22.27814         3.49750
| 83>    C       -6.50522       -21.18025         2.80684
| 84>    C       -6.59739       -21.16357         1.39330
| 85>    C       -6.31038       -20.20786         0.44427
| 86>    C       -5.80211       -18.89150         0.55743
| 87>    C       -5.62200       -18.14026        -0.55475
| 88>    C       -6.32687       -24.63772         3.13119
| 89>    C       -6.60422       -25.73401         3.80896
| 90>    H       -0.31936         1.67589         2.50651
| 91>    H       -0.41385         2.65964        -0.10372
| 92>    H       -0.55923         3.34354        -2.38012
| 93>    H       -1.91677         2.59753        -3.24419
| 94>    H       -0.28579         2.02033        -3.52959
| 95>    H       -2.56116        -1.17665        -4.84300
| 96>    H       -3.37838        -1.51416        -3.29694
| 97>    H       -1.71288        -2.09753        -3.57624
| 98>    H       -2.19816        -1.82879        -1.30344
| 99>    H       -2.37699        -3.17300         0.48153
|100>    H       -1.88687        -3.08667         3.50055
|101>    H       -2.61823        -6.18059         7.02600
|102>    H       -3.53244        -8.37822         6.39064
|103>    H       -4.32859        -9.06872         1.81886
|104>    H       -3.99792        -7.45543        -0.76044
|105>    H       -8.05550       -11.10111         2.28218
|106>    H       -8.43915       -13.03058         0.79932
|107>    H       -4.99508       -11.75861        -4.32586
|108>    H       -5.42964       -14.00024        -2.29690
|109>    H       -4.79622       -13.09532        -8.31124
|110>    H       -5.19101       -17.61194        -8.04717
|111>    H       -5.42772       -15.95744        -2.17314
|112>    H       -5.85156       -18.37843        -3.98538
|113>    H       -6.63970       -20.30260        -2.98877
|114>    H       -7.65160       -24.00320        -1.27329
|115>    H       -9.69527       -22.70689        -1.34263
|116>    H       -9.36483       -23.46522        -2.91649
|117>    H       -8.88376       -20.65471        -2.30211
|118>    H      -10.00145       -21.26993        -3.32979
|119>    H       -6.68885       -22.26312        -3.56817
|120>    H       -7.02822       -23.99784        -3.58500
|121>    H       -4.96260       -22.80609        -1.90298
|122>    H       -4.70104       -23.64156        -3.28963
|123>    H       -7.84785       -24.32879         0.86284
|124>    H       -8.28943       -23.84079         3.27066
|125>    H       -6.79405       -22.31082         4.57463
|126>    H       -6.15677       -20.29481         3.31917
|127>    H       -5.56317       -18.50094         1.53617
|128>    H       -5.22685       -17.14059        -0.46616
|129>    H       -5.33526       -24.45251         2.74289
|130>    H       -7.58731       -25.93086         4.20511
|131>    H       -5.85434       -26.48179         4.00345
|132> *
|133>
|134>                          ****END OF INPUT****

CARTESIAN COORDINATES (ANGSTROEM)
---------------------------------
  C     -0.708630    0.824340    1.984540
  S     -1.071740   -0.601090    2.843700
  C     -1.604520   -1.423870    1.401490
  C     -1.488060   -0.575140    0.288500
  C     -0.974130    0.713340    0.635080
  C     -0.801130    1.688960   -0.374670
  C     -1.120310    1.407280   -1.668000
  C     -0.957090    2.409060   -2.765640
  C     -1.632750    0.112390   -2.007830
  O     -1.911290   -0.047080   -3.328720
  C     -2.418070   -1.282520   -3.768770
  C     -1.811930   -0.855060   -1.050960
  C     -2.075780   -2.746320    1.429800
  C     -2.183150   -3.512920    2.553620
  C     -2.664720   -4.832130    2.566170
  S     -3.161890   -5.622610    1.098080
  C     -3.583210   -7.098660    1.913900
  C     -3.356710   -6.977340    3.295310
  C     -2.835330   -5.694970    3.665610
  C     -2.567420   -5.427370    5.031160
  C     -2.044490   -4.204420    5.504090
  N     -1.619010   -3.250320    5.980060
  C     -2.821580   -6.396990    5.987970
  C     -3.336560   -7.638570    5.628850
  C     -3.604530   -7.942670    4.304130
  C     -4.120150   -9.231480    4.050920
  N     -4.523340  -10.301440    3.941790
  C     -4.113570   -8.196430    1.222200
  C     -4.357080   -8.249800   -0.118600
  C     -4.982930   -9.350710   -0.738980
  S     -4.562190   -9.778350   -2.369870
  C     -5.416960  -11.292930   -2.296060
  C     -6.122220  -11.398350   -1.085870
  C     -5.883350  -10.287380   -0.206150
  C     -6.641450  -10.168860    0.987660
  C     -6.697040   -8.988300    1.761490
  N     -6.871380   -8.046880    2.394740
  C     -7.502080  -11.187540    1.359750
  C     -7.719160  -12.275630    0.520550
  C     -7.093900  -12.364270   -0.713810
  C     -7.590470  -13.369660   -1.572050
  N     -8.109790  -14.184190   -2.192460
  C     -5.255300  -12.194960   -3.371240
  C     -5.312960  -13.550830   -3.266570
  C     -5.220450  -14.423380   -4.380580
  C     -5.325930  -15.797960   -4.301260
  O     -5.298860  -16.603170   -5.421450
  C     -5.162860  -15.963230   -6.613160
  C     -5.039500  -14.546260   -6.695400
  C     -4.905350  -14.102990   -7.969590
  S     -4.928810  -15.412910   -9.092260
  C     -5.120910  -16.567660   -7.826460
  O     -5.061240  -13.759590   -5.587400
  C     -5.489300  -16.523440   -3.085470
  C     -5.742310  -17.853870   -3.045530
  C     -5.924000  -18.647760   -1.864160
  C     -6.403700  -19.934350   -2.002550
  C     -6.626950  -20.751290   -0.875190
  C     -7.114600  -22.045920   -0.736670
  C     -7.602070  -23.023440   -1.758720
  C     -9.033320  -22.683670   -2.226500
  N     -9.078050  -21.420310   -2.939290
  C     -6.660460  -23.177160   -2.961440
  N     -5.329450  -23.541280   -2.499880
  C     -7.106070  -22.341030    0.678550
  C     -7.472580  -23.443680    1.358610
  C     -7.326850  -23.536570    2.837060
  C     -6.860490  -22.278140    3.497500
  C     -6.505220  -21.180250    2.806840
  C     -6.597390  -21.163570    1.393300
  C     -6.310380  -20.207860    0.444270
  C     -5.802110  -18.891500    0.557430
  C     -5.622000  -18.140260   -0.554750
  C     -6.326870  -24.637720    3.131190
  C     -6.604220  -25.734010    3.808960
  H     -0.319360    1.675890    2.506510
  H     -0.413850    2.659640   -0.103720
  H     -0.559230    3.343540   -2.380120
  H     -1.916770    2.597530   -3.244190
  H     -0.285790    2.020330   -3.529590
  H     -2.561160   -1.176650   -4.843000
  H     -3.378380   -1.514160   -3.296940
  H     -1.712880   -2.097530   -3.576240
  H     -2.198160   -1.828790   -1.303440
  H     -2.376990   -3.173000    0.481530
  H     -1.886870   -3.086670    3.500550
  H     -2.618230   -6.180590    7.026000
  H     -3.532440   -8.378220    6.390640
  H     -4.328590   -9.068720    1.818860
  H     -3.997920   -7.455430   -0.760440
  H     -8.055500  -11.101110    2.282180
  H     -8.439150  -13.030580    0.799320
  H     -4.995080  -11.758610   -4.325860
  H     -5.429640  -14.000240   -2.296900
  H     -4.796220  -13.095320   -8.311240
  H     -5.191010  -17.611940   -8.047170
  H     -5.427720  -15.957440   -2.173140
  H     -5.851560  -18.378430   -3.985380
  H     -6.639700  -20.302600   -2.988770
  H     -7.651600  -24.003200   -1.273290
  H     -9.695270  -22.706890   -1.342630
  H     -9.364830  -23.465220   -2.916490
  H     -8.883760  -20.654710   -2.302110
  H    -10.001450  -21.269930   -3.329790
  H     -6.688850  -22.263120   -3.568170
  H     -7.028220  -23.997840   -3.585000
  H     -4.962600  -22.806090   -1.902980
  H     -4.701040  -23.641560   -3.289630
  H     -7.847850  -24.328790    0.862840
  H     -8.289430  -23.840790    3.270660
  H     -6.794050  -22.310820    4.574630
  H     -6.156770  -20.294810    3.319170
  H     -5.563170  -18.500940    1.536170
  H     -5.226850  -17.140590   -0.466160
  H     -5.335260  -24.452510    2.742890
  H     -7.587310  -25.930860    4.205110
  H     -5.854340  -26.481790    4.003450

 Total Charge           Charge          ....    0
 Multiplicity           Mult            ....    1
 Number of Electrons    NEL             ....  544
 Basis Dimension        Dim             .... 1276

ORBITAL ENERGIES
----------------

  NO   OCC          E(Eh)            E(eV)
   0   2.0000     -88.971096     -2421.0266
   1   2.0000     -88.970748     -2421.0171
   2   2.0000     -88.960245     -2420.7313
   3   2.0000     -88.950756     -2420.4731
   4   2.0000     -19.268272      -524.3163
   5   2.0000     -19.265528      -524.2417
   6   2.0000     -19.252357      -523.8833
   7   2.0000     -14.413793      -392.2192
   8   2.0000     -14.412905      -392.1951
   9   2.0000     -14.405923      -392.0051
  10   2.0000     -14.403924      -391.9507
  11   2.0000     -14.369122      -391.0037
  12   2.0000     -14.358357      -390.7108
  13   2.0000     -10.341308      -281.4013
  14   2.0000     -10.335605      -281.2461
  15   2.0000     -10.335411      -281.2408
  16   2.0000     -10.333486      -281.1885
  17   2.0000     -10.333212      -281.1810
  18   2.0000     -10.328783      -281.0605
  19   2.0000     -10.327405      -281.0230
  20   2.0000     -10.326548      -280.9997
  21   2.0000     -10.324904      -280.9549
  22   2.0000     -10.323584      -280.9190
  23   2.0000     -10.319616      -280.8110
  24   2.0000     -10.314650      -280.6759
  25   2.0000     -10.313884      -280.6551
  26   2.0000     -10.313465      -280.6437
  27   2.0000     -10.313391      -280.6416
  28   2.0000     -10.310274      -280.5568
  29   2.0000     -10.306562      -280.4558
  30   2.0000     -10.305911      -280.4381
  31   2.0000     -10.305177      -280.4181
  32   2.0000     -10.304750      -280.4065
  33   2.0000     -10.304643      -280.4036
  34   2.0000     -10.303977      -280.3855
  35   2.0000     -10.303330      -280.3679
  36   2.0000     -10.302860      -280.3551
  37   2.0000     -10.300957      -280.3033
  38   2.0000     -10.299519      -280.2642
  39   2.0000     -10.296955      -280.1944
  40   2.0000     -10.295112      -280.1442
  41   2.0000     -10.292260      -280.0666
  42   2.0000     -10.290793      -280.0267
  43   2.0000     -10.287231      -279.9298
  44   2.0000     -10.286712      -279.9157
  45   2.0000     -10.286214      -279.9021
  46   2.0000     -10.285522      -279.8833
  47   2.0000     -10.285392      -279.8797
  48   2.0000     -10.281837      -279.7830
  49   2.0000     -10.281609      -279.7768
  50   2.0000     -10.279272      -279.7132
  51   2.0000     -10.278538      -279.6932
  52   2.0000     -10.277715      -279.6708
  53   2.0000     -10.276205      -279.6298
  54   2.0000     -10.275602      -279.6133
  55   2.0000     -10.273963      -279.5687
  56   2.0000     -10.272658      -279.5332
  57   2.0000     -10.269124      -279.4371
  58   2.0000     -10.268864      -279.4300
  59   2.0000     -10.267929      -279.4045
  60   2.0000     -10.266616      -279.3688
  61   2.0000     -10.265737      -279.3449
  62   2.0000     -10.264500      -279.3112
  63   2.0000     -10.263893      -279.2947
  64   2.0000     -10.262279      -279.2508
  65   2.0000     -10.262103      -279.2460
  66   2.0000     -10.261540      -279.2307
  67   2.0000     -10.259233      -279.1679
  68   2.0000     -10.258629      -279.1515
  69   2.0000     -10.258348      -279.1438
  70   2.0000     -10.257178      -279.1120
  71   2.0000     -10.255535      -279.0673
  72   2.0000     -10.254136      -279.0292
  73   2.0000     -10.253789      -279.0198
  74   2.0000     -10.252515      -278.9851
  75   2.0000      -8.066688      -219.5057
  76   2.0000      -8.065665      -219.4779
  77   2.0000      -8.055315      -219.1963
  78   2.0000      -8.046431      -218.9545
  79   2.0000      -6.035612      -164.2374
  80   2.0000      -6.034617      -164.2103
  81   2.0000      -6.031583      -164.1277
  82   2.0000      -6.030726      -164.1044
  83   2.0000      -6.029421      -164.0689
  84   2.0000      -6.028339      -164.0395
  85   2.0000      -6.024268      -163.9287
  86   2.0000      -6.020068      -163.8144
  87   2.0000      -6.018285      -163.7659
  88   2.0000      -6.015952      -163.7024
  89   2.0000      -6.011800      -163.5894
  90   2.0000      -6.008128      -163.4895
  91   2.0000      -1.193462       -32.4758
  92   2.0000      -1.156484       -31.4695
  93   2.0000      -1.155968       -31.4555
  94   2.0000      -1.019267       -27.7357
  95   2.0000      -1.015447       -27.6317
  96   2.0000      -1.000159       -27.2157
  97   2.0000      -0.993738       -27.0410
  98   2.0000      -0.992663       -27.0117
  99   2.0000      -0.990322       -26.9480
 100   2.0000      -0.987035       -26.8586
 101   2.0000      -0.979206       -26.6456
 102   2.0000      -0.975888       -26.5553
 103   2.0000      -0.956161       -26.0185
 104   2.0000      -0.953904       -25.9571
 105   2.0000      -0.951637       -25.8954
 106   2.0000      -0.936694       -25.4887
 107   2.0000      -0.935661       -25.4606
 108   2.0000      -0.932596       -25.3772
 109   2.0000      -0.925326       -25.1794
 110   2.0000      -0.916990       -24.9526
 111   2.0000      -0.910295       -24.7704
 112   2.0000      -0.900368       -24.5003
 113   2.0000      -0.892190       -24.2777
 114   2.0000      -0.883078       -24.0298
 115   2.0000      -0.878011       -23.8919
 116   2.0000      -0.864628       -23.5277
 117   2.0000      -0.864140       -23.5144
 118   2.0000      -0.853182       -23.2163
 119   2.0000      -0.850261       -23.1368
 120   2.0000      -0.848997       -23.1024
 121   2.0000      -0.844218       -22.9724
 122   2.0000      -0.836324       -22.7575
 123   2.0000      -0.828054       -22.5325
 124   2.0000      -0.823929       -22.4202
 125   2.0000      -0.821656       -22.3584
 126   2.0000      -0.815750       -22.1977
 127   2.0000      -0.807961       -21.9857
 128   2.0000      -0.801845       -21.8193
 129   2.0000      -0.788236       -21.4490
 130   2.0000      -0.781500       -21.2657
 131   2.0000      -0.776184       -21.1210
 132   2.0000      -0.772907       -21.0319
 133   2.0000      -0.771493       -20.9934
 134   2.0000      -0.757881       -20.6230
 135   2.0000      -0.750631       -20.4257
 136   2.0000      -0.741506       -20.1774
 137   2.0000      -0.733058       -19.9475
 138   2.0000      -0.719246       -19.5717
 139   2.0000      -0.712950       -19.4004
 140   2.0000      -0.706659       -19.2292
 141   2.0000      -0.698930       -19.0188
 142   2.0000      -0.691260       -18.8101
 143   2.0000      -0.688898       -18.7459
 144   2.0000      -0.687805       -18.7161
 145   2.0000      -0.682449       -18.5704
 146   2.0000      -0.677004       -18.4222
 147   2.0000      -0.675883       -18.3917
 148   2.0000      -0.670999       -18.2588
 149   2.0000      -0.667421       -18.1615
 150   2.0000      -0.653810       -17.7911
 151   2.0000      -0.650485       -17.7006
 152   2.0000      -0.649228       -17.6664
 153   2.0000      -0.641377       -17.4528
 154   2.0000      -0.640886       -17.4394
 155   2.0000      -0.638246       -17.3676
 156   2.0000      -0.634916       -17.2769
 157   2.0000      -0.626634       -17.0516
 158   2.0000      -0.608400       -16.5554
 159   2.0000      -0.606709       -16.5094
 160   2.0000      -0.604575       -16.4513
 161   2.0000      -0.598353       -16.2820
 162   2.0000      -0.595587       -16.2067
 163   2.0000      -0.588737       -16.0203
 164   2.0000      -0.585779       -15.9399
 165   2.0000      -0.582418       -15.8484
 166   2.0000      -0.581997       -15.8370
 167   2.0000      -0.576515       -15.6878
 168   2.0000      -0.573764       -15.6129
 169   2.0000      -0.564091       -15.3497
 170   2.0000      -0.563512       -15.3339
 171   2.0000      -0.560254       -15.2453
 172   2.0000      -0.559364       -15.2211
 173   2.0000      -0.556987       -15.1564
 174   2.0000      -0.554086       -15.0774
 175   2.0000      -0.552526       -15.0350
 176   2.0000      -0.547896       -14.9090
 177   2.0000      -0.543737       -14.7958
 178   2.0000      -0.541250       -14.7282
 179   2.0000      -0.534896       -14.5553
 180   2.0000      -0.531134       -14.4529
 181   2.0000      -0.529743       -14.4150
 182   2.0000      -0.526068       -14.3150
 183   2.0000      -0.524962       -14.2849
 184   2.0000      -0.523635       -14.2488
 185   2.0000      -0.521516       -14.1912
 186   2.0000      -0.518397       -14.1063
 187   2.0000      -0.513756       -13.9800
 188   2.0000      -0.511597       -13.9213
 189   2.0000      -0.510445       -13.8899
 190   2.0000      -0.507043       -13.7974
 191   2.0000      -0.504646       -13.7321
 192   2.0000      -0.502983       -13.6869
 193   2.0000      -0.502898       -13.6846
 194   2.0000      -0.497780       -13.5453
 195   2.0000      -0.495974       -13.4961
 196   2.0000      -0.495169       -13.4742
 197   2.0000      -0.494241       -13.4490
 198   2.0000      -0.492965       -13.4143
 199   2.0000      -0.491619       -13.3776
 200   2.0000      -0.487235       -13.2583
 201   2.0000      -0.485088       -13.1999
 202   2.0000      -0.483010       -13.1434
 203   2.0000      -0.480056       -13.0630
 204   2.0000      -0.476688       -12.9713
 205   2.0000      -0.474282       -12.9059
 206   2.0000      -0.473511       -12.8849
 207   2.0000      -0.472617       -12.8606
 208   2.0000      -0.471432       -12.8283
 209   2.0000      -0.470127       -12.7928
 210   2.0000      -0.468060       -12.7366
 211   2.0000      -0.467799       -12.7295
 212   2.0000      -0.464836       -12.6488
 213   2.0000      -0.462949       -12.5975
 214   2.0000      -0.460819       -12.5395
 215   2.0000      -0.458354       -12.4725
 216   2.0000      -0.452665       -12.3177
 217   2.0000      -0.450435       -12.2570
 218   2.0000      -0.447895       -12.1878
 219   2.0000      -0.443695       -12.0735
 220   2.0000      -0.441617       -12.0170
 221   2.0000      -0.439532       -11.9603
 222   2.0000      -0.437661       -11.9094
 223   2.0000      -0.436162       -11.8686
 224   2.0000      -0.435960       -11.8631
 225   2.0000      -0.435428       -11.8486
 226   2.0000      -0.434564       -11.8251
 227   2.0000      -0.431943       -11.7538
 228   2.0000      -0.430885       -11.7250
 229   2.0000      -0.429605       -11.6901
 230   2.0000      -0.429390       -11.6843
 231   2.0000      -0.426749       -11.6124
 232   2.0000      -0.425942       -11.5905
 233   2.0000      -0.424043       -11.5388
 234   2.0000      -0.422293       -11.4912
 235   2.0000      -0.416672       -11.3382
 236   2.0000      -0.415662       -11.3107
 237   2.0000      -0.414151       -11.2696
 238   2.0000      -0.410991       -11.1836
 239   2.0000      -0.408529       -11.1166
 240   2.0000      -0.405936       -11.0461
 241   2.0000      -0.405533       -11.0351
 242   2.0000      -0.403962       -10.9924
 243   2.0000      -0.401902       -10.9363
 244   2.0000      -0.401855       -10.9350
 245   2.0000      -0.399002       -10.8574
 246   2.0000      -0.398028       -10.8309
 247   2.0000      -0.389024       -10.5859
 248   2.0000      -0.381067       -10.3694
 249   2.0000      -0.380002       -10.3404
 250   2.0000      -0.379500       -10.3267
 251   2.0000      -0.372268       -10.1299
 252   2.0000      -0.365742        -9.9524
 253   2.0000      -0.362264        -9.8577
 254   2.0000      -0.350884        -9.5481
 255   2.0000      -0.339890        -9.2489
 256   2.0000      -0.336674        -9.1614
 257   2.0000      -0.334183        -9.0936
 258   2.0000      -0.332491        -9.0476
 259   2.0000      -0.329069        -8.9544
 260   2.0000      -0.322789        -8.7835
 261   2.0000      -0.312756        -8.5105
 262   2.0000      -0.301146        -8.1946
 263   2.0000      -0.299841        -8.1591
 264   2.0000      -0.290953        -7.9172
 265   2.0000      -0.286229        -7.7887
 266   2.0000      -0.281641        -7.6638
 267   2.0000      -0.276098        -7.5130
 268   2.0000      -0.262169        -7.1340
 269   2.0000      -0.236522        -6.4361
 270   2.0000      -0.216875        -5.9015
 271   2.0000      -0.203802        -5.5457
 272   0.0000      -0.093724        -2.5504
 273   0.0000      -0.071276        -1.9395
 274   0.0000      -0.061313        -1.6684
 275   0.0000      -0.040993        -1.1155
 276   0.0000      -0.029919        -0.8141

MULLIKEN ATOMIC CHARGES
-----------------------
   0 C :   -0.110906
   1 S :    0.156358
   2 C :   -0.134806
   3 C :    0.157444
   4 C :    0.102081
   5 C :   -0.065307
   6 C :   -0.098393
   7 C :    0.132629
   8 C :    0.219454
   9 O :   -0.307471
  10 C :    0.179380
  11 C :   -0.162982
  12 C :    0.004006
  13 C :   -0.047051
  14 C :   -0.100441
  15 S :    0.125444
  16 C :   -0.129684
  17 C :    0.186023
  18 C :    0.153562
  19 C :   -0.096094
  20 C :   -0.169759
  21 N :    0.104216
  22 C :    0.010688
  23 C :    0.020618
  24 C :   -0.095316
  25 C :   -0.161224
  26 N :    0.091615
  27 C :   -0.007076
  28 C :    0.025955
  29 C :   -0.167205
  30 S :    0.178505
  31 C :   -0.166100
  32 C :    0.166064
  33 C :    0.151549
  34 C :   -0.073264
  35 C :   -0.205609
  36 N :    0.110694
  37 C :    0.023131
  38 C :    0.012159
  39 C :   -0.097097
  40 C :   -0.218951
  41 N :    0.124173
  42 C :    0.042306
  43 C :   -0.042569
  44 C :    0.149855
  45 C :    0.193367
  46 O :   -0.251136
  47 C :    0.220430
  48 C :    0.226963
  49 C :   -0.178865
  50 S :    0.103595
  51 C :   -0.173181
  52 O :   -0.261880
  53 C :   -0.043551
  54 C :    0.005165
  55 C :    0.138331
  56 C :   -0.128857
  57 C :    0.034987
  58 C :   -0.087633
  59 C :    0.001257
  60 C :    0.152964
  61 N :   -0.234918
  62 C :    0.126587
  63 N :   -0.223137
  64 C :    0.111911
  65 C :   -0.128814
  66 C :    0.113800
  67 C :   -0.042902
  68 C :    0.023129
  69 C :    0.010531
  70 C :    0.035131
  71 C :   -0.005576
  72 C :   -0.001266
  73 C :   -0.038325
  74 C :   -0.016575
  75 H :    0.019437
  76 H :   -0.039115
  77 H :    0.000752
  78 H :    0.025768
  79 H :    0.026043
  80 H :    0.039471
  81 H :    0.025324
  82 H :    0.024260
  83 H :   -0.051531
  84 H :   -0.010098
  85 H :    0.008411
  86 H :    0.003140
  87 H :    0.004510
  88 H :    0.016981
  89 H :   -0.013752
  90 H :    0.006589
  91 H :    0.006615
  92 H :    0.001367
  93 H :    0.006875
  94 H :    0.020306
  95 H :    0.023731
  96 H :   -0.015164
  97 H :   -0.005855
  98 H :   -0.028416
  99 H :   -0.025069
 100 H :   -0.020700
 101 H :   -0.010866
 102 H :    0.103562
 103 H :    0.093924
 104 H :    0.001076
 105 H :   -0.018439
 106 H :    0.096471
 107 H :    0.086178
 108 H :   -0.004052
 109 H :    0.020250
 110 H :   -0.009597
 111 H :   -0.037755
 112 H :   -0.040613
 113 H :   -0.037844
 114 H :    0.015003
 115 H :    0.014196
 116 H :    0.026490
Sum of atomic charges:   -0.0000000

LOEWDIN ATOMIC CHARGES
----------------------
   0 C :   -0.177645
   1 S :    0.488622
   2 C :   -0.197699
   3 C :   -0.028023
   4 C :   -0.062056
   5 C :   -0.014937
   6 C :   -0.037284
   7 C :   -0.040811
   8 C :    0.064277
   9 O :   -0.093581
  10 C :    0.076287
  11 C :   -0.088133
  12 C :   -0.020552
  13 C :   -0.075172
  14 C :   -0.146985
  15 S :    0.475686
  16 C :   -0.173113
  17 C :   -0.021205
  18 C :   -0.039013
  19 C :   -0.041978
  20 C :   -0.022993
  21 N :   -0.053018
  22 C :    0.004989
  23 C :    0.015136
  24 C :   -0.044781
  25 C :   -0.015773
  26 N :   -0.062654
  27 C :   -0.026047
  28 C :   -0.065663
  29 C :   -0.172193
  30 S :    0.484038
  31 C :   -0.164752
  32 C :   -0.037572
  33 C :   -0.033542
  34 C :   -0.042328
  35 C :   -0.020911
  36 N :   -0.059549
  37 C :    0.015116
  38 C :    0.011061
  39 C :   -0.049900
  40 C :   -0.029723
  41 N :   -0.052333
  42 C :   -0.060377
  43 C :   -0.014614
  44 C :    0.018930
  45 C :    0.046311
  46 O :   -0.046219
  47 C :   -0.007577
  48 C :   -0.006169
  49 C :   -0.214193
  50 S :    0.431170
  51 C :   -0.210831
  52 O :   -0.057482
  53 C :   -0.044608
  54 C :    0.005224
  55 C :   -0.027291
  56 C :   -0.018260
  57 C :   -0.030047
  58 C :   -0.041633
  59 C :   -0.039029
  60 C :    0.028599
  61 N :   -0.117952
  62 C :    0.025740
  63 N :   -0.125988
  64 C :   -0.017686
  65 C :    0.066069
  66 C :   -0.030198
  67 C :   -0.029272
  68 C :   -0.018807
  69 C :   -0.033838
  70 C :   -0.032861
  71 C :   -0.008314
  72 C :   -0.026997
  73 C :   -0.000215
  74 C :   -0.056906
  75 H :    0.025317
  76 H :    0.028349
  77 H :    0.026689
  78 H :    0.036311
  79 H :    0.036251
  80 H :    0.029885
  81 H :    0.016639
  82 H :    0.016189
  83 H :    0.023431
  84 H :    0.023174
  85 H :    0.031703
  86 H :    0.044037
  87 H :    0.044798
  88 H :    0.039762
  89 H :    0.021033
  90 H :    0.045903
  91 H :    0.044803
  92 H :    0.031753
  93 H :    0.033193
  94 H :    0.027291
  95 H :    0.028738
  96 H :    0.028293
  97 H :    0.031804
  98 H :    0.026476
  99 H :    0.026492
 100 H :   -0.002028
 101 H :    0.014441
 102 H :    0.055126
 103 H :    0.056479
 104 H :   -0.001058
 105 H :    0.014850
 106 H :    0.050113
 107 H :    0.051890
 108 H :    0.030716
 109 H :    0.051302
 110 H :    0.025192
 111 H :    0.028775
 112 H :    0.026242
 113 H :    0.022835
 114 H :    0.031059
 115 H :    0.020884
 116 H :    0.026889

  Mayer bond orders larger than 0.100000
B(  0-C ,  1-S ) :   1.2122 B(  0-C ,  4-C ) :   1.4125 B(  0-C , 75-H ) :   0.9686
B(  1-S ,  2-C ) :   1.1318 B(  2-C ,  3-C ) :   1.3142 B(  2-C , 12-C ) :   1.2257
B(  3-C ,  4-C ) :   1.2087 B(  3-C , 11-C ) :   1.1782 B(  4-C ,  5-C ) :   1.1296
B(  5-C ,  6-C ) :   1.5999 B(  5-C , 76-H ) :   1.0037 B(  6-C ,  7-C ) :   1.0703
B(  6-C ,  8-C ) :   1.1971 B(  7-C , 77-H ) :   0.9523 B(  7-C , 78-H ) :   0.9474
B(  7-C , 79-H ) :   0.9475 B(  8-C ,  9-O ) :   1.1839 B(  8-C , 11-C ) :   1.4587
B(  9-O , 10-C ) :   0.9654 B( 10-C , 80-H ) :   0.9777 B( 10-C , 81-H ) :   0.9679
B( 10-C , 82-H ) :   0.9678 B( 11-C , 83-H ) :   0.9904 B( 12-C , 13-C ) :   1.5703
B( 12-C , 84-H ) :   0.9654 B( 13-C , 14-C ) :   1.2263 B( 13-C , 85-H ) :   0.9577
B( 14-C , 15-S ) :   1.1353 B( 14-C , 18-C ) :   1.3121 B( 15-S , 16-C ) :   1.1030
B( 16-C , 17-C ) :   1.3338 B( 16-C , 27-C ) :   1.2597 B( 17-C , 18-C ) :   1.1743
B( 17-C , 24-C ) :   1.2118 B( 18-C , 19-C ) :   1.2187 B( 19-C , 20-C ) :   1.0886
B( 19-C , 22-C ) :   1.5203 B( 20-C , 21-N ) :   2.9642 B( 22-C , 23-C ) :   1.2090
B( 22-C , 86-H ) :   0.9943 B( 23-C , 24-C ) :   1.5212 B( 23-C , 87-H ) :   0.9932
B( 24-C , 25-C ) :   1.0941 B( 25-C , 26-N ) :   2.9451 B( 27-C , 28-C ) :   1.5905
B( 27-C , 88-H ) :   0.9366 B( 28-C , 29-C ) :   1.1549 B( 28-C , 89-H ) :   0.9498
B( 29-C , 30-S ) :   1.1397 B( 29-C , 31-C ) :   0.1015 B( 29-C , 33-C ) :   1.3378
B( 30-S , 31-C ) :   1.1509 B( 31-C , 32-C ) :   1.3439 B( 31-C , 42-C ) :   1.1098
B( 32-C , 33-C ) :   1.1871 B( 32-C , 39-C ) :   1.2104 B( 33-C , 34-C ) :   1.2195
B( 34-C , 35-C ) :   1.0945 B( 34-C , 37-C ) :   1.5171 B( 35-C , 36-N ) :   2.9983
B( 37-C , 38-C ) :   1.2119 B( 37-C , 90-H ) :   0.9945 B( 38-C , 39-C ) :   1.5194
B( 38-C , 91-H ) :   0.9940 B( 39-C , 40-C ) :   1.0889 B( 40-C , 41-N ) :   3.0174
B( 42-C , 43-C ) :   1.6377 B( 42-C , 92-H ) :   0.9503 B( 43-C , 44-C ) :   1.2332
B( 43-C , 93-H ) :   0.9401 B( 44-C , 45-C ) :   1.4369 B( 44-C , 52-O ) :   1.0542
B( 45-C , 46-O ) :   1.0691 B( 45-C , 53-C ) :   1.1773 B( 46-O , 47-C ) :   1.0524
B( 47-C , 48-C ) :   1.2028 B( 47-C , 51-C ) :   1.5709 B( 48-C , 49-C ) :   1.5694
B( 48-C , 52-O ) :   1.0577 B( 49-C , 50-S ) :   1.1375 B( 49-C , 94-H ) :   0.9732
B( 50-S , 51-C ) :   1.1399 B( 51-C , 95-H ) :   0.9725 B( 53-C , 54-C ) :   1.6526
B( 53-C , 96-H ) :   0.9474 B( 54-C , 55-C ) :   1.0628 B( 54-C , 97-H ) :   0.9910
B( 55-C , 56-C ) :   1.4877 B( 55-C , 72-C ) :   1.1170 B( 56-C , 57-C ) :   1.0981
B( 56-C , 98-H ) :   1.0074 B( 57-C , 58-C ) :   1.4562 B( 57-C , 70-C ) :   1.1247
B( 58-C , 59-C ) :   1.0471 B( 58-C , 64-C ) :   1.1173 B( 59-C , 60-C ) :   1.0481
B( 59-C , 62-C ) :   1.0323 B( 59-C , 99-H ) :   0.8727 B( 60-C , 61-N ) :   1.0933
B( 60-C ,100-H ) :   0.9376 B( 60-C ,101-H ) :   0.9365 B( 61-N ,102-H ) :   0.9574
B( 61-N ,103-H ) :   0.9675 B( 62-C , 63-N ) :   1.0869 B( 62-C ,104-H ) :   0.9394
B( 62-C ,105-H ) :   0.9345 B( 63-N ,106-H ) :   0.9703 B( 63-N ,107-H ) :   0.9685
B( 64-C , 65-C ) :   1.6512 B( 64-C , 69-C ) :   1.0491 B( 65-C , 66-C ) :   0.9750
B( 65-C ,108-H ) :   0.9704 B( 66-C , 67-C ) :   0.9910 B( 66-C , 73-C ) :   0.9618
B( 66-C ,109-H ) :   0.8762 B( 67-C , 68-C ) :   1.7191 B( 67-C ,110-H ) :   0.9734
B( 68-C , 69-C ) :   1.1272 B( 68-C ,111-H ) :   0.9885 B( 69-C , 70-C ) :   1.4462
B( 70-C , 71-C ) :   1.1337 B( 71-C , 72-C ) :   1.6233 B( 71-C ,112-H ) :   0.9887
B( 72-C ,113-H ) :   0.9804 B( 73-C , 74-C ) :   2.0071 B( 73-C ,114-H ) :   0.9638
B( 74-C ,115-H ) :   0.9597 B( 74-C ,116-H ) :   0.9526

-----------------------------------------------------------------------------
         ABSORPTION SPECTRUM VIA TRANSITION ELECTRIC DIPOLE MOMENTS
-----------------------------------------------------------------------------
State   Energy  Wavelength   fosc         T2         TX        TY        TZ
        (cm-1)    (nm)                  (au**2)     (au)      (au)      (au)
-----------------------------------------------------------------------------
   0   10332.9    967.8   1.144342872  36.45925  -1.71237  -5.63080  -1.34950
   1   13738.1    727.9   0.042476328   1.01788   0.25047  -0.34645  -0.91384
   2   15016.3    665.9   0.018022310   0.39512  -0.12140  -0.53177  -0.31241
   3   16220.6    616.5   0.030965759   0.62848   0.49492   0.61128   0.09931
   4   18828.3    531.1   0.134832339   2.35754  -0.17913  -1.09890  -1.05729
   5   19700.4    507.6   0.476523648   7.96315  -0.64915  -2.72326   0.35442
   6   20495.6    487.9   0.139788350   2.24536  -0.35449   1.15606  -0.88500
   7   21571.0    463.6   0.195186210   2.97889  -0.54241  -1.62515   0.20872
   8   22762.7    439.3   0.027424430   0.39663  -0.19811   0.07094  -0.59359
   9   23544.0    424.7   0.093710469   1.31034   0.25316  -0.29739  -1.07602
  10   24767.1    403.8   0.114102160   1.51668  -0.03273   1.23088   0.02344
  11   25987.0    384.8   0.049021648   0.62102  -0.22762  -0.65783   0.36942
  12   26405.2    378.7   0.311642002   3.88545  -0.18443  -1.19962   1.55317
  13   26780.8    373.4   0.176570115   2.17055   0.36748  -0.00629   1.42670
  14   27008.7    370.3   0.180487686   2.19998  -0.13027  -0.80847   1.23668
  15   28384.5    352.3   0.038392932   0.44529   0.30915  -0.48019   0.34517
  16   28721.3    348.2   0.106633420   1.22226  -0.45311  -0.21453   0.98536
  17   28990.9    344.9   0.107741937   1.22349   0.05606   0.86571  -0.68622
  18   29154.4    343.0   0.097179277   1.09735   0.18930   0.99801  -0.25590
  19   29653.1    337.2   0.018424139   0.20455  -0.28543  -0.02624   0.34984
  20   31282.9    319.7   0.036001123   0.37886   0.12527  -0.02106   0.60227
  21   31520.0    317.3   0.006673669   0.06970  -0.10426   0.09812   0.22182
  22   31586.9    316.6   0.005053882   0.05267   0.01882  -0.13225  -0.18662
  23   31961.0    312.9   0.068424477   0.70480   0.13849  -0.16682  -0.81104
  24   32167.6    310.9   0.010560178   0.10808   0.21176  -0.19177  -0.16266
  25   32551.8    307.2   0.002093580   0.02117   0.07848  -0.10432   0.06428
  26   32661.0    306.2   0.068013503   0.68555   0.17847   0.41928  -0.69131
  27   32858.3    304.3   0.011287060   0.11309   0.20097  -0.26756   0.03331
  28   33485.6    298.6   0.043278350   0.42549  -0.03876  -0.63577  -0.14063
  29   34199.5    292.4   0.133737698   1.28739  -0.10696  -1.07406   0.34978
  30   34716.9    288.0   0.312216664   2.96067   0.22850   1.20130  -1.21051
  31   34835.4    287.1   0.144753869   1.36800   0.10450   0.60020  -0.99842
  32   35159.4    284.4   0.061015275   0.57131   0.02504   0.54946  -0.51844
  33   35486.4    281.8   0.270372533   2.50828  -0.15366  -0.68635   1.41901
  34   35792.5    279.4   0.028630414   0.26334   0.30170   0.33178  -0.24947
  35   36016.7    277.6   0.072804215   0.66547  -0.44147  -0.46608   0.50334
  36   36050.5    277.4   0.202212574   1.84660  -0.55971  -0.46591   1.14728
  37   36342.5    275.2   0.189783837   1.71917  -0.59147  -0.90808   0.73806
  38   36512.5    273.9   0.024884026   0.22436   0.12290   0.32634  -0.32056
  39   36588.2    273.3   0.135811385   1.22200  -0.01703  -0.82523   0.73533
  40   37026.5    270.1   0.036125263   0.32120  -0.02624  -0.37872   0.42081
  41   37040.2    270.0   0.084687800   0.75270  -0.62487  -0.11802  -0.59018
  42   37299.6    268.1   0.003132187   0.02765   0.15619   0.05694   0.00278
  43   37711.4    265.2   0.000377160   0.00329  -0.00613  -0.00925   0.05630
  44   38047.5    262.8   0.026614402   0.23029   0.12254  -0.19018  -0.42320
  45   38132.2    262.2   0.002908801   0.02511   0.03175   0.05935  -0.14347
  46   38502.7    259.7   0.002650887   0.02267   0.05730   0.02715  -0.13655
  47   38671.8    258.6   0.012552522   0.10686  -0.10254  -0.30622   0.05073
  48   38791.0    257.8   0.005247160   0.04453  -0.10473  -0.00292  -0.18318
  49   38993.6    256.5   0.018073240   0.15259  -0.32593   0.20405   0.06873
  50   39232.1    254.9   0.419764844   3.52241   0.14851   0.59871  -1.77254
  51   39604.5    252.5   0.032294491   0.26845  -0.16821  -0.20410  -0.44553
  52   39671.5    252.1   0.139264774   1.15568  -0.04240  -0.67951   0.83195
  53   39850.6    250.9   0.135958457   1.12317  -0.52649  -0.90059   0.18685
  54   40120.0    249.3   0.049618031   0.40715  -0.26622  -0.48528   0.31747
  55   40207.1    248.7   0.035297477   0.28901  -0.09557  -0.05932   0.52570

FINAL SINGLE POINT ENERGY     -4530.362863438924

DIPOLE MOMENT
-------------
                                X             Y             Z
Electronic contribution:     16.65771      85.69460       8.62921
Nuclear contribution   :    -16.28591     -85.28645      -9.20800
                        -----------------------------------------
Total Dipole Moment    :      0.37180       0.40815      -0.57879
                        -----------------------------------------
Magnitude (a.u.)       :      0.79989
Magnitude (Debye)      :      2.03316

Rotational constants in cm-1:     0.001244     0.000238     0.000206
Rotational constants in MHz :    37.297939     7.144197     6.173708

                             ****ORCA TERMINATED NORMALLY****
TOTAL RUN TIME: 0 days 0 hours 13 minutes 0 seconds 311 msec
