                         Program Version 4.2.0 -  RELEASE  -
|  1> # ORCA input file
|  2> # SCF done       -150.918321613460          0.000253758715
|  3> ! CAM-B3LYP def2-SVP def2/J RIJCOSX Grid4 TightSCF
|  4> %maxcore 5000
|  5> %tddft
|  6>     Mode sTDDFT
|  7>     Ethresh 5.0
|  8>     maxcore 5000
|  9> end
| 10>
| 11> %pal
| 12>   nprocs 6
| 13>   end
| 14> * xyz 0 1
| 15>    O       -1.91108         8.37450        -1.28216
| 16>    C       -2.27675         7.10165        -0.99121
| 17>    N       -3.02126         6.55806        -1.91144
| 18>    C       -3.16391         7.51767        -2.87453
| 19>    C       -2.46947         8.63377        -2.46587
| 20>    C       -3.93761         7.29929        -4.08943
| 21>    O       -4.09002         8.11496        -4.96172
| 22>    C       -1.85627         6.47866         0.21660
| 23>    S       -2.37240         4.82120         0.56164
| 24>    C       -1.48926         4.93901         2.02567
| 25>    C       -0.88436         6.20018         2.13458
| 26>    N       -1.10223         7.03143         1.12389
| 27>    C       -0.11102         6.31564         3.40863
| 28>    C       -0.35192         4.96409         4.01280
| 29>    C       -1.16091         4.18778         3.17650
| 30>    S       -1.47183         2.62920         3.82081
| 31>    C       -0.50734         3.01286         5.23638
| 32>    C        0.01482         4.29752         5.17334
| 33>    C       -0.32062         2.08716         6.28930
| 34>    C       -0.84087         0.83637         6.33536
| 35>    C       -0.63967        -0.06082         7.40979
| 36>    S        0.30890         0.36269         8.80762
| 37>    C        0.03785        -1.18630         9.53465
| 38>    C       -0.76378        -1.98979         8.72197
| 39>    C       -1.13446        -1.35533         7.52854
| 40>    S       -2.03576        -2.07649         6.19968
| 41>    C       -2.58579        -3.68234         6.69478
| 42>    O       -3.08872        -4.37623         5.85026
| 43>    C       -2.48647        -4.17813         8.11069
| 44>    O       -3.16893        -5.10627         8.46597
| 45>    S       -1.29730        -3.56867         9.26839
| 46>    C        0.58555        -1.56867        10.78363
| 47>    O        0.39766        -2.84595        11.16739
| 48>    C        0.97780        -3.03878        12.38004
| 49>    C        1.55809        -1.84798        12.79087
| 50>    C        1.31275        -0.91029        11.77467
| 51>    C        1.74933         0.50848        11.78835
| 52>    F        0.72358         1.37564        11.67459
| 53>    F        2.38579         0.82740        12.92244
| 54>    F        2.59751         0.80892        10.78380
| 55>    C        0.89471        -4.32455        12.96665
| 56>    C        0.27797        -5.33203        12.28051
| 57>    C        0.04004        -6.65252        12.67319
| 58>    C       -0.61552        -7.52319        11.82906
| 59>    C       -1.02142        -8.85846        12.06909
| 60>    C       -1.70235        -9.43171        11.03665
| 61>    C       -1.86014        -8.58537         9.91487
| 62>    S       -1.10553        -7.03832        10.21558
| 63>    C       -2.50758        -8.81583         8.72011
| 64>    C       -3.24397        -9.97045         8.32775
| 65>    C       -3.81324        -9.87016         7.10671
| 66>    C       -3.56336        -8.62223         6.44048
| 67>    S       -2.53647        -7.60804         7.46324
| 68>    C       -4.01095        -8.21450         5.24545
| 69>    H       -2.32150         9.59525        -2.91318
| 70>    H       -4.38213         6.29009        -4.13732
| 71>    H       -0.48682         7.12385         4.03840
| 72>    H        0.94780         6.50502         3.22422
| 73>    H        0.63209         4.70687         5.95234
| 74>    H        0.28996         2.43044         7.11544
| 75>    H       -1.45171         0.47362         5.51878
| 76>    H        2.09164        -1.67022        13.70146
| 77>    H        1.32422        -4.46356        13.94569
| 78>    H       -0.09482        -5.07391        11.29727
| 79>    H        0.34460        -6.99875        13.65051
| 80>    H       -0.81068        -9.34848        13.00357
| 81>    H       -2.09293       -10.43378        11.05188
| 82>    H       -3.33289       -10.82506         8.97516
| 83>    H       -4.41955       -10.62883         6.64423
| 84>    H       -4.63432        -8.85084         4.64151
| 85>    H       -3.77224        -7.23787         4.86438
| 86> *
| 87>
| 88>                          ****END OF INPUT****

CARTESIAN COORDINATES (ANGSTROEM)
---------------------------------
  O     -1.911080    8.374500   -1.282160
  C     -2.276750    7.101650   -0.991210
  N     -3.021260    6.558060   -1.911440
  C     -3.163910    7.517670   -2.874530
  C     -2.469470    8.633770   -2.465870
  C     -3.937610    7.299290   -4.089430
  O     -4.090020    8.114960   -4.961720
  C     -1.856270    6.478660    0.216600
  S     -2.372400    4.821200    0.561640
  C     -1.489260    4.939010    2.025670
  C     -0.884360    6.200180    2.134580
  N     -1.102230    7.031430    1.123890
  C     -0.111020    6.315640    3.408630
  C     -0.351920    4.964090    4.012800
  C     -1.160910    4.187780    3.176500
  S     -1.471830    2.629200    3.820810
  C     -0.507340    3.012860    5.236380
  C      0.014820    4.297520    5.173340
  C     -0.320620    2.087160    6.289300
  C     -0.840870    0.836370    6.335360
  C     -0.639670   -0.060820    7.409790
  S      0.308900    0.362690    8.807620
  C      0.037850   -1.186300    9.534650
  C     -0.763780   -1.989790    8.721970
  C     -1.134460   -1.355330    7.528540
  S     -2.035760   -2.076490    6.199680
  C     -2.585790   -3.682340    6.694780
  O     -3.088720   -4.376230    5.850260
  C     -2.486470   -4.178130    8.110690
  O     -3.168930   -5.106270    8.465970
  S     -1.297300   -3.568670    9.268390
  C      0.585550   -1.568670   10.783630
  O      0.397660   -2.845950   11.167390
  C      0.977800   -3.038780   12.380040
  C      1.558090   -1.847980   12.790870
  C      1.312750   -0.910290   11.774670
  C      1.749330    0.508480   11.788350
  F      0.723580    1.375640   11.674590
  F      2.385790    0.827400   12.922440
  F      2.597510    0.808920   10.783800
  C      0.894710   -4.324550   12.966650
  C      0.277970   -5.332030   12.280510
  C      0.040040   -6.652520   12.673190
  C     -0.615520   -7.523190   11.829060
  C     -1.021420   -8.858460   12.069090
  C     -1.702350   -9.431710   11.036650
  C     -1.860140   -8.585370    9.914870
  S     -1.105530   -7.038320   10.215580
  C     -2.507580   -8.815830    8.720110
  C     -3.243970   -9.970450    8.327750
  C     -3.813240   -9.870160    7.106710
  C     -3.563360   -8.622230    6.440480
  S     -2.536470   -7.608040    7.463240
  C     -4.010950   -8.214500    5.245450
  H     -2.321500    9.595250   -2.913180
  H     -4.382130    6.290090   -4.137320
  H     -0.486820    7.123850    4.038400
  H      0.947800    6.505020    3.224220
  H      0.632090    4.706870    5.952340
  H      0.289960    2.430440    7.115440
  H     -1.451710    0.473620    5.518780
  H      2.091640   -1.670220   13.701460
  H      1.324220   -4.463560   13.945690
  H     -0.094820   -5.073910   11.297270
  H      0.344600   -6.998750   13.650510
  H     -0.810680   -9.348480   13.003570
  H     -2.092930  -10.433780   11.051880
  H     -3.332890  -10.825060    8.975160
  H     -4.419550  -10.628830    6.644230
  H     -4.634320   -8.850840    4.641510
  H     -3.772240   -7.237870    4.864380

 Total Charge           Charge          ....    0
 Multiplicity           Mult            ....    1
 Number of Electrons    NEL             ....  432
 Basis Dimension        Dim             ....  869

ORBITAL ENERGIES
----------------

  NO   OCC          E(Eh)            E(eV)
   0   2.0000     -88.978676     -2421.2329
   1   2.0000     -88.973360     -2421.0882
   2   2.0000     -88.969336     -2420.9787
   3   2.0000     -88.967007     -2420.9153
   4   2.0000     -88.963841     -2420.8292
   5   2.0000     -88.936399     -2420.0825
   6   2.0000     -88.932529     -2419.9771
   7   2.0000     -24.800214      -674.8481
   8   2.0000     -24.795914      -674.7311
   9   2.0000     -24.795283      -674.7139
  10   2.0000     -19.319486      -525.7099
  11   2.0000     -19.302105      -525.2370
  12   2.0000     -19.238216      -523.4985
  13   2.0000     -19.234788      -523.4052
  14   2.0000     -19.212250      -522.7919
  15   2.0000     -14.423990      -392.4967
  16   2.0000     -14.421821      -392.4377
  17   2.0000     -10.520255      -286.2707
  18   2.0000     -10.402122      -283.0561
  19   2.0000     -10.394276      -282.8426
  20   2.0000     -10.378122      -282.4031
  21   2.0000     -10.357168      -281.8329
  22   2.0000     -10.356114      -281.8042
  23   2.0000     -10.350999      -281.6650
  24   2.0000     -10.346753      -281.5495
  25   2.0000     -10.339717      -281.3580
  26   2.0000     -10.328489      -281.0525
  27   2.0000     -10.327345      -281.0214
  28   2.0000     -10.325868      -280.9811
  29   2.0000     -10.321793      -280.8703
  30   2.0000     -10.315302      -280.6936
  31   2.0000     -10.313865      -280.6545
  32   2.0000     -10.311984      -280.6034
  33   2.0000     -10.311580      -280.5924
  34   2.0000     -10.308473      -280.5078
  35   2.0000     -10.307804      -280.4896
  36   2.0000     -10.304828      -280.4086
  37   2.0000     -10.300699      -280.2963
  38   2.0000     -10.300386      -280.2878
  39   2.0000     -10.297645      -280.2132
  40   2.0000     -10.296614      -280.1851
  41   2.0000     -10.293987      -280.1136
  42   2.0000     -10.293709      -280.1061
  43   2.0000     -10.288308      -279.9591
  44   2.0000     -10.286951      -279.9222
  45   2.0000     -10.286777      -279.9174
  46   2.0000     -10.285951      -279.8949
  47   2.0000     -10.283530      -279.8291
  48   2.0000     -10.283136      -279.8184
  49   2.0000     -10.278556      -279.6937
  50   2.0000     -10.275358      -279.6067
  51   2.0000     -10.274563      -279.5851
  52   2.0000     -10.269195      -279.4390
  53   2.0000     -10.267071      -279.3812
  54   2.0000      -8.073348      -219.6870
  55   2.0000      -8.068279      -219.5490
  56   2.0000      -8.064337      -219.4418
  57   2.0000      -8.063474      -219.4183
  58   2.0000      -8.059038      -219.2976
  59   2.0000      -8.032681      -218.5804
  60   2.0000      -8.028908      -218.4777
  61   2.0000      -6.042652      -164.4289
  62   2.0000      -6.038503      -164.3160
  63   2.0000      -6.037719      -164.2947
  64   2.0000      -6.035492      -164.2341
  65   2.0000      -6.033686      -164.1849
  66   2.0000      -6.033658      -164.1842
  67   2.0000      -6.033307      -164.1746
  68   2.0000      -6.029912      -164.0822
  69   2.0000      -6.029667      -164.0756
  70   2.0000      -6.029016      -164.0579
  71   2.0000      -6.028782      -164.0515
  72   2.0000      -6.026339      -163.9850
  73   2.0000      -6.024375      -163.9316
  74   2.0000      -6.024275      -163.9289
  75   2.0000      -6.019914      -163.8102
  76   2.0000      -6.002394      -163.3334
  77   2.0000      -5.998668      -163.2321
  78   2.0000      -5.998406      -163.2249
  79   2.0000      -5.994606      -163.1215
  80   2.0000      -5.993556      -163.0929
  81   2.0000      -5.989627      -162.9860
  82   2.0000      -1.387078       -37.7443
  83   2.0000      -1.291008       -35.1301
  84   2.0000      -1.286070       -34.9957
  85   2.0000      -1.249359       -33.9968
  86   2.0000      -1.224801       -33.3285
  87   2.0000      -1.172118       -31.8949
  88   2.0000      -1.139542       -31.0085
  89   2.0000      -1.125683       -30.6314
  90   2.0000      -1.078579       -29.3496
  91   2.0000      -1.029661       -28.0185
  92   2.0000      -1.017334       -27.6831
  93   2.0000      -1.004177       -27.3250
  94   2.0000      -0.988979       -26.9115
  95   2.0000      -0.965753       -26.2795
  96   2.0000      -0.943151       -25.6644
  97   2.0000      -0.935781       -25.4639
  98   2.0000      -0.927253       -25.2318
  99   2.0000      -0.921694       -25.0806
 100   2.0000      -0.909467       -24.7479
 101   2.0000      -0.908249       -24.7147
 102   2.0000      -0.891876       -24.2692
 103   2.0000      -0.882026       -24.0012
 104   2.0000      -0.880206       -23.9516
 105   2.0000      -0.861374       -23.4392
 106   2.0000      -0.847566       -23.0634
 107   2.0000      -0.841615       -22.9015
 108   2.0000      -0.836404       -22.7597
 109   2.0000      -0.829270       -22.5656
 110   2.0000      -0.817473       -22.2446
 111   2.0000      -0.810740       -22.0614
 112   2.0000      -0.801256       -21.8033
 113   2.0000      -0.789793       -21.4914
 114   2.0000      -0.784802       -21.3555
 115   2.0000      -0.776396       -21.1268
 116   2.0000      -0.763976       -20.7889
 117   2.0000      -0.748008       -20.3543
 118   2.0000      -0.745917       -20.2974
 119   2.0000      -0.728332       -19.8189
 120   2.0000      -0.719886       -19.5891
 121   2.0000      -0.702910       -19.1271
 122   2.0000      -0.699770       -19.0417
 123   2.0000      -0.696703       -18.9583
 124   2.0000      -0.685424       -18.6513
 125   2.0000      -0.678773       -18.4704
 126   2.0000      -0.669572       -18.2200
 127   2.0000      -0.667607       -18.1665
 128   2.0000      -0.660828       -17.9821
 129   2.0000      -0.658181       -17.9100
 130   2.0000      -0.651571       -17.7301
 131   2.0000      -0.642105       -17.4726
 132   2.0000      -0.632017       -17.1981
 133   2.0000      -0.629578       -17.1317
 134   2.0000      -0.621354       -16.9079
 135   2.0000      -0.614816       -16.7300
 136   2.0000      -0.610661       -16.6169
 137   2.0000      -0.608415       -16.5558
 138   2.0000      -0.601637       -16.3714
 139   2.0000      -0.593918       -16.1613
 140   2.0000      -0.591509       -16.0958
 141   2.0000      -0.591286       -16.0897
 142   2.0000      -0.585953       -15.9446
 143   2.0000      -0.584676       -15.9098
 144   2.0000      -0.573838       -15.6149
 145   2.0000      -0.565970       -15.4008
 146   2.0000      -0.562087       -15.2952
 147   2.0000      -0.557752       -15.1772
 148   2.0000      -0.556909       -15.1543
 149   2.0000      -0.554208       -15.0808
 150   2.0000      -0.549067       -14.9409
 151   2.0000      -0.548100       -14.9146
 152   2.0000      -0.545801       -14.8520
 153   2.0000      -0.544473       -14.8159
 154   2.0000      -0.539384       -14.6774
 155   2.0000      -0.533110       -14.5067
 156   2.0000      -0.529850       -14.4179
 157   2.0000      -0.525091       -14.2885
 158   2.0000      -0.516687       -14.0598
 159   2.0000      -0.510940       -13.9034
 160   2.0000      -0.509948       -13.8764
 161   2.0000      -0.508549       -13.8383
 162   2.0000      -0.506842       -13.7919
 163   2.0000      -0.504368       -13.7246
 164   2.0000      -0.503678       -13.7058
 165   2.0000      -0.498118       -13.5545
 166   2.0000      -0.495436       -13.4815
 167   2.0000      -0.494895       -13.4668
 168   2.0000      -0.490458       -13.3460
 169   2.0000      -0.486980       -13.2514
 170   2.0000      -0.485626       -13.2146
 171   2.0000      -0.483828       -13.1656
 172   2.0000      -0.483398       -13.1539
 173   2.0000      -0.481359       -13.0984
 174   2.0000      -0.480064       -13.0632
 175   2.0000      -0.478637       -13.0244
 176   2.0000      -0.477498       -12.9934
 177   2.0000      -0.472598       -12.8601
 178   2.0000      -0.470430       -12.8011
 179   2.0000      -0.461303       -12.5527
 180   2.0000      -0.460266       -12.5245
 181   2.0000      -0.458232       -12.4691
 182   2.0000      -0.453302       -12.3350
 183   2.0000      -0.450015       -12.2455
 184   2.0000      -0.447087       -12.1658
 185   2.0000      -0.437355       -11.9010
 186   2.0000      -0.431714       -11.7475
 187   2.0000      -0.428986       -11.6733
 188   2.0000      -0.424291       -11.5456
 189   2.0000      -0.421910       -11.4808
 190   2.0000      -0.416638       -11.3373
 191   2.0000      -0.414536       -11.2801
 192   2.0000      -0.412614       -11.2278
 193   2.0000      -0.408562       -11.1175
 194   2.0000      -0.399518       -10.8714
 195   2.0000      -0.394266       -10.7285
 196   2.0000      -0.390861       -10.6359
 197   2.0000      -0.384962       -10.4753
 198   2.0000      -0.382991       -10.4217
 199   2.0000      -0.379524       -10.3274
 200   2.0000      -0.369579       -10.0568
 201   2.0000      -0.362048        -9.8518
 202   2.0000      -0.361557        -9.8385
 203   2.0000      -0.354905        -9.6574
 204   2.0000      -0.340385        -9.2623
 205   2.0000      -0.334217        -9.0945
 206   2.0000      -0.333410        -9.0726
 207   2.0000      -0.331631        -9.0241
 208   2.0000      -0.330629        -8.9969
 209   2.0000      -0.322800        -8.7838
 210   2.0000      -0.311545        -8.4776
 211   2.0000      -0.299184        -8.1412
 212   2.0000      -0.293585        -7.9888
 213   2.0000      -0.266445        -7.2504
 214   2.0000      -0.237843        -6.4720
 215   2.0000      -0.206820        -5.6279
 216   0.0000      -0.080006        -2.1771
 217   0.0000      -0.064385        -1.7520
 218   0.0000      -0.051283        -1.3955
 219   0.0000      -0.033079        -0.9001
 220   0.0000      -0.017045        -0.4638

MULLIKEN ATOMIC CHARGES
-----------------------
   0 O :   -0.146621
   1 C :    0.118301
   2 N :   -0.087248
   3 C :   -0.051252
   4 C :    0.139511
   5 C :    0.168711
   6 O :   -0.175851
   7 C :   -0.150596
   8 S :    0.196598
   9 C :   -0.042983
  10 C :   -0.239019
  11 N :    0.004299
  12 C :    0.398360
  13 C :   -0.151594
  14 C :   -0.099762
  15 S :    0.146269
  16 C :   -0.045071
  17 C :   -0.027723
  18 C :    0.006005
  19 C :   -0.022014
  20 C :   -0.073508
  21 S :    0.151312
  22 C :   -0.162103
  23 C :    0.002784
  24 C :   -0.048391
  25 S :    0.077696
  26 C :    0.083542
  27 O :   -0.148236
  28 C :    0.090186
  29 O :   -0.139453
  30 S :    0.101814
  31 C :    0.166535
  32 O :   -0.229565
  33 C :    0.208287
  34 C :   -0.070654
  35 C :   -0.152075
  36 C :    0.526485
  37 F :   -0.167721
  38 F :   -0.152592
  39 F :   -0.169337
  40 C :   -0.037537
  41 C :    0.014981
  42 C :   -0.002105
  43 C :   -0.016566
  44 C :    0.028014
  45 C :    0.036034
  46 C :   -0.045411
  47 S :    0.052756
  48 C :   -0.056426
  49 C :    0.025583
  50 C :    0.058432
  51 C :   -0.073601
  52 S :    0.121877
  53 C :   -0.018106
  54 H :    0.035693
  55 H :   -0.011013
  56 H :    0.038305
  57 H :    0.039497
  58 H :   -0.018546
  59 H :    0.001986
  60 H :    0.009022
  61 H :   -0.007452
  62 H :   -0.016432
  63 H :    0.028823
  64 H :   -0.023574
  65 H :   -0.015694
  66 H :   -0.015046
  67 H :   -0.012441
  68 H :   -0.011009
  69 H :    0.019851
  70 H :    0.036780
Sum of atomic charges:    0.0000000

LOEWDIN ATOMIC CHARGES
----------------------
   0 O :    0.046565
   1 C :    0.016928
   2 N :   -0.101970
   3 C :   -0.108243
   4 C :    0.076870
   5 C :    0.104240
   6 O :   -0.131953
   7 C :   -0.162345
   8 S :    0.460670
   9 C :   -0.206702
  10 C :   -0.041473
  11 N :   -0.067547
  12 C :   -0.011280
  13 C :   -0.047204
  14 C :   -0.195897
  15 S :    0.439758
  16 C :   -0.164170
  17 C :   -0.046418
  18 C :   -0.031611
  19 C :   -0.062556
  20 C :   -0.179801
  21 S :    0.471604
  22 C :   -0.207694
  23 C :   -0.213175
  24 C :   -0.220736
  25 S :    0.383490
  26 C :   -0.108024
  27 O :   -0.120602
  28 C :   -0.122911
  29 O :   -0.111083
  30 S :    0.415328
  31 C :    0.021685
  32 O :    0.013150
  33 C :    0.049867
  34 C :   -0.052629
  35 C :   -0.126073
  36 C :    0.163422
  37 F :   -0.068616
  38 F :   -0.053143
  39 F :   -0.069789
  40 C :   -0.065154
  41 C :   -0.013032
  42 C :   -0.077528
  43 C :   -0.125521
  44 C :   -0.047109
  45 C :   -0.020919
  46 C :   -0.191964
  47 S :    0.380629
  48 C :   -0.165798
  49 C :   -0.030569
  50 C :   -0.023430
  51 C :   -0.143656
  52 S :    0.405075
  53 C :   -0.057041
  54 H :    0.037223
  55 H :    0.002279
  56 H :    0.057629
  57 H :    0.057741
  58 H :    0.033523
  59 H :    0.031515
  60 H :    0.023576
  61 H :    0.036244
  62 H :    0.034005
  63 H :    0.013587
  64 H :    0.029102
  65 H :    0.032081
  66 H :    0.031400
  67 H :    0.031842
  68 H :    0.033512
  69 H :    0.028556
  70 H :    0.032269

  Mayer bond orders larger than 0.100000
B(  0-O ,  1-C ) :   1.2063 B(  0-O ,  4-C ) :   1.1783 B(  1-C ,  2-N ) :   1.7827
B(  1-C ,  7-C ) :   1.0490 B(  2-N ,  3-C ) :   1.3048 B(  3-C ,  4-C ) :   1.5038
B(  3-C ,  5-C ) :   0.9696 B(  4-C , 54-H ) :   0.9909 B(  5-C ,  6-O ) :   2.2053
B(  5-C , 55-H ) :   0.9521 B(  7-C ,  8-S ) :   1.1093 B(  7-C , 11-N ) :   1.6730
B(  8-S ,  9-C ) :   1.0927 B(  8-S , 11-N ) :   0.1100 B(  9-C , 10-C ) :   1.4741
B(  9-C , 14-C ) :   1.1908 B( 10-C , 11-N ) :   1.4447 B( 10-C , 12-C ) :   1.0452
B( 12-C , 13-C ) :   0.9810 B( 12-C , 56-H ) :   0.8587 B( 12-C , 57-H ) :   0.8595
B( 13-C , 14-C ) :   1.5202 B( 13-C , 17-C ) :   1.2954 B( 14-C , 15-S ) :   1.0852
B( 15-S , 16-C ) :   1.0965 B( 16-C , 17-C ) :   1.4350 B( 16-C , 18-C ) :   1.1830
B( 17-C , 58-H ) :   1.0090 B( 18-C , 19-C ) :   1.6264 B( 18-C , 59-H ) :   0.9749
B( 19-C , 20-C ) :   1.1840 B( 19-C , 60-H ) :   0.9584 B( 20-C , 21-S ) :   1.1014
B( 20-C , 22-C ) :   0.1184 B( 20-C , 24-C ) :   1.5441 B( 21-S , 22-C ) :   1.1367
B( 22-C , 23-C ) :   1.5249 B( 22-C , 31-C ) :   1.1468 B( 23-C , 24-C ) :   1.3028
B( 23-C , 30-S ) :   0.9838 B( 24-C , 25-S ) :   0.9651 B( 25-S , 26-C ) :   1.0573
B( 25-S , 27-O ) :   0.1377 B( 26-C , 27-O ) :   2.1318 B( 26-C , 28-C ) :   0.7843
B( 28-C , 29-O ) :   2.0995 B( 28-C , 30-S ) :   1.0431 B( 29-O , 30-S ) :   0.1316
B( 31-C , 32-O ) :   1.1491 B( 31-C , 35-C ) :   1.4517 B( 32-O , 33-C ) :   1.1015
B( 33-C , 34-C ) :   1.3943 B( 33-C , 40-C ) :   1.1652 B( 34-C , 35-C ) :   1.2603
B( 34-C , 61-H ) :   1.0197 B( 35-C , 36-C ) :   0.9523 B( 36-C , 37-F ) :   1.1671
B( 36-C , 38-F ) :   1.1852 B( 36-C , 39-F ) :   1.1618 B( 40-C , 41-C ) :   1.5947
B( 40-C , 62-H ) :   0.9762 B( 41-C , 42-C ) :   1.1800 B( 41-C , 63-H ) :   0.9636
B( 42-C , 43-C ) :   1.5312 B( 42-C , 64-H ) :   0.9865 B( 43-C , 44-C ) :   1.1508
B( 43-C , 47-S ) :   1.0602 B( 44-C , 45-C ) :   1.5844 B( 44-C , 65-H ) :   0.9982
B( 45-C , 46-C ) :   1.1905 B( 45-C , 66-H ) :   0.9927 B( 46-C , 47-S ) :   1.0394
B( 46-C , 48-C ) :   1.5212 B( 48-C , 49-C ) :   1.1518 B( 48-C , 52-S ) :   1.0810
B( 49-C , 50-C ) :   1.6628 B( 49-C , 67-H ) :   0.9916 B( 50-C , 51-C ) :   1.0771
B( 50-C , 68-H ) :   0.9925 B( 51-C , 52-S ) :   1.0226 B( 51-C , 53-C ) :   1.8623
B( 53-C , 69-H ) :   0.9518 B( 53-C , 70-H ) :   0.9359

-----------------------------------------------------------------------------
         ABSORPTION SPECTRUM VIA TRANSITION ELECTRIC DIPOLE MOMENTS
-----------------------------------------------------------------------------
State   Energy  Wavelength   fosc         T2         TX        TY        TZ
        (cm-1)    (nm)                  (au**2)     (au)      (au)      (au)
-----------------------------------------------------------------------------
   0   13935.4    717.6   0.768601100  18.15754  -0.88111  -4.13153   0.55824
   1   15952.2    626.9   0.092783815   1.91482   0.75393   0.68698   0.93513
   2   19730.6    506.8   0.766973000  12.79721  -1.38073   0.25306  -3.29040
   3   20693.2    483.3   1.399994109  22.27278  -1.02059   2.46222  -3.89469
   4   23807.1    420.0   0.028355968   0.39211   0.10279   0.59694  -0.15880
   5   25112.3    398.2   0.123535197   1.61949   0.09352   1.10022  -0.63266
   6   26090.9    383.3   0.115131921   1.45272  -0.64179  -0.28066  -0.98085
   7   27498.1    363.7   0.120301572   1.44027   0.67238   0.27458   0.95539
   8   28957.1    345.3   0.038574398   0.43855  -0.36009  -0.46491  -0.30455
   9   29422.9    339.9   0.013878615   0.15529  -0.26573  -0.27142  -0.10492
  10   30661.6    326.1   0.191781865   2.05915   0.33852  -0.87206   1.08815
  11   31000.8    322.6   0.004081437   0.04334   0.00166   0.19987   0.05825
  12   31128.2    321.3   0.133153721   1.40823  -0.54969  -1.00501  -0.30989
  13   31699.8    315.5   0.014521675   0.15081  -0.01674   0.24606  -0.29998
  14   32965.8    303.3   0.070092422   0.69998  -0.32305   0.37598  -0.67399
  15   33429.6    299.1   0.102911935   1.01347  -0.48379  -0.86682  -0.16743
  16   34348.3    291.1   0.080898725   0.77538  -0.55416  -0.50371  -0.46321
  17   34386.9    290.8   0.000114001   0.00109   0.01290   0.03039  -0.00115
  18   34447.1    290.3   0.069983887   0.66884   0.31482   0.75080  -0.07765
  19   34496.8    289.9   0.110936769   1.05870   0.28012  -0.58978   0.79523
  20   34619.6    288.9   0.009996028   0.09506  -0.16517  -0.11002  -0.23594
  21   35924.3    278.4   0.024140626   0.22123   0.18369  -0.24059   0.36000
  22   36185.2    276.4   0.199010914   1.81060  -0.72489  -0.86435  -0.73352
  23   36585.5    273.3   0.044645023   0.40173   0.20385  -0.09796   0.59210
  24   37465.2    266.9   0.099979262   0.87853  -0.51883  -0.34302  -0.70120
  25   37846.4    264.2   0.025965289   0.22586  -0.19437   0.12014  -0.41671
  26   38119.9    262.3   0.004281902   0.03698   0.01525  -0.14948   0.12001
  27   38537.8    259.5   0.029086575   0.24847  -0.27360  -0.34452  -0.23436
  28   38929.2    256.9   0.075478497   0.63830   0.15608   0.76348  -0.17617
  29   38961.1    256.7   0.111899240   0.94552   0.45199   0.82906   0.23214
  30   39265.0    254.7   0.055370939   0.46425  -0.17273  -0.65543   0.06949
  31   39550.9    252.8   0.025742218   0.21427  -0.24068  -0.08724  -0.38566
  32   40068.0    249.6   0.056666576   0.46559   0.32957   0.59728  -0.01532

FINAL SINGLE POINT ENERGY     -4989.054432393426

DIPOLE MOMENT
-------------
                                X             Y             Z
Electronic contribution:     11.26609      27.75857       8.45926
Nuclear contribution   :    -10.62247     -28.74255      -6.97244
                        -----------------------------------------
Total Dipole Moment    :      0.64362      -0.98398       1.48682
                        -----------------------------------------
Magnitude (a.u.)       :      1.89554
Magnitude (Debye)      :      4.81809

Rotational constants in cm-1:     0.002047     0.000433     0.000359
Rotational constants in MHz :    61.362670    12.974044    10.758989

                             ****ORCA TERMINATED NORMALLY****
TOTAL RUN TIME: 0 days 0 hours 5 minutes 22 seconds 522 msec
