                         Program Version 4.2.0 -  RELEASE  -
|  1> # ORCA input file
|  2> # SCF done       -170.746108367395          0.000890908737
|  3> ! CAM-B3LYP def2-SVP def2/J RIJCOSX Grid4 TightSCF
|  4> %maxcore 5000
|  5> %tddft
|  6>     Mode sTDDFT
|  7>     Ethresh 5.0
|  8>     maxcore 5000
|  9> end
| 10>
| 11> %pal
| 12>   nprocs 6
| 13>   end
| 14> * xyz 0 1
| 15>    C        3.19884         2.06516        -0.88680
| 16>    C        2.73746         0.95317         0.02240
| 17>    O        2.22335        -0.05176        -0.39505
| 18>    C        2.96106         1.20227         1.51018
| 19>    C        4.45366         1.30784         1.83479
| 20>    C        5.18810         0.05225         1.37048
| 21>    C        4.46144        -1.19406         1.76907
| 22>    C        5.00611        -2.47342         1.69001
| 23>    C        6.24539        -2.96812         1.21978
| 24>    C        7.24942        -2.29835         0.59508
| 25>    C        8.42144        -2.96061         0.16599
| 26>    N        8.68462        -4.23406         0.30023
| 27>    C        9.86299        -4.54899        -0.21673
| 28>    C       10.58827        -3.49288        -0.78874
| 29>    S        9.70760        -2.02807        -0.65630
| 30>    C       11.80490        -3.99923        -1.28382
| 31>    S       13.19908        -3.42347        -2.08860
| 32>    C       13.88111        -5.04477        -2.09695
| 33>    C       15.13060        -5.24555        -2.71205
| 34>    C       15.81610        -6.42534        -2.74882
| 35>    C       17.07844        -6.60748        -3.34758
| 36>    C       17.74050        -5.86243        -4.28770
| 37>    C       19.21273        -6.02300        -4.39894
| 38>    O       19.89195        -6.88434        -3.88765
| 39>    C       19.66917        -4.88069        -5.22310
| 40>    C       20.95834        -4.49524        -5.52554
| 41>    C       21.12158        -3.35367        -6.30232
| 42>   Cl       22.71091        -2.82599        -6.70992
| 43>    C       20.02664        -2.62604        -6.75390
| 44>    C       18.73356        -3.02646        -6.45204
| 45>    C       18.54969        -4.16545        -5.68348
| 46>    C       17.33533        -4.84347        -5.22705
| 47>    C       16.09595        -4.68121        -5.79540
| 48>    C       15.80213        -3.72234        -6.78507
| 49>    N       15.49860        -2.94927        -7.57815
| 50>    C       14.98459        -5.49921        -5.51573
| 51>    N       14.05223        -6.14735        -5.34537
| 52>    C       13.02824        -5.96302        -1.48949
| 53>    C       11.86174        -5.38014        -1.03216
| 54>    C       10.61581        -5.83563        -0.33156
| 55>    S        3.86971        -3.65127         2.28418
| 56>    C        2.67407        -2.43403         2.61664
| 57>    C        1.44068        -2.88266         3.15926
| 58>    C        0.43555        -2.13456         3.67591
| 59>    C       -0.77907        -2.66814         4.18453
| 60>    C       -1.20118        -3.98402         4.29963
| 61>    C       -2.47582        -4.08688         4.84185
| 62>    C       -3.04236        -2.84517         5.14406
| 63>    S       -1.99475        -1.54330         4.76602
| 64>    C       -4.33678        -3.04287         5.67368
| 65>    S       -5.68416        -2.16545         6.26541
| 66>    C       -6.48144        -3.72654         6.51635
| 67>    C       -7.80229        -3.75027         7.04288
| 68>    N       -8.51675        -2.70549         7.35103
| 69>    C       -9.70636        -3.20264         7.80602
| 70>    C      -10.79502        -2.34286         8.24969
| 71>    O      -11.85638        -2.73528         8.66090
| 72>    C       -9.64142        -4.57618         7.74633
| 73>    O       -8.44541        -4.92286         7.26627
| 74>    N       -5.78148        -4.77291         6.18232
| 75>    C       -4.59155        -4.42166         5.71204
| 76>    C       -3.42437        -5.19637         5.18907
| 77>    C        3.15079        -1.17387         2.26778
| 78>    C        2.34242         0.08277         2.34914
| 79>    H        2.71443         1.97003        -1.85515
| 80>    H        4.27399         1.98358        -1.03715
| 81>    H        2.98721         3.04030        -0.45741
| 82>    H        2.47006         2.14931         1.75974
| 83>    H        4.56337         1.41508         2.91621
| 84>    H        4.89348         2.18851         1.36531
| 85>    H        6.19304         0.04113         1.79974
| 86>    H        5.28907         0.06306         0.28021
| 87>    H        6.39770        -4.03108         1.35776
| 88>    H        7.20080        -1.24529         0.37648
| 89>    H       15.58553        -4.36400        -3.14553
| 90>    H       15.41571        -7.27486        -2.21454
| 91>    H       17.66841        -7.43379        -2.96026
| 92>    H       21.80232        -5.06402        -5.16884
| 93>    H       20.18845        -1.73958        -7.34687
| 94>    H       17.89925        -2.44381        -6.80762
| 95>    H       13.26311        -7.00785        -1.40655
| 96>    H       10.82304        -6.27281         0.64675
| 97>    H       10.06185        -6.57375        -0.91440
| 98>    H        1.32866        -3.95885         3.16399
| 99>    H        0.52055        -1.06193         3.73422
|100>    H       -0.59967        -4.82201         3.99997
|101>    H      -10.54821        -1.26922         8.17710
|102>    H      -10.34260        -5.34361         8.00290
|103>    H       -3.69467        -5.79848         4.32001
|104>    H       -3.01467        -5.86971         5.94404
|105>    H        2.27103         0.41106         3.39075
|106>    H        1.33491        -0.12171         1.98022
|107> *
|108>
|109>                          ****END OF INPUT****

CARTESIAN COORDINATES (ANGSTROEM)
---------------------------------
  C      3.198840    2.065160   -0.886800
  C      2.737460    0.953170    0.022400
  O      2.223350   -0.051760   -0.395050
  C      2.961060    1.202270    1.510180
  C      4.453660    1.307840    1.834790
  C      5.188100    0.052250    1.370480
  C      4.461440   -1.194060    1.769070
  C      5.006110   -2.473420    1.690010
  C      6.245390   -2.968120    1.219780
  C      7.249420   -2.298350    0.595080
  C      8.421440   -2.960610    0.165990
  N      8.684620   -4.234060    0.300230
  C      9.862990   -4.548990   -0.216730
  C     10.588270   -3.492880   -0.788740
  S      9.707600   -2.028070   -0.656300
  C     11.804900   -3.999230   -1.283820
  S     13.199080   -3.423470   -2.088600
  C     13.881110   -5.044770   -2.096950
  C     15.130600   -5.245550   -2.712050
  C     15.816100   -6.425340   -2.748820
  C     17.078440   -6.607480   -3.347580
  C     17.740500   -5.862430   -4.287700
  C     19.212730   -6.023000   -4.398940
  O     19.891950   -6.884340   -3.887650
  C     19.669170   -4.880690   -5.223100
  C     20.958340   -4.495240   -5.525540
  C     21.121580   -3.353670   -6.302320
  Cl    22.710910   -2.825990   -6.709920
  C     20.026640   -2.626040   -6.753900
  C     18.733560   -3.026460   -6.452040
  C     18.549690   -4.165450   -5.683480
  C     17.335330   -4.843470   -5.227050
  C     16.095950   -4.681210   -5.795400
  C     15.802130   -3.722340   -6.785070
  N     15.498600   -2.949270   -7.578150
  C     14.984590   -5.499210   -5.515730
  N     14.052230   -6.147350   -5.345370
  C     13.028240   -5.963020   -1.489490
  C     11.861740   -5.380140   -1.032160
  C     10.615810   -5.835630   -0.331560
  S      3.869710   -3.651270    2.284180
  C      2.674070   -2.434030    2.616640
  C      1.440680   -2.882660    3.159260
  C      0.435550   -2.134560    3.675910
  C     -0.779070   -2.668140    4.184530
  C     -1.201180   -3.984020    4.299630
  C     -2.475820   -4.086880    4.841850
  C     -3.042360   -2.845170    5.144060
  S     -1.994750   -1.543300    4.766020
  C     -4.336780   -3.042870    5.673680
  S     -5.684160   -2.165450    6.265410
  C     -6.481440   -3.726540    6.516350
  C     -7.802290   -3.750270    7.042880
  N     -8.516750   -2.705490    7.351030
  C     -9.706360   -3.202640    7.806020
  C    -10.795020   -2.342860    8.249690
  O    -11.856380   -2.735280    8.660900
  C     -9.641420   -4.576180    7.746330
  O     -8.445410   -4.922860    7.266270
  N     -5.781480   -4.772910    6.182320
  C     -4.591550   -4.421660    5.712040
  C     -3.424370   -5.196370    5.189070
  C      3.150790   -1.173870    2.267780
  C      2.342420    0.082770    2.349140
  H      2.714430    1.970030   -1.855150
  H      4.273990    1.983580   -1.037150
  H      2.987210    3.040300   -0.457410
  H      2.470060    2.149310    1.759740
  H      4.563370    1.415080    2.916210
  H      4.893480    2.188510    1.365310
  H      6.193040    0.041130    1.799740
  H      5.289070    0.063060    0.280210
  H      6.397700   -4.031080    1.357760
  H      7.200800   -1.245290    0.376480
  H     15.585530   -4.364000   -3.145530
  H     15.415710   -7.274860   -2.214540
  H     17.668410   -7.433790   -2.960260
  H     21.802320   -5.064020   -5.168840
  H     20.188450   -1.739580   -7.346870
  H     17.899250   -2.443810   -6.807620
  H     13.263110   -7.007850   -1.406550
  H     10.823040   -6.272810    0.646750
  H     10.061850   -6.573750   -0.914400
  H      1.328660   -3.958850    3.163990
  H      0.520550   -1.061930    3.734220
  H     -0.599670   -4.822010    3.999970
  H    -10.548210   -1.269220    8.177100
  H    -10.342600   -5.343610    8.002900
  H     -3.694670   -5.798480    4.320010
  H     -3.014670   -5.869710    5.944040
  H      2.271030    0.411060    3.390750
  H      1.334910   -0.121710    1.980220

 Total Charge           Charge          ....    0
 Multiplicity           Mult            ....    1
 Number of Electrons    NEL             ....  486
 Basis Dimension        Dim             .... 1060

ORBITAL ENERGIES
----------------

  NO   OCC          E(Eh)            E(eV)
   0   2.0000    -101.590112     -2764.4075
   1   2.0000     -88.975899     -2421.1573
   2   2.0000     -88.972062     -2421.0529
   3   2.0000     -88.970851     -2421.0199
   4   2.0000     -88.966128     -2420.8914
   5   2.0000     -88.951962     -2420.5059
   6   2.0000     -19.317656      -525.6601
   7   2.0000     -19.212199      -522.7905
   8   2.0000     -19.211364      -522.7678
   9   2.0000     -19.208328      -522.6852
  10   2.0000     -14.421610      -392.4319
  11   2.0000     -14.419661      -392.3789
  12   2.0000     -14.413347      -392.2071
  13   2.0000     -14.408782      -392.0829
  14   2.0000     -14.408471      -392.0744
  15   2.0000     -10.376383      -282.3557
  16   2.0000     -10.360394      -281.9206
  17   2.0000     -10.359075      -281.8848
  18   2.0000     -10.356363      -281.8110
  19   2.0000     -10.349277      -281.6181
  20   2.0000     -10.343247      -281.4541
  21   2.0000     -10.342434      -281.4319
  22   2.0000     -10.342173      -281.4248
  23   2.0000     -10.335722      -281.2493
  24   2.0000     -10.334240      -281.2090
  25   2.0000     -10.320092      -280.8240
  26   2.0000     -10.315215      -280.6913
  27   2.0000     -10.312599      -280.6201
  28   2.0000     -10.311981      -280.6033
  29   2.0000     -10.310074      -280.5514
  30   2.0000     -10.308965      -280.5212
  31   2.0000     -10.308843      -280.5179
  32   2.0000     -10.308328      -280.5039
  33   2.0000     -10.308274      -280.5024
  34   2.0000     -10.308175      -280.4997
  35   2.0000     -10.307954      -280.4937
  36   2.0000     -10.306717      -280.4600
  37   2.0000     -10.306202      -280.4460
  38   2.0000     -10.302635      -280.3489
  39   2.0000     -10.302290      -280.3396
  40   2.0000     -10.299991      -280.2770
  41   2.0000     -10.296475      -280.1813
  42   2.0000     -10.296324      -280.1772
  43   2.0000     -10.295893      -280.1655
  44   2.0000     -10.294324      -280.1228
  45   2.0000     -10.293208      -280.0924
  46   2.0000     -10.291844      -280.0553
  47   2.0000     -10.291656      -280.0502
  48   2.0000     -10.291336      -280.0415
  49   2.0000     -10.288969      -279.9771
  50   2.0000     -10.288174      -279.9554
  51   2.0000     -10.287529      -279.9379
  52   2.0000     -10.286664      -279.9143
  53   2.0000     -10.286084      -279.8986
  54   2.0000     -10.285676      -279.8875
  55   2.0000     -10.284998      -279.8690
  56   2.0000     -10.284736      -279.8619
  57   2.0000     -10.284102      -279.8446
  58   2.0000     -10.283752      -279.8351
  59   2.0000     -10.281443      -279.7723
  60   2.0000     -10.280942      -279.7587
  61   2.0000     -10.280428      -279.7447
  62   2.0000     -10.278072      -279.6805
  63   2.0000     -10.275445      -279.6091
  64   2.0000      -9.545228      -259.7389
  65   2.0000      -8.070555      -219.6110
  66   2.0000      -8.067275      -219.5217
  67   2.0000      -8.066112      -219.4901
  68   2.0000      -8.061378      -219.3612
  69   2.0000      -8.048048      -218.9985
  70   2.0000      -7.315373      -199.0614
  71   2.0000      -7.305508      -198.7930
  72   2.0000      -7.305026      -198.7799
  73   2.0000      -6.039861      -164.3530
  74   2.0000      -6.036542      -164.2627
  75   2.0000      -6.035741      -164.2409
  76   2.0000      -6.035302      -164.2289
  77   2.0000      -6.032684      -164.1577
  78   2.0000      -6.032511      -164.1530
  79   2.0000      -6.031455      -164.1242
  80   2.0000      -6.030694      -164.1035
  81   2.0000      -6.029388      -164.0680
  82   2.0000      -6.028175      -164.0350
  83   2.0000      -6.026659      -163.9937
  84   2.0000      -6.023419      -163.9056
  85   2.0000      -6.017108      -163.7338
  86   2.0000      -6.013327      -163.6309
  87   2.0000      -6.010172      -163.5451
  88   2.0000      -1.247517       -33.9466
  89   2.0000      -1.131129       -30.7796
  90   2.0000      -1.124801       -30.6074
  91   2.0000      -1.123315       -30.5670
  92   2.0000      -1.075638       -29.2696
  93   2.0000      -1.072146       -29.1746
  94   2.0000      -1.027738       -27.9662
  95   2.0000      -1.013622       -27.5821
  96   2.0000      -1.005875       -27.3712
  97   2.0000      -1.000783       -27.2327
  98   2.0000      -0.999609       -27.2007
  99   2.0000      -0.991877       -26.9904
 100   2.0000      -0.987273       -26.8651
 101   2.0000      -0.975447       -26.5433
 102   2.0000      -0.942181       -25.6380
 103   2.0000      -0.936894       -25.4942
 104   2.0000      -0.932587       -25.3770
 105   2.0000      -0.926983       -25.2245
 106   2.0000      -0.912183       -24.8218
 107   2.0000      -0.906768       -24.6744
 108   2.0000      -0.904742       -24.6193
 109   2.0000      -0.900416       -24.5016
 110   2.0000      -0.889199       -24.1963
 111   2.0000      -0.886975       -24.1358
 112   2.0000      -0.878795       -23.9132
 113   2.0000      -0.858533       -23.3619
 114   2.0000      -0.857573       -23.3358
 115   2.0000      -0.853813       -23.2334
 116   2.0000      -0.849496       -23.1160
 117   2.0000      -0.839302       -22.8386
 118   2.0000      -0.838133       -22.8068
 119   2.0000      -0.820371       -22.3234
 120   2.0000      -0.817883       -22.2557
 121   2.0000      -0.799186       -21.7470
 122   2.0000      -0.793112       -21.5817
 123   2.0000      -0.785703       -21.3801
 124   2.0000      -0.779047       -21.1990
 125   2.0000      -0.770070       -20.9547
 126   2.0000      -0.760715       -20.7001
 127   2.0000      -0.758042       -20.6274
 128   2.0000      -0.739941       -20.1348
 129   2.0000      -0.731735       -19.9115
 130   2.0000      -0.725441       -19.7403
 131   2.0000      -0.714799       -19.4507
 132   2.0000      -0.704652       -19.1745
 133   2.0000      -0.696002       -18.9392
 134   2.0000      -0.693732       -18.8774
 135   2.0000      -0.679997       -18.5037
 136   2.0000      -0.676740       -18.4150
 137   2.0000      -0.671387       -18.2694
 138   2.0000      -0.664400       -18.0793
 139   2.0000      -0.660997       -17.9866
 140   2.0000      -0.649588       -17.6762
 141   2.0000      -0.646409       -17.5897
 142   2.0000      -0.641794       -17.4641
 143   2.0000      -0.632535       -17.2122
 144   2.0000      -0.625593       -17.0233
 145   2.0000      -0.622740       -16.9456
 146   2.0000      -0.612197       -16.6587
 147   2.0000      -0.607829       -16.5399
 148   2.0000      -0.607008       -16.5175
 149   2.0000      -0.601038       -16.3551
 150   2.0000      -0.595034       -16.1917
 151   2.0000      -0.589456       -16.0399
 152   2.0000      -0.589305       -16.0358
 153   2.0000      -0.582475       -15.8499
 154   2.0000      -0.579134       -15.7590
 155   2.0000      -0.577310       -15.7094
 156   2.0000      -0.573692       -15.6109
 157   2.0000      -0.569522       -15.4975
 158   2.0000      -0.564281       -15.3549
 159   2.0000      -0.563680       -15.3385
 160   2.0000      -0.557801       -15.1785
 161   2.0000      -0.554738       -15.0952
 162   2.0000      -0.554031       -15.0760
 163   2.0000      -0.552517       -15.0347
 164   2.0000      -0.545846       -14.8532
 165   2.0000      -0.542960       -14.7747
 166   2.0000      -0.538217       -14.6456
 167   2.0000      -0.538048       -14.6410
 168   2.0000      -0.534383       -14.5413
 169   2.0000      -0.533981       -14.5304
 170   2.0000      -0.527850       -14.3635
 171   2.0000      -0.519330       -14.1317
 172   2.0000      -0.517306       -14.0766
 173   2.0000      -0.515301       -14.0220
 174   2.0000      -0.510629       -13.8949
 175   2.0000      -0.509365       -13.8605
 176   2.0000      -0.505167       -13.7463
 177   2.0000      -0.503276       -13.6948
 178   2.0000      -0.500857       -13.6290
 179   2.0000      -0.498030       -13.5521
 180   2.0000      -0.497147       -13.5281
 181   2.0000      -0.493378       -13.4255
 182   2.0000      -0.492901       -13.4125
 183   2.0000      -0.486839       -13.2476
 184   2.0000      -0.484805       -13.1922
 185   2.0000      -0.484598       -13.1866
 186   2.0000      -0.482816       -13.1381
 187   2.0000      -0.481033       -13.0896
 188   2.0000      -0.479012       -13.0346
 189   2.0000      -0.478542       -13.0218
 190   2.0000      -0.475973       -12.9519
 191   2.0000      -0.475443       -12.9375
 192   2.0000      -0.474077       -12.9003
 193   2.0000      -0.469612       -12.7788
 194   2.0000      -0.466183       -12.6855
 195   2.0000      -0.463708       -12.6181
 196   2.0000      -0.458994       -12.4899
 197   2.0000      -0.456144       -12.4123
 198   2.0000      -0.453034       -12.3277
 199   2.0000      -0.450399       -12.2560
 200   2.0000      -0.446731       -12.1562
 201   2.0000      -0.446303       -12.1445
 202   2.0000      -0.443508       -12.0685
 203   2.0000      -0.443321       -12.0634
 204   2.0000      -0.440052       -11.9744
 205   2.0000      -0.435832       -11.8596
 206   2.0000      -0.434558       -11.8249
 207   2.0000      -0.434135       -11.8134
 208   2.0000      -0.430703       -11.7200
 209   2.0000      -0.427757       -11.6399
 210   2.0000      -0.424792       -11.5592
 211   2.0000      -0.424042       -11.5388
 212   2.0000      -0.420462       -11.4414
 213   2.0000      -0.418614       -11.3911
 214   2.0000      -0.413758       -11.2589
 215   2.0000      -0.411912       -11.2087
 216   2.0000      -0.410941       -11.1823
 217   2.0000      -0.404785       -11.0148
 218   2.0000      -0.401415       -10.9231
 219   2.0000      -0.397604       -10.8194
 220   2.0000      -0.395823       -10.7709
 221   2.0000      -0.387858       -10.5541
 222   2.0000      -0.383103       -10.4248
 223   2.0000      -0.382532       -10.4092
 224   2.0000      -0.367037        -9.9876
 225   2.0000      -0.360255        -9.8030
 226   2.0000      -0.358975        -9.7682
 227   2.0000      -0.354493        -9.6462
 228   2.0000      -0.352915        -9.6033
 229   2.0000      -0.346523        -9.4294
 230   2.0000      -0.344371        -9.3708
 231   2.0000      -0.332556        -9.0493
 232   2.0000      -0.332274        -9.0416
 233   2.0000      -0.331487        -9.0202
 234   2.0000      -0.328116        -8.9285
 235   2.0000      -0.328038        -8.9264
 236   2.0000      -0.323670        -8.8075
 237   2.0000      -0.309270        -8.4157
 238   2.0000      -0.307002        -8.3539
 239   2.0000      -0.300752        -8.1839
 240   2.0000      -0.277337        -7.5467
 241   2.0000      -0.247061        -6.7229
 242   2.0000      -0.223965        -6.0944
 243   0.0000      -0.092312        -2.5119
 244   0.0000      -0.068482        -1.8635
 245   0.0000      -0.057213        -1.5568
 246   0.0000      -0.040876        -1.1123
 247   0.0000      -0.017916        -0.4875

MULLIKEN ATOMIC CHARGES
-----------------------
   0 C :    0.068327
   1 C :   -0.033347
   2 O :   -0.170246
   3 C :   -0.099130
   4 C :    0.065574
   5 C :    0.081725
   6 C :   -0.067857
   7 C :   -0.125642
   8 C :    0.065790
   9 C :    0.013737
  10 C :   -0.094187
  11 N :   -0.018416
  12 C :   -0.215547
  13 C :   -0.070832
  14 S :    0.126016
  15 C :   -0.083159
  16 S :    0.167321
  17 C :   -0.104310
  18 C :    0.088300
  19 C :   -0.007367
  20 C :    0.049423
  21 C :   -0.137695
  22 C :    0.131048
  23 O :   -0.146887
  24 C :   -0.004891
  25 C :   -0.014472
  26 C :    0.069387
  27 Cl:   -0.074666
  28 C :    0.044880
  29 C :   -0.030438
  30 C :    0.012232
  31 C :    0.270784
  32 C :   -0.348280
  33 C :   -0.177865
  34 N :    0.147078
  35 C :   -0.207320
  36 N :    0.171409
  37 C :    0.018053
  38 C :   -0.173821
  39 C :    0.392883
  40 S :    0.124466
  41 C :   -0.123144
  42 C :    0.046273
  43 C :    0.033971
  44 C :   -0.078654
  45 C :   -0.015527
  46 C :   -0.164011
  47 C :   -0.110056
  48 S :    0.148382
  49 C :   -0.043380
  50 S :    0.190756
  51 C :   -0.152193
  52 C :    0.121070
  53 N :   -0.091895
  54 C :   -0.045167
  55 C :    0.163432
  56 O :   -0.176108
  57 C :    0.135542
  58 O :   -0.148323
  59 N :    0.004091
  60 C :   -0.238081
  61 C :    0.396716
  62 C :   -0.070285
  63 C :    0.174257
  64 H :    0.037503
  65 H :    0.038244
  66 H :    0.025823
  67 H :    0.013804
  68 H :    0.016201
  69 H :    0.005554
  70 H :    0.030524
  71 H :    0.032629
  72 H :    0.004314
  73 H :   -0.030403
  74 H :    0.005836
  75 H :   -0.007257
  76 H :    0.023751
  77 H :   -0.004917
  78 H :   -0.003200
  79 H :    0.007029
  80 H :   -0.012943
  81 H :    0.038165
  82 H :    0.042845
  83 H :   -0.020973
  84 H :   -0.026616
  85 H :   -0.021714
  86 H :   -0.010252
  87 H :    0.034951
  88 H :    0.036793
  89 H :    0.037380
  90 H :    0.020046
  91 H :    0.027158
Sum of atomic charges:   -0.0000000

LOEWDIN ATOMIC CHARGES
----------------------
   0 C :   -0.077219
   1 C :    0.083612
   2 O :   -0.130151
   3 C :   -0.060659
   4 C :   -0.015360
   5 C :   -0.030472
   6 C :   -0.043249
   7 C :   -0.180253
   8 C :    0.000964
   9 C :   -0.082996
  10 C :   -0.105522
  11 N :   -0.096704
  12 C :   -0.021611
  13 C :   -0.228871
  14 S :    0.404669
  15 C :   -0.177016
  16 S :    0.452361
  17 C :   -0.178860
  18 C :    0.027657
  19 C :   -0.058363
  20 C :    0.068648
  21 C :   -0.112470
  22 C :    0.082174
  23 O :   -0.145216
  24 C :   -0.038307
  25 C :   -0.007201
  26 C :   -0.108670
  27 Cl:    0.137826
  28 C :   -0.021588
  29 C :    0.003901
  30 C :   -0.016748
  31 C :    0.064651
  32 C :   -0.151017
  33 C :   -0.021885
  34 N :   -0.059866
  35 C :   -0.018058
  36 N :   -0.045759
  37 C :   -0.018025
  38 C :   -0.051104
  39 C :   -0.011289
  40 S :    0.442447
  41 C :   -0.162517
  42 C :   -0.038082
  43 C :   -0.046385
  44 C :   -0.159821
  45 C :   -0.054718
  46 C :   -0.041357
  47 C :   -0.207768
  48 S :    0.437419
  49 C :   -0.204719
  50 S :    0.456504
  51 C :   -0.165574
  52 C :    0.017946
  53 N :   -0.104670
  54 C :   -0.108446
  55 C :    0.103414
  56 O :   -0.132711
  57 C :    0.075533
  58 O :    0.045539
  59 N :   -0.067061
  60 C :   -0.045483
  61 C :   -0.011618
  62 C :   -0.047393
  63 C :   -0.020485
  64 H :    0.042175
  65 H :    0.044844
  66 H :    0.035524
  67 H :    0.035709
  68 H :    0.030060
  69 H :    0.023504
  70 H :    0.036571
  71 H :    0.031768
  72 H :    0.035947
  73 H :    0.023921
  74 H :    0.033639
  75 H :    0.031377
  76 H :    0.046157
  77 H :    0.042526
  78 H :    0.038125
  79 H :    0.041548
  80 H :    0.035673
  81 H :    0.056839
  82 H :    0.059451
  83 H :    0.026598
  84 H :    0.025442
  85 H :    0.030511
  86 H :    0.002013
  87 H :    0.036859
  88 H :    0.056659
  89 H :    0.056851
  90 H :    0.031129
  91 H :    0.036631

  Mayer bond orders larger than 0.100000
B(  0-C ,  1-C ) :   1.0345 B(  0-C , 64-H ) :   0.9486 B(  0-C , 65-H ) :   0.9402
B(  0-C , 66-H ) :   0.9534 B(  1-C ,  2-O ) :   2.2046 B(  1-C ,  3-C ) :   0.9002
B(  3-C ,  4-C ) :   1.0383 B(  3-C , 63-C ) :   1.0513 B(  3-C , 67-H ) :   0.8983
B(  4-C ,  5-C ) :   1.0881 B(  4-C , 68-H ) :   0.9402 B(  4-C , 69-H ) :   0.9326
B(  5-C ,  6-C ) :   1.0564 B(  5-C , 70-H ) :   0.9094 B(  5-C , 71-H ) :   0.8901
B(  6-C ,  7-C ) :   1.4676 B(  6-C , 62-C ) :   1.3493 B(  7-C ,  8-C ) :   1.1496
B(  7-C , 40-S ) :   1.1134 B(  8-C ,  9-C ) :   1.6694 B(  8-C , 72-H ) :   0.9480
B(  9-C , 10-C ) :   1.1316 B(  9-C , 73-H ) :   0.9406 B( 10-C , 11-N ) :   1.6358
B( 10-C , 14-S ) :   1.0776 B( 11-N , 12-C ) :   1.4519 B( 12-C , 13-C ) :   1.4660
B( 12-C , 39-C ) :   1.0441 B( 13-C , 14-S ) :   1.0722 B( 13-C , 15-C ) :   1.2098
B( 15-C , 16-S ) :   1.1185 B( 15-C , 38-C ) :   1.4716 B( 16-S , 17-C ) :   1.0836
B( 17-C , 18-C ) :   1.2194 B( 17-C , 37-C ) :   1.4062 B( 18-C , 19-C ) :   1.5724
B( 18-C , 74-H ) :   0.9463 B( 19-C , 20-C ) :   1.2278 B( 19-C , 75-H ) :   0.9609
B( 20-C , 21-C ) :   1.5796 B( 20-C , 76-H ) :   0.9310 B( 21-C , 22-C ) :   0.9640
B( 21-C , 31-C ) :   1.0643 B( 22-C , 23-O ) :   2.2562 B( 22-C , 24-C ) :   0.9127
B( 24-C , 25-C ) :   1.3721 B( 24-C , 30-C ) :   1.3371 B( 25-C , 26-C ) :   1.3318
B( 25-C , 77-H ) :   1.0112 B( 26-C , 27-Cl) :   0.9827 B( 26-C , 28-C ) :   1.3901
B( 28-C , 29-C ) :   1.3676 B( 28-C , 78-H ) :   0.9881 B( 29-C , 30-C ) :   1.3695
B( 29-C , 79-H ) :   0.9852 B( 30-C , 31-C ) :   0.9991 B( 31-C , 32-C ) :   1.6226
B( 32-C , 33-C ) :   1.1263 B( 32-C , 35-C ) :   1.1741 B( 33-C , 34-N ) :   2.9897
B( 35-C , 36-N ) :   2.9959 B( 37-C , 38-C ) :   1.3668 B( 37-C , 80-H ) :   0.9948
B( 38-C , 39-C ) :   0.9771 B( 39-C , 81-H ) :   0.8623 B( 39-C , 82-H ) :   0.8591
B( 40-S , 41-C ) :   1.1308 B( 41-C , 42-C ) :   1.1433 B( 41-C , 62-C ) :   1.4751
B( 42-C , 43-C ) :   1.6876 B( 42-C , 83-H ) :   0.9452 B( 43-C , 44-C ) :   1.1240
B( 43-C , 84-H ) :   0.9518 B( 44-C , 45-C ) :   1.4655 B( 44-C , 48-S ) :   1.1115
B( 45-C , 46-C ) :   1.3141 B( 45-C , 85-H ) :   0.9952 B( 46-C , 47-C ) :   1.5215
B( 46-C , 61-C ) :   0.9817 B( 47-C , 48-S ) :   1.0809 B( 47-C , 49-C ) :   1.1883
B( 49-C , 50-S ) :   1.0954 B( 49-C , 60-C ) :   1.4758 B( 50-S , 51-C ) :   1.1044
B( 50-S , 59-N ) :   0.1105 B( 51-C , 52-C ) :   1.0508 B( 51-C , 59-N ) :   1.6732
B( 52-C , 53-N ) :   1.7820 B( 52-C , 58-O ) :   1.2035 B( 53-N , 54-C ) :   1.3031
B( 54-C , 55-C ) :   0.9681 B( 54-C , 57-C ) :   1.5045 B( 55-C , 56-O ) :   2.2053
B( 55-C , 86-H ) :   0.9529 B( 57-C , 58-O ) :   1.1771 B( 57-C , 87-H ) :   0.9914
B( 59-N , 60-C ) :   1.4449 B( 60-C , 61-C ) :   1.0445 B( 61-C , 88-H ) :   0.8602
B( 61-C , 89-H ) :   0.8594 B( 62-C , 63-C ) :   1.0482 B( 63-C , 90-H ) :   0.8987
B( 63-C , 91-H ) :   0.8981

-----------------------------------------------------------------------------
         ABSORPTION SPECTRUM VIA TRANSITION ELECTRIC DIPOLE MOMENTS
-----------------------------------------------------------------------------
State   Energy  Wavelength   fosc         T2         TX        TY        TZ
        (cm-1)    (nm)                  (au**2)     (au)      (au)      (au)
-----------------------------------------------------------------------------
   0   15055.9    664.2   2.269864475  49.63288  -6.10439   0.64560   3.45725
   1   20098.2    497.6   1.242993076  20.36042  -4.35716   0.12039   1.16664
   2   23358.9    428.1   0.182761913   2.57579   1.34652  -0.19807  -0.85055
   3   23611.4    423.5   0.103035022   1.43661   0.48912   0.95841  -0.52805
   4   26757.2    373.7   0.104441815   1.28502  -0.71093  -0.69427   0.54551
   5   27530.2    363.2   0.027124657   0.32436   0.09994  -0.30350   0.47145
   6   28678.1    348.7   0.146914519   1.68652   1.28921   0.14879  -0.04809
   7   30065.8    332.6   0.015868916   0.17376  -0.30189  -0.23433   0.16646
   8   31067.2    321.9   0.036687340   0.38877   0.56196  -0.26465   0.05410
   9   31364.5    318.8   0.137382371   1.44201   1.16124   0.26227  -0.15731
  10   31928.7    313.2   0.150460088   1.55137  -1.17468   0.36787   0.19018
  11   32744.1    305.4   0.052725322   0.53010  -0.68723  -0.07839  -0.22731
  12   33430.0    299.1   0.006125476   0.06032   0.18344   0.07932  -0.14276
  13   34540.3    289.5   0.065613717   0.62538  -0.69007   0.26763   0.27848
  14   34971.5    285.9   0.062870818   0.59185   0.38162  -0.60981   0.27266
  15   35219.0    283.9   0.069733760   0.65184  -0.01178   0.69589  -0.40920
  16   35395.4    282.5   0.003454601   0.03213   0.09758   0.04797   0.14251
  17   35545.5    281.3   0.193716593   1.79415   0.98429   0.90552  -0.07322
  18   35941.2    278.2   0.194099593   1.77790  -1.33323  -0.00695   0.01873
  19   36100.7    277.0   0.017951538   0.16370   0.33135  -0.23023   0.03015
  20   37085.0    269.7   0.030688171   0.27243   0.45938  -0.15787   0.19098
  21   37693.3    265.3   0.012360387   0.10796   0.32817  -0.00078  -0.01617
  22   37925.7    263.7   0.204473265   1.77492   1.32613  -0.07690   0.10189
  23   38666.7    258.6   0.153920307   1.31049   0.95155   0.61500  -0.16379
  24   39034.3    256.2   0.016241407   0.13698   0.22924   0.26639  -0.11604
  25   39395.9    253.8   0.048891234   0.40856  -0.44205  -0.26723   0.37649
  26   40004.1    250.0   0.068491214   0.56365  -0.03925  -0.68356   0.30798

FINAL SINGLE POINT ENERGY     -4905.951717797235

DIPOLE MOMENT
-------------
                                X             Y             Z
Electronic contribution:     34.74110     -18.93429     -13.58356
Nuclear contribution   :    -34.54043      20.54449      15.42410
                        -----------------------------------------
Total Dipole Moment    :      0.20067       1.61020       1.84055
                        -----------------------------------------
Magnitude (a.u.)       :      2.45370
Magnitude (Debye)      :      6.23680

Rotational constants in cm-1:     0.004002     0.000153     0.000149
Rotational constants in MHz :   119.980696     4.580839     4.472655

                             ****ORCA TERMINATED NORMALLY****
TOTAL RUN TIME: 0 days 0 hours 7 minutes 49 seconds 285 msec
