                         Program Version 4.2.0 -  RELEASE  -
|  1> # ORCA input file
|  2> # SCF done       -147.139821400714          0.000496274965
|  3> ! CAM-B3LYP def2-SVP def2/J RIJCOSX Grid4 TightSCF
|  4> %maxcore 5000
|  5> %tddft
|  6>     Mode sTDDFT
|  7>     Ethresh 5.0
|  8>     maxcore 5000
|  9> end
| 10>
| 11> %pal
| 12>   nprocs 6
| 13>   end
| 14> * xyz 0 1
| 15>    O      -10.74233         7.76618         3.01949
| 16>    C       -9.80331         7.66966         3.99340
| 17>    N       -9.76700         8.70977         4.77699
| 18>    C      -10.73506         9.55199         4.30469
| 19>    C      -11.32621         8.95008         3.21726
| 20>    C      -11.01702        10.84189         4.91921
| 21>    O      -11.85783        11.61519         4.53840
| 22>    C       -8.97449         6.51926         4.10033
| 23>    S       -7.75585         6.45072         5.38340
| 24>    C       -7.33563         4.90001         4.78796
| 25>    C       -8.13524         4.56361         3.68558
| 26>    N       -9.03102         5.47339         3.32536
| 27>    C       -7.78203         3.20798         3.16230
| 28>    C       -6.68662         2.81313         4.10843
| 29>    C       -6.45203         3.82695         5.04036
| 30>    S       -5.20823         3.42489         6.15215
| 31>    C       -4.99544         1.87074         5.36741
| 32>    C       -5.86335         1.71030         4.29769
| 33>    C       -4.04482         0.92096         5.82436
| 34>    C       -3.18823         1.13943         6.85061
| 35>    C       -2.23098         0.24000         7.38860
| 36>    S       -1.00598         0.91266         8.42864
| 37>    C       -0.27591        -0.64652         8.67396
| 38>    C       -0.97411        -1.62765         7.97987
| 39>    C       -2.07471        -1.13573         7.26586
| 40>    C       -3.00227        -2.03595         6.51256
| 41>    C       -2.85436        -3.48892         6.97014
| 42>    C       -3.48054        -3.69074         8.34557
| 43>    O       -3.96598        -2.78743         8.97511
| 44>    C       -3.46072        -5.11157         8.85393
| 45>    C       -1.37179        -3.87638         6.96792
| 46>    C       -0.60929        -3.07940         8.02341
| 47>    C        0.86758        -0.82110         9.48695
| 48>    C        1.51015         0.17573        10.14627
| 49>    C        2.65206        -0.05176        10.94532
| 50>    S        3.44307         1.32281        11.76898
| 51>    C        4.57667         0.20236        12.39874
| 52>    C        4.28055        -1.09175        11.95290
| 53>    N        3.22425        -1.20800        11.15827
| 54>    C        5.26282        -2.08064        12.49718
| 55>    C        6.15535        -1.18497        13.30576
| 56>    C        5.72135         0.14289        13.22307
| 57>    S        6.70825         1.21043        14.12667
| 58>    C        7.72359        -0.13036        14.63061
| 59>    C        7.28317        -1.33422        14.09975
| 60>    C        8.82864         0.13707        15.47825
| 61>    C        9.69688        -0.78317        15.95334
| 62>    C       10.78564        -0.42288        16.80069
| 63>    N       11.11167         0.76600        17.22328
| 64>    C       12.22261         0.58825        18.00174
| 65>    C       12.52654        -0.75352        18.01278
| 66>    O       11.62758        -1.39368        17.25976
| 67>    C       12.90018         1.69287        18.66305
| 68>    O       13.87684         1.58435        19.36037
| 69>    H      -12.11490         9.25843         2.56205
| 70>    H      -10.37070        11.05070         5.78942
| 71>    H       -7.44004         3.25035         2.12671
| 72>    H       -8.63186         2.52452         3.20332
| 73>    H       -5.88019         0.81956         3.69576
| 74>    H       -4.02985        -0.00615         5.27347
| 75>    H       -3.20102         2.11893         7.31466
| 76>    H       -2.78960        -1.97479         5.44049
| 77>    H       -4.03074        -1.70881         6.68073
| 78>    H       -3.39537        -4.13923         6.27308
| 79>    H       -3.62316        -5.82348         8.04980
| 80>    H       -4.22017        -5.23461         9.62177
| 81>    H       -2.49089        -5.31667         9.30399
| 82>    H       -0.96171        -3.65583         5.97982
| 83>    H       -1.24967        -4.94486         7.14912
| 84>    H        0.46580        -3.19899         7.86981
| 85>    H       -0.84052        -3.46320         9.02248
| 86>    H        1.25365        -1.82513         9.58935
| 87>    H        1.15790         1.19529        10.07545
| 88>    H        5.80315        -2.59395        11.69978
| 89>    H        4.77295        -2.83984        13.10955
| 90>    H        7.77370        -2.27066        14.29194
| 91>    H        8.98586         1.16780        15.76433
| 92>    H        9.61357        -1.83287        15.71873
| 93>    H       13.30342        -1.31500        18.48926
| 94>    H       12.42354         2.66870        18.46292
| 95> *
| 96>
| 97>                          ****END OF INPUT****

CARTESIAN COORDINATES (ANGSTROEM)
---------------------------------
  O    -10.742330    7.766180    3.019490
  C     -9.803310    7.669660    3.993400
  N     -9.767000    8.709770    4.776990
  C    -10.735060    9.551990    4.304690
  C    -11.326210    8.950080    3.217260
  C    -11.017020   10.841890    4.919210
  O    -11.857830   11.615190    4.538400
  C     -8.974490    6.519260    4.100330
  S     -7.755850    6.450720    5.383400
  C     -7.335630    4.900010    4.787960
  C     -8.135240    4.563610    3.685580
  N     -9.031020    5.473390    3.325360
  C     -7.782030    3.207980    3.162300
  C     -6.686620    2.813130    4.108430
  C     -6.452030    3.826950    5.040360
  S     -5.208230    3.424890    6.152150
  C     -4.995440    1.870740    5.367410
  C     -5.863350    1.710300    4.297690
  C     -4.044820    0.920960    5.824360
  C     -3.188230    1.139430    6.850610
  C     -2.230980    0.240000    7.388600
  S     -1.005980    0.912660    8.428640
  C     -0.275910   -0.646520    8.673960
  C     -0.974110   -1.627650    7.979870
  C     -2.074710   -1.135730    7.265860
  C     -3.002270   -2.035950    6.512560
  C     -2.854360   -3.488920    6.970140
  C     -3.480540   -3.690740    8.345570
  O     -3.965980   -2.787430    8.975110
  C     -3.460720   -5.111570    8.853930
  C     -1.371790   -3.876380    6.967920
  C     -0.609290   -3.079400    8.023410
  C      0.867580   -0.821100    9.486950
  C      1.510150    0.175730   10.146270
  C      2.652060   -0.051760   10.945320
  S      3.443070    1.322810   11.768980
  C      4.576670    0.202360   12.398740
  C      4.280550   -1.091750   11.952900
  N      3.224250   -1.208000   11.158270
  C      5.262820   -2.080640   12.497180
  C      6.155350   -1.184970   13.305760
  C      5.721350    0.142890   13.223070
  S      6.708250    1.210430   14.126670
  C      7.723590   -0.130360   14.630610
  C      7.283170   -1.334220   14.099750
  C      8.828640    0.137070   15.478250
  C      9.696880   -0.783170   15.953340
  C     10.785640   -0.422880   16.800690
  N     11.111670    0.766000   17.223280
  C     12.222610    0.588250   18.001740
  C     12.526540   -0.753520   18.012780
  O     11.627580   -1.393680   17.259760
  C     12.900180    1.692870   18.663050
  O     13.876840    1.584350   19.360370
  H    -12.114900    9.258430    2.562050
  H    -10.370700   11.050700    5.789420
  H     -7.440040    3.250350    2.126710
  H     -8.631860    2.524520    3.203320
  H     -5.880190    0.819560    3.695760
  H     -4.029850   -0.006150    5.273470
  H     -3.201020    2.118930    7.314660
  H     -2.789600   -1.974790    5.440490
  H     -4.030740   -1.708810    6.680730
  H     -3.395370   -4.139230    6.273080
  H     -3.623160   -5.823480    8.049800
  H     -4.220170   -5.234610    9.621770
  H     -2.490890   -5.316670    9.303990
  H     -0.961710   -3.655830    5.979820
  H     -1.249670   -4.944860    7.149120
  H      0.465800   -3.198990    7.869810
  H     -0.840520   -3.463200    9.022480
  H      1.253650   -1.825130    9.589350
  H      1.157900    1.195290   10.075450
  H      5.803150   -2.593950   11.699780
  H      4.772950   -2.839840   13.109550
  H      7.773700   -2.270660   14.291940
  H      8.985860    1.167800   15.764330
  H      9.613570   -1.832870   15.718730
  H     13.303420   -1.315000   18.489260
  H     12.423540    2.668700   18.462920

 Total Charge           Charge          ....    0
 Multiplicity           Mult            ....    1
 Number of Electrons    NEL             ....  414
 Basis Dimension        Dim             ....  906

ORBITAL ENERGIES
----------------

  NO   OCC          E(Eh)            E(eV)
   0   2.0000     -88.974317     -2421.1142
   1   2.0000     -88.963477     -2420.8193
   2   2.0000     -88.963149     -2420.8104
   3   2.0000     -88.962425     -2420.7906
   4   2.0000     -88.946546     -2420.3586
   5   2.0000     -19.316063      -525.6168
   6   2.0000     -19.306036      -525.3439
   7   2.0000     -19.209846      -522.7265
   8   2.0000     -19.208645      -522.6938
   9   2.0000     -19.203917      -522.5651
  10   2.0000     -14.419878      -392.3848
  11   2.0000     -14.417945      -392.3322
  12   2.0000     -14.406398      -392.0180
  13   2.0000     -14.403937      -391.9511
  14   2.0000     -10.374746      -282.3112
  15   2.0000     -10.361247      -281.9439
  16   2.0000     -10.357138      -281.8320
  17   2.0000     -10.354956      -281.7727
  18   2.0000     -10.348725      -281.6031
  19   2.0000     -10.347929      -281.5815
  20   2.0000     -10.341441      -281.4049
  21   2.0000     -10.338539      -281.3260
  22   2.0000     -10.333004      -281.1753
  23   2.0000     -10.310752      -280.5698
  24   2.0000     -10.307050      -280.4691
  25   2.0000     -10.306347      -280.4500
  26   2.0000     -10.306135      -280.4442
  27   2.0000     -10.305138      -280.4171
  28   2.0000     -10.304826      -280.4086
  29   2.0000     -10.304589      -280.4021
  30   2.0000     -10.301472      -280.3173
  31   2.0000     -10.301242      -280.3110
  32   2.0000     -10.297161      -280.2000
  33   2.0000     -10.296241      -280.1749
  34   2.0000     -10.292919      -280.0846
  35   2.0000     -10.291545      -280.0472
  36   2.0000     -10.289745      -279.9982
  37   2.0000     -10.287873      -279.9473
  38   2.0000     -10.283976      -279.8412
  39   2.0000     -10.283865      -279.8382
  40   2.0000     -10.283352      -279.8242
  41   2.0000     -10.283236      -279.8211
  42   2.0000     -10.282777      -279.8086
  43   2.0000     -10.281665      -279.7783
  44   2.0000     -10.280950      -279.7589
  45   2.0000     -10.280234      -279.7394
  46   2.0000     -10.279869      -279.7295
  47   2.0000     -10.279348      -279.7153
  48   2.0000     -10.279311      -279.7143
  49   2.0000     -10.277856      -279.6747
  50   2.0000     -10.276661      -279.6422
  51   2.0000     -10.274821      -279.5921
  52   2.0000     -10.274251      -279.5766
  53   2.0000     -10.272783      -279.5366
  54   2.0000      -8.068853      -219.5646
  55   2.0000      -8.058715      -219.2888
  56   2.0000      -8.058216      -219.2752
  57   2.0000      -8.057406      -219.2532
  58   2.0000      -8.042367      -218.8439
  59   2.0000      -6.038155      -164.3065
  60   2.0000      -6.034002      -164.1935
  61   2.0000      -6.031068      -164.1137
  62   2.0000      -6.027887      -164.0271
  63   2.0000      -6.027528      -164.0174
  64   2.0000      -6.026762      -163.9965
  65   2.0000      -6.024018      -163.9219
  66   2.0000      -6.023448      -163.9064
  67   2.0000      -6.022735      -163.8869
  68   2.0000      -6.020844      -163.8355
  69   2.0000      -6.020369      -163.8226
  70   2.0000      -6.019384      -163.7958
  71   2.0000      -6.011478      -163.5806
  72   2.0000      -6.007699      -163.4778
  73   2.0000      -6.004441      -163.3891
  74   2.0000      -1.245791       -33.8997
  75   2.0000      -1.233395       -33.5624
  76   2.0000      -1.127721       -30.6868
  77   2.0000      -1.123280       -30.5660
  78   2.0000      -1.116969       -30.3943
  79   2.0000      -1.073773       -29.2188
  80   2.0000      -1.063508       -28.9395
  81   2.0000      -1.026089       -27.9213
  82   2.0000      -1.013640       -27.5825
  83   2.0000      -0.998174       -27.1617
  84   2.0000      -0.996379       -27.1129
  85   2.0000      -0.986775       -26.8515
  86   2.0000      -0.934720       -25.4350
  87   2.0000      -0.932961       -25.3872
  88   2.0000      -0.927794       -25.2466
  89   2.0000      -0.907650       -24.6984
  90   2.0000      -0.904846       -24.6221
  91   2.0000      -0.900317       -24.4989
  92   2.0000      -0.893377       -24.3100
  93   2.0000      -0.885299       -24.0902
  94   2.0000      -0.873751       -23.7760
  95   2.0000      -0.854109       -23.2415
  96   2.0000      -0.851819       -23.1792
  97   2.0000      -0.847460       -23.0605
  98   2.0000      -0.839503       -22.8441
  99   2.0000      -0.832892       -22.6641
 100   2.0000      -0.816442       -22.2165
 101   2.0000      -0.809655       -22.0318
 102   2.0000      -0.792645       -21.5690
 103   2.0000      -0.785359       -21.3707
 104   2.0000      -0.781077       -21.2542
 105   2.0000      -0.771914       -21.0048
 106   2.0000      -0.765276       -20.8242
 107   2.0000      -0.757780       -20.6202
 108   2.0000      -0.745076       -20.2745
 109   2.0000      -0.729568       -19.8525
 110   2.0000      -0.722125       -19.6500
 111   2.0000      -0.704229       -19.1630
 112   2.0000      -0.702844       -19.1254
 113   2.0000      -0.694072       -18.8867
 114   2.0000      -0.687018       -18.6947
 115   2.0000      -0.673362       -18.3231
 116   2.0000      -0.658217       -17.9110
 117   2.0000      -0.654441       -17.8082
 118   2.0000      -0.652752       -17.7623
 119   2.0000      -0.649336       -17.6693
 120   2.0000      -0.640210       -17.4210
 121   2.0000      -0.625993       -17.0341
 122   2.0000      -0.624307       -16.9883
 123   2.0000      -0.618993       -16.8437
 124   2.0000      -0.609294       -16.5797
 125   2.0000      -0.605251       -16.4697
 126   2.0000      -0.601682       -16.3726
 127   2.0000      -0.599007       -16.2998
 128   2.0000      -0.587827       -15.9956
 129   2.0000      -0.587024       -15.9737
 130   2.0000      -0.581836       -15.8326
 131   2.0000      -0.578674       -15.7465
 132   2.0000      -0.574775       -15.6404
 133   2.0000      -0.573421       -15.6036
 134   2.0000      -0.567943       -15.4545
 135   2.0000      -0.565171       -15.3791
 136   2.0000      -0.561511       -15.2795
 137   2.0000      -0.552252       -15.0276
 138   2.0000      -0.551703       -15.0126
 139   2.0000      -0.550841       -14.9892
 140   2.0000      -0.550298       -14.9744
 141   2.0000      -0.549332       -14.9481
 142   2.0000      -0.542909       -14.7733
 143   2.0000      -0.535771       -14.5791
 144   2.0000      -0.534643       -14.5484
 145   2.0000      -0.530835       -14.4448
 146   2.0000      -0.522659       -14.2223
 147   2.0000      -0.513137       -13.9632
 148   2.0000      -0.508592       -13.8395
 149   2.0000      -0.505678       -13.7602
 150   2.0000      -0.505133       -13.7454
 151   2.0000      -0.502956       -13.6861
 152   2.0000      -0.498789       -13.5727
 153   2.0000      -0.496081       -13.4990
 154   2.0000      -0.491110       -13.3638
 155   2.0000      -0.490082       -13.3358
 156   2.0000      -0.488869       -13.3028
 157   2.0000      -0.486743       -13.2449
 158   2.0000      -0.483499       -13.1567
 159   2.0000      -0.479680       -13.0528
 160   2.0000      -0.477469       -12.9926
 161   2.0000      -0.476324       -12.9614
 162   2.0000      -0.473494       -12.8844
 163   2.0000      -0.473073       -12.8730
 164   2.0000      -0.471073       -12.8186
 165   2.0000      -0.470984       -12.8161
 166   2.0000      -0.470215       -12.7952
 167   2.0000      -0.467720       -12.7273
 168   2.0000      -0.464422       -12.6376
 169   2.0000      -0.456714       -12.4278
 170   2.0000      -0.453473       -12.3396
 171   2.0000      -0.445681       -12.1276
 172   2.0000      -0.443523       -12.0689
 173   2.0000      -0.443393       -12.0653
 174   2.0000      -0.440201       -11.9785
 175   2.0000      -0.433309       -11.7909
 176   2.0000      -0.432035       -11.7563
 177   2.0000      -0.424368       -11.5476
 178   2.0000      -0.419966       -11.4279
 179   2.0000      -0.419678       -11.4200
 180   2.0000      -0.417403       -11.3581
 181   2.0000      -0.415297       -11.3008
 182   2.0000      -0.408257       -11.1092
 183   2.0000      -0.405629       -11.0377
 184   2.0000      -0.401114       -10.9149
 185   2.0000      -0.397555       -10.8180
 186   2.0000      -0.393213       -10.6999
 187   2.0000      -0.384080       -10.4513
 188   2.0000      -0.381431       -10.3793
 189   2.0000      -0.369381       -10.0514
 190   2.0000      -0.366300        -9.9675
 191   2.0000      -0.357378        -9.7247
 192   2.0000      -0.354514        -9.6468
 193   2.0000      -0.350680        -9.5425
 194   2.0000      -0.347852        -9.4655
 195   2.0000      -0.338341        -9.2067
 196   2.0000      -0.331118        -9.0102
 197   2.0000      -0.326171        -8.8756
 198   2.0000      -0.325184        -8.8487
 199   2.0000      -0.324524        -8.8308
 200   2.0000      -0.323127        -8.7927
 201   2.0000      -0.318186        -8.6583
 202   2.0000      -0.304822        -8.2946
 203   2.0000      -0.299235        -8.1426
 204   2.0000      -0.272884        -7.4255
 205   2.0000      -0.243218        -6.6183
 206   2.0000      -0.218300        -5.9402
 207   0.0000      -0.070898        -1.9292
 208   0.0000      -0.049461        -1.3459
 209   0.0000      -0.027134        -0.7384
 210   0.0000      -0.014644        -0.3985
 211   0.0000      -0.008334        -0.2268

MULLIKEN ATOMIC CHARGES
-----------------------
   0 O :   -0.147478
   1 C :    0.120724
   2 N :   -0.091693
   3 C :   -0.047525
   4 C :    0.136711
   5 C :    0.167327
   6 O :   -0.178424
   7 C :   -0.154458
   8 S :    0.191981
   9 C :   -0.043970
  10 C :   -0.236432
  11 N :    0.001755
  12 C :    0.392429
  13 C :   -0.147308
  14 C :   -0.104040
  15 S :    0.138474
  16 C :   -0.045701
  17 C :   -0.030848
  18 C :   -0.000733
  19 C :    0.034168
  20 C :   -0.118459
  21 S :    0.105403
  22 C :   -0.088429
  23 C :   -0.074910
  24 C :   -0.063624
  25 C :    0.178386
  26 C :   -0.105963
  27 C :   -0.030767
  28 O :   -0.169961
  29 C :    0.066235
  30 C :    0.052934
  31 C :    0.107900
  32 C :   -0.000715
  33 C :    0.033441
  34 C :   -0.098714
  35 S :    0.126217
  36 C :   -0.067144
  37 C :   -0.221037
  38 N :   -0.025953
  39 C :    0.389342
  40 C :   -0.165607
  41 C :   -0.097457
  42 S :    0.159485
  43 C :   -0.087890
  44 C :   -0.007589
  45 C :    0.064544
  46 C :   -0.022208
  47 C :    0.092497
  48 N :   -0.089502
  49 C :   -0.053217
  50 C :    0.122842
  51 O :   -0.173749
  52 C :    0.169809
  53 O :   -0.182575
  54 H :    0.034721
  55 H :   -0.010416
  56 H :    0.036242
  57 H :    0.037012
  58 H :   -0.025484
  59 H :   -0.018669
  60 H :   -0.011577
  61 H :    0.018653
  62 H :    0.023653
  63 H :    0.013262
  64 H :    0.024913
  65 H :    0.037359
  66 H :    0.038675
  67 H :    0.012925
  68 H :    0.004855
  69 H :    0.026490
  70 H :    0.023990
  71 H :    0.003203
  72 H :   -0.010630
  73 H :    0.034255
  74 H :    0.034451
  75 H :   -0.023777
  76 H :    0.008628
  77 H :   -0.007457
  78 H :    0.031220
  79 H :   -0.015019
Sum of atomic charges:   -0.0000000

LOEWDIN ATOMIC CHARGES
----------------------
   0 O :    0.045211
   1 C :    0.017909
   2 N :   -0.104558
   3 C :   -0.108431
   4 C :    0.075162
   5 C :    0.103973
   6 O :   -0.133534
   7 C :   -0.166320
   8 S :    0.457807
   9 C :   -0.204341
  10 C :   -0.045436
  11 N :   -0.067747
  12 C :   -0.012155
  13 C :   -0.045923
  14 C :   -0.202328
  15 S :    0.435885
  16 C :   -0.157650
  17 C :   -0.056956
  18 C :   -0.042078
  19 C :   -0.047262
  20 C :   -0.161029
  21 S :    0.430078
  22 C :   -0.179776
  23 C :   -0.047317
  24 C :   -0.049080
  25 C :   -0.020558
  26 C :   -0.061351
  27 C :    0.083634
  28 O :   -0.130176
  29 C :   -0.077880
  30 C :   -0.016372
  31 C :   -0.028547
  32 C :   -0.005099
  33 C :   -0.075826
  34 C :   -0.115520
  35 S :    0.406577
  36 C :   -0.224705
  37 C :   -0.032706
  38 N :   -0.098786
  39 C :   -0.012657
  40 C :   -0.053673
  41 C :   -0.192626
  42 S :    0.445634
  43 C :   -0.180790
  44 C :   -0.040947
  45 C :    0.003886
  46 C :   -0.068731
  47 C :    0.046569
  48 N :   -0.110070
  49 C :   -0.108815
  50 C :    0.064597
  51 O :    0.020922
  52 C :    0.103036
  53 O :   -0.137944
  54 H :    0.036669
  55 H :    0.002041
  56 H :    0.056331
  57 H :    0.056325
  58 H :    0.030186
  59 H :    0.033085
  60 H :    0.020860
  61 H :    0.029875
  62 H :    0.036093
  63 H :    0.035656
  64 H :    0.034327
  65 H :    0.041939
  66 H :    0.045366
  67 H :    0.028851
  68 H :    0.023280
  69 H :    0.036809
  70 H :    0.033054
  71 H :    0.036807
  72 H :    0.022654
  73 H :    0.054914
  74 H :    0.055090
  75 H :    0.030515
  76 H :    0.037904
  77 H :    0.032569
  78 H :    0.033380
  79 H :    0.000242

  Mayer bond orders larger than 0.100000
B(  0-O ,  1-C ) :   1.2060 B(  0-O ,  4-C ) :   1.1761 B(  1-C ,  2-N ) :   1.7809
B(  1-C ,  7-C ) :   1.0516 B(  2-N ,  3-C ) :   1.3026 B(  3-C ,  4-C ) :   1.5047
B(  3-C ,  5-C ) :   0.9692 B(  4-C , 54-H ) :   0.9914 B(  5-C ,  6-O ) :   2.2030
B(  5-C , 55-H ) :   0.9521 B(  7-C ,  8-S ) :   1.1051 B(  7-C , 11-N ) :   1.6711
B(  8-S ,  9-C ) :   1.0951 B(  8-S , 11-N ) :   0.1105 B(  9-C , 10-C ) :   1.4738
B(  9-C , 14-C ) :   1.1918 B( 10-C , 11-N ) :   1.4438 B( 10-C , 12-C ) :   1.0457
B( 12-C , 13-C ) :   0.9823 B( 12-C , 56-H ) :   0.8593 B( 12-C , 57-H ) :   0.8608
B( 13-C , 14-C ) :   1.5271 B( 13-C , 17-C ) :   1.2911 B( 14-C , 15-S ) :   1.0771
B( 15-S , 16-C ) :   1.1006 B( 16-C , 17-C ) :   1.4446 B( 16-C , 18-C ) :   1.1661
B( 17-C , 58-H ) :   1.0069 B( 18-C , 19-C ) :   1.6426 B( 18-C , 59-H ) :   0.9722
B( 19-C , 20-C ) :   1.1468 B( 19-C , 60-H ) :   0.9436 B( 20-C , 21-S ) :   1.1181
B( 20-C , 24-C ) :   1.4937 B( 21-S , 22-C ) :   1.1017 B( 22-C , 23-C ) :   1.4656
B( 22-C , 32-C ) :   1.1650 B( 23-C , 24-C ) :   1.3342 B( 23-C , 31-C ) :   1.0518
B( 24-C , 25-C ) :   1.0472 B( 25-C , 26-C ) :   1.0542 B( 25-C , 61-H ) :   0.8993
B( 25-C , 62-H ) :   0.8979 B( 26-C , 27-C ) :   0.8992 B( 26-C , 30-C ) :   1.0384
B( 26-C , 63-H ) :   0.8961 B( 27-C , 28-O ) :   2.2076 B( 27-C , 29-C ) :   1.0347
B( 29-C , 64-H ) :   0.9539 B( 29-C , 65-H ) :   0.9486 B( 29-C , 66-H ) :   0.9394
B( 30-C , 31-C ) :   1.0930 B( 30-C , 67-H ) :   0.9425 B( 30-C , 68-H ) :   0.9316
B( 31-C , 69-H ) :   0.9108 B( 31-C , 70-H ) :   0.8984 B( 32-C , 33-C ) :   1.6572
B( 32-C , 71-H ) :   0.9701 B( 33-C , 34-C ) :   1.1297 B( 33-C , 72-H ) :   0.9495
B( 34-C , 35-S ) :   1.0718 B( 34-C , 38-N ) :   1.6401 B( 35-S , 36-C ) :   1.0778
B( 36-C , 37-C ) :   1.4832 B( 36-C , 41-C ) :   1.1926 B( 37-C , 38-N ) :   1.4435
B( 37-C , 39-C ) :   1.0440 B( 39-C , 40-C ) :   0.9802 B( 39-C , 73-H ) :   0.8615
B( 39-C , 74-H ) :   0.8614 B( 40-C , 41-C ) :   1.5097 B( 40-C , 44-C ) :   1.3270
B( 41-C , 42-S ) :   1.1017 B( 42-S , 43-C ) :   1.0957 B( 43-C , 44-C ) :   1.4545
B( 43-C , 45-C ) :   1.1197 B( 44-C , 75-H ) :   0.9960 B( 45-C , 46-C ) :   1.7026
B( 45-C , 76-H ) :   0.9638 B( 46-C , 47-C ) :   1.1084 B( 46-C , 77-H ) :   0.9525
B( 47-C , 48-N ) :   1.7235 B( 47-C , 51-O ) :   1.1533 B( 48-N , 49-C ) :   1.3073
B( 49-C , 50-C ) :   1.5116 B( 49-C , 52-C ) :   0.9747 B( 50-C , 51-O ) :   1.1700
B( 50-C , 78-H ) :   0.9915 B( 52-C , 53-O ) :   2.1985 B( 52-C , 79-H ) :   0.9509

-----------------------------------------------------------------------------
         ABSORPTION SPECTRUM VIA TRANSITION ELECTRIC DIPOLE MOMENTS
-----------------------------------------------------------------------------
State   Energy  Wavelength   fosc         T2         TX        TY        TZ
        (cm-1)    (nm)                  (au**2)     (au)      (au)      (au)
-----------------------------------------------------------------------------
   0   18049.1    554.0   2.927411802  53.39551   5.91323  -1.80086   3.89694
   1   23839.4    419.5   0.535670074   7.39737  -0.52577  -2.43545  -1.09066
   2   25418.8    393.4   0.014493796   0.18772  -0.10414   0.41959   0.02851
   3   28370.1    352.5   0.174089733   2.02017   1.09423  -0.81984   0.38819
   4   30334.5    329.7   0.339194248   3.68119   1.36706  -1.24713   0.50696
   5   32936.0    303.6   0.001045098   0.01045  -0.01070   0.04375  -0.09175
   6   33379.5    299.6   0.063165084   0.62298   0.59834  -0.06176   0.51103
   7   34384.7    290.8   0.000116416   0.00111  -0.01074  -0.01997  -0.02450
   8   34516.2    289.7   0.058819662   0.56102  -0.21622  -0.54220  -0.46934
   9   34530.6    289.6   0.000019556   0.00019   0.00318  -0.00769  -0.01082
  10   34726.6    288.0   0.063159365   0.59876  -0.01691  -0.77293  -0.03249
  11   34859.6    286.9   0.019478416   0.18395   0.13579   0.28651   0.28883
  12   35287.3    283.4   0.046166932   0.43071  -0.27904  -0.40366  -0.43579
  13   36978.8    270.4   0.004298502   0.03827   0.11114  -0.06012   0.14934
  14   37250.3    268.5   0.020649882   0.18250  -0.19192  -0.36903  -0.09741
  15   37775.9    264.7   0.004099701   0.03573   0.15142  -0.03832   0.10646
  16   39083.2    255.9   0.019347395   0.16297   0.03797  -0.37947  -0.13241
  17   39905.7    250.6   0.240128986   1.98100  -0.98587  -0.12018  -0.99731

FINAL SINGLE POINT ENERGY     -4122.676552202272

DIPOLE MOMENT
-------------
                                X             Y             Z
Electronic contribution:     -2.88380      53.60405       6.35365
Nuclear contribution   :      2.35419     -57.35801      -8.47791
                        -----------------------------------------
Total Dipole Moment    :     -0.52961      -3.75396      -2.12426
                        -----------------------------------------
Magnitude (a.u.)       :      4.34571
Magnitude (Debye)      :     11.04592

Rotational constants in cm-1:     0.002145     0.000258     0.000232
Rotational constants in MHz :    64.300799     7.721559     6.960141

                             ****ORCA TERMINATED NORMALLY****
TOTAL RUN TIME: 0 days 0 hours 5 minutes 14 seconds 163 msec
