                         Program Version 4.2.0 -  RELEASE  -
|  1> # ORCA input file
|  2> # SCF done       -165.284631308317          0.000486278173
|  3> ! CAM-B3LYP def2-SVP def2/J RIJCOSX Grid4 TightSCF
|  4> %maxcore 5000
|  5> %tddft
|  6>     Mode sTDDFT
|  7>     Ethresh 5.0
|  8>     maxcore 5000
|  9> end
| 10>
| 11> %pal
| 12>   nprocs 6
| 13>   end
| 14> * xyz 0 1
| 15>    C        3.68895       -10.25313         2.10939
| 16>    S        3.82100       -11.91414         1.73263
| 17>    C        2.19232       -11.99524         1.13214
| 18>    C        1.57271       -10.74182         1.23241
| 19>    C        2.45276        -9.74760         1.78555
| 20>    C        2.00791        -8.39899         1.91874
| 21>    C        2.87731        -7.43975         2.47592
| 22>    N        3.58971        -6.66563         2.93400
| 23>    C        0.74417        -8.05374         1.49381
| 24>    C       -0.12040        -9.01761         0.96633
| 25>    C        0.26492       -10.34411         0.84860
| 26>    C       -0.71429       -11.23044         0.36121
| 27>    N       -1.58705       -11.86966        -0.02867
| 28>    C        1.66228       -13.16602         0.54498
| 29>    C        2.34590       -14.32048         0.33069
| 30>    C        1.86618       -15.43337        -0.41780
| 31>    C        0.92476       -15.36420        -1.41458
| 32>    O        0.41403       -16.48032        -2.04282
| 33>    C        0.97701       -17.66496        -1.66840
| 34>    C        2.02297       -17.73292        -0.70071
| 35>    C        2.46069       -18.99936        -0.49360
| 36>    S        1.60173       -20.12980        -1.47452
| 37>    C        0.64335       -18.87851        -2.17230
| 38>    O        2.49187       -16.62711        -0.06428
| 39>    C        0.43985       -14.12563        -1.93955
| 40>    C       -0.73731       -13.98320        -2.57843
| 41>    N       -1.22863       -12.80798        -3.06559
| 42>    C       -0.62936       -11.55922        -2.97279
| 43>    C        0.67550       -11.24093        -3.20382
| 44>    S        0.96883        -9.55231        -3.04371
| 45>    C       -0.67927        -9.25315        -2.65689
| 46>    C       -1.41462       -10.39901        -2.65140
| 47>    N       -2.76484       -10.52166        -2.34613
| 48>    C       -3.64756        -9.48895        -2.48314
| 49>    C       -4.82986        -9.42592        -1.84489
| 50>    C       -5.84026        -8.43753        -2.06332
| 51>    S       -7.48431        -8.85891        -1.69700
| 52>    C       -8.09126        -7.34942        -2.32583
| 53>    C       -7.04724        -6.56449        -2.78613
| 54>    C       -5.78106        -7.16161        -2.58791
| 55>    C       -4.50960        -6.37415        -2.78760
| 56>    C       -3.51011        -6.69942        -1.79610
| 57>    N       -2.69648        -6.88220        -1.01244
| 58>    C       -4.83074        -4.87638        -2.66565
| 59>    C       -5.88137        -4.51299        -3.70030
| 60>    C       -7.22471        -5.21628        -3.43610
| 61>    O       -7.92137        -5.42817        -4.65874
| 62>    C       -8.29988        -4.25415        -5.33333
| 63>    C       -9.49699        -7.15144        -2.19766
| 64>    C      -10.27446        -6.27026        -2.86369
| 65>    C      -11.67780        -6.13466        -2.60253
| 66>    C      -12.53470        -5.36451        -3.33656
| 67>    O      -13.87780        -5.22676        -3.02237
| 68>    C      -14.30231        -5.93639        -1.94308
| 69>    C      -13.41543        -6.75664        -1.18684
| 70>    C      -14.02960        -7.38347        -0.15446
| 71>    S      -15.70692        -6.98218        -0.08705
| 72>    C      -15.57198        -5.95729        -1.46900
| 73>    O      -12.09512        -6.86451        -1.49742
| 74>    C      -12.16395        -4.62636        -4.52098
| 75>    C      -13.00516        -3.84065        -5.19275
| 76>    H        4.51954        -9.72798         2.53637
| 77>    H        0.40912        -7.03102         1.57434
| 78>    H       -1.10870        -8.72061         0.64845
| 79>    H        0.62910       -13.10179         0.24268
| 80>    H        3.32148       -14.45755         0.77932
| 81>    H        3.22997       -19.33089         0.17132
| 82>    H       -0.10095       -19.10581        -2.90615
| 83>    H        1.06617       -13.26535        -1.77530
| 84>    H       -1.39448       -14.83064        -2.70696
| 85>    H       -2.22356       -12.77145        -3.23675
| 86>    H        1.47713       -11.88466        -3.50081
| 87>    H       -1.00224        -8.26014        -2.41720
| 88>    H       -2.97660       -11.21832        -1.63787
| 89>    H       -3.34861        -8.75928        -3.21963
| 90>    H       -5.09513       -10.22061        -1.16030
| 91>    H       -4.08221        -6.56918        -3.78185
| 92>    H       -3.92473        -4.28814        -2.82607
| 93>    H       -5.20264        -4.66512        -1.66022
| 94>    H       -5.53024        -4.82274        -4.68867
| 95>    H       -6.02882        -3.43184        -3.71348
| 96>    H       -7.85032        -4.58607        -2.77563
| 97>    H       -7.44013        -3.72368        -5.75552
| 98>    H       -8.84491        -3.56843        -4.67144
| 99>    H       -8.95025        -4.57029        -6.14808
|100>    H       -9.97487        -7.81639        -1.48935
|101>    H       -9.85306        -5.66206        -3.63962
|102>    H      -13.60047        -8.04970         0.56379
|103>    H      -16.42698        -5.43627        -1.84563
|104>    H      -11.15118        -4.75391        -4.86444
|105>    H      -14.02378        -3.70491        -4.87523
|106>    H      -12.69336        -3.31654        -6.07861
|107> *
|108>
|109>                          ****END OF INPUT****

CARTESIAN COORDINATES (ANGSTROEM)
---------------------------------
  C      3.688950  -10.253130    2.109390
  S      3.821000  -11.914140    1.732630
  C      2.192320  -11.995240    1.132140
  C      1.572710  -10.741820    1.232410
  C      2.452760   -9.747600    1.785550
  C      2.007910   -8.398990    1.918740
  C      2.877310   -7.439750    2.475920
  N      3.589710   -6.665630    2.934000
  C      0.744170   -8.053740    1.493810
  C     -0.120400   -9.017610    0.966330
  C      0.264920  -10.344110    0.848600
  C     -0.714290  -11.230440    0.361210
  N     -1.587050  -11.869660   -0.028670
  C      1.662280  -13.166020    0.544980
  C      2.345900  -14.320480    0.330690
  C      1.866180  -15.433370   -0.417800
  C      0.924760  -15.364200   -1.414580
  O      0.414030  -16.480320   -2.042820
  C      0.977010  -17.664960   -1.668400
  C      2.022970  -17.732920   -0.700710
  C      2.460690  -18.999360   -0.493600
  S      1.601730  -20.129800   -1.474520
  C      0.643350  -18.878510   -2.172300
  O      2.491870  -16.627110   -0.064280
  C      0.439850  -14.125630   -1.939550
  C     -0.737310  -13.983200   -2.578430
  N     -1.228630  -12.807980   -3.065590
  C     -0.629360  -11.559220   -2.972790
  C      0.675500  -11.240930   -3.203820
  S      0.968830   -9.552310   -3.043710
  C     -0.679270   -9.253150   -2.656890
  C     -1.414620  -10.399010   -2.651400
  N     -2.764840  -10.521660   -2.346130
  C     -3.647560   -9.488950   -2.483140
  C     -4.829860   -9.425920   -1.844890
  C     -5.840260   -8.437530   -2.063320
  S     -7.484310   -8.858910   -1.697000
  C     -8.091260   -7.349420   -2.325830
  C     -7.047240   -6.564490   -2.786130
  C     -5.781060   -7.161610   -2.587910
  C     -4.509600   -6.374150   -2.787600
  C     -3.510110   -6.699420   -1.796100
  N     -2.696480   -6.882200   -1.012440
  C     -4.830740   -4.876380   -2.665650
  C     -5.881370   -4.512990   -3.700300
  C     -7.224710   -5.216280   -3.436100
  O     -7.921370   -5.428170   -4.658740
  C     -8.299880   -4.254150   -5.333330
  C     -9.496990   -7.151440   -2.197660
  C    -10.274460   -6.270260   -2.863690
  C    -11.677800   -6.134660   -2.602530
  C    -12.534700   -5.364510   -3.336560
  O    -13.877800   -5.226760   -3.022370
  C    -14.302310   -5.936390   -1.943080
  C    -13.415430   -6.756640   -1.186840
  C    -14.029600   -7.383470   -0.154460
  S    -15.706920   -6.982180   -0.087050
  C    -15.571980   -5.957290   -1.469000
  O    -12.095120   -6.864510   -1.497420
  C    -12.163950   -4.626360   -4.520980
  C    -13.005160   -3.840650   -5.192750
  H      4.519540   -9.727980    2.536370
  H      0.409120   -7.031020    1.574340
  H     -1.108700   -8.720610    0.648450
  H      0.629100  -13.101790    0.242680
  H      3.321480  -14.457550    0.779320
  H      3.229970  -19.330890    0.171320
  H     -0.100950  -19.105810   -2.906150
  H      1.066170  -13.265350   -1.775300
  H     -1.394480  -14.830640   -2.706960
  H     -2.223560  -12.771450   -3.236750
  H      1.477130  -11.884660   -3.500810
  H     -1.002240   -8.260140   -2.417200
  H     -2.976600  -11.218320   -1.637870
  H     -3.348610   -8.759280   -3.219630
  H     -5.095130  -10.220610   -1.160300
  H     -4.082210   -6.569180   -3.781850
  H     -3.924730   -4.288140   -2.826070
  H     -5.202640   -4.665120   -1.660220
  H     -5.530240   -4.822740   -4.688670
  H     -6.028820   -3.431840   -3.713480
  H     -7.850320   -4.586070   -2.775630
  H     -7.440130   -3.723680   -5.755520
  H     -8.844910   -3.568430   -4.671440
  H     -8.950250   -4.570290   -6.148080
  H     -9.974870   -7.816390   -1.489350
  H     -9.853060   -5.662060   -3.639620
  H    -13.600470   -8.049700    0.563790
  H    -16.426980   -5.436270   -1.845630
  H    -11.151180   -4.753910   -4.864440
  H    -14.023780   -3.704910   -4.875230
  H    -12.693360   -3.316540   -6.078610

 Total Charge           Charge          ....    0
 Multiplicity           Mult            ....    1
 Number of Electrons    NEL             ....  462
 Basis Dimension        Dim             .... 1029

ORBITAL ENERGIES
----------------

  NO   OCC          E(Eh)            E(eV)
   0   2.0000     -88.974463     -2421.1182
   1   2.0000     -88.949962     -2420.4515
   2   2.0000     -88.949794     -2420.4469
   3   2.0000     -88.948751     -2420.4186
   4   2.0000     -88.944844     -2420.3123
   5   2.0000     -19.267268      -524.2890
   6   2.0000     -19.264904      -524.2247
   7   2.0000     -19.264477      -524.2131
   8   2.0000     -19.256412      -523.9936
   9   2.0000     -19.222125      -523.0606
  10   2.0000     -14.443233      -393.0204
  11   2.0000     -14.440409      -392.9435
  12   2.0000     -14.420894      -392.4125
  13   2.0000     -14.410234      -392.1224
  14   2.0000     -14.409207      -392.0945
  15   2.0000     -10.337987      -281.3109
  16   2.0000     -10.336122      -281.2602
  17   2.0000     -10.334070      -281.2043
  18   2.0000     -10.332558      -281.1632
  19   2.0000     -10.332300      -281.1562
  20   2.0000     -10.331428      -281.1324
  21   2.0000     -10.330566      -281.1090
  22   2.0000     -10.330205      -281.0992
  23   2.0000     -10.325700      -280.9766
  24   2.0000     -10.324710      -280.9496
  25   2.0000     -10.323789      -280.9246
  26   2.0000     -10.323780      -280.9243
  27   2.0000     -10.323482      -280.9162
  28   2.0000     -10.317445      -280.7520
  29   2.0000     -10.315856      -280.7087
  30   2.0000     -10.313896      -280.6554
  31   2.0000     -10.312425      -280.6154
  32   2.0000     -10.312380      -280.6141
  33   2.0000     -10.311161      -280.5810
  34   2.0000     -10.310204      -280.5549
  35   2.0000     -10.307372      -280.4778
  36   2.0000     -10.302196      -280.3370
  37   2.0000     -10.301587      -280.3204
  38   2.0000     -10.300900      -280.3017
  39   2.0000     -10.300402      -280.2882
  40   2.0000     -10.300225      -280.2834
  41   2.0000     -10.299846      -280.2731
  42   2.0000     -10.292934      -280.0850
  43   2.0000     -10.290859      -280.0285
  44   2.0000     -10.286351      -279.9058
  45   2.0000     -10.286251      -279.9031
  46   2.0000     -10.285984      -279.8958
  47   2.0000     -10.285522      -279.8833
  48   2.0000     -10.284457      -279.8543
  49   2.0000     -10.283415      -279.8260
  50   2.0000     -10.281904      -279.7848
  51   2.0000     -10.279588      -279.7218
  52   2.0000     -10.278327      -279.6875
  53   2.0000     -10.276972      -279.6506
  54   2.0000     -10.275630      -279.6141
  55   2.0000     -10.275549      -279.6119
  56   2.0000     -10.274703      -279.5889
  57   2.0000     -10.269286      -279.4415
  58   2.0000     -10.264057      -279.2992
  59   2.0000     -10.261713      -279.2354
  60   2.0000     -10.253638      -279.0157
  61   2.0000      -8.069668      -219.5868
  62   2.0000      -8.045703      -218.9347
  63   2.0000      -8.045525      -218.9299
  64   2.0000      -8.044490      -218.9017
  65   2.0000      -8.041011      -218.8070
  66   2.0000      -6.038536      -164.3169
  67   2.0000      -6.034316      -164.2021
  68   2.0000      -6.032797      -164.1608
  69   2.0000      -6.015244      -163.6831
  70   2.0000      -6.015023      -163.6771
  71   2.0000      -6.014026      -163.6500
  72   2.0000      -6.011079      -163.5698
  73   2.0000      -6.010663      -163.5585
  74   2.0000      -6.010147      -163.5444
  75   2.0000      -6.009837      -163.5360
  76   2.0000      -6.007489      -163.4721
  77   2.0000      -6.007333      -163.4678
  78   2.0000      -6.006259      -163.4386
  79   2.0000      -6.006173      -163.4363
  80   2.0000      -6.003103      -163.3527
  81   2.0000      -1.190331       -32.3906
  82   2.0000      -1.188018       -32.3276
  83   2.0000      -1.153254       -31.3816
  84   2.0000      -1.149912       -31.2907
  85   2.0000      -1.123994       -30.5854
  86   2.0000      -1.060375       -28.8543
  87   2.0000      -1.031332       -28.0640
  88   2.0000      -1.017517       -27.6880
  89   2.0000      -1.003760       -27.3137
  90   2.0000      -1.002741       -27.2860
  91   2.0000      -0.990445       -26.9514
  92   2.0000      -0.983194       -26.7541
  93   2.0000      -0.977847       -26.6086
  94   2.0000      -0.976360       -26.5681
  95   2.0000      -0.962897       -26.2018
  96   2.0000      -0.952141       -25.9091
  97   2.0000      -0.932475       -25.3739
  98   2.0000      -0.917051       -24.9542
  99   2.0000      -0.911502       -24.8032
 100   2.0000      -0.901672       -24.5357
 101   2.0000      -0.893178       -24.3046
 102   2.0000      -0.874856       -23.8060
 103   2.0000      -0.871148       -23.7051
 104   2.0000      -0.857935       -23.3456
 105   2.0000      -0.846992       -23.0478
 106   2.0000      -0.843211       -22.9449
 107   2.0000      -0.835834       -22.7442
 108   2.0000      -0.831496       -22.6262
 109   2.0000      -0.823766       -22.4158
 110   2.0000      -0.816344       -22.2139
 111   2.0000      -0.807962       -21.9858
 112   2.0000      -0.806811       -21.9545
 113   2.0000      -0.802678       -21.8420
 114   2.0000      -0.799405       -21.7529
 115   2.0000      -0.782517       -21.2934
 116   2.0000      -0.781150       -21.2562
 117   2.0000      -0.773148       -21.0384
 118   2.0000      -0.769324       -20.9344
 119   2.0000      -0.739802       -20.1310
 120   2.0000      -0.729874       -19.8609
 121   2.0000      -0.724615       -19.7178
 122   2.0000      -0.714040       -19.4300
 123   2.0000      -0.706146       -19.2152
 124   2.0000      -0.699100       -19.0235
 125   2.0000      -0.695355       -18.9216
 126   2.0000      -0.686341       -18.6763
 127   2.0000      -0.680384       -18.5142
 128   2.0000      -0.677673       -18.4404
 129   2.0000      -0.674634       -18.3577
 130   2.0000      -0.667269       -18.1573
 131   2.0000      -0.661439       -17.9987
 132   2.0000      -0.658934       -17.9305
 133   2.0000      -0.655986       -17.8503
 134   2.0000      -0.653484       -17.7822
 135   2.0000      -0.644758       -17.5447
 136   2.0000      -0.641914       -17.4674
 137   2.0000      -0.641229       -17.4487
 138   2.0000      -0.626242       -17.0409
 139   2.0000      -0.609475       -16.5847
 140   2.0000      -0.601730       -16.3739
 141   2.0000      -0.598547       -16.2873
 142   2.0000      -0.590296       -16.0628
 143   2.0000      -0.589139       -16.0313
 144   2.0000      -0.585361       -15.9285
 145   2.0000      -0.582424       -15.8486
 146   2.0000      -0.578781       -15.7494
 147   2.0000      -0.575413       -15.6578
 148   2.0000      -0.571415       -15.5490
 149   2.0000      -0.570704       -15.5296
 150   2.0000      -0.565677       -15.3929
 151   2.0000      -0.557488       -15.1700
 152   2.0000      -0.554180       -15.0800
 153   2.0000      -0.552292       -15.0286
 154   2.0000      -0.547962       -14.9108
 155   2.0000      -0.539960       -14.6931
 156   2.0000      -0.538993       -14.6667
 157   2.0000      -0.531984       -14.4760
 158   2.0000      -0.529863       -14.4183
 159   2.0000      -0.524939       -14.2843
 160   2.0000      -0.523633       -14.2488
 161   2.0000      -0.522061       -14.2060
 162   2.0000      -0.518743       -14.1157
 163   2.0000      -0.511735       -13.9250
 164   2.0000      -0.510889       -13.9020
 165   2.0000      -0.507777       -13.8173
 166   2.0000      -0.503931       -13.7127
 167   2.0000      -0.503285       -13.6951
 168   2.0000      -0.501606       -13.6494
 169   2.0000      -0.497420       -13.5355
 170   2.0000      -0.493187       -13.4203
 171   2.0000      -0.491305       -13.3691
 172   2.0000      -0.490120       -13.3368
 173   2.0000      -0.487287       -13.2598
 174   2.0000      -0.486021       -13.2253
 175   2.0000      -0.481254       -13.0956
 176   2.0000      -0.478640       -13.0245
 177   2.0000      -0.477302       -12.9881
 178   2.0000      -0.473083       -12.8732
 179   2.0000      -0.472741       -12.8639
 180   2.0000      -0.470542       -12.8041
 181   2.0000      -0.468122       -12.7382
 182   2.0000      -0.467172       -12.7124
 183   2.0000      -0.464987       -12.6529
 184   2.0000      -0.463058       -12.6005
 185   2.0000      -0.460407       -12.5283
 186   2.0000      -0.458760       -12.4835
 187   2.0000      -0.457786       -12.4570
 188   2.0000      -0.453560       -12.3420
 189   2.0000      -0.452221       -12.3056
 190   2.0000      -0.447651       -12.1812
 191   2.0000      -0.444948       -12.1077
 192   2.0000      -0.442916       -12.0524
 193   2.0000      -0.440080       -11.9752
 194   2.0000      -0.437130       -11.8949
 195   2.0000      -0.435375       -11.8472
 196   2.0000      -0.433810       -11.8046
 197   2.0000      -0.429541       -11.6884
 198   2.0000      -0.427113       -11.6223
 199   2.0000      -0.424621       -11.5545
 200   2.0000      -0.423586       -11.5264
 201   2.0000      -0.422983       -11.5100
 202   2.0000      -0.419936       -11.4270
 203   2.0000      -0.414143       -11.2694
 204   2.0000      -0.412222       -11.2171
 205   2.0000      -0.410926       -11.1819
 206   2.0000      -0.407960       -11.1011
 207   2.0000      -0.406263       -11.0550
 208   2.0000      -0.404242       -11.0000
 209   2.0000      -0.402525       -10.9533
 210   2.0000      -0.398843       -10.8531
 211   2.0000      -0.390588       -10.6284
 212   2.0000      -0.388814       -10.5802
 213   2.0000      -0.384398       -10.4600
 214   2.0000      -0.370580       -10.0840
 215   2.0000      -0.361290        -9.8312
 216   2.0000      -0.342141        -9.3101
 217   2.0000      -0.339892        -9.2489
 218   2.0000      -0.337738        -9.1903
 219   2.0000      -0.330645        -8.9973
 220   2.0000      -0.315728        -8.5914
 221   2.0000      -0.313358        -8.5269
 222   2.0000      -0.310384        -8.4460
 223   2.0000      -0.297050        -8.0831
 224   2.0000      -0.295873        -8.0511
 225   2.0000      -0.287748        -7.8300
 226   2.0000      -0.273643        -7.4462
 227   2.0000      -0.267582        -7.2813
 228   2.0000      -0.254968        -6.9380
 229   2.0000      -0.225056        -6.1241
 230   2.0000      -0.216967        -5.9040
 231   0.0000      -0.075250        -2.0477
 232   0.0000      -0.034236        -0.9316
 233   0.0000      -0.026463        -0.7201
 234   0.0000       0.013293         0.3617
 235   0.0000       0.025257         0.6873

MULLIKEN ATOMIC CHARGES
-----------------------
   0 C :   -0.138884
   1 S :    0.169502
   2 C :   -0.152504
   3 C :    0.173474
   4 C :    0.097500
   5 C :   -0.051611
   6 C :   -0.183497
   7 N :    0.121608
   8 C :    0.009374
   9 C :    0.019738
  10 C :   -0.098866
  11 C :   -0.094816
  12 N :    0.039330
  13 C :   -0.054974
  14 C :   -0.009259
  15 C :    0.136334
  16 C :    0.163423
  17 O :   -0.254653
  18 C :    0.211705
  19 C :    0.227934
  20 C :   -0.180894
  21 S :    0.100525
  22 C :   -0.176505
  23 O :   -0.261553
  24 C :   -0.133207
  25 C :    0.080207
  26 N :   -0.040010
  27 C :    0.098707
  28 C :   -0.191438
  29 S :    0.109502
  30 C :   -0.201470
  31 C :    0.131922
  32 N :   -0.099253
  33 C :    0.065462
  34 C :    0.009245
  35 C :   -0.127098
  36 S :    0.118933
  37 C :   -0.120938
  38 C :   -0.004730
  39 C :   -0.046370
  40 C :    0.017950
  41 C :   -0.255910
  42 N :    0.097494
  43 C :    0.039250
  44 C :    0.083016
  45 C :    0.164521
  46 O :   -0.383899
  47 C :    0.181407
  48 C :    0.050837
  49 C :   -0.070349
  50 C :    0.186404
  51 C :    0.135391
  52 O :   -0.257890
  53 C :    0.218337
  54 C :    0.226101
  55 C :   -0.178480
  56 S :    0.101228
  57 C :   -0.175659
  58 O :   -0.264605
  59 C :   -0.049442
  60 C :    0.013338
  61 H :    0.036294
  62 H :    0.005353
  63 H :    0.010016
  64 H :    0.034527
  65 H :    0.002183
  66 H :    0.021060
  67 H :    0.020369
  68 H :    0.026811
  69 H :    0.012851
  70 H :    0.122208
  71 H :    0.025971
  72 H :    0.011976
  73 H :    0.135771
  74 H :    0.007664
  75 H :   -0.020210
  76 H :    0.046703
  77 H :    0.021536
  78 H :    0.026420
  79 H :    0.001494
  80 H :    0.013674
  81 H :   -0.000263
  82 H :    0.014773
  83 H :    0.008234
  84 H :    0.044935
  85 H :   -0.001601
  86 H :   -0.021513
  87 H :    0.022091
  88 H :    0.021230
  89 H :   -0.032862
  90 H :    0.028177
  91 H :    0.013194
Sum of atomic charges:   -0.0000000

LOEWDIN ATOMIC CHARGES
----------------------
   0 C :   -0.194125
   1 S :    0.501194
   2 C :   -0.167384
   3 C :   -0.039284
   4 C :   -0.038867
   5 C :   -0.045866
   6 C :   -0.025346
   7 N :   -0.049702
   8 C :    0.012133
   9 C :    0.020773
  10 C :   -0.053191
  11 C :    0.013275
  12 N :   -0.079857
  13 C :   -0.059551
  14 C :   -0.019941
  15 C :   -0.013809
  16 C :    0.048988
  17 O :   -0.054690
  18 C :   -0.008891
  19 C :   -0.005447
  20 C :   -0.215981
  21 S :    0.427848
  22 C :   -0.213692
  23 O :   -0.070662
  24 C :   -0.124634
  25 C :    0.053280
  26 N :    0.025530
  27 C :   -0.029523
  28 C :   -0.217149
  29 S :    0.433442
  30 C :   -0.220215
  31 C :   -0.037999
  32 N :    0.015120
  33 C :    0.054627
  34 C :   -0.127724
  35 C :   -0.155551
  36 S :    0.437648
  37 C :   -0.163702
  38 C :   -0.062726
  39 C :   -0.079338
  40 C :   -0.047211
  41 C :   -0.006514
  42 N :   -0.088475
  43 C :   -0.003881
  44 C :   -0.040551
  45 C :    0.072177
  46 O :   -0.165353
  47 C :    0.060540
  48 C :   -0.036298
  49 C :   -0.044205
  50 C :    0.028814
  51 C :    0.019522
  52 O :   -0.055570
  53 C :   -0.007186
  54 C :   -0.007140
  55 C :   -0.213073
  56 S :    0.428253
  57 C :   -0.213380
  58 O :   -0.058395
  59 C :   -0.040877
  60 C :   -0.037238
  61 H :    0.031711
  62 H :    0.046256
  63 H :    0.046054
  64 H :    0.040792
  65 H :    0.027643
  66 H :    0.027389
  67 H :    0.027177
  68 H :    0.034552
  69 H :    0.030909
  70 H :    0.080826
  71 H :    0.025029
  72 H :    0.020950
  73 H :    0.074190
  74 H :    0.026022
  75 H :    0.025311
  76 H :    0.052581
  77 H :    0.032109
  78 H :    0.034295
  79 H :    0.028660
  80 H :    0.028800
  81 H :    0.013542
  82 H :    0.008368
  83 H :    0.006570
  84 H :    0.025279
  85 H :    0.028890
  86 H :    0.027335
  87 H :    0.027839
  88 H :    0.027627
  89 H :    0.031283
  90 H :    0.025643
  91 H :    0.023402

  Mayer bond orders larger than 0.100000
B(  0-C ,  1-S ) :   1.1821 B(  0-C ,  4-C ) :   1.4681 B(  0-C , 61-H ) :   0.9488
B(  1-S ,  2-C ) :   1.1662 B(  2-C ,  3-C ) :   1.3516 B(  2-C , 13-C ) :   1.1809
B(  3-C ,  4-C ) :   1.1664 B(  3-C , 10-C ) :   1.1958 B(  4-C ,  5-C ) :   1.1832
B(  5-C ,  6-C ) :   1.0765 B(  5-C ,  8-C ) :   1.5317 B(  6-C ,  7-N ) :   3.0369
B(  8-C ,  9-C ) :   1.1969 B(  8-C , 62-H ) :   1.0005 B(  9-C , 10-C ) :   1.5256
B(  9-C , 63-H ) :   0.9884 B( 10-C , 11-C ) :   1.1123 B( 11-C , 12-N ) :   2.8492
B( 13-C , 14-C ) :   1.6329 B( 13-C , 64-H ) :   0.9530 B( 14-C , 15-C ) :   1.1528
B( 14-C , 65-H ) :   0.9560 B( 15-C , 16-C ) :   1.5095 B( 15-C , 23-O ) :   1.0112
B( 16-C , 17-O ) :   1.0681 B( 16-C , 24-C ) :   1.1791 B( 17-O , 18-C ) :   1.0533
B( 18-C , 19-C ) :   1.1963 B( 18-C , 22-C ) :   1.5709 B( 19-C , 20-C ) :   1.5701
B( 19-C , 23-O ) :   1.0781 B( 20-C , 21-S ) :   1.1353 B( 20-C , 66-H ) :   0.9722
B( 21-S , 22-C ) :   1.1402 B( 22-C , 67-H ) :   0.9736 B( 24-C , 25-C ) :   1.6677
B( 24-C , 68-H ) :   0.9402 B( 25-C , 26-N ) :   1.1649 B( 25-C , 69-H ) :   0.9642
B( 26-N , 27-C ) :   1.1164 B( 26-N , 70-H ) :   0.9150 B( 27-C , 28-C ) :   1.5398
B( 27-C , 31-C ) :   1.2586 B( 28-C , 29-S ) :   1.1487 B( 28-C , 71-H ) :   0.9678
B( 29-S , 30-C ) :   1.1455 B( 30-C , 31-C ) :   1.5348 B( 30-C , 72-H ) :   0.9718
B( 31-C , 32-N ) :   1.0689 B( 32-N , 33-C ) :   1.1908 B( 32-N , 73-H ) :   0.8997
B( 33-C , 34-C ) :   1.6598 B( 33-C , 74-H ) :   0.9611 B( 34-C , 35-C ) :   1.1164
B( 34-C , 75-H ) :   0.9438 B( 35-C , 36-S ) :   1.1278 B( 35-C , 39-C ) :   1.5294
B( 36-S , 37-C ) :   1.1161 B( 37-C , 38-C ) :   1.5405 B( 37-C , 48-C ) :   1.0869
B( 38-C , 39-C ) :   1.3342 B( 38-C , 45-C ) :   0.9990 B( 39-C , 40-C ) :   0.9720
B( 40-C , 41-C ) :   1.0533 B( 40-C , 43-C ) :   1.1030 B( 40-C , 76-H ) :   0.8360
B( 41-C , 42-N ) :   3.0113 B( 43-C , 44-C ) :   1.1226 B( 43-C , 77-H ) :   0.9354
B( 43-C , 78-H ) :   0.9264 B( 44-C , 45-C ) :   1.0676 B( 44-C , 79-H ) :   0.8929
B( 44-C , 80-H ) :   0.9285 B( 45-C , 46-O ) :   1.0210 B( 45-C , 81-H ) :   0.8964
B( 46-O , 47-C ) :   0.9733 B( 47-C , 82-H ) :   0.9630 B( 47-C , 83-H ) :   0.9568
B( 47-C , 84-H ) :   0.9762 B( 48-C , 49-C ) :   1.7115 B( 48-C , 85-H ) :   0.9503
B( 49-C , 50-C ) :   1.1481 B( 49-C , 86-H ) :   0.9441 B( 50-C , 51-C ) :   1.5066
B( 50-C , 58-O ) :   1.0498 B( 51-C , 52-O ) :   1.0484 B( 51-C , 59-C ) :   1.1415
B( 52-O , 53-C ) :   1.0621 B( 53-C , 54-C ) :   1.1984 B( 53-C , 57-C ) :   1.5737
B( 54-C , 55-C ) :   1.5719 B( 54-C , 58-O ) :   1.0547 B( 55-C , 56-S ) :   1.1375
B( 55-C , 87-H ) :   0.9734 B( 56-S , 57-C ) :   1.1372 B( 57-C , 88-H ) :   0.9727
B( 59-C , 60-C ) :   1.9277 B( 59-C , 89-H ) :   0.9491 B( 60-C , 90-H ) :   0.9495
B( 60-C , 91-H ) :   0.9430

-----------------------------------------------------------------------------
         ABSORPTION SPECTRUM VIA TRANSITION ELECTRIC DIPOLE MOMENTS
-----------------------------------------------------------------------------
State   Energy  Wavelength   fosc         T2         TX        TY        TZ
        (cm-1)    (nm)                  (au**2)     (au)      (au)      (au)
-----------------------------------------------------------------------------
   0   14039.2    712.3   0.188386104   4.41756   0.83196   1.44161   1.28342
   1   20076.6    498.1   0.018282422   0.29979  -0.07118   0.50899   0.18883
   2   22746.3    439.6   0.132393480   1.91616  -0.64437  -0.09149  -1.22171
   3   24628.9    406.0   0.195477724   2.61293  -0.81277  -1.22596  -0.67033
   4   25611.4    390.5   1.613366900  20.73843   4.05273  -1.98896   0.59822
   5   27893.3    358.5   0.018635974   0.21995   0.24382   0.05368   0.39702
   6   28592.3    349.7   0.005471419   0.06300   0.09687  -0.05560   0.22477
   7   29799.6    335.6   0.012597683   0.13917   0.28695   0.02215  -0.23737
   8   30857.6    324.1   0.057867301   0.61737  -0.20747  -0.67013  -0.35392
   9   31300.4    319.5   0.074360592   0.78211   0.77000  -0.21734  -0.37679
  10   32853.8    304.4   0.046144884   0.46240  -0.07125   0.60663   0.29886
  11   33939.8    294.6   0.022896905   0.22210   0.33975   0.32568   0.02446
  12   34360.2    291.0   0.097178332   0.93109   0.04896   0.95568  -0.12396
  13   34691.2    288.3   0.304565190   2.89026  -0.07741  -1.69297  -0.13457
  14   34842.5    287.0   0.044270283   0.41829  -0.55975  -0.30019   0.12189
  15   35380.7    282.6   0.203635125   1.89479   1.12046  -0.71106  -0.36575
  16   36117.9    276.9   0.091747945   0.83628  -0.21456   0.87886  -0.13359
  17   36298.1    275.5   0.006685869   0.06064   0.06663  -0.21918   0.09032
  18   37124.5    269.4   0.024033401   0.21312   0.22207  -0.40022  -0.06024
  19   38304.0    261.1   0.087820964   0.75480   0.03255   0.77242  -0.39636
  20   38633.9    258.8   0.012071042   0.10286  -0.01200  -0.15476   0.28066
  21   39202.4    255.1   0.075182001   0.63136   0.74386  -0.25245   0.11956
  22   39331.0    254.3   0.004185290   0.03503  -0.13956  -0.02029  -0.12305
  23   39684.9    252.0   0.028208177   0.23400  -0.32826  -0.22797   0.27254
  24   39952.9    250.3   0.043904253   0.36177   0.58220  -0.10868  -0.10491
  25   40229.3    248.6   0.175096709   1.43288  -0.84568   0.72249   0.44240

FINAL SINGLE POINT ENERGY     -4408.549181589492

DIPOLE MOMENT
-------------
                                X             Y             Z
Electronic contribution:     31.12785     -42.81322      27.93938
Nuclear contribution   :    -31.93875      43.34668     -29.49160
                        -----------------------------------------
Total Dipole Moment    :     -0.81090       0.53346      -1.55222
                        -----------------------------------------
Magnitude (a.u.)       :      1.83072
Magnitude (Debye)      :      4.65332

Rotational constants in cm-1:     0.001764     0.000376     0.000341
Rotational constants in MHz :    52.870748    11.259025    10.210141

                             ****ORCA TERMINATED NORMALLY****
TOTAL RUN TIME: 0 days 0 hours 7 minutes 59 seconds 792 msec
