                         Program Version 4.2.0 -  RELEASE  -
|  1> # ORCA input file
|  2> # SCF done       -164.926846490342          0.000767277375
|  3> ! CAM-B3LYP def2-SVP def2/J RIJCOSX Grid4 TightSCF
|  4> %maxcore 5000
|  5> %tddft
|  6>     Mode sTDDFT
|  7>     Ethresh 5.0
|  8>     maxcore 5000
|  9> end
| 10>
| 11> %pal
| 12>   nprocs 6
| 13>   end
| 14> * xyz 0 1
| 15>    C        2.37927         7.42522        -0.91347
| 16>    S        1.95811         5.82090        -0.42533
| 17>    C        0.29713         6.20419        -0.55357
| 18>    C        0.09719         7.51769        -0.95670
| 19>    C        1.29557         8.21774        -1.16279
| 20>    C       -1.35807         7.73658        -1.02957
| 21>    O       -1.96938         8.73135        -1.32901
| 22>    C       -1.96305         6.40155        -0.62473
| 23>    C       -0.95019         5.52711        -0.35218
| 24>    C       -3.37157         6.24301        -0.58510
| 25>    C       -4.01985         5.11588        -0.20623
| 26>    C       -5.43770         4.93217        -0.17545
| 27>    C       -6.39131         5.88377        -0.53489
| 28>    C       -7.75830         5.62509        -0.54464
| 29>    C       -8.29358         4.39244        -0.18820
| 30>    C       -7.36352         3.42744         0.24911
| 31>    C       -5.96356         3.68589         0.24033
| 32>    N       -5.35604         2.56638         0.65982
| 33>    N       -6.32932         1.73275         0.88380
| 34>    C       -6.09117         0.41203         1.39046
| 35>    C       -6.31683         0.37384         2.89870
| 36>    N       -7.53985         2.16508         0.66285
| 37>    C       -9.69245         4.06032        -0.27150
| 38>    S      -10.37340         2.99484         0.90733
| 39>    C      -11.95142         3.21533         0.23227
| 40>    C      -13.12757         2.51274         0.81053
| 41>    F      -13.30784         2.78285         2.11492
| 42>    F      -14.26460         2.85063         0.18786
| 43>    F      -13.02682         1.17322         0.72169
| 44>    C      -11.94948         4.04358        -0.84704
| 45>    C      -10.65175         4.51390        -1.17207
| 46>    C      -10.40239         5.31099        -2.34394
| 47>    S      -11.52402         6.50703        -2.84927
| 48>    C      -10.55925         6.99734        -4.21379
| 49>    C       -9.36451         6.24811        -4.25326
| 50>    C       -9.30767         5.26043        -3.21761
| 51>    C       -8.23313         4.35199        -3.16535
| 52>    C       -7.17482         4.50899        -4.01305
| 53>    C       -5.97818         3.60658        -3.90942
| 54>    F       -6.12626         2.66899        -2.95841
| 55>    F       -5.71714         2.94845        -5.04808
| 56>    F       -4.86313         4.28561        -3.58914
| 57>    C       -7.17048         5.55494        -4.97736
| 58>    C       -6.05234         5.73815        -5.82600
| 59>    N       -5.15954         5.90764        -6.52270
| 60>    C       -8.26169         6.38655        -5.11161
| 61>    C      -11.10928         8.00072        -5.03198
| 62>    C      -10.66367         8.46522        -6.23630
| 63>    C      -11.36338         9.47625        -6.92435
| 64>    C      -12.50734        10.17880        -6.60706
| 65>    C      -12.76752        11.09452        -7.68431
| 66>    C      -11.70833        10.89675        -8.66923
| 67>    O      -11.48154        11.40609        -9.72429
| 68>    O      -10.89469         9.89941        -8.13756
| 69>    C      -13.89226        11.77649        -7.35854
| 70>    O      -14.37110        11.37262        -6.16448
| 71>    C      -13.55398        10.36893        -5.63417
| 72>    O      -13.78261         9.84621        -4.57414
| 73>    H        3.41666         7.68505        -0.98681
| 74>    H        1.36199         9.24316        -1.47659
| 75>    H       -1.04418         4.50247        -0.04343
| 76>    H       -3.92406         7.12217        -0.88963
| 77>    H       -3.44996         4.24977         0.09939
| 78>    H       -6.06364         6.86729        -0.83206
| 79>    H       -8.43128         6.41876        -0.83321
| 80>    H       -5.06060         0.15257         1.14410
| 81>    H       -6.78197        -0.26789         0.88781
| 82>    H       -5.63119         1.05168         3.40132
| 83>    H       -6.14908        -0.63263         3.27036
| 84>    H       -7.33742         0.66832         3.13012
| 85>    H      -12.82947         4.29045        -1.41389
| 86>    H       -8.25161         3.53802        -2.46083
| 87>    H       -8.23539         7.15885        -5.86125
| 88>    H      -12.02829         8.43429        -4.65285
| 89>    H       -9.78928         8.07976        -6.73349
| 90>    H      -14.43971        12.54839        -7.86545
| 91> *
| 92>
| 93>                          ****END OF INPUT****

CARTESIAN COORDINATES (ANGSTROEM)
---------------------------------
  C      2.379270    7.425220   -0.913470
  S      1.958110    5.820900   -0.425330
  C      0.297130    6.204190   -0.553570
  C      0.097190    7.517690   -0.956700
  C      1.295570    8.217740   -1.162790
  C     -1.358070    7.736580   -1.029570
  O     -1.969380    8.731350   -1.329010
  C     -1.963050    6.401550   -0.624730
  C     -0.950190    5.527110   -0.352180
  C     -3.371570    6.243010   -0.585100
  C     -4.019850    5.115880   -0.206230
  C     -5.437700    4.932170   -0.175450
  C     -6.391310    5.883770   -0.534890
  C     -7.758300    5.625090   -0.544640
  C     -8.293580    4.392440   -0.188200
  C     -7.363520    3.427440    0.249110
  C     -5.963560    3.685890    0.240330
  N     -5.356040    2.566380    0.659820
  N     -6.329320    1.732750    0.883800
  C     -6.091170    0.412030    1.390460
  C     -6.316830    0.373840    2.898700
  N     -7.539850    2.165080    0.662850
  C     -9.692450    4.060320   -0.271500
  S    -10.373400    2.994840    0.907330
  C    -11.951420    3.215330    0.232270
  C    -13.127570    2.512740    0.810530
  F    -13.307840    2.782850    2.114920
  F    -14.264600    2.850630    0.187860
  F    -13.026820    1.173220    0.721690
  C    -11.949480    4.043580   -0.847040
  C    -10.651750    4.513900   -1.172070
  C    -10.402390    5.310990   -2.343940
  S    -11.524020    6.507030   -2.849270
  C    -10.559250    6.997340   -4.213790
  C     -9.364510    6.248110   -4.253260
  C     -9.307670    5.260430   -3.217610
  C     -8.233130    4.351990   -3.165350
  C     -7.174820    4.508990   -4.013050
  C     -5.978180    3.606580   -3.909420
  F     -6.126260    2.668990   -2.958410
  F     -5.717140    2.948450   -5.048080
  F     -4.863130    4.285610   -3.589140
  C     -7.170480    5.554940   -4.977360
  C     -6.052340    5.738150   -5.826000
  N     -5.159540    5.907640   -6.522700
  C     -8.261690    6.386550   -5.111610
  C    -11.109280    8.000720   -5.031980
  C    -10.663670    8.465220   -6.236300
  C    -11.363380    9.476250   -6.924350
  C    -12.507340   10.178800   -6.607060
  C    -12.767520   11.094520   -7.684310
  C    -11.708330   10.896750   -8.669230
  O    -11.481540   11.406090   -9.724290
  O    -10.894690    9.899410   -8.137560
  C    -13.892260   11.776490   -7.358540
  O    -14.371100   11.372620   -6.164480
  C    -13.553980   10.368930   -5.634170
  O    -13.782610    9.846210   -4.574140
  H      3.416660    7.685050   -0.986810
  H      1.361990    9.243160   -1.476590
  H     -1.044180    4.502470   -0.043430
  H     -3.924060    7.122170   -0.889630
  H     -3.449960    4.249770    0.099390
  H     -6.063640    6.867290   -0.832060
  H     -8.431280    6.418760   -0.833210
  H     -5.060600    0.152570    1.144100
  H     -6.781970   -0.267890    0.887810
  H     -5.631190    1.051680    3.401320
  H     -6.149080   -0.632630    3.270360
  H     -7.337420    0.668320    3.130120
  H    -12.829470    4.290450   -1.413890
  H     -8.251610    3.538020   -2.460830
  H     -8.235390    7.158850   -5.861250
  H    -12.028290    8.434290   -4.652850
  H     -9.789280    8.079760   -6.733490
  H    -14.439710   12.548390   -7.865450

 Total Charge           Charge          ....    0
 Multiplicity           Mult            ....    1
 Number of Electrons    NEL             ....  428
 Basis Dimension        Dim             ....  914

ORBITAL ENERGIES
----------------

  NO   OCC          E(Eh)            E(eV)
   0   2.0000     -88.999487     -2421.7992
   1   2.0000     -88.982229     -2421.3296
   2   2.0000     -88.973418     -2421.0898
   3   2.0000     -24.808061      -675.0617
   4   2.0000     -24.805611      -674.9950
   5   2.0000     -24.801581      -674.8853
   6   2.0000     -24.800858      -674.8657
   7   2.0000     -24.799330      -674.8241
   8   2.0000     -24.798256      -674.7948
   9   2.0000     -19.289798      -524.9021
  10   2.0000     -19.289678      -524.8988
  11   2.0000     -19.224303      -523.1199
  12   2.0000     -19.218638      -522.9657
  13   2.0000     -19.216332      -522.9030
  14   2.0000     -14.549268      -395.9057
  15   2.0000     -14.451906      -393.2563
  16   2.0000     -14.450860      -393.2279
  17   2.0000     -14.413445      -392.2098
  18   2.0000     -10.526763      -286.4478
  19   2.0000     -10.525096      -286.4024
  20   2.0000     -10.419413      -283.5267
  21   2.0000     -10.414307      -283.3877
  22   2.0000     -10.380999      -282.4813
  23   2.0000     -10.365446      -282.0581
  24   2.0000     -10.365410      -282.0571
  25   2.0000     -10.344702      -281.4936
  26   2.0000     -10.339409      -281.3496
  27   2.0000     -10.334011      -281.2027
  28   2.0000     -10.333505      -281.1890
  29   2.0000     -10.329596      -281.0826
  30   2.0000     -10.322847      -280.8989
  31   2.0000     -10.321506      -280.8625
  32   2.0000     -10.321019      -280.8492
  33   2.0000     -10.320638      -280.8388
  34   2.0000     -10.319827      -280.8168
  35   2.0000     -10.315388      -280.6960
  36   2.0000     -10.314941      -280.6838
  37   2.0000     -10.313885      -280.6551
  38   2.0000     -10.312590      -280.6198
  39   2.0000     -10.311620      -280.5935
  40   2.0000     -10.308906      -280.5196
  41   2.0000     -10.308298      -280.5030
  42   2.0000     -10.305985      -280.4401
  43   2.0000     -10.305567      -280.4287
  44   2.0000     -10.303414      -280.3701
  45   2.0000     -10.301411      -280.3157
  46   2.0000     -10.299951      -280.2759
  47   2.0000     -10.299924      -280.2752
  48   2.0000     -10.294075      -280.1160
  49   2.0000     -10.291502      -280.0460
  50   2.0000     -10.286276      -279.9038
  51   2.0000     -10.285733      -279.8890
  52   2.0000     -10.285707      -279.8883
  53   2.0000     -10.284223      -279.8479
  54   2.0000     -10.282778      -279.8086
  55   2.0000     -10.280606      -279.7495
  56   2.0000     -10.279671      -279.7241
  57   2.0000     -10.271411      -279.4993
  58   2.0000      -8.094444      -220.2610
  59   2.0000      -8.077349      -219.7958
  60   2.0000      -8.068710      -219.5608
  61   2.0000      -6.063181      -164.9875
  62   2.0000      -6.059023      -164.8744
  63   2.0000      -6.057710      -164.8387
  64   2.0000      -6.046655      -164.5379
  65   2.0000      -6.042255      -164.4181
  66   2.0000      -6.039577      -164.3453
  67   2.0000      -6.037854      -164.2984
  68   2.0000      -6.033517      -164.1803
  69   2.0000      -6.031441      -164.1239
  70   2.0000      -1.393643       -37.9229
  71   2.0000      -1.391779       -37.8722
  72   2.0000      -1.297002       -35.2932
  73   2.0000      -1.296139       -35.2697
  74   2.0000      -1.293120       -35.1876
  75   2.0000      -1.290227       -35.1089
  76   2.0000      -1.229415       -33.4541
  77   2.0000      -1.223268       -33.2868
  78   2.0000      -1.215598       -33.0781
  79   2.0000      -1.134860       -30.8811
  80   2.0000      -1.129270       -30.7290
  81   2.0000      -1.124437       -30.5975
  82   2.0000      -1.035790       -28.1853
  83   2.0000      -1.015779       -27.6408
  84   2.0000      -1.003277       -27.3006
  85   2.0000      -1.002671       -27.2841
  86   2.0000      -1.000024       -27.2120
  87   2.0000      -0.989728       -26.9319
  88   2.0000      -0.973401       -26.4876
  89   2.0000      -0.943404       -25.6713
  90   2.0000      -0.941193       -25.6112
  91   2.0000      -0.935484       -25.4558
  92   2.0000      -0.928959       -25.2783
  93   2.0000      -0.910030       -24.7632
  94   2.0000      -0.902597       -24.5609
  95   2.0000      -0.886494       -24.1227
  96   2.0000      -0.882791       -24.0220
  97   2.0000      -0.871989       -23.7280
  98   2.0000      -0.850628       -23.1468
  99   2.0000      -0.848037       -23.0763
 100   2.0000      -0.844382       -22.9768
 101   2.0000      -0.838540       -22.8178
 102   2.0000      -0.826735       -22.4966
 103   2.0000      -0.806739       -21.9525
 104   2.0000      -0.798079       -21.7168
 105   2.0000      -0.789197       -21.4751
 106   2.0000      -0.774965       -21.0879
 107   2.0000      -0.771043       -20.9812
 108   2.0000      -0.760966       -20.7069
 109   2.0000      -0.752788       -20.4844
 110   2.0000      -0.751654       -20.4535
 111   2.0000      -0.739924       -20.1343
 112   2.0000      -0.736599       -20.0439
 113   2.0000      -0.727756       -19.8033
 114   2.0000      -0.720532       -19.6067
 115   2.0000      -0.717048       -19.5119
 116   2.0000      -0.700039       -19.0490
 117   2.0000      -0.698705       -19.0127
 118   2.0000      -0.693148       -18.8615
 119   2.0000      -0.681705       -18.5501
 120   2.0000      -0.675301       -18.3759
 121   2.0000      -0.674908       -18.3652
 122   2.0000      -0.673861       -18.3367
 123   2.0000      -0.669985       -18.2312
 124   2.0000      -0.665016       -18.0960
 125   2.0000      -0.652043       -17.7430
 126   2.0000      -0.640317       -17.4239
 127   2.0000      -0.634232       -17.2583
 128   2.0000      -0.627349       -17.0710
 129   2.0000      -0.624462       -16.9925
 130   2.0000      -0.619377       -16.8541
 131   2.0000      -0.615796       -16.7567
 132   2.0000      -0.612107       -16.6563
 133   2.0000      -0.608417       -16.5559
 134   2.0000      -0.604047       -16.4370
 135   2.0000      -0.600898       -16.3513
 136   2.0000      -0.597224       -16.2513
 137   2.0000      -0.592482       -16.1222
 138   2.0000      -0.589366       -16.0375
 139   2.0000      -0.577663       -15.7190
 140   2.0000      -0.568299       -15.4642
 141   2.0000      -0.567038       -15.4299
 142   2.0000      -0.561114       -15.2687
 143   2.0000      -0.555196       -15.1077
 144   2.0000      -0.555007       -15.1025
 145   2.0000      -0.553546       -15.0628
 146   2.0000      -0.552407       -15.0318
 147   2.0000      -0.550986       -14.9931
 148   2.0000      -0.549343       -14.9484
 149   2.0000      -0.546619       -14.8743
 150   2.0000      -0.544403       -14.8140
 151   2.0000      -0.539321       -14.6757
 152   2.0000      -0.536009       -14.5856
 153   2.0000      -0.533299       -14.5118
 154   2.0000      -0.529315       -14.4034
 155   2.0000      -0.528310       -14.3760
 156   2.0000      -0.523699       -14.2506
 157   2.0000      -0.521709       -14.1964
 158   2.0000      -0.515458       -14.0263
 159   2.0000      -0.513975       -13.9860
 160   2.0000      -0.513361       -13.9693
 161   2.0000      -0.510823       -13.9002
 162   2.0000      -0.506858       -13.7923
 163   2.0000      -0.506437       -13.7809
 164   2.0000      -0.503536       -13.7019
 165   2.0000      -0.501838       -13.6557
 166   2.0000      -0.498870       -13.5750
 167   2.0000      -0.493948       -13.4410
 168   2.0000      -0.488965       -13.3054
 169   2.0000      -0.487057       -13.2535
 170   2.0000      -0.486515       -13.2387
 171   2.0000      -0.485131       -13.2011
 172   2.0000      -0.483750       -13.1635
 173   2.0000      -0.481681       -13.1072
 174   2.0000      -0.477990       -13.0068
 175   2.0000      -0.476161       -12.9570
 176   2.0000      -0.474015       -12.8986
 177   2.0000      -0.471156       -12.8208
 178   2.0000      -0.469209       -12.7678
 179   2.0000      -0.466956       -12.7065
 180   2.0000      -0.464656       -12.6439
 181   2.0000      -0.462131       -12.5752
 182   2.0000      -0.460070       -12.5192
 183   2.0000      -0.456052       -12.4098
 184   2.0000      -0.453290       -12.3347
 185   2.0000      -0.449723       -12.2376
 186   2.0000      -0.448825       -12.2132
 187   2.0000      -0.445498       -12.1226
 188   2.0000      -0.442947       -12.0532
 189   2.0000      -0.439796       -11.9675
 190   2.0000      -0.437143       -11.8953
 191   2.0000      -0.434337       -11.8189
 192   2.0000      -0.432600       -11.7716
 193   2.0000      -0.419450       -11.4138
 194   2.0000      -0.415229       -11.2990
 195   2.0000      -0.411922       -11.2090
 196   2.0000      -0.402751       -10.9594
 197   2.0000      -0.400917       -10.9095
 198   2.0000      -0.390206       -10.6181
 199   2.0000      -0.384706       -10.4684
 200   2.0000      -0.377242       -10.2653
 201   2.0000      -0.370476       -10.0812
 202   2.0000      -0.360185        -9.8011
 203   2.0000      -0.357729        -9.7343
 204   2.0000      -0.349098        -9.4994
 205   2.0000      -0.344987        -9.3876
 206   2.0000      -0.342904        -9.3309
 207   2.0000      -0.336328        -9.1519
 208   2.0000      -0.333137        -9.0651
 209   2.0000      -0.332287        -9.0420
 210   2.0000      -0.306757        -8.3473
 211   2.0000      -0.296103        -8.0574
 212   2.0000      -0.262403        -7.1404
 213   2.0000      -0.246498        -6.7075
 214   0.0000      -0.106016        -2.8848
 215   0.0000      -0.084288        -2.2936
 216   0.0000      -0.055659        -1.5146
 217   0.0000      -0.045980        -1.2512
 218   0.0000      -0.018959        -0.5159

MULLIKEN ATOMIC CHARGES
-----------------------
   0 C :   -0.096397
   1 S :    0.162572
   2 C :   -0.090687
   3 C :   -0.027620
   4 C :    0.046982
   5 C :    0.158944
   6 O :   -0.116142
   7 C :   -0.042257
   8 C :   -0.017078
   9 C :    0.050188
  10 C :   -0.020632
  11 C :    0.069092
  12 C :   -0.068693
  13 C :    0.021365
  14 C :   -0.042872
  15 C :   -0.008542
  16 C :   -0.009755
  17 N :   -0.046103
  18 N :   -0.079022
  19 C :    0.142973
  20 C :   -0.012278
  21 N :   -0.062420
  22 C :   -0.157342
  23 S :    0.234253
  24 C :   -0.228886
  25 C :    0.547869
  26 F :   -0.162133
  27 F :   -0.154741
  28 F :   -0.163273
  29 C :   -0.011861
  30 C :    0.123282
  31 C :   -0.185498
  32 S :    0.235546
  33 C :   -0.139688
  34 C :    0.132215
  35 C :    0.110681
  36 C :   -0.017739
  37 C :   -0.080857
  38 C :    0.538221
  39 F :   -0.156601
  40 F :   -0.152732
  41 F :   -0.156829
  42 C :   -0.062062
  43 C :   -0.170194
  44 N :    0.144712
  45 C :   -0.065379
  46 C :    0.087612
  47 C :   -0.033743
  48 C :    0.156634
  49 C :   -0.130575
  50 C :   -0.040006
  51 C :    0.242815
  52 O :   -0.114064
  53 O :   -0.244149
  54 C :    0.093584
  55 O :   -0.232298
  56 C :    0.250601
  57 O :   -0.159887
  58 H :    0.032680
  59 H :   -0.000447
  60 H :   -0.004186
  61 H :   -0.004923
  62 H :   -0.015414
  63 H :   -0.016372
  64 H :   -0.011660
  65 H :    0.040149
  66 H :    0.041714
  67 H :    0.031864
  68 H :    0.031822
  69 H :    0.036012
  70 H :    0.004273
  71 H :    0.014783
  72 H :   -0.005839
  73 H :    0.005642
  74 H :   -0.007413
  75 H :    0.038209
Sum of atomic charges:   -0.0000000

LOEWDIN ATOMIC CHARGES
----------------------
   0 C :   -0.185558
   1 S :    0.466705
   2 C :   -0.176822
   3 C :   -0.111490
   4 C :   -0.028523
   5 C :    0.099942
   6 O :   -0.105696
   7 C :   -0.061648
   8 C :    0.010691
   9 C :    0.000638
  10 C :   -0.009156
  11 C :   -0.014145
  12 C :   -0.021723
  13 C :   -0.002369
  14 C :   -0.076969
  15 C :   -0.056306
  16 C :   -0.049090
  17 N :   -0.084401
  18 N :    0.165957
  19 C :    0.037950
  20 C :   -0.054225
  21 N :   -0.108358
  22 C :   -0.141653
  23 S :    0.515883
  24 C :   -0.242547
  25 C :    0.149571
  26 F :   -0.064161
  27 F :   -0.054463
  28 F :   -0.066527
  29 C :   -0.030299
  30 C :   -0.093331
  31 C :   -0.151270
  32 S :    0.541105
  33 C :   -0.185503
  34 C :   -0.028143
  35 C :   -0.049191
  36 C :    0.033782
  37 C :   -0.071653
  38 C :    0.170673
  39 F :   -0.055691
  40 F :   -0.051850
  41 F :   -0.053885
  42 C :   -0.046313
  43 C :   -0.041385
  44 N :   -0.031740
  45 C :    0.025393
  46 C :    0.017618
  47 C :   -0.064547
  48 C :    0.117541
  49 C :   -0.149382
  50 C :   -0.128371
  51 C :    0.108297
  52 O :   -0.117678
  53 O :   -0.051517
  54 C :    0.118098
  55 O :   -0.039084
  56 C :    0.099836
  57 O :   -0.155097
  58 H :    0.024239
  59 H :    0.039412
  60 H :    0.031484
  61 H :    0.031754
  62 H :    0.029971
  63 H :    0.032806
  64 H :    0.034031
  65 H :    0.038336
  66 H :    0.038849
  67 H :    0.031540
  68 H :    0.034477
  69 H :    0.032218
  70 H :    0.034805
  71 H :    0.043700
  72 H :    0.041707
  73 H :    0.038754
  74 H :    0.036525
  75 H :    0.037470

  Mayer bond orders larger than 0.100000
B(  0-C ,  1-S ) :   1.1596 B(  0-C ,  4-C ) :   1.5421 B(  0-C , 58-H ) :   0.9691
B(  1-S ,  2-C ) :   1.1481 B(  2-C ,  3-C ) :   1.4800 B(  2-C ,  8-C ) :   1.0486
B(  3-C ,  4-C ) :   1.2882 B(  3-C ,  5-C ) :   0.9390 B(  4-C , 59-H ) :   1.0044
B(  5-C ,  6-O ) :   2.2575 B(  5-C ,  7-C ) :   0.9107 B(  7-C ,  8-C ) :   1.6509
B(  7-C ,  9-C ) :   1.1399 B(  8-C , 60-H ) :   1.0128 B(  9-C , 10-C ) :   1.6034
B(  9-C , 61-H ) :   0.9646 B( 10-C , 11-C ) :   1.1266 B( 10-C , 62-H ) :   0.9878
B( 11-C , 12-C ) :   1.3928 B( 11-C , 14-C ) :   0.1129 B( 11-C , 16-C ) :   1.1687
B( 12-C , 13-C ) :   1.2819 B( 12-C , 63-H ) :   0.9952 B( 13-C , 14-C ) :   1.4423
B( 13-C , 64-H ) :   0.9920 B( 14-C , 15-C ) :   1.2084 B( 14-C , 22-C ) :   1.0556
B( 15-C , 16-C ) :   1.2345 B( 15-C , 21-N ) :   1.4581 B( 16-C , 17-N ) :   1.4658
B( 17-N , 18-N ) :   1.2450 B( 17-N , 21-N ) :   0.1620 B( 18-N , 19-C ) :   0.9288
B( 18-N , 21-N ) :   1.2253 B( 19-C , 20-C ) :   1.1133 B( 19-C , 65-H ) :   0.9450
B( 19-C , 66-H ) :   0.9450 B( 20-C , 67-H ) :   0.9676 B( 20-C , 68-H ) :   0.9689
B( 20-C , 69-H ) :   0.9695 B( 22-C , 23-S ) :   1.1891 B( 22-C , 30-C ) :   1.4883
B( 23-S , 24-C ) :   1.1185 B( 24-C , 25-C ) :   0.9570 B( 24-C , 29-C ) :   1.5936
B( 25-C , 26-F ) :   1.1754 B( 25-C , 27-F ) :   1.1766 B( 25-C , 28-F ) :   1.1776
B( 29-C , 30-C ) :   1.2153 B( 29-C , 70-H ) :   1.0018 B( 30-C , 31-C ) :   1.0409
B( 31-C , 32-S ) :   1.2350 B( 31-C , 33-C ) :   0.1154 B( 31-C , 35-C ) :   1.3501
B( 32-S , 33-C ) :   1.1473 B( 33-C , 34-C ) :   1.2779 B( 33-C , 46-C ) :   1.2160
B( 34-C , 35-C ) :   1.2230 B( 34-C , 45-C ) :   1.1853 B( 35-C , 36-C ) :   1.1990
B( 36-C , 37-C ) :   1.5622 B( 36-C , 71-H ) :   0.9833 B( 37-C , 38-C ) :   0.9386
B( 37-C , 42-C ) :   1.2183 B( 38-C , 39-F ) :   1.1526 B( 38-C , 40-F ) :   1.1667
B( 38-C , 41-F ) :   1.1562 B( 42-C , 43-C ) :   1.0708 B( 42-C , 45-C ) :   1.5549
B( 43-C , 44-N ) :   3.0418 B( 45-C , 72-H ) :   0.9993 B( 46-C , 47-C ) :   1.5427
B( 46-C , 73-H ) :   0.9175 B( 47-C , 48-C ) :   1.2302 B( 47-C , 74-H ) :   0.9673
B( 48-C , 49-C ) :   1.3959 B( 48-C , 53-O ) :   1.1385 B( 49-C , 50-C ) :   1.1360
B( 49-C , 56-C ) :   1.0029 B( 50-C , 51-C ) :   0.9212 B( 50-C , 54-C ) :   1.5511
B( 51-C , 52-O ) :   2.2849 B( 51-C , 53-O ) :   0.9998 B( 54-C , 55-O ) :   1.1367
B( 54-C , 75-H ) :   1.0011 B( 55-O , 56-C ) :   1.0279 B( 56-C , 57-O ) :   2.1172
B( 57-O , 73-H ) :   0.1050

-----------------------------------------------------------------------------
         ABSORPTION SPECTRUM VIA TRANSITION ELECTRIC DIPOLE MOMENTS
-----------------------------------------------------------------------------
State   Energy  Wavelength   fosc         T2         TX        TY        TZ
        (cm-1)    (nm)                  (au**2)     (au)      (au)      (au)
-----------------------------------------------------------------------------
   0   16026.7    624.0   0.651752039  13.38794   3.12830  -1.14609   1.51266
   1   18531.4    539.6   0.372682338   6.62074  -1.71636  -1.72576   0.83462
   2   19429.6    514.7   0.443911702   7.52157  -1.28079   2.09698  -1.21813
   3   24874.1    402.0   0.068812923   0.91075  -0.46519  -0.78231  -0.28694
   4   26081.8    383.4   0.125946844   1.58974  -0.64915   0.68405  -0.83691
   5   26510.7    377.2   0.257479395   3.19739   1.72496   0.46056  -0.09899
   6   26833.6    372.7   0.000466628   0.00572  -0.06285  -0.03478   0.02378
   7   26971.9    370.8   0.073834901   0.90121   0.88324  -0.18821  -0.29270
   8   28512.3    350.7   0.260811728   3.01141   1.62219   0.26589  -0.55608
   9   30033.2    333.0   0.106676288   1.16934   1.06471   0.10792  -0.15524
  10   30409.2    328.8   0.036804718   0.39845  -0.02716   0.21818   0.59170
  11   32189.6    310.7   0.046079614   0.47127   0.16337   0.55277  -0.37286
  12   32754.3    305.3   0.001063397   0.01069  -0.04597  -0.09086  -0.01786
  13   33152.0    301.6   0.045123116   0.44809   0.58976  -0.14004  -0.28402
  14   34032.2    293.8   0.004689690   0.04537  -0.10343  -0.18031  -0.04643
  15   34333.8    291.3   0.225479075   2.16202   1.21368   0.24657  -0.79260
  16   35668.1    280.4   0.096674641   0.89229   0.87664  -0.33657   0.10252
  17   35828.5    279.1   0.015791220   0.14510  -0.34062  -0.13472   0.10454
  18   35869.0    278.8   0.006843034   0.06281  -0.07325   0.23862  -0.02240
  19   36499.9    274.0   0.044079298   0.39757   0.46598  -0.38093  -0.18797
  20   36774.6    271.9   0.011231147   0.10054  -0.30715   0.07313  -0.02919
  21   37029.5    270.1   0.061168442   0.54382   0.18717  -0.60280   0.38135
  22   37961.7    263.4   0.091294335   0.79172  -0.81751  -0.12476   0.32838
  23   38193.0    261.8   0.014181998   0.12224   0.02308   0.07020  -0.34174
  24   38502.0    259.7   0.045366995   0.38791   0.49570  -0.30513   0.22155
  25   39079.7    255.9   0.266218648   2.24266   0.90930   0.28116  -1.15619
  26   39208.4    255.0   0.000113448   0.00095   0.00122   0.00367  -0.03062
  27   39713.7    251.8   0.129384075   1.07255  -0.70592  -0.22559   0.72342

FINAL SINGLE POINT ENERGY     -3920.194732840367

DIPOLE MOMENT
-------------
                                X             Y             Z
Electronic contribution:    -32.86947      -7.54516     -11.26921
Nuclear contribution   :     33.91968       6.00383      13.56934
                        -----------------------------------------
Total Dipole Moment    :      1.05021      -1.54133       2.30014
                        -----------------------------------------
Magnitude (a.u.)       :      2.96130
Magnitude (Debye)      :      7.52701

Rotational constants in cm-1:     0.001300     0.000784     0.000542
Rotational constants in MHz :    38.966738    23.517135    16.244820

                             ****ORCA TERMINATED NORMALLY****
TOTAL RUN TIME: 0 days 0 hours 6 minutes 23 seconds 257 msec
