                         Program Version 4.2.0 -  RELEASE  -
|  1> # ORCA input file
|  2> # SCF done       -212.601174840635          0.000758121618
|  3> ! CAM-B3LYP def2-SVP def2/J RIJCOSX Grid4 TightSCF
|  4> %maxcore 5000
|  5> %tddft
|  6>     Mode sTDDFT
|  7>     Ethresh 5.0
|  8>     maxcore 5000
|  9> end
| 10>
| 11> %pal
| 12>   nprocs 6
| 13>   end
| 14> * xyz 0 1
| 15>    C        0.19860        -7.89856        10.06896
| 16>    C        0.29845        -9.03099        10.82778
| 17>    F        0.89780        -8.98799        12.02563
| 18>    C       -0.22541       -10.25396        10.36391
| 19>    F       -0.11447       -11.34812        11.13012
| 20>    C       -0.84085       -10.32796         9.14575
| 21>    C       -0.95833        -9.17873         8.34037
| 22>    C       -0.43095        -7.94076         8.80887
| 23>    C       -0.54183        -6.77183         8.02002
| 24>    C       -1.16125        -6.83924         6.80036
| 25>    C       -1.68174        -8.08142         6.34105
| 26>    C       -1.59024        -9.22631         7.07756
| 27>    C       -2.29769        -7.88449         5.01604
| 28>    O       -2.79393        -8.75065         4.31794
| 29>    C       -2.18350        -6.45314         4.72291
| 30>    C       -1.43314        -5.81981         5.78695
| 31>    C       -1.01019        -4.51629         5.84495
| 32>    C       -0.26400        -3.97814         6.91402
| 33>    N        0.34117        -3.47853         7.75229
| 34>    C       -1.22614        -3.53384         4.85567
| 35>    N       -1.33903        -2.67405         4.10225
| 36>    C       -2.76594        -5.81576         3.65388
| 37>    C       -3.51694        -6.34690         2.60159
| 38>    C       -4.13316        -5.50236         1.64623
| 39>    O       -3.97456        -4.17990         1.78732
| 40>    C       -4.44063        -3.29578         0.78589
| 41>    C       -4.83687        -6.21193         0.65815
| 42>    O       -5.57139        -5.58580        -0.31568
| 43>    C       -6.94922        -5.90014        -0.34255
| 44>    C       -4.72796        -7.59289         0.83329
| 45>    S       -3.85835        -8.01966         2.26787
| 46>    C       -5.18011        -8.64002        -0.03180
| 47>    C       -5.47425        -9.92350         0.47200
| 48>    C       -5.83299       -11.01269        -0.38701
| 49>    N       -6.00910       -12.23549         0.15232
| 50>    C       -5.88976       -12.40745         1.42688
| 51>    C       -5.62003       -11.30538         2.28540
| 52>    N       -5.42624       -10.12299         1.80576
| 53>    F       -5.58546       -11.46527         3.60147
| 54>    F       -6.03702       -13.64141         1.90220
| 55>    C       -6.00385       -10.86790        -1.78369
| 56>    C       -5.64202        -9.60482        -2.30227
| 57>    C       -5.22948        -8.51577        -1.43735
| 58>    N       -4.84001        -7.45154        -2.14046
| 59>    S       -4.97883        -7.77395        -3.70139
| 60>    N       -5.52732        -9.27281        -3.58786
| 61>    C       -6.45759       -11.97471        -2.55865
| 62>    C       -7.10149       -11.98879        -3.79727
| 63>    O       -7.41454       -10.82334        -4.37837
| 64>    C       -8.13502       -10.78038        -5.59256
| 65>    C       -7.40350       -13.30998        -4.24857
| 66>    O       -8.07389       -13.47238        -5.41098
| 67>    C       -8.58814       -14.73665        -5.76643
| 68>    C       -7.01488       -14.28709        -3.34225
| 69>    S       -6.31488       -13.56781        -1.90867
| 70>    C       -7.06886       -15.70762        -3.37694
| 71>    C       -7.14700       -16.51027        -2.27883
| 72>    C       -6.65948       -17.91380        -2.32899
| 73>    O       -6.44329       -18.57368        -3.31935
| 74>    C       -6.43320       -18.28534        -0.91516
| 75>    C       -5.83446       -19.39961        -0.40178
| 76>    C       -5.66391       -19.50430         0.99768
| 77>    C       -6.11447       -18.44748         1.84214
| 78>    C       -5.91811       -18.55045         3.23391
| 79>    C       -5.30781       -19.65233         3.76397
| 80>    C       -4.86771       -20.69906         2.92926
| 81>    C       -5.04160       -20.62815         1.57547
| 82>    F       -4.27192       -21.76821         3.47575
| 83>    F       -5.12039       -19.74845         5.08706
| 84>    C       -6.74709       -17.31275         1.28532
| 85>    C       -6.90782       -17.23947        -0.07159
| 86>    C       -7.51113       -16.21070        -0.90763
| 87>    C       -8.44542       -15.29544        -0.50268
| 88>    C       -9.15647       -14.49357        -1.41779
| 89>    N       -9.77041       -13.87377        -2.16461
| 90>    C       -8.83684       -15.10109         0.83630
| 91>    N       -9.18784       -14.89303         1.90898
| 92>    H        0.60522        -6.97059        10.43972
| 93>    H       -1.23761       -11.27114         8.80418
| 94>    H       -0.13660        -5.85111         8.40713
| 95>    H       -1.99815       -10.15289         6.70346
| 96>    H       -2.66650        -4.73828         3.59731
| 97>    H       -5.53007        -3.21747         0.80265
| 98>    H       -4.11766        -3.61318        -0.20647
| 99>    H       -4.00074        -2.33104         1.03478
|100>    H       -7.36566        -5.32403        -1.16668
|101>    H       -7.43577        -5.60514         0.59423
|102>    H       -7.13112        -6.96406        -0.51381
|103>    H       -7.60000       -11.28834        -6.39653
|104>    H       -8.22407        -9.72006        -5.82554
|105>    H       -9.12931       -11.21794        -5.48303
|106>    H       -9.35016       -14.53807        -6.51986
|107>    H       -9.04250       -15.23631        -4.90729
|108>    H       -7.81384       -15.37232        -6.20268
|109>    H       -6.88757       -16.21890        -4.31444
|110>    H       -5.48635       -20.18749        -1.05233
|111>    H       -6.25078       -17.75763         3.88537
|112>    H       -4.69638       -21.43731         0.95105
|113>    H       -7.06734       -16.51569         1.93747
|114> *
|115>
|116>                          ****END OF INPUT****

CARTESIAN COORDINATES (ANGSTROEM)
---------------------------------
  C      0.198600   -7.898560   10.068960
  C      0.298450   -9.030990   10.827780
  F      0.897800   -8.987990   12.025630
  C     -0.225410  -10.253960   10.363910
  F     -0.114470  -11.348120   11.130120
  C     -0.840850  -10.327960    9.145750
  C     -0.958330   -9.178730    8.340370
  C     -0.430950   -7.940760    8.808870
  C     -0.541830   -6.771830    8.020020
  C     -1.161250   -6.839240    6.800360
  C     -1.681740   -8.081420    6.341050
  C     -1.590240   -9.226310    7.077560
  C     -2.297690   -7.884490    5.016040
  O     -2.793930   -8.750650    4.317940
  C     -2.183500   -6.453140    4.722910
  C     -1.433140   -5.819810    5.786950
  C     -1.010190   -4.516290    5.844950
  C     -0.264000   -3.978140    6.914020
  N      0.341170   -3.478530    7.752290
  C     -1.226140   -3.533840    4.855670
  N     -1.339030   -2.674050    4.102250
  C     -2.765940   -5.815760    3.653880
  C     -3.516940   -6.346900    2.601590
  C     -4.133160   -5.502360    1.646230
  O     -3.974560   -4.179900    1.787320
  C     -4.440630   -3.295780    0.785890
  C     -4.836870   -6.211930    0.658150
  O     -5.571390   -5.585800   -0.315680
  C     -6.949220   -5.900140   -0.342550
  C     -4.727960   -7.592890    0.833290
  S     -3.858350   -8.019660    2.267870
  C     -5.180110   -8.640020   -0.031800
  C     -5.474250   -9.923500    0.472000
  C     -5.832990  -11.012690   -0.387010
  N     -6.009100  -12.235490    0.152320
  C     -5.889760  -12.407450    1.426880
  C     -5.620030  -11.305380    2.285400
  N     -5.426240  -10.122990    1.805760
  F     -5.585460  -11.465270    3.601470
  F     -6.037020  -13.641410    1.902200
  C     -6.003850  -10.867900   -1.783690
  C     -5.642020   -9.604820   -2.302270
  C     -5.229480   -8.515770   -1.437350
  N     -4.840010   -7.451540   -2.140460
  S     -4.978830   -7.773950   -3.701390
  N     -5.527320   -9.272810   -3.587860
  C     -6.457590  -11.974710   -2.558650
  C     -7.101490  -11.988790   -3.797270
  O     -7.414540  -10.823340   -4.378370
  C     -8.135020  -10.780380   -5.592560
  C     -7.403500  -13.309980   -4.248570
  O     -8.073890  -13.472380   -5.410980
  C     -8.588140  -14.736650   -5.766430
  C     -7.014880  -14.287090   -3.342250
  S     -6.314880  -13.567810   -1.908670
  C     -7.068860  -15.707620   -3.376940
  C     -7.147000  -16.510270   -2.278830
  C     -6.659480  -17.913800   -2.328990
  O     -6.443290  -18.573680   -3.319350
  C     -6.433200  -18.285340   -0.915160
  C     -5.834460  -19.399610   -0.401780
  C     -5.663910  -19.504300    0.997680
  C     -6.114470  -18.447480    1.842140
  C     -5.918110  -18.550450    3.233910
  C     -5.307810  -19.652330    3.763970
  C     -4.867710  -20.699060    2.929260
  C     -5.041600  -20.628150    1.575470
  F     -4.271920  -21.768210    3.475750
  F     -5.120390  -19.748450    5.087060
  C     -6.747090  -17.312750    1.285320
  C     -6.907820  -17.239470   -0.071590
  C     -7.511130  -16.210700   -0.907630
  C     -8.445420  -15.295440   -0.502680
  C     -9.156470  -14.493570   -1.417790
  N     -9.770410  -13.873770   -2.164610
  C     -8.836840  -15.101090    0.836300
  N     -9.187840  -14.893030    1.908980
  H      0.605220   -6.970590   10.439720
  H     -1.237610  -11.271140    8.804180
  H     -0.136600   -5.851110    8.407130
  H     -1.998150  -10.152890    6.703460
  H     -2.666500   -4.738280    3.597310
  H     -5.530070   -3.217470    0.802650
  H     -4.117660   -3.613180   -0.206470
  H     -4.000740   -2.331040    1.034780
  H     -7.365660   -5.324030   -1.166680
  H     -7.435770   -5.605140    0.594230
  H     -7.131120   -6.964060   -0.513810
  H     -7.600000  -11.288340   -6.396530
  H     -8.224070   -9.720060   -5.825540
  H     -9.129310  -11.217940   -5.483030
  H     -9.350160  -14.538070   -6.519860
  H     -9.042500  -15.236310   -4.907290
  H     -7.813840  -15.372320   -6.202680
  H     -6.887570  -16.218900   -4.314440
  H     -5.486350  -20.187490   -1.052330
  H     -6.250780  -17.757630    3.885370
  H     -4.696380  -21.437310    0.951050
  H     -7.067340  -16.515690    1.937470

 Total Charge           Charge          ....    0
 Multiplicity           Mult            ....    1
 Number of Electrons    NEL             ....  552
 Basis Dimension        Dim             .... 1200

ORBITAL ENERGIES
----------------

  NO   OCC          E(Eh)            E(eV)
   0   2.0000     -89.039418     -2422.8857
   1   2.0000     -88.960111     -2420.7277
   2   2.0000     -88.956978     -2420.6424
   3   2.0000     -24.824131      -675.4989
   4   2.0000     -24.816852      -675.3009
   5   2.0000     -24.798105      -674.7907
   6   2.0000     -24.797795      -674.7823
   7   2.0000     -24.792478      -674.6376
   8   2.0000     -24.791465      -674.6101
   9   2.0000     -19.270762      -524.3841
  10   2.0000     -19.261128      -524.1219
  11   2.0000     -19.254624      -523.9450
  12   2.0000     -19.244027      -523.6566
  13   2.0000     -19.217319      -522.9298
  14   2.0000     -19.212588      -522.8011
  15   2.0000     -14.462206      -393.5366
  16   2.0000     -14.456744      -393.3880
  17   2.0000     -14.445394      -393.0792
  18   2.0000     -14.443755      -393.0345
  19   2.0000     -14.416394      -392.2900
  20   2.0000     -14.415974      -392.2786
  21   2.0000     -14.406158      -392.0115
  22   2.0000     -14.405113      -391.9830
  23   2.0000     -10.437894      -284.0295
  24   2.0000     -10.434965      -283.9498
  25   2.0000     -10.381353      -282.4910
  26   2.0000     -10.381030      -282.4822
  27   2.0000     -10.374911      -282.3157
  28   2.0000     -10.374033      -282.2918
  29   2.0000     -10.369404      -282.1658
  30   2.0000     -10.361561      -281.9524
  31   2.0000     -10.360568      -281.9254
  32   2.0000     -10.355257      -281.7809
  33   2.0000     -10.353023      -281.7201
  34   2.0000     -10.350499      -281.6514
  35   2.0000     -10.349411      -281.6218
  36   2.0000     -10.342068      -281.4220
  37   2.0000     -10.340915      -281.3906
  38   2.0000     -10.340200      -281.3711
  39   2.0000     -10.339544      -281.3533
  40   2.0000     -10.339267      -281.3458
  41   2.0000     -10.338765      -281.3321
  42   2.0000     -10.331786      -281.1422
  43   2.0000     -10.330335      -281.1027
  44   2.0000     -10.326156      -280.9890
  45   2.0000     -10.325909      -280.9823
  46   2.0000     -10.324729      -280.9502
  47   2.0000     -10.322592      -280.8920
  48   2.0000     -10.321045      -280.8499
  49   2.0000     -10.319032      -280.7951
  50   2.0000     -10.318748      -280.7874
  51   2.0000     -10.317366      -280.7498
  52   2.0000     -10.316018      -280.7131
  53   2.0000     -10.313956      -280.6570
  54   2.0000     -10.311337      -280.5857
  55   2.0000     -10.310912      -280.5742
  56   2.0000     -10.310616      -280.5661
  57   2.0000     -10.310602      -280.5657
  58   2.0000     -10.309189      -280.5273
  59   2.0000     -10.308876      -280.5188
  60   2.0000     -10.307622      -280.4847
  61   2.0000     -10.303468      -280.3716
  62   2.0000     -10.303178      -280.3637
  63   2.0000     -10.302825      -280.3541
  64   2.0000     -10.302121      -280.3350
  65   2.0000     -10.301807      -280.3264
  66   2.0000     -10.301376      -280.3147
  67   2.0000     -10.300427      -280.2889
  68   2.0000     -10.298851      -280.2460
  69   2.0000     -10.298729      -280.2427
  70   2.0000     -10.294875      -280.1378
  71   2.0000     -10.294840      -280.1368
  72   2.0000     -10.294794      -280.1356
  73   2.0000     -10.294058      -280.1156
  74   2.0000     -10.293887      -280.1109
  75   2.0000     -10.285078      -279.8712
  76   2.0000     -10.285048      -279.8704
  77   2.0000      -8.130872      -221.2523
  78   2.0000      -8.053627      -219.1503
  79   2.0000      -8.049670      -219.0427
  80   2.0000      -6.101812      -166.0387
  81   2.0000      -6.094026      -165.8269
  82   2.0000      -6.093946      -165.8247
  83   2.0000      -6.023485      -163.9074
  84   2.0000      -6.019223      -163.7914
  85   2.0000      -6.019044      -163.7865
  86   2.0000      -6.014804      -163.6711
  87   2.0000      -6.014779      -163.6705
  88   2.0000      -6.011367      -163.5776
  89   2.0000      -1.349172       -36.7128
  90   2.0000      -1.334521       -36.3142
  91   2.0000      -1.320738       -35.9391
  92   2.0000      -1.314735       -35.7758
  93   2.0000      -1.305914       -35.5357
  94   2.0000      -1.299885       -35.3717
  95   2.0000      -1.179497       -32.0957
  96   2.0000      -1.169943       -31.8358
  97   2.0000      -1.157081       -31.4858
  98   2.0000      -1.144378       -31.1401
  99   2.0000      -1.136371       -30.9222
 100   2.0000      -1.132408       -30.8144
 101   2.0000      -1.128568       -30.7099
 102   2.0000      -1.120547       -30.4916
 103   2.0000      -1.046931       -28.4884
 104   2.0000      -1.021675       -27.8012
 105   2.0000      -1.010261       -27.4906
 106   2.0000      -1.004491       -27.3336
 107   2.0000      -0.999195       -27.1895
 108   2.0000      -0.996081       -27.1047
 109   2.0000      -0.993767       -27.0418
 110   2.0000      -0.993547       -27.0358
 111   2.0000      -0.984675       -26.7944
 112   2.0000      -0.984163       -26.7804
 113   2.0000      -0.980252       -26.6740
 114   2.0000      -0.973156       -26.4809
 115   2.0000      -0.966557       -26.3014
 116   2.0000      -0.933020       -25.3888
 117   2.0000      -0.923891       -25.1404
 118   2.0000      -0.911423       -24.8011
 119   2.0000      -0.902317       -24.5533
 120   2.0000      -0.894254       -24.3339
 121   2.0000      -0.891774       -24.2664
 122   2.0000      -0.886744       -24.1295
 123   2.0000      -0.885428       -24.0937
 124   2.0000      -0.881474       -23.9861
 125   2.0000      -0.873113       -23.7586
 126   2.0000      -0.856780       -23.3142
 127   2.0000      -0.846711       -23.0402
 128   2.0000      -0.840999       -22.8847
 129   2.0000      -0.838965       -22.8294
 130   2.0000      -0.833446       -22.6792
 131   2.0000      -0.831083       -22.6149
 132   2.0000      -0.816874       -22.2283
 133   2.0000      -0.815062       -22.1790
 134   2.0000      -0.800172       -21.7738
 135   2.0000      -0.791099       -21.5269
 136   2.0000      -0.779169       -21.2023
 137   2.0000      -0.772561       -21.0225
 138   2.0000      -0.767740       -20.8913
 139   2.0000      -0.764765       -20.8103
 140   2.0000      -0.759158       -20.6577
 141   2.0000      -0.757692       -20.6178
 142   2.0000      -0.750757       -20.4291
 143   2.0000      -0.739975       -20.1357
 144   2.0000      -0.732627       -19.9358
 145   2.0000      -0.720652       -19.6099
 146   2.0000      -0.716913       -19.5082
 147   2.0000      -0.708638       -19.2830
 148   2.0000      -0.703505       -19.1434
 149   2.0000      -0.694714       -18.9041
 150   2.0000      -0.687468       -18.7070
 151   2.0000      -0.685336       -18.6489
 152   2.0000      -0.683642       -18.6028
 153   2.0000      -0.678923       -18.4744
 154   2.0000      -0.671689       -18.2776
 155   2.0000      -0.665873       -18.1193
 156   2.0000      -0.658619       -17.9219
 157   2.0000      -0.654491       -17.8096
 158   2.0000      -0.651817       -17.7369
 159   2.0000      -0.648740       -17.6531
 160   2.0000      -0.646063       -17.5803
 161   2.0000      -0.641257       -17.4495
 162   2.0000      -0.636167       -17.3110
 163   2.0000      -0.635414       -17.2905
 164   2.0000      -0.633192       -17.2300
 165   2.0000      -0.629692       -17.1348
 166   2.0000      -0.623352       -16.9623
 167   2.0000      -0.616882       -16.7862
 168   2.0000      -0.616375       -16.7724
 169   2.0000      -0.613274       -16.6880
 170   2.0000      -0.610849       -16.6221
 171   2.0000      -0.604031       -16.4365
 172   2.0000      -0.595378       -16.2011
 173   2.0000      -0.589185       -16.0325
 174   2.0000      -0.587517       -15.9871
 175   2.0000      -0.585343       -15.9280
 176   2.0000      -0.580237       -15.7891
 177   2.0000      -0.579920       -15.7804
 178   2.0000      -0.579370       -15.7655
 179   2.0000      -0.576311       -15.6822
 180   2.0000      -0.575712       -15.6659
 181   2.0000      -0.571891       -15.5619
 182   2.0000      -0.570416       -15.5218
 183   2.0000      -0.569451       -15.4956
 184   2.0000      -0.563455       -15.3324
 185   2.0000      -0.560087       -15.2407
 186   2.0000      -0.554431       -15.0868
 187   2.0000      -0.553678       -15.0663
 188   2.0000      -0.551953       -15.0194
 189   2.0000      -0.550790       -14.9878
 190   2.0000      -0.548448       -14.9240
 191   2.0000      -0.546997       -14.8845
 192   2.0000      -0.546076       -14.8595
 193   2.0000      -0.541514       -14.7353
 194   2.0000      -0.541211       -14.7271
 195   2.0000      -0.537920       -14.6375
 196   2.0000      -0.535615       -14.5748
 197   2.0000      -0.534385       -14.5414
 198   2.0000      -0.531817       -14.4715
 199   2.0000      -0.530643       -14.4395
 200   2.0000      -0.528797       -14.3893
 201   2.0000      -0.524798       -14.2805
 202   2.0000      -0.523901       -14.2561
 203   2.0000      -0.522785       -14.2257
 204   2.0000      -0.519920       -14.1477
 205   2.0000      -0.518011       -14.0958
 206   2.0000      -0.516123       -14.0444
 207   2.0000      -0.514466       -13.9993
 208   2.0000      -0.511553       -13.9201
 209   2.0000      -0.509754       -13.8711
 210   2.0000      -0.507805       -13.8181
 211   2.0000      -0.505880       -13.7657
 212   2.0000      -0.503743       -13.7075
 213   2.0000      -0.502151       -13.6642
 214   2.0000      -0.491965       -13.3870
 215   2.0000      -0.490005       -13.3337
 216   2.0000      -0.488571       -13.2947
 217   2.0000      -0.487514       -13.2659
 218   2.0000      -0.486776       -13.2459
 219   2.0000      -0.485395       -13.2083
 220   2.0000      -0.482316       -13.1245
 221   2.0000      -0.477848       -13.0029
 222   2.0000      -0.474781       -12.9194
 223   2.0000      -0.468594       -12.7511
 224   2.0000      -0.464708       -12.6454
 225   2.0000      -0.462856       -12.5949
 226   2.0000      -0.462380       -12.5820
 227   2.0000      -0.457639       -12.4530
 228   2.0000      -0.456534       -12.4229
 229   2.0000      -0.452734       -12.3195
 230   2.0000      -0.450594       -12.2613
 231   2.0000      -0.446877       -12.1601
 232   2.0000      -0.444580       -12.0976
 233   2.0000      -0.441952       -12.0261
 234   2.0000      -0.440657       -11.9909
 235   2.0000      -0.438570       -11.9341
 236   2.0000      -0.438186       -11.9236
 237   2.0000      -0.434845       -11.8327
 238   2.0000      -0.433409       -11.7936
 239   2.0000      -0.429780       -11.6949
 240   2.0000      -0.428740       -11.6666
 241   2.0000      -0.427001       -11.6193
 242   2.0000      -0.426281       -11.5997
 243   2.0000      -0.425402       -11.5758
 244   2.0000      -0.423192       -11.5156
 245   2.0000      -0.420351       -11.4383
 246   2.0000      -0.417863       -11.3706
 247   2.0000      -0.416758       -11.3406
 248   2.0000      -0.414689       -11.2843
 249   2.0000      -0.409777       -11.1506
 250   2.0000      -0.407426       -11.0866
 251   2.0000      -0.404163       -10.9978
 252   2.0000      -0.400489       -10.8978
 253   2.0000      -0.398544       -10.8449
 254   2.0000      -0.393298       -10.7022
 255   2.0000      -0.391000       -10.6397
 256   2.0000      -0.384036       -10.4501
 257   2.0000      -0.381443       -10.3796
 258   2.0000      -0.379798       -10.3348
 259   2.0000      -0.373245       -10.1565
 260   2.0000      -0.367473        -9.9994
 261   2.0000      -0.360496        -9.8096
 262   2.0000      -0.351045        -9.5524
 263   2.0000      -0.347625        -9.4594
 264   2.0000      -0.342855        -9.3296
 265   2.0000      -0.336837        -9.1658
 266   2.0000      -0.327490        -8.9115
 267   2.0000      -0.319621        -8.6973
 268   2.0000      -0.314177        -8.5492
 269   2.0000      -0.311197        -8.4681
 270   2.0000      -0.301224        -8.1967
 271   2.0000      -0.296526        -8.0689
 272   2.0000      -0.289087        -7.8664
 273   2.0000      -0.285152        -7.7594
 274   2.0000      -0.275062        -7.4848
 275   2.0000      -0.245995        -6.6939
 276   0.0000      -0.118796        -3.2326
 277   0.0000      -0.086199        -2.3456
 278   0.0000      -0.077167        -2.0998
 279   0.0000      -0.057415        -1.5623
 280   0.0000      -0.051586        -1.4037

MULLIKEN ATOMIC CHARGES
-----------------------
   0 C :   -0.110804
   1 C :    0.241939
   2 F :   -0.172711
   3 C :    0.237781
   4 F :   -0.174343
   5 C :   -0.108558
   6 C :    0.120589
   7 C :    0.116526
   8 C :   -0.092066
   9 C :    0.048471
  10 C :   -0.000338
  11 C :   -0.089221
  12 C :    0.168472
  13 O :   -0.181798
  14 C :   -0.102913
  15 C :    0.334689
  16 C :   -0.362231
  17 C :   -0.186922
  18 N :    0.140739
  19 C :   -0.198325
  20 N :    0.151774
  21 C :   -0.023707
  22 C :   -0.134713
  23 C :    0.196413
  24 O :   -0.289463
  25 C :    0.193988
  26 C :    0.153891
  27 O :   -0.331820
  28 C :    0.195078
  29 C :   -0.217016
  30 S :    0.233478
  31 C :    0.110974
  32 C :   -0.067185
  33 C :   -0.035247
  34 N :   -0.047597
  35 C :    0.154585
  36 C :    0.150584
  37 N :    0.004361
  38 F :   -0.130789
  39 F :   -0.137785
  40 C :    0.170401
  41 C :   -0.021469
  42 C :   -0.045714
  43 N :   -0.263226
  44 S :    0.528276
  45 N :   -0.252638
  46 C :   -0.233412
  47 C :    0.184870
  48 O :   -0.281494
  49 C :    0.203236
  50 C :    0.245623
  51 O :   -0.314015
  52 C :    0.167856
  53 C :   -0.238729
  54 S :    0.166271
  55 C :    0.054295
  56 C :   -0.150839
  57 C :    0.144233
  58 O :   -0.145276
  59 C :    0.010484
  60 C :   -0.084338
  61 C :    0.111531
  62 C :    0.111739
  63 C :   -0.106204
  64 C :    0.241512
  65 C :    0.238397
  66 C :   -0.103401
  67 F :   -0.173447
  68 F :   -0.171617
  69 C :   -0.079199
  70 C :    0.039568
  71 C :    0.245001
  72 C :   -0.311089
  73 C :   -0.174778
  74 N :    0.148053
  75 C :   -0.188014
  76 N :    0.157243
  77 H :    0.004970
  78 H :   -0.003562
  79 H :   -0.007330
  80 H :   -0.014321
  81 H :    0.027562
  82 H :    0.018853
  83 H :    0.038919
  84 H :    0.045433
  85 H :    0.031361
  86 H :    0.016715
  87 H :    0.028799
  88 H :    0.025289
  89 H :    0.025463
  90 H :    0.029677
  91 H :    0.041694
  92 H :    0.054222
  93 H :    0.038415
  94 H :    0.018738
  95 H :   -0.009552
  96 H :    0.004662
  97 H :   -0.000198
  98 H :   -0.004277
Sum of atomic charges:   -0.0000000

LOEWDIN ATOMIC CHARGES
----------------------
   0 C :   -0.029617
   1 C :    0.064464
   2 F :   -0.051040
   3 C :    0.065566
   4 F :   -0.051604
   5 C :   -0.034474
   6 C :   -0.009863
   7 C :   -0.007627
   8 C :    0.015425
   9 C :   -0.020659
  10 C :   -0.049818
  11 C :    0.025809
  12 C :    0.082559
  13 O :   -0.169676
  14 C :   -0.118469
  15 C :    0.076484
  16 C :   -0.148571
  17 C :   -0.017288
  18 N :   -0.063307
  19 C :   -0.023220
  20 N :   -0.055729
  21 C :    0.066125
  22 C :   -0.220370
  23 C :    0.042442
  24 O :   -0.075630
  25 C :    0.086067
  26 C :   -0.022190
  27 O :   -0.114794
  28 C :    0.077998
  29 C :   -0.172095
  30 S :    0.545774
  31 C :   -0.057315
  32 C :   -0.007278
  33 C :   -0.015531
  34 N :   -0.056350
  35 C :    0.065388
  36 C :    0.063233
  37 N :   -0.043934
  38 F :   -0.019764
  39 F :   -0.026211
  40 C :   -0.026138
  41 C :   -0.047220
  42 C :   -0.048863
  43 N :   -0.278700
  44 S :    0.668936
  45 N :   -0.267855
  46 C :   -0.185814
  47 C :    0.027626
  48 O :   -0.071775
  49 C :    0.081583
  50 C :    0.024915
  51 O :   -0.083800
  52 C :    0.085183
  53 C :   -0.226636
  54 S :    0.502045
  55 C :    0.044570
  56 C :   -0.101757
  57 C :    0.083049
  58 O :   -0.146482
  59 C :   -0.053807
  60 C :    0.029420
  61 C :   -0.009970
  62 C :   -0.005521
  63 C :   -0.030605
  64 C :    0.066993
  65 C :    0.066576
  66 C :   -0.033025
  67 F :   -0.050600
  68 F :   -0.049319
  69 C :    0.014701
  70 C :   -0.018071
  71 C :    0.058014
  72 C :   -0.142906
  73 C :   -0.021166
  74 N :   -0.062153
  75 C :   -0.022253
  76 N :   -0.056466
  77 H :    0.046952
  78 H :    0.043562
  79 H :    0.039459
  80 H :    0.038588
  81 H :    0.050489
  82 H :    0.016539
  83 H :    0.022593
  84 H :    0.030287
  85 H :    0.025716
  86 H :    0.013807
  87 H :    0.011295
  88 H :    0.016719
  89 H :    0.022337
  90 H :    0.019110
  91 H :    0.031846
  92 H :    0.027734
  93 H :    0.019156
  94 H :    0.044523
  95 H :    0.040301
  96 H :    0.047039
  97 H :    0.044769
  98 H :    0.039558

  Mayer bond orders larger than 0.100000
B(  0-C ,  1-C ) :   1.4389 B(  0-C ,  5-C ) :   0.1093 B(  0-C ,  7-C ) :   1.1890
B(  0-C , 77-H ) :   1.0073 B(  1-C ,  2-F ) :   1.1334 B(  1-C ,  3-C ) :   1.1946
B(  3-C ,  4-F ) :   1.1303 B(  3-C ,  5-C ) :   1.4408 B(  5-C ,  6-C ) :   1.1923
B(  5-C , 78-H ) :   1.0075 B(  6-C ,  7-C ) :   1.2611 B(  6-C , 11-C ) :   1.1807
B(  7-C ,  8-C ) :   1.2095 B(  8-C ,  9-C ) :   1.4571 B(  8-C , 79-H ) :   0.9898
B(  9-C , 10-C ) :   1.2243 B(  9-C , 15-C ) :   0.9747 B( 10-C , 11-C ) :   1.4744
B( 10-C , 12-C ) :   0.9506 B( 11-C , 80-H ) :   1.0172 B( 12-C , 13-O ) :   2.1260
B( 12-C , 14-C ) :   0.9900 B( 14-C , 15-C ) :   1.0941 B( 14-C , 21-C ) :   1.4392
B( 15-C , 16-C ) :   1.6128 B( 16-C , 17-C ) :   1.1525 B( 16-C , 19-C ) :   1.1460
B( 17-C , 18-N ) :   2.9594 B( 19-C , 20-N ) :   2.9713 B( 21-C , 22-C ) :   1.3220
B( 21-C , 81-H ) :   0.9330 B( 22-C , 23-C ) :   1.3276 B( 22-C , 29-C ) :   0.1183
B( 22-C , 30-S ) :   1.0597 B( 23-C , 24-O ) :   1.2204 B( 23-C , 26-C ) :   1.2760
B( 24-O , 25-C ) :   0.9207 B( 25-C , 82-H ) :   0.9770 B( 25-C , 83-H ) :   0.9733
B( 25-C , 84-H ) :   0.9774 B( 26-C , 27-O ) :   1.1448 B( 26-C , 29-C ) :   1.3789
B( 27-O , 28-C ) :   0.9462 B( 28-C , 85-H ) :   0.9827 B( 28-C , 86-H ) :   0.9655
B( 28-C , 87-H ) :   0.9656 B( 29-C , 30-S ) :   1.1292 B( 29-C , 31-C ) :   1.1039
B( 31-C , 32-C ) :   1.3027 B( 31-C , 40-C ) :   0.1279 B( 31-C , 42-C ) :   1.2132
B( 32-C , 33-C ) :   1.1397 B( 32-C , 37-N ) :   1.4049 B( 33-C , 34-N ) :   1.3620
B( 33-C , 40-C ) :   1.3088 B( 34-N , 35-C ) :   1.6564 B( 35-C , 36-C ) :   1.1027
B( 35-C , 39-F ) :   1.1644 B( 36-C , 37-N ) :   1.6754 B( 36-C , 38-F ) :   1.1878
B( 40-C , 41-C ) :   1.2013 B( 40-C , 46-C ) :   1.1299 B( 41-C , 42-C ) :   1.0922
B( 41-C , 45-N ) :   1.5289 B( 42-C , 43-N ) :   1.5207 B( 43-N , 44-S ) :   1.2830
B( 43-N , 45-N ) :   0.1555 B( 44-S , 45-N ) :   1.2964 B( 46-C , 47-C ) :   1.4670
B( 46-C , 53-C ) :   0.1195 B( 46-C , 54-S ) :   1.1178 B( 47-C , 48-O ) :   1.2370
B( 47-C , 50-C ) :   1.1975 B( 48-O , 49-C ) :   0.9285 B( 49-C , 88-H ) :   0.9741
B( 49-C , 89-H ) :   0.9767 B( 49-C , 90-H ) :   0.9756 B( 50-C , 51-O ) :   1.1833
B( 50-C , 53-C ) :   1.3901 B( 51-O , 52-C ) :   0.9327 B( 52-C , 91-H ) :   0.9746
B( 52-C , 92-H ) :   0.9585 B( 52-C , 93-H ) :   0.9730 B( 53-C , 54-S ) :   1.0471
B( 53-C , 55-C ) :   1.1208 B( 55-C , 56-C ) :   1.6454 B( 55-C , 94-H ) :   0.9488
B( 56-C , 57-C ) :   0.9430 B( 56-C , 71-C ) :   1.0347 B( 57-C , 58-O ) :   2.2682
B( 57-C , 59-C ) :   0.9151 B( 59-C , 60-C ) :   1.4745 B( 59-C , 70-C ) :   1.2176
B( 60-C , 61-C ) :   1.1952 B( 60-C , 95-H ) :   1.0155 B( 61-C , 62-C ) :   1.2566
B( 61-C , 66-C ) :   1.1939 B( 62-C , 63-C ) :   1.1904 B( 62-C , 69-C ) :   1.2115
B( 63-C , 64-C ) :   1.4398 B( 63-C , 66-C ) :   0.1090 B( 63-C , 96-H ) :   1.0071
B( 64-C , 65-C ) :   1.1941 B( 64-C , 68-F ) :   1.1341 B( 65-C , 66-C ) :   1.4433
B( 65-C , 67-F ) :   1.1304 B( 66-C , 97-H ) :   1.0061 B( 69-C , 70-C ) :   1.4625
B( 69-C , 98-H ) :   0.9949 B( 70-C , 71-C ) :   1.0026 B( 71-C , 72-C ) :   1.6595
B( 72-C , 73-C ) :   1.1624 B( 72-C , 75-C ) :   1.1428 B( 73-C , 74-N ) :   2.9788
B( 75-C , 76-N ) :   2.9871

-----------------------------------------------------------------------------
         ABSORPTION SPECTRUM VIA TRANSITION ELECTRIC DIPOLE MOMENTS
-----------------------------------------------------------------------------
State   Energy  Wavelength   fosc         T2         TX        TY        TZ
        (cm-1)    (nm)                  (au**2)     (au)      (au)      (au)
-----------------------------------------------------------------------------
   0   11647.1    858.6   0.692199191  19.56538  -1.86940  -3.15062  -2.47877
   1   17192.8    581.6   0.031489719   0.60297   0.26675   0.28268   0.67224
   2   18842.1    530.7   0.149683392   2.61528   0.05258  -1.33460   0.91179
   3   19164.7    521.8   0.038053555   0.65369  -0.28330  -0.43521   0.61969
   4   20470.1    488.5   0.152015473   2.44480  -0.67062   0.18990  -1.39964
   5   21301.3    469.5   0.394376510   6.09511  -1.34224  -0.63998  -1.97077
   6   23565.1    424.4   0.081265087   1.13530   0.22221  -0.68314   0.78692
   7   24678.7    405.2   0.030923954   0.41252  -0.32711  -0.01901   0.55242
   8   25860.1    386.7   0.002374813   0.03023  -0.07460  -0.15688   0.00755
   9   26025.2    384.2   0.016773161   0.21218   0.00816   0.07521   0.45437
  10   26688.5    374.7   0.034984462   0.43155  -0.06373  -0.31331  -0.57387
  11   26953.5    371.0   0.216407865   2.64322   0.23367  -1.58466   0.27835
  12   27449.8    364.3   0.041484451   0.49753   0.21285   0.41155   0.53184
  13   27937.3    357.9   0.028417553   0.33487  -0.09498  -0.52761   0.21790
  14   28276.3    353.7   0.015282092   0.17792   0.03780  -0.39754   0.13586
  15   28457.4    351.4   0.055452158   0.64150   0.25637   0.16275  -0.74114
  16   28830.0    346.9   0.004659911   0.05321   0.00229  -0.01269  -0.23032
  17   29030.7    344.5   0.028204675   0.31985   0.12901  -0.54975   0.03126
  18   29134.8    343.2   0.029603156   0.33450   0.08589  -0.47757   0.31473
  19   29595.3    337.9   0.037359150   0.41557  -0.37559  -0.39937  -0.33913
  20   29612.9    337.7   0.004987457   0.05545  -0.11443   0.18061  -0.09865
  21   30238.6    330.7   0.262493704   2.85781   0.11338   1.03384  -1.33272
  22   30431.3    328.6   0.013123110   0.14197   0.29068   0.03943   0.23647
  23   31331.7    319.2   0.154921327   1.62781  -0.73398   0.93731  -0.45884
  24   31474.3    317.7   0.032962096   0.34477   0.17052  -0.55438  -0.09141
  25   32023.0    312.3   0.404498159   4.15843   0.52110  -1.16201   1.59268
  26   32353.0    309.1   0.028105291   0.28599   0.18271  -0.16053   0.47627
  27   32585.3    306.9   0.011207576   0.11323   0.08517  -0.30636   0.11010
  28   32719.1    305.6   0.192226960   1.93414   0.53871  -0.65154   1.10428
  29   32790.3    305.0   0.005251338   0.05272  -0.08634   0.06539   0.20247
  30   33274.5    300.5   0.003224275   0.03190   0.13442   0.10785   0.04690
  31   33541.5    298.1   0.178108488   1.74814   0.55191   0.84596   0.85316
  32   33910.5    294.9   0.057091435   0.55426   0.39206  -0.60769  -0.17681
  33   34235.4    292.1   0.089389363   0.85958   0.37986  -0.12391   0.83662
  34   34388.0    290.8   0.004517633   0.04325  -0.03936  -0.17771  -0.10059
  35   34435.6    290.4   0.043339723   0.41434   0.08944   0.56542  -0.29435
  36   34709.4    288.1   0.019934758   0.18908  -0.38718  -0.00108   0.19791
  37   34791.5    287.4   0.032628400   0.30874  -0.26823   0.48094  -0.07410
  38   35343.5    282.9   0.240841500   2.24335  -0.56669   1.09145  -0.85495
  39   35767.5    279.6   0.217588556   2.00273  -0.57357   1.04891  -0.75733
  40   35968.5    278.0   0.498080442   4.55883   0.12421   1.88632  -0.99257
  41   36228.3    276.0   0.289971240   2.63501   0.35166  -1.42490   0.69353
  42   36409.1    274.7   0.471816609   4.26618  -1.16589   1.39473  -0.98062
  43   36668.5    272.7   0.103042816   0.92512   0.26034   0.92567   0.02200
  44   37242.6    268.5   0.082404548   0.72843  -0.16657   0.66655  -0.50635
  45   37426.1    267.2   0.278074296   2.44603   0.23071   0.50635  -1.46165
  46   37767.3    264.8   0.112974395   0.98478   0.10737  -0.57299   0.80308
  47   37932.9    263.6   0.032749058   0.28422  -0.10811  -0.23106   0.46813
  48   38173.8    262.0   0.019478570   0.16798  -0.05460   0.39572  -0.09169
  49   38480.1    259.9   0.061810014   0.52881   0.09321  -0.28130   0.66407
  50   38582.8    259.2   0.024024105   0.20499   0.18095  -0.02921   0.41400
  51   39001.8    256.4   0.016584712   0.13999  -0.11079   0.20785   0.29071
  52   39474.9    253.3   0.010771719   0.08983  -0.10172  -0.28161   0.01342
  53   39737.4    251.7   0.152615364   1.26437  -0.23439  -0.23705  -1.07389
  54   39884.5    250.7   0.111946507   0.92402   0.53470   0.17810   0.77872
  55   40078.8    249.5   0.014155164   0.11627  -0.30316  -0.11207   0.10867

FINAL SINGLE POINT ENERGY     -4749.143027264838

DIPOLE MOMENT
-------------
                                X             Y             Z
Electronic contribution:     23.74446     -30.98723      52.31579
Nuclear contribution   :    -25.29290      29.72394     -56.14474
                        -----------------------------------------
Total Dipole Moment    :     -1.54844      -1.26329      -3.82894
                        -----------------------------------------
Magnitude (a.u.)       :      4.31907
Magnitude (Debye)      :     10.97820

Rotational constants in cm-1:     0.000897     0.000454     0.000312
Rotational constants in MHz :    26.904501    13.609505     9.365233

                             ****ORCA TERMINATED NORMALLY****
TOTAL RUN TIME: 0 days 0 hours 12 minutes 4 seconds 476 msec
