                         Program Version 4.2.0 -  RELEASE  -
|  1> # ORCA input file
|  2> # SCF done       -206.375968348098          0.000788124447
|  3> ! CAM-B3LYP def2-SVP def2/J RIJCOSX Grid4 TightSCF
|  4> %maxcore 5000
|  5> %tddft
|  6>     Mode sTDDFT
|  7>     Ethresh 5.0
|  8>     maxcore 5000
|  9> end
| 10>
| 11> %pal
| 12>   nprocs 6
| 13>   end
| 14> * xyz 0 1
| 15>    C        1.26795        -0.53886        -3.73865
| 16>    C        1.18370        -0.68856        -5.09684
| 17>    C        1.89533         0.10172        -6.02448
| 18>    N        2.45401         0.70727        -6.82312
| 19>    C        0.34936        -1.62253        -5.74845
| 20>    N       -0.32034        -2.34445        -6.33821
| 21>    C        2.03714         0.48243        -3.03432
| 22>    C        1.73846         0.40480        -1.66285
| 23>    C        2.31619         1.24894        -0.73602
| 24>    C        3.21304         2.18848        -1.22200
| 25>    C        3.52992         2.28635        -2.56970
| 26>    C        2.94214         1.43146        -3.48934
| 27>    F        3.80050         3.03287        -0.36089
| 28>    C        0.76588        -0.68083        -1.41756
| 29>    O        0.33245        -1.02164        -0.33971
| 30>    C        0.53614        -1.30525        -2.74653
| 31>    C       -0.04449        -2.52503        -2.95560
| 32>    C       -0.83605        -3.24451        -2.03409
| 33>    C       -1.63060        -2.78011        -0.99476
| 34>    C       -2.20912        -3.81813        -0.27918
| 35>    C       -1.86079        -5.09747        -0.77173
| 36>    S       -0.87103        -5.00647        -2.15266
| 37>    C       -2.40028        -6.07874         0.09243
| 38>    C       -3.09179        -5.41637         1.13250
| 39>    C       -3.02706        -3.98061         0.90857
| 40>    C       -3.61511        -3.00215         1.65364
| 41>    C       -4.38313        -3.30138         2.79934
| 42>    N       -5.00383        -3.55039         3.73059
| 43>    C       -3.52003        -1.63329         1.32052
| 44>    N       -3.47044        -0.52021         1.05236
| 45>    C       -3.58528        -6.28782         2.09058
| 46>    C       -3.27318        -7.60852         1.78638
| 47>    S       -2.38758        -7.77978         0.28084
| 48>    C       -3.52537        -8.74223         2.57509
| 49>    C       -3.19774       -10.06322         2.24744
| 50>    C       -3.48401       -11.00138         3.29730
| 51>    N       -3.17163       -12.29227         3.15946
| 52>    C       -2.61915       -12.65384         2.02208
| 53>    C       -2.22337       -14.08220         1.89307
| 54>    O       -2.26618       -14.85536         2.82330
| 55>    C       -1.74652       -14.47568         0.55440
| 56>    C       -1.54959       -13.61083        -0.44577
| 57>    C       -1.79374       -12.16220        -0.33294
| 58>    O       -1.54351       -11.38633        -1.23010
| 59>    C       -2.37570       -11.72402         0.96185
| 60>    N       -2.65665       -10.44511         1.09131
| 61>    C       -4.03344       -10.38749         4.43220
| 62>    S       -4.19998        -8.67616         4.16970
| 63>    C       -4.34843       -10.98643         5.66571
| 64>    C       -4.38346       -12.34692         5.95630
| 65>    C       -4.67220       -12.57342         7.29615
| 66>    C       -4.83572       -11.38134         8.03442
| 67>    S       -4.68343        -9.98340         7.07027
| 68>    C       -5.05395       -11.71076         9.38693
| 69>    C       -5.03888       -13.11585         9.52080
| 70>    C       -4.82934       -13.70203         8.20585
| 71>    C       -4.82442       -15.02645         7.88727
| 72>    C       -4.96789       -16.02941         8.87125
| 73>    N       -5.07033       -16.84495         9.67005
| 74>    C       -4.71742       -15.49428         6.55821
| 75>    N       -4.67290       -15.89529         5.48598
| 76>    C       -5.21624       -13.52661        10.83648
| 77>    C       -5.39147       -12.45790        11.70653
| 78>    S       -5.29260       -10.91038        10.86786
| 79>    C       -5.50423       -12.54823        13.11194
| 80>    C       -5.86206       -11.59440        14.01459
| 81>    C       -6.52051       -10.31168        13.87746
| 82>    C       -7.50921       -10.00557        12.98088
| 83>    C       -8.19412        -8.77339        12.95731
| 84>    N       -8.76350        -7.77955        12.88720
| 85>    C       -8.00570       -10.93217        12.03988
| 86>    N       -8.45192       -11.67779        11.29005
| 87>    C       -6.17036        -9.52018        15.05427
| 88>    C       -5.55411       -10.36451        15.99722
| 89>    C       -5.42156       -11.72681        15.43216
| 90>    O       -4.99682       -12.71952        15.97097
| 91>    C       -5.14752        -9.90016        17.23189
| 92>    C       -5.36475        -8.55570        17.49716
| 93>    C       -5.95745        -7.69966        16.57944
| 94>    C       -6.37065        -8.17947        15.34615
| 95>    F       -4.98335        -8.05894        18.68353
| 96>    H        2.07876         1.18245         0.31368
| 97>    H        4.23902         3.03398        -2.88845
| 98>    H        3.20054         1.51172        -4.53232
| 99>    H        0.15852        -3.03546        -3.88968
|100>    H       -1.78095        -1.73740        -0.79019
|101>    H       -4.12845        -6.00857         2.97563
|102>    H       -1.53694       -15.53024         0.43687
|103>    H       -1.17643       -13.93727        -1.40714
|104>    H       -4.18710       -13.09375         5.20778
|105>    H       -5.23783       -14.54857        11.16964
|106>    H       -5.16315       -13.48532        13.54227
|107>    H       -4.68372       -10.54966        17.95687
|108>    H       -6.09054        -6.66152        16.84012
|109>    H       -6.82407        -7.50987        14.63329
|110> *
|111>
|112>                          ****END OF INPUT****

CARTESIAN COORDINATES (ANGSTROEM)
---------------------------------
  C      1.267950   -0.538860   -3.738650
  C      1.183700   -0.688560   -5.096840
  C      1.895330    0.101720   -6.024480
  N      2.454010    0.707270   -6.823120
  C      0.349360   -1.622530   -5.748450
  N     -0.320340   -2.344450   -6.338210
  C      2.037140    0.482430   -3.034320
  C      1.738460    0.404800   -1.662850
  C      2.316190    1.248940   -0.736020
  C      3.213040    2.188480   -1.222000
  C      3.529920    2.286350   -2.569700
  C      2.942140    1.431460   -3.489340
  F      3.800500    3.032870   -0.360890
  C      0.765880   -0.680830   -1.417560
  O      0.332450   -1.021640   -0.339710
  C      0.536140   -1.305250   -2.746530
  C     -0.044490   -2.525030   -2.955600
  C     -0.836050   -3.244510   -2.034090
  C     -1.630600   -2.780110   -0.994760
  C     -2.209120   -3.818130   -0.279180
  C     -1.860790   -5.097470   -0.771730
  S     -0.871030   -5.006470   -2.152660
  C     -2.400280   -6.078740    0.092430
  C     -3.091790   -5.416370    1.132500
  C     -3.027060   -3.980610    0.908570
  C     -3.615110   -3.002150    1.653640
  C     -4.383130   -3.301380    2.799340
  N     -5.003830   -3.550390    3.730590
  C     -3.520030   -1.633290    1.320520
  N     -3.470440   -0.520210    1.052360
  C     -3.585280   -6.287820    2.090580
  C     -3.273180   -7.608520    1.786380
  S     -2.387580   -7.779780    0.280840
  C     -3.525370   -8.742230    2.575090
  C     -3.197740  -10.063220    2.247440
  C     -3.484010  -11.001380    3.297300
  N     -3.171630  -12.292270    3.159460
  C     -2.619150  -12.653840    2.022080
  C     -2.223370  -14.082200    1.893070
  O     -2.266180  -14.855360    2.823300
  C     -1.746520  -14.475680    0.554400
  C     -1.549590  -13.610830   -0.445770
  C     -1.793740  -12.162200   -0.332940
  O     -1.543510  -11.386330   -1.230100
  C     -2.375700  -11.724020    0.961850
  N     -2.656650  -10.445110    1.091310
  C     -4.033440  -10.387490    4.432200
  S     -4.199980   -8.676160    4.169700
  C     -4.348430  -10.986430    5.665710
  C     -4.383460  -12.346920    5.956300
  C     -4.672200  -12.573420    7.296150
  C     -4.835720  -11.381340    8.034420
  S     -4.683430   -9.983400    7.070270
  C     -5.053950  -11.710760    9.386930
  C     -5.038880  -13.115850    9.520800
  C     -4.829340  -13.702030    8.205850
  C     -4.824420  -15.026450    7.887270
  C     -4.967890  -16.029410    8.871250
  N     -5.070330  -16.844950    9.670050
  C     -4.717420  -15.494280    6.558210
  N     -4.672900  -15.895290    5.485980
  C     -5.216240  -13.526610   10.836480
  C     -5.391470  -12.457900   11.706530
  S     -5.292600  -10.910380   10.867860
  C     -5.504230  -12.548230   13.111940
  C     -5.862060  -11.594400   14.014590
  C     -6.520510  -10.311680   13.877460
  C     -7.509210  -10.005570   12.980880
  C     -8.194120   -8.773390   12.957310
  N     -8.763500   -7.779550   12.887200
  C     -8.005700  -10.932170   12.039880
  N     -8.451920  -11.677790   11.290050
  C     -6.170360   -9.520180   15.054270
  C     -5.554110  -10.364510   15.997220
  C     -5.421560  -11.726810   15.432160
  O     -4.996820  -12.719520   15.970970
  C     -5.147520   -9.900160   17.231890
  C     -5.364750   -8.555700   17.497160
  C     -5.957450   -7.699660   16.579440
  C     -6.370650   -8.179470   15.346150
  F     -4.983350   -8.058940   18.683530
  H      2.078760    1.182450    0.313680
  H      4.239020    3.033980   -2.888450
  H      3.200540    1.511720   -4.532320
  H      0.158520   -3.035460   -3.889680
  H     -1.780950   -1.737400   -0.790190
  H     -4.128450   -6.008570    2.975630
  H     -1.536940  -15.530240    0.436870
  H     -1.176430  -13.937270   -1.407140
  H     -4.187100  -13.093750    5.207780
  H     -5.237830  -14.548570   11.169640
  H     -5.163150  -13.485320   13.542270
  H     -4.683720  -10.549660   17.956870
  H     -6.090540   -6.661520   16.840120
  H     -6.824070   -7.509870   14.633290

 Total Charge           Charge          ....    0
 Multiplicity           Mult            ....    1
 Number of Electrons    NEL             ....  574
 Basis Dimension        Dim             .... 1224

ORBITAL ENERGIES
----------------

  NO   OCC          E(Eh)            E(eV)
   0   2.0000     -89.016116     -2422.2517
   1   2.0000     -89.006663     -2421.9944
   2   2.0000     -89.003359     -2421.9045
   3   2.0000     -89.002310     -2421.8760
   4   2.0000     -89.001273     -2421.8478
   5   2.0000     -24.799084      -674.8174
   6   2.0000     -24.797850      -674.7838
   7   2.0000     -19.239894      -523.5441
   8   2.0000     -19.237990      -523.4923
   9   2.0000     -19.228785      -523.2418
  10   2.0000     -19.226872      -523.1898
  11   2.0000     -14.468216      -393.7002
  12   2.0000     -14.464954      -393.6114
  13   2.0000     -14.440058      -392.9340
  14   2.0000     -14.438379      -392.8883
  15   2.0000     -14.436447      -392.8357
  16   2.0000     -14.434824      -392.7915
  17   2.0000     -14.424632      -392.5142
  18   2.0000     -14.423428      -392.4814
  19   2.0000     -14.421462      -392.4279
  20   2.0000     -14.420497      -392.4017
  21   2.0000     -10.389681      -282.7176
  22   2.0000     -10.386711      -282.6368
  23   2.0000     -10.386122      -282.6207
  24   2.0000     -10.384572      -282.5786
  25   2.0000     -10.380564      -282.4695
  26   2.0000     -10.378502      -282.4134
  27   2.0000     -10.375738      -282.3382
  28   2.0000     -10.374670      -282.3091
  29   2.0000     -10.361846      -281.9602
  30   2.0000     -10.361589      -281.9532
  31   2.0000     -10.358341      -281.8648
  32   2.0000     -10.356530      -281.8155
  33   2.0000     -10.353974      -281.7460
  34   2.0000     -10.353496      -281.7330
  35   2.0000     -10.352762      -281.7130
  36   2.0000     -10.352519      -281.7064
  37   2.0000     -10.352370      -281.7023
  38   2.0000     -10.351921      -281.6901
  39   2.0000     -10.351858      -281.6884
  40   2.0000     -10.350203      -281.6434
  41   2.0000     -10.349563      -281.6259
  42   2.0000     -10.348462      -281.5960
  43   2.0000     -10.348316      -281.5920
  44   2.0000     -10.346833      -281.5516
  45   2.0000     -10.346761      -281.5497
  46   2.0000     -10.341477      -281.4059
  47   2.0000     -10.340283      -281.3734
  48   2.0000     -10.337876      -281.3079
  49   2.0000     -10.336812      -281.2789
  50   2.0000     -10.336057      -281.2584
  51   2.0000     -10.334697      -281.2214
  52   2.0000     -10.333483      -281.1884
  53   2.0000     -10.333255      -281.1822
  54   2.0000     -10.333034      -281.1761
  55   2.0000     -10.326842      -281.0076
  56   2.0000     -10.325097      -280.9602
  57   2.0000     -10.324107      -280.9332
  58   2.0000     -10.323027      -280.9038
  59   2.0000     -10.322103      -280.8787
  60   2.0000     -10.321425      -280.8602
  61   2.0000     -10.320019      -280.8220
  62   2.0000     -10.319733      -280.8142
  63   2.0000     -10.319232      -280.8006
  64   2.0000     -10.318727      -280.7868
  65   2.0000     -10.317173      -280.7446
  66   2.0000     -10.317151      -280.7440
  67   2.0000     -10.316797      -280.7343
  68   2.0000     -10.314694      -280.6771
  69   2.0000     -10.314254      -280.6651
  70   2.0000     -10.314173      -280.6629
  71   2.0000     -10.312587      -280.6198
  72   2.0000     -10.309951      -280.5480
  73   2.0000     -10.309928      -280.5474
  74   2.0000     -10.309105      -280.5250
  75   2.0000     -10.308596      -280.5111
  76   2.0000     -10.307941      -280.4933
  77   2.0000     -10.307919      -280.4927
  78   2.0000     -10.307417      -280.4791
  79   2.0000     -10.306431      -280.4523
  80   2.0000     -10.305630      -280.4304
  81   2.0000      -8.110689      -220.7031
  82   2.0000      -8.101534      -220.4540
  83   2.0000      -8.097645      -220.3481
  84   2.0000      -8.097083      -220.3328
  85   2.0000      -8.094600      -220.2653
  86   2.0000      -6.079765      -165.4388
  87   2.0000      -6.075644      -165.3267
  88   2.0000      -6.073315      -165.2633
  89   2.0000      -6.070832      -165.1957
  90   2.0000      -6.066903      -165.0888
  91   2.0000      -6.066640      -165.0817
  92   2.0000      -6.066233      -165.0706
  93   2.0000      -6.063994      -165.0097
  94   2.0000      -6.063751      -165.0031
  95   2.0000      -6.062675      -164.9738
  96   2.0000      -6.062070      -164.9573
  97   2.0000      -6.060015      -164.9014
  98   2.0000      -6.059570      -164.8893
  99   2.0000      -6.059561      -164.8890
 100   2.0000      -6.056882      -164.8161
 101   2.0000      -1.315202       -35.7885
 102   2.0000      -1.313864       -35.7521
 103   2.0000      -1.157234       -31.4900
 104   2.0000      -1.152013       -31.3479
 105   2.0000      -1.144910       -31.1546
 106   2.0000      -1.142913       -31.1002
 107   2.0000      -1.117612       -30.4118
 108   2.0000      -1.059621       -28.8337
 109   2.0000      -1.057491       -28.7758
 110   2.0000      -1.045171       -28.4406
 111   2.0000      -1.032552       -28.0972
 112   2.0000      -1.030487       -28.0410
 113   2.0000      -1.030139       -28.0315
 114   2.0000      -1.026949       -27.9447
 115   2.0000      -1.025622       -27.9086
 116   2.0000      -1.015604       -27.6360
 117   2.0000      -1.013838       -27.5879
 118   2.0000      -1.011969       -27.5371
 119   2.0000      -1.007888       -27.4260
 120   2.0000      -1.006077       -27.3768
 121   2.0000      -1.004159       -27.3245
 122   2.0000      -1.001310       -27.2470
 123   2.0000      -0.999603       -27.2006
 124   2.0000      -0.973984       -26.5035
 125   2.0000      -0.969535       -26.3824
 126   2.0000      -0.960651       -26.1406
 127   2.0000      -0.959396       -26.1065
 128   2.0000      -0.951723       -25.8977
 129   2.0000      -0.934041       -25.4165
 130   2.0000      -0.927778       -25.2461
 131   2.0000      -0.913125       -24.8474
 132   2.0000      -0.909440       -24.7471
 133   2.0000      -0.899233       -24.4694
 134   2.0000      -0.893377       -24.3100
 135   2.0000      -0.891520       -24.2595
 136   2.0000      -0.887265       -24.1437
 137   2.0000      -0.878820       -23.9139
 138   2.0000      -0.875961       -23.8361
 139   2.0000      -0.873646       -23.7731
 140   2.0000      -0.871186       -23.7062
 141   2.0000      -0.868173       -23.6242
 142   2.0000      -0.865356       -23.5475
 143   2.0000      -0.831408       -22.6238
 144   2.0000      -0.822335       -22.3769
 145   2.0000      -0.810046       -22.0425
 146   2.0000      -0.806531       -21.9468
 147   2.0000      -0.802512       -21.8375
 148   2.0000      -0.789053       -21.4712
 149   2.0000      -0.786354       -21.3978
 150   2.0000      -0.780149       -21.2289
 151   2.0000      -0.778343       -21.1798
 152   2.0000      -0.775735       -21.1088
 153   2.0000      -0.756796       -20.5935
 154   2.0000      -0.750219       -20.4145
 155   2.0000      -0.726577       -19.7712
 156   2.0000      -0.721048       -19.6207
 157   2.0000      -0.716425       -19.4949
 158   2.0000      -0.710790       -19.3416
 159   2.0000      -0.707609       -19.2550
 160   2.0000      -0.703347       -19.1390
 161   2.0000      -0.698297       -19.0016
 162   2.0000      -0.695780       -18.9331
 163   2.0000      -0.694045       -18.8859
 164   2.0000      -0.692789       -18.8518
 165   2.0000      -0.691027       -18.8038
 166   2.0000      -0.681956       -18.5570
 167   2.0000      -0.680152       -18.5079
 168   2.0000      -0.670047       -18.2329
 169   2.0000      -0.664078       -18.0705
 170   2.0000      -0.652676       -17.7602
 171   2.0000      -0.648809       -17.6550
 172   2.0000      -0.645525       -17.5656
 173   2.0000      -0.643151       -17.5010
 174   2.0000      -0.634384       -17.2625
 175   2.0000      -0.632603       -17.2140
 176   2.0000      -0.629163       -17.1204
 177   2.0000      -0.626533       -17.0488
 178   2.0000      -0.623393       -16.9634
 179   2.0000      -0.620004       -16.8712
 180   2.0000      -0.614499       -16.7214
 181   2.0000      -0.609217       -16.5776
 182   2.0000      -0.602602       -16.3976
 183   2.0000      -0.598121       -16.2757
 184   2.0000      -0.595779       -16.2120
 185   2.0000      -0.587380       -15.9834
 186   2.0000      -0.584785       -15.9128
 187   2.0000      -0.583132       -15.8678
 188   2.0000      -0.579256       -15.7623
 189   2.0000      -0.572943       -15.5906
 190   2.0000      -0.572544       -15.5797
 191   2.0000      -0.571411       -15.5489
 192   2.0000      -0.570540       -15.5252
 193   2.0000      -0.563569       -15.3355
 194   2.0000      -0.560668       -15.2566
 195   2.0000      -0.558343       -15.1933
 196   2.0000      -0.555503       -15.1160
 197   2.0000      -0.554695       -15.0940
 198   2.0000      -0.549423       -14.9506
 199   2.0000      -0.547640       -14.9021
 200   2.0000      -0.545469       -14.8430
 201   2.0000      -0.541119       -14.7246
 202   2.0000      -0.540317       -14.7028
 203   2.0000      -0.537736       -14.6325
 204   2.0000      -0.537060       -14.6142
 205   2.0000      -0.534163       -14.5353
 206   2.0000      -0.531119       -14.4525
 207   2.0000      -0.528117       -14.3708
 208   2.0000      -0.523475       -14.2445
 209   2.0000      -0.521553       -14.1922
 210   2.0000      -0.518035       -14.0965
 211   2.0000      -0.517641       -14.0857
 212   2.0000      -0.515897       -14.0383
 213   2.0000      -0.513180       -13.9643
 214   2.0000      -0.509659       -13.8685
 215   2.0000      -0.509437       -13.8625
 216   2.0000      -0.508927       -13.8486
 217   2.0000      -0.507474       -13.8091
 218   2.0000      -0.504931       -13.7399
 219   2.0000      -0.503392       -13.6980
 220   2.0000      -0.500791       -13.6272
 221   2.0000      -0.499691       -13.5973
 222   2.0000      -0.497716       -13.5435
 223   2.0000      -0.495206       -13.4752
 224   2.0000      -0.494371       -13.4525
 225   2.0000      -0.491911       -13.3856
 226   2.0000      -0.487804       -13.2738
 227   2.0000      -0.483468       -13.1558
 228   2.0000      -0.480068       -13.0633
 229   2.0000      -0.475996       -12.9525
 230   2.0000      -0.471727       -12.8363
 231   2.0000      -0.469880       -12.7861
 232   2.0000      -0.467076       -12.7098
 233   2.0000      -0.465929       -12.6786
 234   2.0000      -0.465218       -12.6592
 235   2.0000      -0.464557       -12.6412
 236   2.0000      -0.463023       -12.5995
 237   2.0000      -0.461735       -12.5645
 238   2.0000      -0.461185       -12.5495
 239   2.0000      -0.460077       -12.5193
 240   2.0000      -0.459505       -12.5038
 241   2.0000      -0.456675       -12.4268
 242   2.0000      -0.456492       -12.4218
 243   2.0000      -0.454819       -12.3763
 244   2.0000      -0.453783       -12.3481
 245   2.0000      -0.451945       -12.2981
 246   2.0000      -0.449939       -12.2435
 247   2.0000      -0.448592       -12.2068
 248   2.0000      -0.447909       -12.1882
 249   2.0000      -0.446810       -12.1583
 250   2.0000      -0.446310       -12.1447
 251   2.0000      -0.445087       -12.1114
 252   2.0000      -0.439758       -11.9664
 253   2.0000      -0.436610       -11.8808
 254   2.0000      -0.435378       -11.8472
 255   2.0000      -0.433529       -11.7969
 256   2.0000      -0.432452       -11.7676
 257   2.0000      -0.431478       -11.7411
 258   2.0000      -0.430994       -11.7279
 259   2.0000      -0.428029       -11.6473
 260   2.0000      -0.418551       -11.3893
 261   2.0000      -0.418257       -11.3814
 262   2.0000      -0.417568       -11.3626
 263   2.0000      -0.413379       -11.2486
 264   2.0000      -0.410340       -11.1659
 265   2.0000      -0.402477       -10.9520
 266   2.0000      -0.393401       -10.7050
 267   2.0000      -0.384295       -10.4572
 268   2.0000      -0.377674       -10.2770
 269   2.0000      -0.372723       -10.1423
 270   2.0000      -0.367140        -9.9904
 271   2.0000      -0.363379        -9.8880
 272   2.0000      -0.360722        -9.8157
 273   2.0000      -0.360257        -9.8031
 274   2.0000      -0.358634        -9.7589
 275   2.0000      -0.358438        -9.7536
 276   2.0000      -0.355204        -9.6656
 277   2.0000      -0.350921        -9.5490
 278   2.0000      -0.348989        -9.4965
 279   2.0000      -0.344578        -9.3764
 280   2.0000      -0.332801        -9.0560
 281   2.0000      -0.331252        -9.0138
 282   2.0000      -0.324127        -8.8200
 283   2.0000      -0.319597        -8.6967
 284   2.0000      -0.309760        -8.4290
 285   2.0000      -0.285299        -7.7634
 286   2.0000      -0.250747        -6.8232
 287   0.0000      -0.134355        -3.6560
 288   0.0000      -0.118190        -3.2161
 289   0.0000      -0.103705        -2.8220
 290   0.0000      -0.098429        -2.6784
 291   0.0000      -0.091842        -2.4991

MULLIKEN ATOMIC CHARGES
-----------------------
   0 C :    0.286237
   1 C :   -0.336976
   2 C :   -0.186921
   3 N :    0.157577
   4 C :   -0.206561
   5 N :    0.164656
   6 C :    0.038181
   7 C :   -0.024552
   8 C :   -0.088084
   9 C :    0.312060
  10 C :   -0.028679
  11 C :   -0.017519
  12 F :   -0.182269
  13 C :    0.149509
  14 O :   -0.142427
  15 C :   -0.107358
  16 C :    0.034551
  17 C :   -0.126755
  18 C :    0.070708
  19 C :   -0.034293
  20 C :   -0.085693
  21 S :    0.217302
  22 C :   -0.090888
  23 C :    0.033162
  24 C :    0.304839
  25 C :   -0.285402
  26 C :   -0.190113
  27 N :    0.170610
  28 C :   -0.185631
  29 N :    0.183058
  30 C :   -0.082692
  31 C :   -0.066937
  32 S :    0.255228
  33 C :   -0.116616
  34 C :    0.011701
  35 C :    0.036726
  36 N :    0.070293
  37 C :   -0.112663
  38 C :    0.137018
  39 O :   -0.089824
  40 C :   -0.012270
  41 C :   -0.017252
  42 C :    0.143532
  43 O :   -0.104940
  44 C :   -0.115116
  45 N :    0.035877
  46 C :   -0.122711
  47 S :    0.218733
  48 C :   -0.085273
  49 C :   -0.051631
  50 C :    0.032091
  51 C :   -0.096244
  52 S :    0.192610
  53 C :   -0.076936
  54 C :    0.027644
  55 C :    0.295213
  56 C :   -0.282415
  57 C :   -0.191563
  58 N :    0.182484
  59 C :   -0.194524
  60 N :    0.198331
  61 C :   -0.001215
  62 C :   -0.083982
  63 S :    0.203390
  64 C :    0.048574
  65 C :   -0.137701
  66 C :    0.232698
  67 C :   -0.317032
  68 C :   -0.177698
  69 N :    0.160153
  70 C :   -0.210480
  71 N :    0.176190
  72 C :    0.017831
  73 C :    0.000234
  74 C :    0.141046
  75 O :   -0.131802
  76 C :   -0.092256
  77 C :    0.310117
  78 C :   -0.029615
  79 C :   -0.015291
  80 F :   -0.182302
  81 H :    0.007820
  82 H :    0.012480
  83 H :    0.011119
  84 H :    0.029881
  85 H :    0.025406
  86 H :    0.011866
  87 H :    0.025414
  88 H :    0.021134
  89 H :    0.032636
  90 H :    0.020550
  91 H :    0.033269
  92 H :    0.009987
  93 H :    0.013892
  94 H :    0.013483
Sum of atomic charges:   -0.0000000

LOEWDIN ATOMIC CHARGES
----------------------
   0 C :    0.074172
   1 C :   -0.137827
   2 C :   -0.019642
   3 N :   -0.048302
   4 C :   -0.025225
   5 N :   -0.048304
   6 C :   -0.025462
   7 C :   -0.032176
   8 C :   -0.013042
   9 C :    0.102895
  10 C :   -0.026553
  11 C :    0.014677
  12 F :   -0.056261
  13 C :    0.084856
  14 O :   -0.130826
  15 C :   -0.096413
  16 C :    0.045874
  17 C :   -0.181128
  18 C :    0.028928
  19 C :   -0.072850
  20 C :   -0.158860
  21 S :    0.497501
  22 C :   -0.187644
  23 C :   -0.055655
  24 C :    0.077901
  25 C :   -0.095388
  26 C :   -0.015077
  27 N :   -0.032414
  28 C :   -0.018243
  29 N :   -0.021264
  30 C :   -0.030101
  31 C :   -0.175437
  32 S :    0.533366
  33 C :   -0.189464
  34 C :   -0.052719
  35 C :   -0.041258
  36 N :    0.009632
  37 C :   -0.036191
  38 C :    0.054690
  39 O :   -0.085823
  40 C :   -0.007876
  41 C :   -0.013770
  42 C :    0.056290
  43 O :   -0.100873
  44 C :   -0.035870
  45 N :   -0.010403
  46 C :   -0.190415
  47 S :    0.512029
  48 C :   -0.175678
  49 C :   -0.007257
  50 C :   -0.050720
  51 C :   -0.183865
  52 S :    0.472402
  53 C :   -0.153936
  54 C :   -0.069659
  55 C :    0.074309
  56 C :   -0.086955
  57 C :   -0.016286
  58 N :   -0.023925
  59 C :   -0.023197
  60 N :   -0.010429
  61 C :    0.014939
  62 C :   -0.176405
  63 S :    0.511567
  64 C :    0.051156
  65 C :   -0.102066
  66 C :    0.059122
  67 C :   -0.144228
  68 C :   -0.022092
  69 N :   -0.045630
  70 C :   -0.039072
  71 N :   -0.044201
  72 C :   -0.023506
  73 C :   -0.034162
  74 C :    0.084626
  75 O :   -0.131875
  76 C :   -0.012985
  77 C :    0.102100
  78 C :   -0.025936
  79 C :    0.011808
  80 F :   -0.056318
  81 H :    0.049664
  82 H :    0.046062
  83 H :    0.043604
  84 H :    0.045519
  85 H :    0.045723
  86 H :    0.037363
  87 H :    0.048518
  88 H :    0.047164
  89 H :    0.046803
  90 H :    0.048004
  91 H :    0.055913
  92 H :    0.050257
  93 H :    0.046303
  94 H :    0.043406

  Mayer bond orders larger than 0.100000
B(  0-C ,  1-C ) :   1.6529 B(  0-C ,  6-C ) :   1.0062 B(  0-C , 15-C ) :   1.0648
B(  1-C ,  2-C ) :   1.1371 B(  1-C ,  4-C ) :   1.1382 B(  2-C ,  3-N ) :   2.9816
B(  4-C ,  5-N ) :   3.0004 B(  6-C ,  7-C ) :   1.3303 B(  6-C , 11-C ) :   1.3610
B(  7-C ,  8-C ) :   1.3418 B(  7-C , 13-C ) :   0.9487 B(  8-C ,  9-C ) :   1.3085
B(  8-C , 81-H ) :   1.0175 B(  9-C , 10-C ) :   1.3566 B(  9-C , 12-F ) :   1.0926
B( 10-C , 11-C ) :   1.3564 B( 10-C , 82-H ) :   0.9891 B( 11-C , 83-H ) :   0.9837
B( 13-C , 14-O ) :   2.2094 B( 13-C , 15-C ) :   0.9518 B( 15-C , 16-C ) :   1.6064
B( 16-C , 17-C ) :   1.1805 B( 16-C , 84-H ) :   0.9352 B( 17-C , 18-C ) :   1.4135
B( 17-C , 21-S ) :   1.0740 B( 18-C , 19-C ) :   1.3561 B( 18-C , 85-H ) :   0.9746
B( 19-C , 20-C ) :   1.3786 B( 19-C , 24-C ) :   0.9973 B( 20-C , 21-S ) :   1.1641
B( 20-C , 22-C ) :   1.2136 B( 22-C , 23-C ) :   1.3998 B( 22-C , 32-S ) :   1.0949
B( 23-C , 24-C ) :   0.9951 B( 23-C , 30-C ) :   1.3343 B( 24-C , 25-C ) :   1.7187
B( 25-C , 26-C ) :   1.1341 B( 25-C , 28-C ) :   1.1321 B( 26-C , 27-N ) :   2.9894
B( 28-C , 29-N ) :   2.9936 B( 30-C , 31-C ) :   1.3775 B( 30-C , 86-H ) :   0.9931
B( 31-C , 32-S ) :   1.1244 B( 31-C , 33-C ) :   1.2409 B( 33-C , 34-C ) :   1.3165
B( 33-C , 46-C ) :   0.1344 B( 33-C , 47-S ) :   1.1627 B( 34-C , 35-C ) :   1.1875
B( 34-C , 45-N ) :   1.4236 B( 35-C , 36-N ) :   1.4451 B( 35-C , 46-C ) :   1.3625
B( 36-N , 37-C ) :   1.7164 B( 37-C , 38-C ) :   0.8887 B( 37-C , 44-C ) :   1.1002
B( 38-C , 39-O ) :   2.2497 B( 38-C , 40-C ) :   1.0217 B( 40-C , 41-C ) :   1.6850
B( 40-C , 87-H ) :   0.9962 B( 41-C , 42-C ) :   1.0237 B( 41-C , 88-H ) :   0.9970
B( 42-C , 43-O ) :   2.2508 B( 42-C , 44-C ) :   0.8911 B( 44-C , 45-N ) :   1.6993
B( 46-C , 47-S ) :   1.1573 B( 46-C , 48-C ) :   1.1863 B( 48-C , 49-C ) :   1.4460
B( 48-C , 52-S ) :   1.0920 B( 49-C , 50-C ) :   1.2850 B( 49-C , 89-H ) :   0.9908
B( 50-C , 51-C ) :   1.4104 B( 50-C , 55-C ) :   0.9871 B( 51-C , 52-S ) :   1.1178
B( 51-C , 53-C ) :   1.2267 B( 53-C , 54-C ) :   1.3892 B( 53-C , 63-S ) :   1.1566
B( 54-C , 55-C ) :   0.9923 B( 54-C , 61-C ) :   1.3094 B( 55-C , 56-C ) :   1.7279
B( 56-C , 57-C ) :   1.1323 B( 56-C , 59-C ) :   1.1325 B( 57-C , 58-N ) :   2.9942
B( 59-C , 60-N ) :   3.0011 B( 61-C , 62-C ) :   1.3896 B( 61-C , 90-H ) :   1.0030
B( 62-C , 63-S ) :   1.0812 B( 62-C , 64-C ) :   1.1602 B( 64-C , 65-C ) :   1.6339
B( 64-C , 91-H ) :   0.9465 B( 65-C , 66-C ) :   1.0342 B( 65-C , 74-C ) :   0.9444
B( 66-C , 67-C ) :   1.6570 B( 66-C , 72-C ) :   1.0138 B( 67-C , 68-C ) :   1.1304
B( 67-C , 70-C ) :   1.1499 B( 68-C , 69-N ) :   2.9987 B( 70-C , 71-N ) :   3.0260
B( 72-C , 73-C ) :   1.3358 B( 72-C , 79-C ) :   1.3687 B( 73-C , 74-C ) :   0.9226
B( 73-C , 76-C ) :   1.3436 B( 74-C , 75-O ) :   2.2757 B( 76-C , 77-C ) :   1.3149
B( 76-C , 92-H ) :   1.0165 B( 77-C , 78-C ) :   1.3588 B( 77-C , 80-F ) :   1.0925
B( 78-C , 79-C ) :   1.3521 B( 78-C , 93-H ) :   0.9898 B( 79-C , 94-H ) :   0.9860

-----------------------------------------------------------------------------
         ABSORPTION SPECTRUM VIA TRANSITION ELECTRIC DIPOLE MOMENTS
-----------------------------------------------------------------------------
State   Energy  Wavelength   fosc         T2         TX        TY        TZ
        (cm-1)    (nm)                  (au**2)     (au)      (au)      (au)
-----------------------------------------------------------------------------
   0   10189.0    981.4   0.947979826  30.62959  -1.66008  -2.98835   4.35241
   1   12819.6    780.1   0.070834197   1.81905  -0.08858  -1.15145  -0.69668
   2   14808.3    675.3   0.100957421   2.24445   0.30649   1.12503  -0.94065
   3   18032.6    554.6   0.191202706   3.49070   0.41768  -1.33811  -1.23520
   4   19211.3    520.5   0.116790506   2.00137   0.17344   1.35105   0.38202
   5   20329.6    491.9   0.592167136   9.58938   1.33204   0.39016  -2.76818
   6   21191.5    471.9   0.444243348   6.90138  -1.05187  -2.23278   0.89980
   7   22235.5    449.7   0.130340912   1.92979   1.01839   0.43021  -0.84118
   8   24639.0    405.9   0.002722978   0.03638   0.18335   0.03308  -0.04088
   9   25192.3    396.9   0.094658194   1.23699  -0.19230   0.17529   1.08133
  10   25337.1    394.7   0.022883357   0.29733  -0.28960  -0.41790   0.19704
  11   25790.0    387.7   0.002120897   0.02707   0.04437   0.05195  -0.14969
  12   25847.2    386.9   0.032534050   0.41438  -0.13520  -0.29550   0.55568
  13   26571.0    376.3   0.036673118   0.45438   0.06017   0.56227  -0.36689
  14   26608.8    375.8   0.002152980   0.02664   0.10326   0.07615   0.10087
  15   27283.0    366.5   0.224958860   2.71448   0.39841   0.00870   1.59865
  16   27759.5    360.2   0.122055958   1.44751   0.01355  -1.10934   0.46552
  17   27775.6    360.0   0.066837144   0.79219   0.32879  -0.82455  -0.06490
  18   28327.6    353.0   0.023227174   0.26994  -0.37500  -0.35922   0.01658
  19   28570.6    350.0   0.062482542   0.71997   0.40829  -0.37197  -0.64414
  20   28780.8    347.5   0.036491870   0.41742   0.06032   0.44519   0.46431
  21   29372.3    340.5   0.237056165   2.65698   0.20417  -1.52881  -0.52730
  22   29787.2    335.7   0.202923210   2.24274   0.08021  -1.37859  -0.57948
  23   30249.7    330.6   0.002327302   0.02533   0.14311  -0.00732   0.06923
  24   30575.3    327.1   0.148691797   1.60100  -0.27228   1.11854  -0.52511
  25   30583.4    327.0   0.037793733   0.40683  -0.11517   0.54637  -0.30830
  26   30825.0    324.4   0.243507336   2.60066   0.42702   1.31820  -0.82503
  27   31478.2    317.7   0.243475628   2.54636   0.99117   0.18893  -1.23622
  28   31700.6    315.5   0.137380711   1.42671   0.45950   0.69252   0.85790
  29   32335.7    309.3   0.377935798   3.84779   0.41240  -1.25170  -1.45291
  30   32734.3    305.5   0.123468142   1.24173  -0.24206   0.82222   0.71210
  31   32902.1    303.9   0.196157567   1.96271  -1.14129   0.10796   0.80530
  32   33021.1    302.8   0.040463840   0.40341   0.12979  -0.26090   0.56436
  33   33258.1    300.7   0.095761021   0.94791   0.45290   0.61298   0.60584
  34   33555.6    298.0   0.001950390   0.01914   0.00869  -0.06657  -0.12094
  35   33628.7    297.4   0.018321152   0.17936   0.22465   0.34852   0.08613
  36   33708.7    296.7   0.093327256   0.91147   0.18827  -0.78371   0.51169
  37   33861.5    295.3   0.181940786   1.76889   0.35519   1.17098   0.52110
  38   34161.0    292.7   0.031901833   0.30744   0.02915   0.54863  -0.07484
  39   34237.2    292.1   0.047023835   0.45216  -0.10445  -0.04931  -0.66244
  40   34321.9    291.4   0.004735547   0.04542  -0.01843  -0.02578   0.21076
  41   34640.0    288.7   0.020189660   0.19188   0.21171   0.35337   0.14896
  42   34785.8    287.5   0.006427275   0.06083   0.00123   0.23856   0.06257
  43   34861.0    286.9   0.015637961   0.14768   0.34473  -0.12035  -0.11982
  44   35172.5    284.3   0.227818857   2.13237   0.35490   0.75541   1.19824
  45   35256.7    283.6   0.021314221   0.19902  -0.15952   0.41635   0.01525
  46   35421.0    282.3   0.179976615   1.67275  -0.11399   1.28647   0.06890
  47   35517.2    281.6   0.003404545   0.03156   0.16519  -0.00065   0.06533
  48   35562.2    281.2   0.048666569   0.45052   0.62413  -0.20166  -0.14253
  49   35739.7    279.8   0.140977149   1.29859   0.59106   0.05436   0.97277
  50   35770.3    279.6   0.341480679   3.14282   0.44724   0.69176   1.56980
  51   36203.7    276.2   0.294462995   2.67765  -0.28968   1.22124   1.04991
  52   36268.7    275.7   0.061910083   0.56196  -0.68812   0.24240  -0.17231
  53   36463.2    274.2   0.051140508   0.46173   0.00183   0.55330  -0.39444
  54   36680.3    272.6   0.009899780   0.08885  -0.10441   0.02002  -0.27848
  55   36704.7    272.4   0.094033115   0.84340  -0.11153   0.58347   0.70037
  56   36808.0    271.7   0.074436321   0.66576   0.06597  -0.58420  -0.56579
  57   37154.2    269.1   0.025959770   0.23002   0.05765   0.28712  -0.37982
  58   37267.9    268.3   0.266461357   2.35383  -0.21892  -0.58562  -1.40105
  59   37482.1    266.8   0.299148787   2.62748  -0.89858  -0.04598  -1.34830
  60   37720.3    265.1   0.027451624   0.23959  -0.39976   0.26417  -0.09998
  61   37819.9    264.4   0.029593339   0.25760   0.18514   0.10340  -0.46112
  62   37968.8    263.4   0.072713036   0.63046  -0.29390   0.52199  -0.52117
  63   38209.6    261.7   0.033693555   0.29030   0.03115  -0.11670  -0.52508
  64   38263.8    261.3   0.008953603   0.07703   0.00703   0.08498   0.26413
  65   38499.4    259.7   0.000089615   0.00077  -0.01956  -0.00972   0.01701
  66   38774.0    257.9   0.002026246   0.01720   0.01074   0.03532  -0.12586
  67   38988.8    256.5   0.008391498   0.07086   0.26557  -0.00653   0.01689
  68   39162.2    255.3   0.016248178   0.13659   0.09738   0.20281   0.29321
  69   39279.5    254.6   0.089634299   0.75125   0.14585   0.71625   0.46579
  70   39490.9    253.2   0.002686349   0.02239  -0.08062   0.09767   0.07972
  71   39606.4    252.5   0.027516656   0.22872   0.34973  -0.13761  -0.29576
  72   39807.9    251.2   0.011788353   0.09749  -0.12116  -0.06357   0.28066
  73   39930.9    250.4   0.001524552   0.01257   0.01963   0.06736   0.08744
  74   40045.7    249.7   0.020269615   0.16663   0.07160  -0.35032  -0.19693
  75   40154.0    249.0   0.041098927   0.33696   0.10667  -0.57051   0.01025

FINAL SINGLE POINT ENERGY     -5328.870541438002

DIPOLE MOMENT
-------------
                                X             Y             Z
Electronic contribution:     -3.91527       1.70657       3.70431
Nuclear contribution   :      6.04575      -1.90376      -2.86887
                        -----------------------------------------
Total Dipole Moment    :      2.13048      -0.19719       0.83544
                        -----------------------------------------
Magnitude (a.u.)       :      2.29691
Magnitude (Debye)      :      5.83829

Rotational constants in cm-1:     0.000973     0.000224     0.000190
Rotational constants in MHz :    29.172506     6.721128     5.710797

                             ****ORCA TERMINATED NORMALLY****
TOTAL RUN TIME: 0 days 0 hours 10 minutes 28 seconds 481 msec
