                         Program Version 4.2.0 -  RELEASE  -
|  1> # ORCA input file
|  2> # SCF done       -172.960063053899          0.000278059806
|  3> ! CAM-B3LYP def2-SVP def2/J RIJCOSX Grid4 TightSCF
|  4> %maxcore 5000
|  5> %tddft
|  6>     Mode sTDDFT
|  7>     Ethresh 5.0
|  8>     maxcore 5000
|  9> end
| 10>
| 11> %pal
| 12>   nprocs 6
| 13>   end
| 14> * xyz 0 1
| 15>    C       -5.00076       -11.19043         7.04311
| 16>    C       -3.89965       -10.63492         6.45231
| 17>    C       -3.88631       -10.33886         5.08282
| 18>    F       -2.74825        -9.79400         4.60139
| 19>    C       -4.94172       -10.56564         4.21157
| 20>    C       -6.09339       -11.14298         4.82019
| 21>    C       -6.11379       -11.45075         6.22794
| 22>    N       -7.27656       -11.98555         6.60457
| 23>    S       -8.23934       -12.09024         5.32848
| 24>    N       -7.24330       -11.46790         4.23274
| 25>    C       -4.90202       -10.26212         2.80847
| 26>    C       -5.92438       -10.46097         1.89793
| 27>    C       -5.55886       -10.07903         0.60962
| 28>    C       -4.24323        -9.58189         0.53792
| 29>    S       -3.46670        -9.58333         2.05331
| 30>    C       -3.95775        -9.24331        -0.80812
| 31>    C       -5.09932        -9.53143        -1.58819
| 32>    C       -6.14222       -10.05664        -0.71966
| 33>    C       -7.39973       -10.44393        -1.07946
| 34>    C       -8.33594       -10.93615        -0.14560
| 35>    N       -9.10702       -11.33625         0.60275
| 36>    C       -7.84871       -10.37477        -2.41520
| 37>    N       -8.21381       -10.31875        -3.50077
| 38>    C       -4.91353        -9.25674        -2.93596
| 39>    C       -3.63892        -8.76130        -3.18416
| 40>    S       -2.65931        -8.62433        -1.72886
| 41>    C       -3.06997        -8.40313        -4.41616
| 42>    C       -1.76964        -7.91675        -4.59233
| 43>    C       -1.44122        -7.67545        -5.96783
| 44>    N       -0.24259        -7.21777        -6.32500
| 45>    C        0.62135        -6.99393        -5.35648
| 46>    C        1.95458        -6.48009        -5.75210
| 47>    O        2.25883        -6.27184        -6.90898
| 48>    C        2.88492        -6.24066        -4.63682
| 49>    C        2.57886        -6.46454        -3.35425
| 50>    C        1.27467        -6.97684        -2.90165
| 51>    O        1.02507        -7.17180        -1.72952
| 52>    C        0.29322        -7.23417        -3.98216
| 53>    N       -0.88822        -7.69133        -3.62002
| 54>    C       -2.48781        -7.97574        -6.84563
| 55>    S       -3.87191        -8.54136        -5.95507
| 56>    C       -2.41605        -7.87120        -8.24391
| 57>    C       -3.39857        -8.15599        -9.18464
| 58>    C       -2.93288        -7.96895       -10.47934
| 59>    C       -1.58873        -7.54036       -10.51935
| 60>    S       -0.89868        -7.35435        -8.96787
| 61>    C       -1.20683        -7.41196       -11.87736
| 62>    C       -2.30035        -7.75468       -12.69383
| 63>    C       -3.42308        -8.10820       -11.84336
| 64>    C       -4.67143        -8.49143       -12.23702
| 65>    C       -5.03695        -8.59770       -13.59592
| 66>    N       -5.34816        -8.69121       -14.69543
| 67>    C       -5.68441        -8.80708       -11.30691
| 68>    N       -6.50906        -9.06206       -10.55214
| 69>    C       -2.00728        -7.67725       -14.05550
| 70>    C       -0.70428        -7.28284       -14.28455
| 71>    S        0.17296        -6.99512       -12.78615
| 72>    C       -0.04966        -7.11378       -15.55058
| 73>    C        1.27441        -6.72501       -15.64645
| 74>    C        1.90676        -6.57308       -16.88655
| 75>    F        3.19784        -6.19288       -16.87325
| 76>    C        1.29062        -6.78910       -18.08975
| 77>    C       -0.05401        -7.18340       -18.03658
| 78>    C       -0.73453        -7.34865       -16.77616
| 79>    N       -1.99940        -7.72666       -16.94843
| 80>    S       -2.30019        -7.85952       -18.52042
| 81>    N       -0.85202        -7.44805       -19.07232
| 82>    H       -5.03367       -11.42775         8.09275
| 83>    H       -3.01117       -10.40980         7.02090
| 84>    H       -6.87527       -10.86915         2.18615
| 85>    H       -5.64081        -9.40276        -3.71453
| 86>    H        3.85668        -5.86319        -4.92545
| 87>    H        3.29352        -6.27503        -2.56467
| 88>    H       -4.38554        -8.48406        -8.91141
| 89>    H       -2.68693        -7.89554       -14.85863
| 90>    H        1.85222        -6.53109       -14.75541
| 91>    H        1.80224        -6.66609       -19.02851
| 92> *
| 93>
| 94>                          ****END OF INPUT****

CARTESIAN COORDINATES (ANGSTROEM)
---------------------------------
  C     -5.000760  -11.190430    7.043110
  C     -3.899650  -10.634920    6.452310
  C     -3.886310  -10.338860    5.082820
  F     -2.748250   -9.794000    4.601390
  C     -4.941720  -10.565640    4.211570
  C     -6.093390  -11.142980    4.820190
  C     -6.113790  -11.450750    6.227940
  N     -7.276560  -11.985550    6.604570
  S     -8.239340  -12.090240    5.328480
  N     -7.243300  -11.467900    4.232740
  C     -4.902020  -10.262120    2.808470
  C     -5.924380  -10.460970    1.897930
  C     -5.558860  -10.079030    0.609620
  C     -4.243230   -9.581890    0.537920
  S     -3.466700   -9.583330    2.053310
  C     -3.957750   -9.243310   -0.808120
  C     -5.099320   -9.531430   -1.588190
  C     -6.142220  -10.056640   -0.719660
  C     -7.399730  -10.443930   -1.079460
  C     -8.335940  -10.936150   -0.145600
  N     -9.107020  -11.336250    0.602750
  C     -7.848710  -10.374770   -2.415200
  N     -8.213810  -10.318750   -3.500770
  C     -4.913530   -9.256740   -2.935960
  C     -3.638920   -8.761300   -3.184160
  S     -2.659310   -8.624330   -1.728860
  C     -3.069970   -8.403130   -4.416160
  C     -1.769640   -7.916750   -4.592330
  C     -1.441220   -7.675450   -5.967830
  N     -0.242590   -7.217770   -6.325000
  C      0.621350   -6.993930   -5.356480
  C      1.954580   -6.480090   -5.752100
  O      2.258830   -6.271840   -6.908980
  C      2.884920   -6.240660   -4.636820
  C      2.578860   -6.464540   -3.354250
  C      1.274670   -6.976840   -2.901650
  O      1.025070   -7.171800   -1.729520
  C      0.293220   -7.234170   -3.982160
  N     -0.888220   -7.691330   -3.620020
  C     -2.487810   -7.975740   -6.845630
  S     -3.871910   -8.541360   -5.955070
  C     -2.416050   -7.871200   -8.243910
  C     -3.398570   -8.155990   -9.184640
  C     -2.932880   -7.968950  -10.479340
  C     -1.588730   -7.540360  -10.519350
  S     -0.898680   -7.354350   -8.967870
  C     -1.206830   -7.411960  -11.877360
  C     -2.300350   -7.754680  -12.693830
  C     -3.423080   -8.108200  -11.843360
  C     -4.671430   -8.491430  -12.237020
  C     -5.036950   -8.597700  -13.595920
  N     -5.348160   -8.691210  -14.695430
  C     -5.684410   -8.807080  -11.306910
  N     -6.509060   -9.062060  -10.552140
  C     -2.007280   -7.677250  -14.055500
  C     -0.704280   -7.282840  -14.284550
  S      0.172960   -6.995120  -12.786150
  C     -0.049660   -7.113780  -15.550580
  C      1.274410   -6.725010  -15.646450
  C      1.906760   -6.573080  -16.886550
  F      3.197840   -6.192880  -16.873250
  C      1.290620   -6.789100  -18.089750
  C     -0.054010   -7.183400  -18.036580
  C     -0.734530   -7.348650  -16.776160
  N     -1.999400   -7.726660  -16.948430
  S     -2.300190   -7.859520  -18.520420
  N     -0.852020   -7.448050  -19.072320
  H     -5.033670  -11.427750    8.092750
  H     -3.011170  -10.409800    7.020900
  H     -6.875270  -10.869150    2.186150
  H     -5.640810   -9.402760   -3.714530
  H      3.856680   -5.863190   -4.925450
  H      3.293520   -6.275030   -2.564670
  H     -4.385540   -8.484060   -8.911410
  H     -2.686930   -7.895540  -14.858630
  H      1.852220   -6.531090  -14.755410
  H      1.802240   -6.666090  -19.028510

 Total Charge           Charge          ....    0
 Multiplicity           Mult            ....    1
 Number of Electrons    NEL             ....  502
 Basis Dimension        Dim             .... 1016

ORBITAL ENERGIES
----------------

  NO   OCC          E(Eh)            E(eV)
   0   2.0000     -89.029203     -2422.6078
   1   2.0000     -89.025018     -2422.4939
   2   2.0000     -89.001577     -2421.8560
   3   2.0000     -88.985846     -2421.4280
   4   2.0000     -88.984489     -2421.3910
   5   2.0000     -88.983739     -2421.3706
   6   2.0000     -88.982212     -2421.3291
   7   2.0000     -24.805052      -674.9798
   8   2.0000     -24.785806      -674.4561
   9   2.0000     -19.231565      -523.3175
  10   2.0000     -19.230986      -523.3017
  11   2.0000     -14.457562      -393.4103
  12   2.0000     -14.457336      -393.4041
  13   2.0000     -14.443524      -393.0283
  14   2.0000     -14.442611      -393.0034
  15   2.0000     -14.441447      -392.9718
  16   2.0000     -14.436179      -392.8284
  17   2.0000     -14.426887      -392.5756
  18   2.0000     -14.425498      -392.5378
  19   2.0000     -14.424988      -392.5239
  20   2.0000     -14.423644      -392.4873
  21   2.0000     -10.381395      -282.4921
  22   2.0000     -10.380898      -282.4786
  23   2.0000     -10.379669      -282.4452
  24   2.0000     -10.372162      -282.2409
  25   2.0000     -10.360422      -281.9214
  26   2.0000     -10.358274      -281.8630
  27   2.0000     -10.347802      -281.5780
  28   2.0000     -10.347720      -281.5758
  29   2.0000     -10.347010      -281.5565
  30   2.0000     -10.346121      -281.5323
  31   2.0000     -10.338533      -281.3258
  32   2.0000     -10.337202      -281.2896
  33   2.0000     -10.336080      -281.2590
  34   2.0000     -10.335772      -281.2507
  35   2.0000     -10.335351      -281.2392
  36   2.0000     -10.330130      -281.0971
  37   2.0000     -10.329074      -281.0684
  38   2.0000     -10.328910      -281.0639
  39   2.0000     -10.328436      -281.0510
  40   2.0000     -10.327443      -281.0240
  41   2.0000     -10.327407      -281.0230
  42   2.0000     -10.327305      -281.0202
  43   2.0000     -10.326070      -280.9866
  44   2.0000     -10.325544      -280.9723
  45   2.0000     -10.325332      -280.9666
  46   2.0000     -10.325167      -280.9621
  47   2.0000     -10.324031      -280.9312
  48   2.0000     -10.323254      -280.9100
  49   2.0000     -10.321138      -280.8524
  50   2.0000     -10.319800      -280.8160
  51   2.0000     -10.317781      -280.7611
  52   2.0000     -10.316201      -280.7181
  53   2.0000     -10.314114      -280.6613
  54   2.0000     -10.313425      -280.6426
  55   2.0000     -10.303675      -280.3773
  56   2.0000     -10.303246      -280.3656
  57   2.0000     -10.302639      -280.3491
  58   2.0000     -10.301115      -280.3076
  59   2.0000     -10.301005      -280.3046
  60   2.0000     -10.299286      -280.2578
  61   2.0000     -10.298080      -280.2250
  62   2.0000     -10.297628      -280.2127
  63   2.0000     -10.294844      -280.1369
  64   2.0000     -10.291344      -280.0417
  65   2.0000     -10.287798      -279.9452
  66   2.0000     -10.286666      -279.9144
  67   2.0000      -8.120965      -220.9827
  68   2.0000      -8.116771      -220.8686
  69   2.0000      -8.095660      -220.2941
  70   2.0000      -8.080434      -219.8798
  71   2.0000      -8.077789      -219.8078
  72   2.0000      -8.077146      -219.7903
  73   2.0000      -8.076354      -219.7688
  74   2.0000      -6.092144      -165.7757
  75   2.0000      -6.087960      -165.6618
  76   2.0000      -6.084338      -165.5632
  77   2.0000      -6.083460      -165.5394
  78   2.0000      -6.080142      -165.4491
  79   2.0000      -6.079270      -165.4254
  80   2.0000      -6.064793      -165.0314
  81   2.0000      -6.060710      -164.9203
  82   2.0000      -6.058197      -164.8519
  83   2.0000      -6.049602      -164.6180
  84   2.0000      -6.047200      -164.5527
  85   2.0000      -6.046530      -164.5344
  86   2.0000      -6.045630      -164.5099
  87   2.0000      -6.045491      -164.5062
  88   2.0000      -6.042897      -164.4356
  89   2.0000      -6.042711      -164.4305
  90   2.0000      -6.042068      -164.4130
  91   2.0000      -6.041219      -164.3899
  92   2.0000      -6.040088      -164.3592
  93   2.0000      -6.039441      -164.3416
  94   2.0000      -6.038840      -164.3252
  95   2.0000      -1.318734       -35.8846
  96   2.0000      -1.300932       -35.4002
  97   2.0000      -1.148516       -31.2527
  98   2.0000      -1.143667       -31.1208
  99   2.0000      -1.130557       -30.7640
 100   2.0000      -1.126129       -30.6435
 101   2.0000      -1.107550       -30.1380
 102   2.0000      -1.041715       -28.3465
 103   2.0000      -1.039547       -28.2875
 104   2.0000      -1.034879       -28.1605
 105   2.0000      -1.018510       -27.7151
 106   2.0000      -1.016753       -27.6673
 107   2.0000      -1.012513       -27.5519
 108   2.0000      -1.003375       -27.3032
 109   2.0000      -1.002119       -27.2690
 110   2.0000      -0.997086       -27.1321
 111   2.0000      -0.991762       -26.9872
 112   2.0000      -0.981891       -26.7186
 113   2.0000      -0.978489       -26.6260
 114   2.0000      -0.971862       -26.4457
 115   2.0000      -0.968217       -26.3465
 116   2.0000      -0.952130       -25.9088
 117   2.0000      -0.949853       -25.8468
 118   2.0000      -0.944390       -25.6982
 119   2.0000      -0.915895       -24.9228
 120   2.0000      -0.907180       -24.6856
 121   2.0000      -0.882517       -24.0145
 122   2.0000      -0.880781       -23.9673
 123   2.0000      -0.872953       -23.7543
 124   2.0000      -0.870090       -23.6764
 125   2.0000      -0.865221       -23.5439
 126   2.0000      -0.864256       -23.5176
 127   2.0000      -0.856459       -23.3054
 128   2.0000      -0.853033       -23.2122
 129   2.0000      -0.848769       -23.0962
 130   2.0000      -0.845541       -23.0083
 131   2.0000      -0.808383       -21.9972
 132   2.0000      -0.806781       -21.9536
 133   2.0000      -0.795912       -21.6579
 134   2.0000      -0.783222       -21.3126
 135   2.0000      -0.776338       -21.1252
 136   2.0000      -0.771412       -20.9912
 137   2.0000      -0.760666       -20.6988
 138   2.0000      -0.758644       -20.6438
 139   2.0000      -0.742041       -20.1920
 140   2.0000      -0.734750       -19.9936
 141   2.0000      -0.719160       -19.5693
 142   2.0000      -0.714147       -19.4329
 143   2.0000      -0.708402       -19.2766
 144   2.0000      -0.706149       -19.2153
 145   2.0000      -0.692551       -18.8453
 146   2.0000      -0.688757       -18.7420
 147   2.0000      -0.683979       -18.6120
 148   2.0000      -0.678725       -18.4691
 149   2.0000      -0.673675       -18.3316
 150   2.0000      -0.671147       -18.2628
 151   2.0000      -0.665872       -18.1193
 152   2.0000      -0.647479       -17.6188
 153   2.0000      -0.642583       -17.4856
 154   2.0000      -0.639096       -17.3907
 155   2.0000      -0.634607       -17.2685
 156   2.0000      -0.631222       -17.1764
 157   2.0000      -0.625422       -17.0186
 158   2.0000      -0.622264       -16.9327
 159   2.0000      -0.619064       -16.8456
 160   2.0000      -0.611435       -16.6380
 161   2.0000      -0.608310       -16.5530
 162   2.0000      -0.605838       -16.4857
 163   2.0000      -0.605501       -16.4765
 164   2.0000      -0.594301       -16.1717
 165   2.0000      -0.591673       -16.1002
 166   2.0000      -0.585413       -15.9299
 167   2.0000      -0.578027       -15.7289
 168   2.0000      -0.574652       -15.6371
 169   2.0000      -0.572906       -15.5896
 170   2.0000      -0.570604       -15.5269
 171   2.0000      -0.564555       -15.3623
 172   2.0000      -0.563555       -15.3351
 173   2.0000      -0.548894       -14.9362
 174   2.0000      -0.547858       -14.9080
 175   2.0000      -0.544660       -14.8210
 176   2.0000      -0.543566       -14.7912
 177   2.0000      -0.541761       -14.7421
 178   2.0000      -0.541329       -14.7303
 179   2.0000      -0.540963       -14.7203
 180   2.0000      -0.535785       -14.5795
 181   2.0000      -0.530506       -14.4358
 182   2.0000      -0.528786       -14.3890
 183   2.0000      -0.525715       -14.3054
 184   2.0000      -0.523495       -14.2450
 185   2.0000      -0.514142       -13.9905
 186   2.0000      -0.513556       -13.9746
 187   2.0000      -0.511627       -13.9221
 188   2.0000      -0.505757       -13.7623
 189   2.0000      -0.505258       -13.7488
 190   2.0000      -0.500549       -13.6206
 191   2.0000      -0.498539       -13.5659
 192   2.0000      -0.497990       -13.5510
 193   2.0000      -0.494632       -13.4596
 194   2.0000      -0.492367       -13.3980
 195   2.0000      -0.490647       -13.3512
 196   2.0000      -0.488901       -13.3037
 197   2.0000      -0.487430       -13.2636
 198   2.0000      -0.483099       -13.1458
 199   2.0000      -0.480673       -13.0798
 200   2.0000      -0.476369       -12.9627
 201   2.0000      -0.472043       -12.8450
 202   2.0000      -0.470559       -12.8046
 203   2.0000      -0.468475       -12.7479
 204   2.0000      -0.460628       -12.5343
 205   2.0000      -0.458276       -12.4703
 206   2.0000      -0.457221       -12.4416
 207   2.0000      -0.456293       -12.4164
 208   2.0000      -0.455525       -12.3955
 209   2.0000      -0.454457       -12.3664
 210   2.0000      -0.453774       -12.3478
 211   2.0000      -0.451702       -12.2914
 212   2.0000      -0.449025       -12.2186
 213   2.0000      -0.442054       -12.0289
 214   2.0000      -0.441308       -12.0086
 215   2.0000      -0.438929       -11.9439
 216   2.0000      -0.437763       -11.9121
 217   2.0000      -0.434943       -11.8354
 218   2.0000      -0.434832       -11.8324
 219   2.0000      -0.434323       -11.8185
 220   2.0000      -0.432988       -11.7822
 221   2.0000      -0.429586       -11.6896
 222   2.0000      -0.424714       -11.5571
 223   2.0000      -0.422842       -11.5061
 224   2.0000      -0.420567       -11.4442
 225   2.0000      -0.417077       -11.3492
 226   2.0000      -0.404652       -11.0111
 227   2.0000      -0.403232       -10.9725
 228   2.0000      -0.402417       -10.9503
 229   2.0000      -0.399225       -10.8635
 230   2.0000      -0.398764       -10.8509
 231   2.0000      -0.385159       -10.4807
 232   2.0000      -0.377952       -10.2846
 233   2.0000      -0.371411       -10.1066
 234   2.0000      -0.369364       -10.0509
 235   2.0000      -0.368812       -10.0359
 236   2.0000      -0.368157       -10.0181
 237   2.0000      -0.354046        -9.6341
 238   2.0000      -0.352259        -9.5854
 239   2.0000      -0.345508        -9.4018
 240   2.0000      -0.344383        -9.3711
 241   2.0000      -0.341496        -9.2926
 242   2.0000      -0.340410        -9.2630
 243   2.0000      -0.337232        -9.1766
 244   2.0000      -0.332925        -9.0594
 245   2.0000      -0.321200        -8.7403
 246   2.0000      -0.318216        -8.6591
 247   2.0000      -0.315498        -8.5851
 248   2.0000      -0.293484        -7.9861
 249   2.0000      -0.265972        -7.2375
 250   2.0000      -0.231486        -6.2990
 251   0.0000      -0.114960        -3.1282
 252   0.0000      -0.102335        -2.7847
 253   0.0000      -0.091065        -2.4780
 254   0.0000      -0.090152        -2.4532
 255   0.0000      -0.068361        -1.8602

MULLIKEN ATOMIC CHARGES
-----------------------
   0 C :   -0.019661
   1 C :   -0.018531
   2 C :    0.165619
   3 F :   -0.191728
   4 C :    0.132599
   5 C :   -0.030651
   6 C :    0.065506
   7 N :   -0.263532
   8 S :    0.528867
   9 N :   -0.292547
  10 C :   -0.138202
  11 C :   -0.055840
  12 C :    0.027105
  13 C :   -0.091737
  14 S :    0.204861
  15 C :   -0.088463
  16 C :    0.024685
  17 C :    0.309700
  18 C :   -0.306092
  19 C :   -0.186375
  20 N :    0.173200
  21 C :   -0.191537
  22 N :    0.170501
  23 C :   -0.082140
  24 C :   -0.077914
  25 S :    0.237286
  26 C :   -0.121179
  27 C :    0.024561
  28 C :    0.021389
  29 N :    0.036692
  30 C :   -0.111397
  31 C :    0.135186
  32 O :   -0.109701
  33 C :   -0.016011
  34 C :   -0.017700
  35 C :    0.137557
  36 O :   -0.109476
  37 C :   -0.114608
  38 N :    0.039995
  39 C :   -0.119112
  40 S :    0.232823
  41 C :   -0.078308
  42 C :   -0.080699
  43 C :    0.026355
  44 C :   -0.087725
  45 S :    0.235654
  46 C :   -0.085733
  47 C :    0.021886
  48 C :    0.306775
  49 C :   -0.300730
  50 C :   -0.186233
  51 N :    0.175736
  52 C :   -0.194786
  53 N :    0.174027
  54 C :   -0.043188
  55 C :   -0.125930
  56 S :    0.169917
  57 C :    0.172079
  58 C :   -0.134075
  59 C :    0.316327
  60 F :   -0.192820
  61 C :   -0.111440
  62 C :    0.056147
  63 C :   -0.008385
  64 N :   -0.282299
  65 S :    0.522679
  66 N :   -0.274009
  67 H :   -0.005749
  68 H :    0.008711
  69 H :    0.022861
  70 H :    0.010273
  71 H :    0.018077
  72 H :    0.019198
  73 H :    0.009441
  74 H :    0.022819
  75 H :    0.000881
  76 H :   -0.011731
Sum of atomic charges:   -0.0000000

LOEWDIN ATOMIC CHARGES
----------------------
   0 C :   -0.006571
   1 C :   -0.033749
   2 C :    0.084019
   3 F :   -0.064437
   4 C :   -0.070990
   5 C :   -0.036825
   6 C :   -0.057619
   7 N :   -0.278897
   8 S :    0.659420
   9 N :   -0.282540
  10 C :   -0.165787
  11 C :   -0.019084
  12 C :   -0.071376
  13 C :   -0.185254
  14 S :    0.492776
  15 C :   -0.176405
  16 C :   -0.070739
  17 C :    0.082281
  18 C :   -0.104975
  19 C :   -0.017317
  20 N :   -0.032600
  21 C :   -0.016793
  22 N :   -0.036317
  23 C :   -0.026890
  24 C :   -0.186463
  25 S :    0.525749
  26 C :   -0.186496
  27 C :   -0.057677
  28 C :   -0.056781
  29 N :   -0.009609
  30 C :   -0.040313
  31 C :    0.055033
  32 O :   -0.105822
  33 C :   -0.012515
  34 C :   -0.011695
  35 C :    0.054744
  36 O :   -0.105303
  37 C :   -0.042568
  38 N :   -0.007398
  39 C :   -0.191814
  40 S :    0.518052
  41 C :   -0.182131
  42 C :   -0.028922
  43 C :   -0.067961
  44 C :   -0.182998
  45 S :    0.526465
  46 C :   -0.172697
  47 C :   -0.072697
  48 C :    0.081283
  49 C :   -0.102160
  50 C :   -0.017834
  51 N :   -0.029916
  52 C :   -0.016959
  53 N :   -0.034032
  54 C :   -0.014038
  55 C :   -0.164474
  56 S :    0.478273
  57 C :   -0.024942
  58 C :   -0.052070
  59 C :    0.094077
  60 F :   -0.065128
  61 C :   -0.059163
  62 C :   -0.045207
  63 C :   -0.048981
  64 N :   -0.278069
  65 S :    0.655023
  66 N :   -0.288471
  67 H :    0.042772
  68 H :    0.044889
  69 H :    0.037814
  70 H :    0.037543
  71 H :    0.045909
  72 H :    0.046173
  73 H :    0.037622
  74 H :    0.039652
  75 H :    0.032393
  76 H :    0.046506

  Mayer bond orders larger than 0.100000
B(  0-C ,  1-C ) :   1.4666 B(  0-C ,  4-C ) :   0.1113 B(  0-C ,  6-C ) :   1.1943
B(  0-C , 67-H ) :   1.0247 B(  1-C ,  2-C ) :   1.2327 B(  1-C , 68-H ) :   0.9858
B(  2-C ,  3-F ) :   1.0818 B(  2-C ,  4-C ) :   1.4065 B(  4-C ,  5-C ) :   1.1730
B(  4-C , 10-C ) :   1.1129 B(  5-C ,  6-C ) :   1.1559 B(  5-C ,  9-N ) :   1.5322
B(  6-C ,  7-N ) :   1.5105 B(  7-N ,  8-S ) :   1.2898 B(  7-N ,  9-N ) :   0.1469
B(  8-S ,  9-N ) :   1.2514 B( 10-C , 11-C ) :   1.4791 B( 10-C , 14-S ) :   1.0974
B( 11-C , 12-C ) :   1.2534 B( 11-C , 69-H ) :   0.9785 B( 12-C , 13-C ) :   1.4214
B( 12-C , 17-C ) :   1.0014 B( 13-C , 14-S ) :   1.1101 B( 13-C , 15-C ) :   1.1952
B( 15-C , 16-C ) :   1.4089 B( 15-C , 25-S ) :   1.1060 B( 16-C , 17-C ) :   0.9876
B( 16-C , 23-C ) :   1.3240 B( 17-C , 18-C ) :   1.7093 B( 18-C , 19-C ) :   1.1381
B( 18-C , 21-C ) :   1.1325 B( 19-C , 20-N ) :   2.9870 B( 21-C , 22-N ) :   2.9935
B( 23-C , 24-C ) :   1.3860 B( 23-C , 70-H ) :   0.9950 B( 24-C , 25-S ) :   1.1083
B( 24-C , 26-C ) :   1.2439 B( 26-C , 27-C ) :   1.3186 B( 26-C , 39-C ) :   0.1169
B( 26-C , 40-S ) :   1.1561 B( 27-C , 28-C ) :   1.1803 B( 27-C , 38-N ) :   1.4232
B( 28-C , 29-N ) :   1.4182 B( 28-C , 39-C ) :   1.3266 B( 29-N , 30-C ) :   1.6967
B( 30-C , 31-C ) :   0.9004 B( 30-C , 37-C ) :   1.1050 B( 31-C , 32-O ) :   2.2438
B( 31-C , 33-C ) :   1.0245 B( 33-C , 34-C ) :   1.6760 B( 33-C , 71-H ) :   0.9979
B( 34-C , 35-C ) :   1.0217 B( 34-C , 72-H ) :   0.9986 B( 35-C , 36-O ) :   2.2438
B( 35-C , 37-C ) :   0.9011 B( 37-C , 38-N ) :   1.6959 B( 39-C , 40-S ) :   1.1489
B( 39-C , 41-C ) :   1.2379 B( 41-C , 42-C ) :   1.3901 B( 41-C , 45-S ) :   1.1138
B( 42-C , 43-C ) :   1.3243 B( 42-C , 73-H ) :   0.9945 B( 43-C , 44-C ) :   1.4084
B( 43-C , 48-C ) :   0.9870 B( 44-C , 45-S ) :   1.0985 B( 44-C , 46-C ) :   1.1926
B( 46-C , 47-C ) :   1.4308 B( 46-C , 56-S ) :   1.1338 B( 47-C , 48-C ) :   1.0002
B( 47-C , 54-C ) :   1.2397 B( 48-C , 49-C ) :   1.7118 B( 49-C , 50-C ) :   1.1351
B( 49-C , 52-C ) :   1.1347 B( 50-C , 51-N ) :   2.9894 B( 52-C , 53-N ) :   2.9943
B( 54-C , 55-C ) :   1.4927 B( 54-C , 74-H ) :   0.9808 B( 55-C , 56-S ) :   1.0867
B( 55-C , 57-C ) :   1.1151 B( 57-C , 58-C ) :   1.4360 B( 57-C , 61-C ) :   0.1080
B( 57-C , 63-C ) :   1.1824 B( 58-C , 59-C ) :   1.2106 B( 58-C , 75-H ) :   0.9916
B( 59-C , 60-F ) :   1.0711 B( 59-C , 61-C ) :   1.4462 B( 61-C , 62-C ) :   1.1528
B( 61-C , 76-H ) :   1.0380 B( 62-C , 63-C ) :   1.1645 B( 62-C , 66-N ) :   1.5095
B( 63-C , 64-N ) :   1.5308 B( 64-N , 65-S ) :   1.2622 B( 64-N , 66-N ) :   0.1481
B( 65-S , 66-N ) :   1.2764

-----------------------------------------------------------------------------
         ABSORPTION SPECTRUM VIA TRANSITION ELECTRIC DIPOLE MOMENTS
-----------------------------------------------------------------------------
State   Energy  Wavelength   fosc         T2         TX        TY        TZ
        (cm-1)    (nm)                  (au**2)     (au)      (au)      (au)
-----------------------------------------------------------------------------
   0    9642.2   1037.1   0.712386814  24.32288  -1.12749  -0.80640   4.73301
   1   11846.7    844.1   0.015954266   0.44336   0.53520   0.37822  -0.11774
   2   13275.1    753.3   0.028941646   0.71773  -0.19855  -0.14160   0.81133
   3   15310.0    653.2   0.107931609   2.32086  -1.37748  -0.54078  -0.36188
   4   19063.4    524.6   0.019830137   0.34245  -0.45892  -0.35576  -0.07265
   5   21391.9    467.5   0.158712049   2.44251   0.28891   0.22091  -1.51995
   6   22399.5    446.4   0.908688537  13.35527  -0.71387  -0.69964   3.51513
   7   22824.8    438.1   0.268440983   3.87185  -0.63753  -0.06220   1.86052
   8   24145.1    414.2   0.033165199   0.45220   0.65476   0.14369  -0.05335
   9   24883.5    401.9   0.001393072   0.01843   0.03805  -0.13024  -0.00450
  10   25072.3    398.8   0.003514270   0.04614  -0.06479  -0.04798   0.19911
  11   25676.7    389.5   0.000393426   0.00504  -0.01624  -0.01410   0.06769
  12   25810.2    387.4   0.186144377   2.37429   0.32225   0.25147  -1.48567
  13   26561.7    376.5   0.001102582   0.01367   0.04497  -0.10683  -0.01516
  14   28249.1    354.0   0.273033682   3.18190   0.18793   0.27736  -1.75204
  15   28579.7    349.9   0.005659295   0.06519   0.25427  -0.00411   0.02276
  16   28719.6    348.2   0.104648789   1.19959   1.03137   0.36149  -0.07196
  17   29016.1    344.6   0.024009867   0.27241   0.09220   0.02751  -0.51299
  18   30454.1    328.4   0.123731456   1.33755  -0.40828  -0.18124   1.06678
  19   30813.4    324.5   0.104799578   1.11969   0.87016   0.10524   0.59282
  20   30875.3    323.9   0.000520445   0.00555  -0.05289  -0.00113  -0.05244
  21   31002.8    322.6   0.091079564   0.96715  -0.89216  -0.27986   0.30478
  22   31386.3    318.6   0.374281076   3.92585  -0.21512  -0.26023   1.95240
  23   32090.0    311.6   0.091213889   0.93577   0.91798   0.30018  -0.05447
  24   32164.9    310.9   0.255759237   2.61773  -1.38268  -0.40421  -0.73657
  25   32346.1    309.2   0.116592150   1.18665  -0.84834  -0.12145  -0.67247
  26   33240.2    300.8   0.651439118   6.45188   2.32383   0.78813   0.65616
  27   33421.5    299.2   0.108183156   1.06564   0.95857   0.37145  -0.09391
  28   33822.2    295.7   0.018723353   0.18225  -0.20832   0.04457   0.36995
  29   34004.1    294.1   0.000136606   0.00132  -0.02671  -0.01270   0.02116
  30   34254.9    291.9   0.057548754   0.55308  -0.65745  -0.32042   0.13481
  31   34474.5    290.1   0.163375939   1.56015  -1.09597  -0.52583  -0.28724
  32   34691.5    288.3   0.002034971   0.01931  -0.03784  -0.03653   0.12863
  33   34963.7    286.0   0.006206125   0.05844   0.00617  -0.04711   0.23702
  34   35110.0    284.8   0.000188268   0.00177  -0.04057  -0.00718   0.00825
  35   35531.9    281.4   0.009235574   0.08557  -0.26482  -0.02389  -0.12194
  36   35738.3    279.8   0.029418373   0.27099  -0.30201  -0.16510   0.39055
  37   36001.6    277.8   0.230926910   2.11168   1.21745   0.40565   0.68187
  38   36312.1    275.4   0.013832188   0.12540   0.28766   0.11578  -0.17104
  39   36505.0    273.9   0.053097913   0.47885  -0.35240  -0.17823   0.56824
  40   36550.2    273.6   0.000838744   0.00755   0.01496  -0.00481   0.08548
  41   36729.0    272.3   0.103400545   0.92681   0.50002   0.14230   0.81027
  42   37094.1    269.6   0.182413499   1.61893   0.73589   0.36323  -0.97234
  43   37124.8    269.4   0.001389537   0.01232  -0.08442   0.00611   0.07181
  44   37291.6    268.2   0.003517956   0.03106  -0.11528   0.13266  -0.01296
  45   37370.4    267.6   0.086580002   0.76272  -0.36446   0.03455  -0.79290
  46   37573.0    266.1   0.124192360   1.08816  -0.76710  -0.29216   0.64372
  47   37806.1    264.5   0.062615875   0.54525   0.66294   0.06973   0.31765
  48   38001.8    263.1   0.063284490   0.54824  -0.72140  -0.16400   0.03029
  49   38058.0    262.8   0.001163822   0.01007  -0.08672   0.04989  -0.00764
  50   38276.1    261.3   0.028445873   0.24466   0.29561   0.15409   0.36543
  51   38394.6    260.5   0.018197231   0.15603  -0.37170  -0.10948   0.07673
  52   38658.0    258.7   0.102851855   0.87589  -0.03121  -0.07074   0.93269
  53   38781.4    257.9   0.004206292   0.03571  -0.07916  -0.01548  -0.17088
  54   39326.3    254.3   0.009351182   0.07828  -0.06708  -0.07790   0.26022
  55   39351.5    254.1   0.152694512   1.27743   0.12944  -0.10401   1.11797
  56   39949.2    250.3   0.004299153   0.03543  -0.10027  -0.05285   0.15027
  57   40056.5    249.6   0.011029152   0.09065  -0.22524  -0.05442  -0.19222

FINAL SINGLE POINT ENERGY     -5439.621574423000

DIPOLE MOMENT
-------------
                                X             Y             Z
Electronic contribution:     -2.62408      -0.53382      -4.47497
Nuclear contribution   :      5.39733       1.11359       6.60862
                        -----------------------------------------
Total Dipole Moment    :      2.77325       0.57977       2.13366
                        -----------------------------------------
Magnitude (a.u.)       :      3.54677
Magnitude (Debye)      :      9.01517

Rotational constants in cm-1:     0.002297     0.000270     0.000243
Rotational constants in MHz :    68.854814     8.107677     7.281763

                             ****ORCA TERMINATED NORMALLY****
TOTAL RUN TIME: 0 days 0 hours 7 minutes 28 seconds 312 msec
