                         Program Version 4.2.0 -  RELEASE  -
|  1> # ORCA input file
|  2> # SCF done       -210.064782337075          0.000615735089
|  3> ! CAM-B3LYP def2-SVP def2/J RIJCOSX Grid4 TightSCF
|  4> %maxcore 5000
|  5> %tddft
|  6>     Mode sTDDFT
|  7>     Ethresh 5.0
|  8>     maxcore 5000
|  9> end
| 10>
| 11> %pal
| 12>   nprocs 6
| 13>   end
| 14> * xyz 0 1
| 15>    C       -2.49438         2.65455         3.45180
| 16>    C       -1.95582         3.12372         4.61689
| 17>    F       -1.65874         4.42293         4.74583
| 18>    C       -1.70587         2.25047         5.69511
| 19>    F       -1.17602         2.73875         6.82394
| 20>    C       -1.99873         0.91937         5.59310
| 21>    C       -2.55408         0.40536         4.40520
| 22>    C       -2.80783         1.28713         3.31434
| 23>    C       -3.36701         0.79489         2.11307
| 24>    C       -3.66381        -0.53886         2.00629
| 25>    C       -3.40059        -1.41123         3.09743
| 26>    C       -2.86217        -0.96628         4.27037
| 27>    C       -3.78788        -2.78845         2.73796
| 28>    O       -3.67418        -3.76517         3.44555
| 29>    C       -4.26743        -2.71475         1.33459
| 30>    C       -4.24499        -1.32110         0.92016
| 31>    C       -4.75139        -0.80195        -0.24275
| 32>    C       -5.40834        -1.53412        -1.25487
| 33>    N       -5.97262        -2.05170        -2.11091
| 34>    C       -4.71595         0.56962        -0.57455
| 35>    N       -4.71146         1.66774        -0.90828
| 36>    C       -4.54025        -3.75763         0.49247
| 37>    C       -4.69785        -5.13303         0.75846
| 38>    C       -4.87513        -5.84351         1.93995
| 39>    C       -5.05612        -7.20052         1.71085
| 40>    C       -5.01066        -7.54398         0.34161
| 41>    S       -4.77219        -6.19217        -0.65741
| 42>    C       -5.18849        -8.94441         0.22076
| 43>    C       -5.35589        -9.48764         1.51118
| 44>    C       -5.28445        -8.41076         2.48702
| 45>    C       -5.42181        -8.51210         3.83886
| 46>    C       -5.63518        -9.75167         4.48176
| 47>    N       -5.80756       -10.75173         5.01429
| 48>    C       -5.38379        -7.39317         4.70056
| 49>    N       -5.37799        -6.50210         5.42101
| 50>    C       -5.55472       -10.86709         1.48914
| 51>    C       -5.53154       -11.35630         0.19751
| 52>    S       -5.26431       -10.12314        -1.00955
| 53>    C       -5.71422       -12.70797        -0.22976
| 54>    N       -5.61453       -12.96058        -1.54883
| 55>    C       -5.83979       -14.19150        -1.92086
| 56>    C       -6.21374       -15.17115        -0.97478
| 57>    N       -6.22133       -14.84351         0.32678
| 58>    N       -5.95879       -13.64232         0.69412
| 59>    C       -6.57871       -16.51063        -1.32131
| 60>    C       -6.98434       -17.49963        -0.44663
| 61>    C       -7.29631       -18.68322        -1.11449
| 62>    C       -7.11627       -18.58659        -2.50751
| 63>    S       -6.57070       -17.04654        -2.99170
| 64>    C       -7.46074       -19.82729        -3.10109
| 65>    C       -7.87157       -20.70516        -2.07877
| 66>    C       -7.76685       -20.02265        -0.79910
| 67>    C       -8.02611       -20.55652         0.42811
| 68>    C       -8.45637       -21.89414         0.56425
| 69>    N       -8.81136       -22.98091         0.65125
| 70>    C       -7.88356       -19.82182         1.62494
| 71>    N       -7.78040       -19.22670         2.59863
| 72>    C       -8.22025       -21.96210        -2.55378
| 73>    C       -8.06786       -22.06442        -3.92960
| 74>    S       -7.51728       -20.55145        -4.63919
| 75>    C       -8.33701       -23.16225        -4.77573
| 76>    C       -8.50860       -24.47401        -4.45301
| 77>    C       -9.20125       -25.35894        -5.43602
| 78>    O       -9.42708       -25.10545        -6.59561
| 79>    C       -9.59220       -26.55702        -4.66950
| 80>    C      -10.36352       -27.61324        -5.06141
| 81>    C      -10.64721       -28.63786        -4.13098
| 82>    C      -10.13200       -28.54226        -2.80511
| 83>    C      -10.43258       -29.56029        -1.87794
| 84>    C      -11.20349       -30.62549        -2.25071
| 85>    C      -11.70880       -30.72123        -3.56342
| 86>    C      -11.43739       -29.74895        -4.48482
| 87>    F      -12.46146       -31.77621        -3.90065
| 88>    F      -11.48775       -31.59215        -1.36961
| 89>    C       -9.32714       -27.44182        -2.43101
| 90>    C       -9.05280       -26.46897        -3.35434
| 91>    C       -8.24248       -25.25616        -3.26347
| 92>    C       -7.23865       -25.05677        -2.35234
| 93>    C       -6.31833       -23.99299        -2.41932
| 94>    N       -5.53921       -23.15046        -2.45562
| 95>    C       -6.95126       -25.94840        -1.29637
| 96>    N       -6.67647       -26.64374        -0.42650
| 97>    H       -2.68065         3.33691         2.63718
| 98>    H       -1.80201         0.26374         6.42684
| 99>    H       -3.54113         1.48730         1.30560
|100>    H       -2.67668        -1.65267         5.08246
|101>    H       -4.64377        -3.51276        -0.55851
|102>    H       -4.86176        -5.37468         2.90670
|103>    H       -5.70906       -11.50554         2.33962
|104>    H       -5.72493       -14.42155        -2.97294
|105>    H       -7.04169       -17.33083         0.61322
|106>    H       -8.61208       -22.75746        -1.94698
|107>    H       -8.49817       -22.92944        -5.82429
|108>    H      -10.75445       -27.66502        -6.06613
|109>    H      -10.05076       -29.50423        -0.87054
|110>    H      -11.83238       -29.83647        -5.48485
|111>    H       -8.95863       -27.38786        -1.41904
|112> *
|113>
|114>                          ****END OF INPUT****

CARTESIAN COORDINATES (ANGSTROEM)
---------------------------------
  C     -2.494380    2.654550    3.451800
  C     -1.955820    3.123720    4.616890
  F     -1.658740    4.422930    4.745830
  C     -1.705870    2.250470    5.695110
  F     -1.176020    2.738750    6.823940
  C     -1.998730    0.919370    5.593100
  C     -2.554080    0.405360    4.405200
  C     -2.807830    1.287130    3.314340
  C     -3.367010    0.794890    2.113070
  C     -3.663810   -0.538860    2.006290
  C     -3.400590   -1.411230    3.097430
  C     -2.862170   -0.966280    4.270370
  C     -3.787880   -2.788450    2.737960
  O     -3.674180   -3.765170    3.445550
  C     -4.267430   -2.714750    1.334590
  C     -4.244990   -1.321100    0.920160
  C     -4.751390   -0.801950   -0.242750
  C     -5.408340   -1.534120   -1.254870
  N     -5.972620   -2.051700   -2.110910
  C     -4.715950    0.569620   -0.574550
  N     -4.711460    1.667740   -0.908280
  C     -4.540250   -3.757630    0.492470
  C     -4.697850   -5.133030    0.758460
  C     -4.875130   -5.843510    1.939950
  C     -5.056120   -7.200520    1.710850
  C     -5.010660   -7.543980    0.341610
  S     -4.772190   -6.192170   -0.657410
  C     -5.188490   -8.944410    0.220760
  C     -5.355890   -9.487640    1.511180
  C     -5.284450   -8.410760    2.487020
  C     -5.421810   -8.512100    3.838860
  C     -5.635180   -9.751670    4.481760
  N     -5.807560  -10.751730    5.014290
  C     -5.383790   -7.393170    4.700560
  N     -5.377990   -6.502100    5.421010
  C     -5.554720  -10.867090    1.489140
  C     -5.531540  -11.356300    0.197510
  S     -5.264310  -10.123140   -1.009550
  C     -5.714220  -12.707970   -0.229760
  N     -5.614530  -12.960580   -1.548830
  C     -5.839790  -14.191500   -1.920860
  C     -6.213740  -15.171150   -0.974780
  N     -6.221330  -14.843510    0.326780
  N     -5.958790  -13.642320    0.694120
  C     -6.578710  -16.510630   -1.321310
  C     -6.984340  -17.499630   -0.446630
  C     -7.296310  -18.683220   -1.114490
  C     -7.116270  -18.586590   -2.507510
  S     -6.570700  -17.046540   -2.991700
  C     -7.460740  -19.827290   -3.101090
  C     -7.871570  -20.705160   -2.078770
  C     -7.766850  -20.022650   -0.799100
  C     -8.026110  -20.556520    0.428110
  C     -8.456370  -21.894140    0.564250
  N     -8.811360  -22.980910    0.651250
  C     -7.883560  -19.821820    1.624940
  N     -7.780400  -19.226700    2.598630
  C     -8.220250  -21.962100   -2.553780
  C     -8.067860  -22.064420   -3.929600
  S     -7.517280  -20.551450   -4.639190
  C     -8.337010  -23.162250   -4.775730
  C     -8.508600  -24.474010   -4.453010
  C     -9.201250  -25.358940   -5.436020
  O     -9.427080  -25.105450   -6.595610
  C     -9.592200  -26.557020   -4.669500
  C    -10.363520  -27.613240   -5.061410
  C    -10.647210  -28.637860   -4.130980
  C    -10.132000  -28.542260   -2.805110
  C    -10.432580  -29.560290   -1.877940
  C    -11.203490  -30.625490   -2.250710
  C    -11.708800  -30.721230   -3.563420
  C    -11.437390  -29.748950   -4.484820
  F    -12.461460  -31.776210   -3.900650
  F    -11.487750  -31.592150   -1.369610
  C     -9.327140  -27.441820   -2.431010
  C     -9.052800  -26.468970   -3.354340
  C     -8.242480  -25.256160   -3.263470
  C     -7.238650  -25.056770   -2.352340
  C     -6.318330  -23.992990   -2.419320
  N     -5.539210  -23.150460   -2.455620
  C     -6.951260  -25.948400   -1.296370
  N     -6.676470  -26.643740   -0.426500
  H     -2.680650    3.336910    2.637180
  H     -1.802010    0.263740    6.426840
  H     -3.541130    1.487300    1.305600
  H     -2.676680   -1.652670    5.082460
  H     -4.643770   -3.512760   -0.558510
  H     -4.861760   -5.374680    2.906700
  H     -5.709060  -11.505540    2.339620
  H     -5.724930  -14.421550   -2.972940
  H     -7.041690  -17.330830    0.613220
  H     -8.612080  -22.757460   -1.946980
  H     -8.498170  -22.929440   -5.824290
  H    -10.754450  -27.665020   -6.066130
  H    -10.050760  -29.504230   -0.870540
  H    -11.832380  -29.836470   -5.484850
  H     -8.958630  -27.387860   -1.419040

 Total Charge           Charge          ....    0
 Multiplicity           Mult            ....    1
 Number of Electrons    NEL             ....  574
 Basis Dimension        Dim             .... 1239

ORBITAL ENERGIES
----------------

  NO   OCC          E(Eh)            E(eV)
   0   2.0000     -89.010133     -2422.0889
   1   2.0000     -89.006557     -2421.9915
   2   2.0000     -89.003295     -2421.9028
   3   2.0000     -89.003191     -2421.9000
   4   2.0000     -24.801607      -674.8860
   5   2.0000     -24.800816      -674.8645
   6   2.0000     -24.800188      -674.8474
   7   2.0000     -24.799509      -674.8289
   8   2.0000     -19.224792      -523.1332
   9   2.0000     -19.224241      -523.1182
  10   2.0000     -14.479244      -394.0002
  11   2.0000     -14.470343      -393.7580
  12   2.0000     -14.460167      -393.4811
  13   2.0000     -14.441772      -392.9806
  14   2.0000     -14.437996      -392.8778
  15   2.0000     -14.434805      -392.7910
  16   2.0000     -14.433711      -392.7612
  17   2.0000     -14.426326      -392.5603
  18   2.0000     -14.422946      -392.4683
  19   2.0000     -14.420868      -392.4118
  20   2.0000     -14.420072      -392.3901
  21   2.0000     -10.385126      -282.5937
  22   2.0000     -10.384632      -282.5802
  23   2.0000     -10.383745      -282.5561
  24   2.0000     -10.383162      -282.5402
  25   2.0000     -10.378228      -282.4059
  26   2.0000     -10.377578      -282.3883
  27   2.0000     -10.376387      -282.3558
  28   2.0000     -10.375505      -282.3318
  29   2.0000     -10.373358      -282.2734
  30   2.0000     -10.363645      -282.0091
  31   2.0000     -10.362266      -281.9716
  32   2.0000     -10.359503      -281.8964
  33   2.0000     -10.356889      -281.8253
  34   2.0000     -10.353092      -281.7220
  35   2.0000     -10.352716      -281.7117
  36   2.0000     -10.352443      -281.7043
  37   2.0000     -10.351458      -281.6775
  38   2.0000     -10.351275      -281.6725
  39   2.0000     -10.348499      -281.5970
  40   2.0000     -10.347719      -281.5757
  41   2.0000     -10.345500      -281.5154
  42   2.0000     -10.341629      -281.4100
  43   2.0000     -10.340775      -281.3868
  44   2.0000     -10.338671      -281.3295
  45   2.0000     -10.337140      -281.2879
  46   2.0000     -10.336515      -281.2709
  47   2.0000     -10.335329      -281.2386
  48   2.0000     -10.334436      -281.2143
  49   2.0000     -10.334082      -281.2047
  50   2.0000     -10.333340      -281.1845
  51   2.0000     -10.332724      -281.1677
  52   2.0000     -10.327240      -281.0185
  53   2.0000     -10.325825      -280.9800
  54   2.0000     -10.322991      -280.9029
  55   2.0000     -10.322950      -280.9017
  56   2.0000     -10.322192      -280.8811
  57   2.0000     -10.321541      -280.8634
  58   2.0000     -10.318742      -280.7872
  59   2.0000     -10.318282      -280.7747
  60   2.0000     -10.316718      -280.7322
  61   2.0000     -10.316272      -280.7200
  62   2.0000     -10.315110      -280.6884
  63   2.0000     -10.314809      -280.6802
  64   2.0000     -10.314432      -280.6700
  65   2.0000     -10.313855      -280.6543
  66   2.0000     -10.313565      -280.6464
  67   2.0000     -10.313322      -280.6398
  68   2.0000     -10.313056      -280.6325
  69   2.0000     -10.310997      -280.5765
  70   2.0000     -10.310273      -280.5568
  71   2.0000     -10.309138      -280.5259
  72   2.0000     -10.308311      -280.5034
  73   2.0000     -10.307245      -280.4744
  74   2.0000     -10.305859      -280.4367
  75   2.0000     -10.305228      -280.4195
  76   2.0000     -10.304900      -280.4106
  77   2.0000     -10.303812      -280.3810
  78   2.0000     -10.303236      -280.3653
  79   2.0000     -10.302737      -280.3517
  80   2.0000     -10.299784      -280.2714
  81   2.0000     -10.296463      -280.1810
  82   2.0000      -8.104646      -220.5386
  83   2.0000      -8.101259      -220.4465
  84   2.0000      -8.098030      -220.3586
  85   2.0000      -8.097219      -220.3365
  86   2.0000      -6.073851      -165.2779
  87   2.0000      -6.070435      -165.1849
  88   2.0000      -6.069734      -165.1659
  89   2.0000      -6.067114      -165.0946
  90   2.0000      -6.067087      -165.0938
  91   2.0000      -6.066411      -165.0754
  92   2.0000      -6.066239      -165.0708
  93   2.0000      -6.063749      -165.0030
  94   2.0000      -6.062994      -164.9825
  95   2.0000      -6.062175      -164.9602
  96   2.0000      -6.060601      -164.9173
  97   2.0000      -6.059814      -164.8959
  98   2.0000      -1.324444       -36.0400
  99   2.0000      -1.323001       -36.0007
 100   2.0000      -1.309531       -35.6342
 101   2.0000      -1.308130       -35.5960
 102   2.0000      -1.171547       -31.8794
 103   2.0000      -1.140889       -31.0452
 104   2.0000      -1.140137       -31.0247
 105   2.0000      -1.062044       -28.8997
 106   2.0000      -1.060809       -28.8661
 107   2.0000      -1.054660       -28.6988
 108   2.0000      -1.032679       -28.1006
 109   2.0000      -1.028584       -27.9892
 110   2.0000      -1.027207       -27.9517
 111   2.0000      -1.025537       -27.9063
 112   2.0000      -1.018453       -27.7135
 113   2.0000      -1.016328       -27.6557
 114   2.0000      -1.012191       -27.5431
 115   2.0000      -1.010525       -27.4978
 116   2.0000      -1.010002       -27.4836
 117   2.0000      -1.008608       -27.4456
 118   2.0000      -1.001166       -27.2431
 119   2.0000      -0.999998       -27.2113
 120   2.0000      -0.988223       -26.8909
 121   2.0000      -0.985977       -26.8298
 122   2.0000      -0.980492       -26.6805
 123   2.0000      -0.970421       -26.4065
 124   2.0000      -0.957197       -26.0467
 125   2.0000      -0.939860       -25.5749
 126   2.0000      -0.938018       -25.5248
 127   2.0000      -0.928370       -25.2622
 128   2.0000      -0.922831       -25.1115
 129   2.0000      -0.908738       -24.7280
 130   2.0000      -0.904828       -24.6216
 131   2.0000      -0.897526       -24.4229
 132   2.0000      -0.895457       -24.3666
 133   2.0000      -0.889155       -24.1951
 134   2.0000      -0.885458       -24.0945
 135   2.0000      -0.881837       -23.9960
 136   2.0000      -0.873636       -23.7729
 137   2.0000      -0.871799       -23.7228
 138   2.0000      -0.868306       -23.6278
 139   2.0000      -0.847530       -23.0625
 140   2.0000      -0.845519       -23.0078
 141   2.0000      -0.843553       -22.9542
 142   2.0000      -0.825935       -22.4748
 143   2.0000      -0.818297       -22.2670
 144   2.0000      -0.814061       -22.1517
 145   2.0000      -0.790229       -21.5032
 146   2.0000      -0.786961       -21.4143
 147   2.0000      -0.783741       -21.3267
 148   2.0000      -0.774864       -21.0851
 149   2.0000      -0.772271       -21.0146
 150   2.0000      -0.769893       -20.9498
 151   2.0000      -0.749457       -20.3937
 152   2.0000      -0.743953       -20.2440
 153   2.0000      -0.727473       -19.7955
 154   2.0000      -0.725008       -19.7285
 155   2.0000      -0.722353       -19.6562
 156   2.0000      -0.716781       -19.5046
 157   2.0000      -0.716231       -19.4896
 158   2.0000      -0.711832       -19.3699
 159   2.0000      -0.699733       -19.0407
 160   2.0000      -0.697577       -18.9820
 161   2.0000      -0.695165       -18.9164
 162   2.0000      -0.690770       -18.7968
 163   2.0000      -0.687640       -18.7116
 164   2.0000      -0.684135       -18.6162
 165   2.0000      -0.676724       -18.4146
 166   2.0000      -0.667637       -18.1673
 167   2.0000      -0.662319       -18.0226
 168   2.0000      -0.658508       -17.9189
 169   2.0000      -0.656816       -17.8729
 170   2.0000      -0.647481       -17.6189
 171   2.0000      -0.645629       -17.5685
 172   2.0000      -0.644879       -17.5481
 173   2.0000      -0.642666       -17.4878
 174   2.0000      -0.633251       -17.2316
 175   2.0000      -0.630034       -17.1441
 176   2.0000      -0.625036       -17.0081
 177   2.0000      -0.623523       -16.9669
 178   2.0000      -0.620245       -16.8777
 179   2.0000      -0.617623       -16.8064
 180   2.0000      -0.611456       -16.6386
 181   2.0000      -0.604758       -16.4563
 182   2.0000      -0.593470       -16.1491
 183   2.0000      -0.591088       -16.0843
 184   2.0000      -0.588863       -16.0238
 185   2.0000      -0.588669       -16.0185
 186   2.0000      -0.587415       -15.9844
 187   2.0000      -0.583985       -15.8910
 188   2.0000      -0.580962       -15.8088
 189   2.0000      -0.580027       -15.7833
 190   2.0000      -0.577452       -15.7133
 191   2.0000      -0.562152       -15.2969
 192   2.0000      -0.561696       -15.2845
 193   2.0000      -0.558592       -15.2001
 194   2.0000      -0.557253       -15.1636
 195   2.0000      -0.555882       -15.1263
 196   2.0000      -0.550380       -14.9766
 197   2.0000      -0.548938       -14.9373
 198   2.0000      -0.548770       -14.9328
 199   2.0000      -0.547440       -14.8966
 200   2.0000      -0.545236       -14.8366
 201   2.0000      -0.544319       -14.8117
 202   2.0000      -0.544072       -14.8050
 203   2.0000      -0.539371       -14.6770
 204   2.0000      -0.535670       -14.5763
 205   2.0000      -0.534134       -14.5345
 206   2.0000      -0.529992       -14.4218
 207   2.0000      -0.527152       -14.3445
 208   2.0000      -0.525567       -14.3014
 209   2.0000      -0.520644       -14.1674
 210   2.0000      -0.519057       -14.1243
 211   2.0000      -0.518189       -14.1006
 212   2.0000      -0.516979       -14.0677
 213   2.0000      -0.516563       -14.0564
 214   2.0000      -0.513227       -13.9656
 215   2.0000      -0.511141       -13.9088
 216   2.0000      -0.509697       -13.8695
 217   2.0000      -0.509390       -13.8612
 218   2.0000      -0.506154       -13.7732
 219   2.0000      -0.501796       -13.6546
 220   2.0000      -0.500250       -13.6125
 221   2.0000      -0.497137       -13.5278
 222   2.0000      -0.495580       -13.4854
 223   2.0000      -0.493059       -13.4168
 224   2.0000      -0.488964       -13.3054
 225   2.0000      -0.487787       -13.2734
 226   2.0000      -0.486717       -13.2443
 227   2.0000      -0.480774       -13.0825
 228   2.0000      -0.472816       -12.8660
 229   2.0000      -0.472731       -12.8637
 230   2.0000      -0.471533       -12.8311
 231   2.0000      -0.468326       -12.7438
 232   2.0000      -0.467554       -12.7228
 233   2.0000      -0.466897       -12.7049
 234   2.0000      -0.466355       -12.6902
 235   2.0000      -0.465038       -12.6543
 236   2.0000      -0.463293       -12.6069
 237   2.0000      -0.461313       -12.5530
 238   2.0000      -0.459288       -12.4979
 239   2.0000      -0.458078       -12.4649
 240   2.0000      -0.457169       -12.4402
 241   2.0000      -0.455112       -12.3842
 242   2.0000      -0.453648       -12.3444
 243   2.0000      -0.452435       -12.3114
 244   2.0000      -0.450235       -12.2515
 245   2.0000      -0.449378       -12.2282
 246   2.0000      -0.448968       -12.2170
 247   2.0000      -0.448579       -12.2065
 248   2.0000      -0.448215       -12.1965
 249   2.0000      -0.446731       -12.1562
 250   2.0000      -0.443938       -12.0802
 251   2.0000      -0.443348       -12.0641
 252   2.0000      -0.441759       -12.0209
 253   2.0000      -0.437535       -11.9059
 254   2.0000      -0.436761       -11.8849
 255   2.0000      -0.435953       -11.8629
 256   2.0000      -0.434898       -11.8342
 257   2.0000      -0.432803       -11.7772
 258   2.0000      -0.431201       -11.7336
 259   2.0000      -0.430509       -11.7147
 260   2.0000      -0.428393       -11.6572
 261   2.0000      -0.427612       -11.6359
 262   2.0000      -0.419078       -11.4037
 263   2.0000      -0.417070       -11.3490
 264   2.0000      -0.414659       -11.2835
 265   2.0000      -0.411753       -11.2044
 266   2.0000      -0.408902       -11.1268
 267   2.0000      -0.407406       -11.0861
 268   2.0000      -0.392564       -10.6822
 269   2.0000      -0.390645       -10.6300
 270   2.0000      -0.381555       -10.3826
 271   2.0000      -0.373072       -10.1518
 272   2.0000      -0.363250        -9.8845
 273   2.0000      -0.361217        -9.8292
 274   2.0000      -0.353007        -9.6058
 275   2.0000      -0.347308        -9.4507
 276   2.0000      -0.343172        -9.3382
 277   2.0000      -0.335936        -9.1413
 278   2.0000      -0.331610        -9.0236
 279   2.0000      -0.327316        -8.9067
 280   2.0000      -0.322830        -8.7846
 281   2.0000      -0.322189        -8.7672
 282   2.0000      -0.320858        -8.7310
 283   2.0000      -0.306724        -8.3464
 284   2.0000      -0.304436        -8.2841
 285   2.0000      -0.286681        -7.8010
 286   2.0000      -0.269192        -7.3251
 287   0.0000      -0.126157        -3.4329
 288   0.0000      -0.118442        -3.2230
 289   0.0000      -0.098434        -2.6785
 290   0.0000      -0.096273        -2.6197
 291   0.0000      -0.071798        -1.9537

MULLIKEN ATOMIC CHARGES
-----------------------
   0 C :   -0.109445
   1 C :    0.243588
   2 F :   -0.170058
   3 C :    0.240211
   4 F :   -0.170702
   5 C :   -0.105166
   6 C :    0.117030
   7 C :    0.115378
   8 C :   -0.086313
   9 C :    0.053387
  10 C :   -0.006078
  11 C :   -0.081145
  12 C :    0.156680
  13 O :   -0.146234
  14 C :   -0.091471
  15 C :    0.310374
  16 C :   -0.351364
  17 C :   -0.200838
  18 N :    0.157822
  19 C :   -0.180466
  20 N :    0.148149
  21 C :    0.034024
  22 C :   -0.111618
  23 C :    0.009340
  24 C :   -0.007973
  25 C :   -0.085761
  26 S :    0.211263
  27 C :   -0.097983
  28 C :    0.021368
  29 C :    0.302718
  30 C :   -0.289263
  31 C :   -0.196661
  32 N :    0.187785
  33 C :   -0.190766
  34 N :    0.193240
  35 C :   -0.047512
  36 C :   -0.041167
  37 S :    0.245659
  38 C :   -0.058926
  39 N :   -0.037798
  40 C :    0.007034
  41 C :    0.011771
  42 N :   -0.038244
  43 N :   -0.030629
  44 C :   -0.042046
  45 C :   -0.050977
  46 C :    0.037302
  47 C :   -0.098390
  48 S :    0.187292
  49 C :   -0.071628
  50 C :   -0.002209
  51 C :    0.299631
  52 C :   -0.279990
  53 C :   -0.183391
  54 N :    0.173163
  55 C :   -0.194044
  56 N :    0.193812
  57 C :   -0.000214
  58 C :   -0.108740
  59 S :    0.217462
  60 C :    0.086126
  61 C :   -0.138096
  62 C :    0.136235
  63 O :   -0.139361
  64 C :    0.017945
  65 C :   -0.082084
  66 C :    0.112264
  67 C :    0.110113
  68 C :   -0.104102
  69 C :    0.241921
  70 C :    0.240213
  71 C :   -0.103765
  72 F :   -0.170361
  73 F :   -0.169172
  74 C :   -0.076717
  75 C :    0.030346
  76 C :    0.266497
  77 C :   -0.325671
  78 C :   -0.200115
  79 N :    0.169645
  80 C :   -0.169248
  81 N :    0.161130
  82 H :    0.007755
  83 H :    0.002498
  84 H :   -0.004488
  85 H :   -0.004939
  86 H :    0.017778
  87 H :    0.038315
  88 H :    0.031849
  89 H :    0.024545
  90 H :    0.032481
  91 H :    0.026161
  92 H :    0.021932
  93 H :   -0.008736
  94 H :    0.007642
  95 H :    0.000052
  96 H :    0.003135
Sum of atomic charges:    0.0000000

LOEWDIN ATOMIC CHARGES
----------------------
   0 C :   -0.029414
   1 C :    0.067344
   2 F :   -0.047864
   3 C :    0.068385
   4 F :   -0.048091
   5 C :   -0.032274
   6 C :   -0.008132
   7 C :   -0.006222
   8 C :    0.017955
   9 C :   -0.024003
  10 C :   -0.052677
  11 C :    0.032504
  12 C :    0.085613
  13 O :   -0.134301
  14 C :   -0.094090
  15 C :    0.075840
  16 C :   -0.140369
  17 C :   -0.025070
  18 N :   -0.051720
  19 C :   -0.017426
  20 N :   -0.051807
  21 C :    0.044191
  22 C :   -0.174348
  23 C :    0.020433
  24 C :   -0.069105
  25 C :   -0.162407
  26 S :    0.499442
  27 C :   -0.181804
  28 C :   -0.058336
  29 C :    0.072250
  30 C :   -0.088935
  31 C :   -0.019573
  32 N :   -0.019656
  33 C :   -0.021323
  34 N :   -0.015180
  35 C :    0.003611
  36 C :   -0.183981
  37 S :    0.517473
  38 C :   -0.014826
  39 N :   -0.064485
  40 C :    0.033464
  41 C :   -0.052405
  42 N :   -0.008842
  43 N :   -0.040910
  44 C :   -0.178377
  45 C :    0.003526
  46 C :   -0.057546
  47 C :   -0.175589
  48 S :    0.482732
  49 C :   -0.164245
  50 C :   -0.060968
  51 C :    0.078052
  52 C :   -0.088901
  53 C :   -0.011455
  54 N :   -0.028679
  55 C :   -0.021224
  56 N :   -0.014991
  57 C :    0.009713
  58 C :   -0.177904
  59 S :    0.501699
  60 C :    0.042470
  61 C :   -0.088286
  62 C :    0.083568
  63 O :   -0.140629
  64 C :   -0.055572
  65 C :    0.032034
  66 C :   -0.009179
  67 C :   -0.004867
  68 C :   -0.028575
  69 C :    0.067981
  70 C :    0.067849
  71 C :   -0.032625
  72 F :   -0.048096
  73 F :   -0.046932
  74 C :    0.018053
  75 C :   -0.020366
  76 C :    0.064653
  77 C :   -0.133378
  78 C :   -0.015428
  79 N :   -0.044455
  80 C :   -0.018692
  81 N :   -0.042136
  82 H :    0.047832
  83 H :    0.045909
  84 H :    0.040196
  85 H :    0.042190
  86 H :    0.043648
  87 H :    0.044598
  88 H :    0.050705
  89 H :    0.026141
  90 H :    0.050889
  91 H :    0.042904
  92 H :    0.046377
  93 H :    0.041035
  94 H :    0.048374
  95 H :    0.045087
  96 H :    0.041950

  Mayer bond orders larger than 0.100000
B(  0-C ,  1-C ) :   1.4409 B(  0-C ,  5-C ) :   0.1084 B(  0-C ,  7-C ) :   1.1874
B(  0-C , 82-H ) :   1.0069 B(  1-C ,  2-F ) :   1.1360 B(  1-C ,  3-C ) :   1.1906
B(  3-C ,  4-F ) :   1.1334 B(  3-C ,  5-C ) :   1.4422 B(  5-C ,  6-C ) :   1.1934
B(  5-C , 83-H ) :   1.0070 B(  6-C ,  7-C ) :   1.2559 B(  6-C , 11-C ) :   1.1857
B(  7-C ,  8-C ) :   1.2193 B(  8-C ,  9-C ) :   1.4457 B(  8-C , 84-H ) :   0.9898
B(  9-C , 10-C ) :   1.2216 B(  9-C , 15-C ) :   0.9848 B( 10-C , 11-C ) :   1.4721
B( 10-C , 12-C ) :   0.9463 B( 11-C , 85-H ) :   1.0169 B( 12-C , 13-O ) :   2.1883
B( 12-C , 14-C ) :   0.9392 B( 14-C , 15-C ) :   1.0784 B( 14-C , 21-C ) :   1.5936
B( 15-C , 16-C ) :   1.6272 B( 16-C , 17-C ) :   1.1395 B( 16-C , 19-C ) :   1.1480
B( 17-C , 18-N ) :   2.9852 B( 19-C , 20-N ) :   2.9633 B( 21-C , 22-C ) :   1.2067
B( 21-C , 86-H ) :   0.9183 B( 22-C , 23-C ) :   1.3989 B( 22-C , 26-S ) :   1.0803
B( 23-C , 24-C ) :   1.3228 B( 23-C , 87-H ) :   0.9732 B( 24-C , 25-C ) :   1.3897
B( 24-C , 29-C ) :   0.9947 B( 25-C , 26-S ) :   1.1650 B( 25-C , 27-C ) :   1.2026
B( 27-C , 28-C ) :   1.4242 B( 27-C , 37-S ) :   1.1257 B( 28-C , 29-C ) :   0.9945
B( 28-C , 35-C ) :   1.2652 B( 29-C , 30-C ) :   1.7237 B( 30-C , 31-C ) :   1.1339
B( 30-C , 33-C ) :   1.1346 B( 31-C , 32-N ) :   2.9991 B( 33-C , 34-N ) :   2.9944
B( 35-C , 36-C ) :   1.4728 B( 35-C , 88-H ) :   1.0092 B( 36-C , 37-S ) :   1.1149
B( 36-C , 38-C ) :   1.0526 B( 38-C , 39-N ) :   1.5172 B( 38-C , 43-N ) :   1.5834
B( 39-N , 40-C ) :   1.6285 B( 40-C , 41-C ) :   1.2475 B( 40-C , 89-H ) :   0.9720
B( 41-C , 42-N ) :   1.5459 B( 41-C , 44-C ) :   1.0816 B( 42-N , 43-N ) :   1.3596
B( 44-C , 45-C ) :   1.4732 B( 44-C , 48-S ) :   1.1110 B( 45-C , 46-C ) :   1.2480
B( 45-C , 90-H ) :   1.0137 B( 46-C , 47-C ) :   1.4342 B( 46-C , 51-C ) :   0.9881
B( 47-C , 48-S ) :   1.1316 B( 47-C , 49-C ) :   1.1933 B( 49-C , 50-C ) :   1.4166
B( 49-C , 59-S ) :   1.1509 B( 50-C , 51-C ) :   1.0003 B( 50-C , 57-C ) :   1.3565
B( 51-C , 52-C ) :   1.7262 B( 52-C , 53-C ) :   1.1335 B( 52-C , 55-C ) :   1.1318
B( 53-C , 54-N ) :   2.9804 B( 55-C , 56-N ) :   3.0020 B( 57-C , 58-C ) :   1.3966
B( 57-C , 91-H ) :   0.9780 B( 58-C , 59-S ) :   1.0942 B( 58-C , 60-C ) :   1.1344
B( 60-C , 61-C ) :   1.6760 B( 60-C , 92-H ) :   0.9267 B( 61-C , 62-C ) :   0.9409
B( 61-C , 76-C ) :   1.0340 B( 62-C , 63-O ) :   2.2700 B( 62-C , 64-C ) :   0.9174
B( 64-C , 65-C ) :   1.4725 B( 64-C , 75-C ) :   1.2230 B( 65-C , 66-C ) :   1.1941
B( 65-C , 93-H ) :   1.0163 B( 66-C , 67-C ) :   1.2571 B( 66-C , 71-C ) :   1.1926
B( 67-C , 68-C ) :   1.1887 B( 67-C , 74-C ) :   1.2170 B( 68-C , 69-C ) :   1.4419
B( 68-C , 71-C ) :   0.1088 B( 68-C , 94-H ) :   1.0068 B( 69-C , 70-C ) :   1.1920
B( 69-C , 73-F ) :   1.1364 B( 70-C , 71-C ) :   1.4434 B( 70-C , 72-F ) :   1.1346
B( 71-C , 95-H ) :   1.0066 B( 74-C , 75-C ) :   1.4573 B( 74-C , 96-H ) :   0.9941
B( 75-C , 76-C ) :   0.9954 B( 76-C , 77-C ) :   1.6543 B( 77-C , 78-C ) :   1.1714
B( 77-C , 80-C ) :   1.1268 B( 78-C , 79-N ) :   2.9949 B( 80-C , 81-N ) :   2.9920

-----------------------------------------------------------------------------
         ABSORPTION SPECTRUM VIA TRANSITION ELECTRIC DIPOLE MOMENTS
-----------------------------------------------------------------------------
State   Energy  Wavelength   fosc         T2         TX        TY        TZ
        (cm-1)    (nm)                  (au**2)     (au)      (au)      (au)
-----------------------------------------------------------------------------
   0   14591.3    685.3   0.755855110  17.05373   0.73358   3.96651   0.88454
   1   15766.0    634.3   0.226136452   4.72198   0.32140   2.14192   0.17570
   2   20600.0    485.4   1.829872971  29.24344  -0.74769  -5.27766  -0.91145
   3   22016.2    454.2   0.321223604   4.80331  -0.45883  -2.14029   0.10929
   4   23484.9    425.8   0.008227092   0.11533  -0.16929  -0.29326   0.02586
   5   23735.6    421.3   0.011757117   0.16307  -0.00397  -0.40207  -0.03738
   6   24846.1    402.5   0.057215071   0.75810  -0.49127  -0.07351  -0.71509
   7   25686.4    389.3   0.014048567   0.18006  -0.32419  -0.19268   0.19450
   8   26221.8    381.4   0.015955015   0.20031  -0.12872  -0.40660  -0.13573
   9   26652.2    375.2   0.011396951   0.14078  -0.35251   0.12137   0.04223
  10   27527.5    363.3   0.085164081   1.01851   0.42451   0.83293   0.38018
  11   27741.2    360.5   0.251205877   2.98113  -0.47707  -1.54010  -0.61775
  12   28160.2    355.1   0.319596044   3.73629   0.72475   1.51353   0.95929
  13   28357.8    352.6   0.002503475   0.02906  -0.13241  -0.07357  -0.07821
  14   28662.5    348.9   0.098189920   1.12779   0.50542   0.68095   0.63926
  15   28859.6    346.5   0.019047411   0.21728  -0.05195  -0.41359  -0.20864
  16   29252.5    341.9   0.001276990   0.01437   0.00731  -0.10025  -0.06532
  17   29365.1    340.5   0.102866481   1.15324  -0.43925  -0.31431  -0.92817
  18   29862.9    334.9   0.222709274   2.45517  -0.34014  -0.03483   1.52914
  19   29981.0    333.5   0.173287475   1.90281   0.52972   0.74278  -1.03464
  20   30728.3    325.4   0.071205356   0.76287  -0.62916  -0.36217   0.48566
  21   30992.0    322.7   0.278540001   2.95878  -0.65833  -1.25196  -0.97876
  22   31264.3    319.9   0.323797829   3.40958   0.41784   0.23851   1.78273
  23   31584.1    316.6   0.116425840   1.21355   0.41478   0.78651  -0.65032
  24   31688.4    315.6   0.211488300   2.19716   0.59409   1.06772   0.83916
  25   31743.2    315.0   0.044621765   0.46278   0.03657  -0.36537  -0.57267
  26   31829.9    314.2   0.007323954   0.07575  -0.12981  -0.17390  -0.16929
  27   32329.2    309.3   0.246925634   2.51447  -0.52658  -1.40625   0.50956
  28   32586.9    306.9   0.036447835   0.36822   0.14499  -0.57377  -0.13411
  29   33040.6    302.7   0.078885772   0.78601   0.04807   0.86696   0.17911
  30   33139.6    301.8   0.304112684   3.02108   0.55529   1.61638   0.31629
  31   33480.1    298.7   0.099905997   0.98238  -0.16853  -0.68634   0.69492
  32   33949.3    294.6   0.003278233   0.03179   0.12895   0.04068   0.11622
  33   34217.6    292.2   0.034880172   0.33559   0.32510   0.05491  -0.47632
  34   34447.1    290.3   0.272667893   2.60590   1.15336   1.12501   0.10008
  35   34594.5    289.1   0.006383671   0.06075  -0.14273  -0.19194   0.05947
  36   34785.1    287.5   0.344284731   3.25837   0.14637   0.20513   1.78742
  37   34824.3    287.2   0.044901782   0.42448  -0.09487  -0.50429   0.40146
  38   35048.4    285.3   0.108485977   1.01902   0.18441   0.19458   0.97322
  39   35294.3    283.3   0.176807057   1.64919  -0.86070  -0.60719  -0.73465
  40   35364.9    282.8   0.516406389   4.80723  -0.76278  -0.54672  -1.98154
  41   35466.2    282.0   0.240034094   2.22810  -0.91393  -1.15495   0.24275
  42   35838.5    279.0   0.092897695   0.85336  -0.15966  -0.00904  -0.90983
  43   36400.2    274.7   0.085704804   0.77513   0.61039   0.62259  -0.12222
  44   36776.6    271.9   0.013045336   0.11678  -0.04822  -0.18944   0.28029
  45   37014.1    270.2   0.007960334   0.07080  -0.07778   0.09455  -0.23625
  46   37575.3    266.1   0.040320926   0.35327   0.12013  -0.20702   0.54404
  47   37728.9    265.0   0.007527610   0.06568   0.05472   0.20327   0.14619
  48   37904.1    263.8   0.000919529   0.00799   0.02242   0.08647  -0.00268
  49   38097.7    262.5   0.020642122   0.17837   0.06088   0.17289   0.38050
  50   38288.4    261.2   0.002664152   0.02291  -0.13174   0.00351   0.07442
  51   38471.1    259.9   0.027623291   0.23638  -0.33910  -0.27804  -0.20997
  52   38592.5    259.1   0.117452377   1.00192   0.15144  -0.55112   0.82174
  53   38718.3    258.3   0.006804271   0.05786  -0.04753   0.21372   0.09960
  54   39187.2    255.2   0.143135841   1.20249   0.29866  -0.59655   0.87030
  55   39352.1    254.1   0.072465830   0.60623  -0.02848   0.72071  -0.29327
  56   39410.1    253.7   0.014659701   0.12246   0.08634   0.32622   0.09264
  57   39720.9    251.8   0.050598239   0.41937  -0.22063  -0.59807   0.11403
  58   39790.8    251.3   0.111600901   0.92334  -0.21618   0.66703  -0.65702
  59   39966.6    250.2   0.089779940   0.73953   0.04435  -0.85221   0.10632

FINAL SINGLE POINT ENERGY     -5073.352765713435

DIPOLE MOMENT
-------------
                                X             Y             Z
Electronic contribution:      0.58805       0.17018       3.70329
Nuclear contribution   :     -0.73116      -0.68872      -6.74168
                        -----------------------------------------
Total Dipole Moment    :     -0.14311      -0.51853      -3.03839
                        -----------------------------------------
Magnitude (a.u.)       :      3.08564
Magnitude (Debye)      :      7.84306

Rotational constants in cm-1:     0.003021     0.000117     0.000114
Rotational constants in MHz :    90.576787     3.500142     3.408378

                             ****ORCA TERMINATED NORMALLY****
TOTAL RUN TIME: 0 days 0 hours 10 minutes 54 seconds 963 msec
