                         Program Version 4.2.0 -  RELEASE  -
|  1> # ORCA input file
|  2> # SCF done       -205.718718822129          0.000396943505
|  3> ! CAM-B3LYP def2-SVP def2/J RIJCOSX Grid4 TightSCF
|  4> %maxcore 5000
|  5> %tddft
|  6>     Mode sTDDFT
|  7>     Ethresh 5.0
|  8>     maxcore 5000
|  9> end
| 10>
| 11> %pal
| 12>   nprocs 6
| 13>   end
| 14> * xyz 0 1
| 15>    C        0.63291         0.03850         1.49508
| 16>    O        0.57348        -0.63746         2.49867
| 17>    C        1.09166         1.44237         1.43742
| 18>    C        1.01276         1.91632         0.11814
| 19>    C        1.39265         3.21938        -0.16108
| 20>    C        1.84454         4.01980         0.88206
| 21>    C        1.92066         3.53612         2.19013
| 22>    C        1.53945         2.23181         2.47576
| 23>   Br        2.54126         4.64786         3.58589
| 24>   Br        2.36197         5.79739         0.49892
| 25>    C        0.50929         0.84299        -0.73770
| 26>    C        0.34155         0.94601        -2.09425
| 27>    C        0.61599         2.11602        -2.83647
| 28>    N        0.81551         3.03068        -3.50005
| 29>    C       -0.11002        -0.06722        -2.96728
| 30>    N       -0.46110        -0.82550        -3.75547
| 31>    C        0.26042        -0.31482         0.10703
| 32>    C       -0.26924        -1.49247        -0.35647
| 33>    C       -0.54287        -2.71410         0.28140
| 34>    C       -0.32601        -3.18579         1.57398
| 35>    C       -0.75357        -4.49284         1.73339
| 36>    C       -1.31333        -5.04799         0.55340
| 37>    S       -1.29805        -3.95194        -0.74304
| 38>    C       -1.72367        -6.37013         0.82273
| 39>    C       -1.42622        -6.66028         2.17288
| 40>    C       -0.80382        -5.49600         2.78429
| 41>    C       -0.35789        -5.38927         4.06788
| 42>    C       -0.47312        -6.45451         4.98802
| 43>    N       -0.56206        -7.31288         5.74277
| 44>    C        0.25964        -4.22692         4.58068
| 45>    N        0.77272        -3.30511         5.02778
| 46>    C       -1.79279        -7.94434         2.54227
| 47>    C       -2.36961        -8.64860         1.49004
| 48>    S       -2.45376        -7.69086         0.01751
| 49>    C       -2.86340        -9.98079         1.49115
| 50>    C       -2.85542       -10.83997         2.62571
| 51>    C       -3.36910       -12.18012         2.57344
| 52>    N       -3.32921       -12.94518         3.68319
| 53>    C       -2.83222       -12.45768         4.78384
| 54>    C       -2.33205       -11.14129         4.83633
| 55>    N       -2.34879       -10.37309         3.78493
| 56>    C       -3.92058       -12.73400         1.38392
| 57>    C       -3.92143       -11.87856         0.26417
| 58>    C       -3.40824       -10.53723         0.31685
| 59>    N       -3.51890        -9.92183        -0.86297
| 60>    S       -4.19357       -10.91881        -1.92254
| 61>    N       -4.38269       -12.18116        -0.95180
| 62>    C       -4.44918       -14.04841         1.28122
| 63>    C       -4.55003       -15.01575         2.27588
| 64>    C       -5.12382       -16.18692         1.80838
| 65>    C       -5.47059       -16.12466         0.43969
| 66>    S       -5.08529       -14.61350        -0.25892
| 67>    C       -6.05010       -17.35958         0.07191
| 68>    C       -6.06731       -18.20451         1.20626
| 69>    C       -5.49648       -17.48957         2.33327
| 70>    C       -5.37845       -17.94179         3.61479
| 71>    C       -5.82424       -19.23087         3.97618
| 72>    N       -6.19284       -20.28303         4.24467
| 73>    C       -4.81435       -17.15828         4.64368
| 74>    N       -4.34937       -16.52758         5.48038
| 75>    C       -6.64463       -19.43791         0.95525
| 76>    C       -7.08162       -19.55818        -0.35926
| 77>    S       -6.72612       -18.10950        -1.29781
| 78>    C       -7.68989       -20.66178        -0.98723
| 79>    C       -8.29394       -21.74387        -0.41385
| 80>    C       -8.46198       -22.97922        -1.22677
| 81>    O       -8.31511       -23.08801        -2.42076
| 82>    C       -8.78862       -24.04001        -0.24905
| 83>    C       -8.93586       -23.46973         1.02873
| 84>    C       -8.78146       -22.01883         0.92054
| 85>    C       -9.27319       -21.11657         1.82710
| 86>    C       -9.33630       -19.72752         1.60060
| 87>    N       -9.43238       -18.59386         1.44793
| 88>    C       -9.86775       -21.48088         3.05452
| 89>    N      -10.36505       -21.72689         4.05822
| 90>    C       -9.19925       -24.27843         2.12034
| 91>    C       -9.32579       -25.64820         1.91581
| 92>    C       -9.19847       -26.20488         0.64100
| 93>    C       -8.92373       -25.39712        -0.45547
| 94>   Br       -9.38929       -28.06790         0.39049
| 95>   Br       -9.67197       -26.75934         3.40409
| 96>    H        1.34875         3.63276        -1.15524
| 97>    H        1.59097         1.84127         3.48033
| 98>    H       -0.53329        -1.50485        -1.40720
| 99>    H        0.11975        -2.57722         2.34071
|100>    H       -1.66712        -8.38675         3.51262
|101>    H       -2.82519       -13.11363         5.64299
|102>    H       -1.91568       -10.71597         5.73863
|103>    H       -4.20940       -14.83223         3.27776
|104>    H       -6.70927       -20.23903         1.66859
|105>    H       -7.61371       -20.70471        -2.06944
|106>    H       -9.29467       -23.88112         3.11815
|107>    H       -8.81805       -25.81886        -1.44290
|108> *
|109>
|110>                          ****END OF INPUT****

CARTESIAN COORDINATES (ANGSTROEM)
---------------------------------
  C      0.632910    0.038500    1.495080
  O      0.573480   -0.637460    2.498670
  C      1.091660    1.442370    1.437420
  C      1.012760    1.916320    0.118140
  C      1.392650    3.219380   -0.161080
  C      1.844540    4.019800    0.882060
  C      1.920660    3.536120    2.190130
  C      1.539450    2.231810    2.475760
  Br     2.541260    4.647860    3.585890
  Br     2.361970    5.797390    0.498920
  C      0.509290    0.842990   -0.737700
  C      0.341550    0.946010   -2.094250
  C      0.615990    2.116020   -2.836470
  N      0.815510    3.030680   -3.500050
  C     -0.110020   -0.067220   -2.967280
  N     -0.461100   -0.825500   -3.755470
  C      0.260420   -0.314820    0.107030
  C     -0.269240   -1.492470   -0.356470
  C     -0.542870   -2.714100    0.281400
  C     -0.326010   -3.185790    1.573980
  C     -0.753570   -4.492840    1.733390
  C     -1.313330   -5.047990    0.553400
  S     -1.298050   -3.951940   -0.743040
  C     -1.723670   -6.370130    0.822730
  C     -1.426220   -6.660280    2.172880
  C     -0.803820   -5.496000    2.784290
  C     -0.357890   -5.389270    4.067880
  C     -0.473120   -6.454510    4.988020
  N     -0.562060   -7.312880    5.742770
  C      0.259640   -4.226920    4.580680
  N      0.772720   -3.305110    5.027780
  C     -1.792790   -7.944340    2.542270
  C     -2.369610   -8.648600    1.490040
  S     -2.453760   -7.690860    0.017510
  C     -2.863400   -9.980790    1.491150
  C     -2.855420  -10.839970    2.625710
  C     -3.369100  -12.180120    2.573440
  N     -3.329210  -12.945180    3.683190
  C     -2.832220  -12.457680    4.783840
  C     -2.332050  -11.141290    4.836330
  N     -2.348790  -10.373090    3.784930
  C     -3.920580  -12.734000    1.383920
  C     -3.921430  -11.878560    0.264170
  C     -3.408240  -10.537230    0.316850
  N     -3.518900   -9.921830   -0.862970
  S     -4.193570  -10.918810   -1.922540
  N     -4.382690  -12.181160   -0.951800
  C     -4.449180  -14.048410    1.281220
  C     -4.550030  -15.015750    2.275880
  C     -5.123820  -16.186920    1.808380
  C     -5.470590  -16.124660    0.439690
  S     -5.085290  -14.613500   -0.258920
  C     -6.050100  -17.359580    0.071910
  C     -6.067310  -18.204510    1.206260
  C     -5.496480  -17.489570    2.333270
  C     -5.378450  -17.941790    3.614790
  C     -5.824240  -19.230870    3.976180
  N     -6.192840  -20.283030    4.244670
  C     -4.814350  -17.158280    4.643680
  N     -4.349370  -16.527580    5.480380
  C     -6.644630  -19.437910    0.955250
  C     -7.081620  -19.558180   -0.359260
  S     -6.726120  -18.109500   -1.297810
  C     -7.689890  -20.661780   -0.987230
  C     -8.293940  -21.743870   -0.413850
  C     -8.461980  -22.979220   -1.226770
  O     -8.315110  -23.088010   -2.420760
  C     -8.788620  -24.040010   -0.249050
  C     -8.935860  -23.469730    1.028730
  C     -8.781460  -22.018830    0.920540
  C     -9.273190  -21.116570    1.827100
  C     -9.336300  -19.727520    1.600600
  N     -9.432380  -18.593860    1.447930
  C     -9.867750  -21.480880    3.054520
  N    -10.365050  -21.726890    4.058220
  C     -9.199250  -24.278430    2.120340
  C     -9.325790  -25.648200    1.915810
  C     -9.198470  -26.204880    0.641000
  C     -8.923730  -25.397120   -0.455470
  Br    -9.389290  -28.067900    0.390490
  Br    -9.671970  -26.759340    3.404090
  H      1.348750    3.632760   -1.155240
  H      1.590970    1.841270    3.480330
  H     -0.533290   -1.504850   -1.407200
  H      0.119750   -2.577220    2.340710
  H     -1.667120   -8.386750    3.512620
  H     -2.825190  -13.113630    5.642990
  H     -1.915680  -10.715970    5.738630
  H     -4.209400  -14.832230    3.277760
  H     -6.709270  -20.239030    1.668590
  H     -7.613710  -20.704710   -2.069440
  H     -9.294670  -23.881120    3.118150
  H     -8.818050  -25.818860   -1.442900

 Total Charge           Charge          ....    0
 Multiplicity           Mult            ....    1
 Number of Electrons    NEL             ....  680
 Basis Dimension        Dim             .... 1286

ORBITAL ENERGIES
----------------

  NO   OCC          E(Eh)            E(eV)
   0   2.0000    -482.878220    -13139.7844
   1   2.0000    -482.876868    -13139.7476
   2   2.0000    -482.876540    -13139.7387
   3   2.0000    -482.875552    -13139.7118
   4   2.0000     -89.064316     -2423.5633
   5   2.0000     -89.002578     -2421.8833
   6   2.0000     -89.000352     -2421.8227
   7   2.0000     -88.994525     -2421.6641
   8   2.0000     -88.993881     -2421.6466
   9   2.0000     -62.555832     -1702.2307
  10   2.0000     -62.554499     -1702.1945
  11   2.0000     -62.554176     -1702.1857
  12   2.0000     -62.553158     -1702.1580
  13   2.0000     -56.389781     -1534.4439
  14   2.0000     -56.388450     -1534.4077
  15   2.0000     -56.388139     -1534.3993
  16   2.0000     -56.387126     -1534.3717
  17   2.0000     -56.387118     -1534.3715
  18   2.0000     -56.387036     -1534.3693
  19   2.0000     -56.385797     -1534.3355
  20   2.0000     -56.385692     -1534.3327
  21   2.0000     -56.385464     -1534.3265
  22   2.0000     -56.385366     -1534.3238
  23   2.0000     -56.384449     -1534.2989
  24   2.0000     -56.384353     -1534.2962
  25   2.0000     -19.227755      -523.2138
  26   2.0000     -19.225559      -523.1540
  27   2.0000     -14.472540      -393.8178
  28   2.0000     -14.471871      -393.7996
  29   2.0000     -14.449606      -393.1938
  30   2.0000     -14.449253      -393.1842
  31   2.0000     -14.437382      -392.8611
  32   2.0000     -14.436510      -392.8374
  33   2.0000     -14.435572      -392.8119
  34   2.0000     -14.431256      -392.6944
  35   2.0000     -14.425782      -392.5455
  36   2.0000     -14.425750      -392.5446
  37   2.0000     -14.420179      -392.3930
  38   2.0000     -14.419965      -392.3872
  39   2.0000     -10.378604      -282.4162
  40   2.0000     -10.377005      -282.3727
  41   2.0000     -10.371370      -282.2193
  42   2.0000     -10.370288      -282.1899
  43   2.0000     -10.358738      -281.8756
  44   2.0000     -10.357083      -281.8305
  45   2.0000     -10.356251      -281.8079
  46   2.0000     -10.355985      -281.8007
  47   2.0000     -10.355760      -281.7946
  48   2.0000     -10.355180      -281.7788
  49   2.0000     -10.354257      -281.7536
  50   2.0000     -10.353887      -281.7436
  51   2.0000     -10.353420      -281.7309
  52   2.0000     -10.352290      -281.7001
  53   2.0000     -10.352061      -281.6939
  54   2.0000     -10.351850      -281.6882
  55   2.0000     -10.351549      -281.6800
  56   2.0000     -10.350840      -281.6607
  57   2.0000     -10.350258      -281.6448
  58   2.0000     -10.350080      -281.6400
  59   2.0000     -10.345122      -281.5051
  60   2.0000     -10.344748      -281.4949
  61   2.0000     -10.337749      -281.3044
  62   2.0000     -10.336783      -281.2782
  63   2.0000     -10.336753      -281.2774
  64   2.0000     -10.335885      -281.2537
  65   2.0000     -10.335800      -281.2514
  66   2.0000     -10.335674      -281.2480
  67   2.0000     -10.334956      -281.2285
  68   2.0000     -10.334261      -281.2095
  69   2.0000     -10.333895      -281.1996
  70   2.0000     -10.333826      -281.1977
  71   2.0000     -10.333288      -281.1830
  72   2.0000     -10.331795      -281.1424
  73   2.0000     -10.330355      -281.1033
  74   2.0000     -10.330072      -281.0955
  75   2.0000     -10.328454      -281.0515
  76   2.0000     -10.326659      -281.0027
  77   2.0000     -10.322797      -280.8976
  78   2.0000     -10.322079      -280.8780
  79   2.0000     -10.320840      -280.8443
  80   2.0000     -10.319647      -280.8119
  81   2.0000     -10.318708      -280.7863
  82   2.0000     -10.314303      -280.6664
  83   2.0000     -10.314217      -280.6641
  84   2.0000     -10.313420      -280.6424
  85   2.0000     -10.313332      -280.6400
  86   2.0000     -10.311935      -280.6020
  87   2.0000     -10.311627      -280.5936
  88   2.0000     -10.311376      -280.5868
  89   2.0000     -10.311210      -280.5823
  90   2.0000     -10.310468      -280.5621
  91   2.0000     -10.308332      -280.5040
  92   2.0000     -10.308317      -280.5036
  93   2.0000     -10.306567      -280.4559
  94   2.0000     -10.303893      -280.3832
  95   2.0000     -10.301982      -280.3312
  96   2.0000     -10.300676      -280.2956
  97   2.0000      -8.785158      -239.0563
  98   2.0000      -8.783844      -239.0206
  99   2.0000      -8.783515      -239.0116
 100   2.0000      -8.782478      -238.9834
 101   2.0000      -8.155046      -221.9101
 102   2.0000      -8.097224      -220.3367
 103   2.0000      -8.094990      -220.2759
 104   2.0000      -8.087631      -220.0756
 105   2.0000      -8.087041      -220.0596
 106   2.0000      -6.621283      -180.1743
 107   2.0000      -6.619989      -180.1391
 108   2.0000      -6.619704      -180.1313
 109   2.0000      -6.618621      -180.1018
 110   2.0000      -6.607275      -179.7931
 111   2.0000      -6.606507      -179.7722
 112   2.0000      -6.605971      -179.7576
 113   2.0000      -6.605615      -179.7479
 114   2.0000      -6.605166      -179.7357
 115   2.0000      -6.604813      -179.7261
 116   2.0000      -6.604587      -179.7200
 117   2.0000      -6.603811      -179.6988
 118   2.0000      -6.126096      -166.6995
 119   2.0000      -6.118460      -166.4918
 120   2.0000      -6.117830      -166.4746
 121   2.0000      -6.066348      -165.0737
 122   2.0000      -6.064075      -165.0119
 123   2.0000      -6.062242      -164.9620
 124   2.0000      -6.059953      -164.8997
 125   2.0000      -6.059737      -164.8938
 126   2.0000      -6.057588      -164.8353
 127   2.0000      -6.057070      -164.8212
 128   2.0000      -6.056487      -164.8054
 129   2.0000      -6.052433      -164.6951
 130   2.0000      -6.051865      -164.6796
 131   2.0000      -6.050115      -164.6320
 132   2.0000      -6.049463      -164.6143
 133   2.0000      -2.737195       -74.4829
 134   2.0000      -2.735851       -74.4463
 135   2.0000      -2.735586       -74.4391
 136   2.0000      -2.734557       -74.4111
 137   2.0000      -2.733430       -74.3804
 138   2.0000      -2.732817       -74.3637
 139   2.0000      -2.732160       -74.3458
 140   2.0000      -2.731818       -74.3365
 141   2.0000      -2.731515       -74.3283
 142   2.0000      -2.731205       -74.3199
 143   2.0000      -2.730742       -74.3073
 144   2.0000      -2.730137       -74.2908
 145   2.0000      -2.721683       -74.0608
 146   2.0000      -2.721671       -74.0604
 147   2.0000      -2.720364       -74.0249
 148   2.0000      -2.720347       -74.0244
 149   2.0000      -2.719993       -74.0148
 150   2.0000      -2.719972       -74.0142
 151   2.0000      -2.718972       -73.9870
 152   2.0000      -2.718966       -73.9868
 153   2.0000      -1.160531       -31.5797
 154   2.0000      -1.143699       -31.1216
 155   2.0000      -1.141507       -31.0620
 156   2.0000      -1.108491       -30.1636
 157   2.0000      -1.054228       -28.6870
 158   2.0000      -1.052566       -28.6418
 159   2.0000      -1.034337       -28.1457
 160   2.0000      -1.030172       -28.0324
 161   2.0000      -1.028742       -27.9935
 162   2.0000      -1.028139       -27.9771
 163   2.0000      -1.025985       -27.9185
 164   2.0000      -1.018595       -27.7174
 165   2.0000      -1.014625       -27.6093
 166   2.0000      -1.012943       -27.5636
 167   2.0000      -1.012695       -27.5568
 168   2.0000      -1.010614       -27.5002
 169   2.0000      -1.009232       -27.4626
 170   2.0000      -1.002051       -27.2672
 171   2.0000      -1.000890       -27.2356
 172   2.0000      -0.999541       -27.1989
 173   2.0000      -0.985906       -26.8279
 174   2.0000      -0.980457       -26.6796
 175   2.0000      -0.978787       -26.6341
 176   2.0000      -0.965615       -26.2757
 177   2.0000      -0.960714       -26.1423
 178   2.0000      -0.931276       -25.3413
 179   2.0000      -0.928041       -25.2533
 180   2.0000      -0.923152       -25.1202
 181   2.0000      -0.921650       -25.0794
 182   2.0000      -0.914395       -24.8820
 183   2.0000      -0.912987       -24.8436
 184   2.0000      -0.907230       -24.6870
 185   2.0000      -0.900819       -24.5125
 186   2.0000      -0.898118       -24.4390
 187   2.0000      -0.889868       -24.2145
 188   2.0000      -0.878914       -23.9165
 189   2.0000      -0.876150       -23.8413
 190   2.0000      -0.867098       -23.5949
 191   2.0000      -0.863856       -23.5067
 192   2.0000      -0.859746       -23.3949
 193   2.0000      -0.856112       -23.2960
 194   2.0000      -0.855147       -23.2697
 195   2.0000      -0.853503       -23.2250
 196   2.0000      -0.827575       -22.5195
 197   2.0000      -0.809377       -22.0243
 198   2.0000      -0.806082       -21.9346
 199   2.0000      -0.795004       -21.6332
 200   2.0000      -0.789222       -21.4758
 201   2.0000      -0.780610       -21.2415
 202   2.0000      -0.775363       -21.0987
 203   2.0000      -0.771240       -20.9865
 204   2.0000      -0.769660       -20.9435
 205   2.0000      -0.763883       -20.7863
 206   2.0000      -0.746353       -20.3093
 207   2.0000      -0.730293       -19.8723
 208   2.0000      -0.727902       -19.8072
 209   2.0000      -0.722019       -19.6471
 210   2.0000      -0.708964       -19.2919
 211   2.0000      -0.708662       -19.2837
 212   2.0000      -0.700294       -19.0560
 213   2.0000      -0.699477       -19.0337
 214   2.0000      -0.694757       -18.9053
 215   2.0000      -0.692005       -18.8304
 216   2.0000      -0.690041       -18.7770
 217   2.0000      -0.686411       -18.6782
 218   2.0000      -0.680044       -18.5049
 219   2.0000      -0.668341       -18.1865
 220   2.0000      -0.666869       -18.1464
 221   2.0000      -0.656681       -17.8692
 222   2.0000      -0.653029       -17.7698
 223   2.0000      -0.651717       -17.7341
 224   2.0000      -0.640065       -17.4170
 225   2.0000      -0.636425       -17.3180
 226   2.0000      -0.627776       -17.0827
 227   2.0000      -0.624018       -16.9804
 228   2.0000      -0.623327       -16.9616
 229   2.0000      -0.622426       -16.9371
 230   2.0000      -0.618448       -16.8288
 231   2.0000      -0.611869       -16.6498
 232   2.0000      -0.606452       -16.5024
 233   2.0000      -0.596822       -16.2403
 234   2.0000      -0.591857       -16.1052
 235   2.0000      -0.587773       -15.9941
 236   2.0000      -0.585954       -15.9446
 237   2.0000      -0.585134       -15.9223
 238   2.0000      -0.578327       -15.7371
 239   2.0000      -0.574474       -15.6322
 240   2.0000      -0.564000       -15.3472
 241   2.0000      -0.560076       -15.2404
 242   2.0000      -0.557536       -15.1713
 243   2.0000      -0.555444       -15.1144
 244   2.0000      -0.555141       -15.1062
 245   2.0000      -0.553741       -15.0681
 246   2.0000      -0.551589       -15.0095
 247   2.0000      -0.549262       -14.9462
 248   2.0000      -0.547926       -14.9098
 249   2.0000      -0.547296       -14.8927
 250   2.0000      -0.545894       -14.8545
 251   2.0000      -0.537500       -14.6261
 252   2.0000      -0.535870       -14.5818
 253   2.0000      -0.533188       -14.5088
 254   2.0000      -0.527925       -14.3656
 255   2.0000      -0.523611       -14.2482
 256   2.0000      -0.521643       -14.1946
 257   2.0000      -0.513363       -13.9693
 258   2.0000      -0.512716       -13.9517
 259   2.0000      -0.511025       -13.9057
 260   2.0000      -0.510335       -13.8869
 261   2.0000      -0.507311       -13.8046
 262   2.0000      -0.506954       -13.7949
 263   2.0000      -0.506007       -13.7692
 264   2.0000      -0.504351       -13.7241
 265   2.0000      -0.501096       -13.6355
 266   2.0000      -0.500906       -13.6304
 267   2.0000      -0.498845       -13.5743
 268   2.0000      -0.497713       -13.5434
 269   2.0000      -0.495112       -13.4727
 270   2.0000      -0.493705       -13.4344
 271   2.0000      -0.491350       -13.3703
 272   2.0000      -0.486942       -13.2504
 273   2.0000      -0.479750       -13.0547
 274   2.0000      -0.474582       -12.9140
 275   2.0000      -0.468364       -12.7448
 276   2.0000      -0.467591       -12.7238
 277   2.0000      -0.467375       -12.7179
 278   2.0000      -0.466160       -12.6849
 279   2.0000      -0.465364       -12.6632
 280   2.0000      -0.464382       -12.6365
 281   2.0000      -0.464229       -12.6323
 282   2.0000      -0.462714       -12.5911
 283   2.0000      -0.462064       -12.5734
 284   2.0000      -0.461204       -12.5500
 285   2.0000      -0.457758       -12.4562
 286   2.0000      -0.457167       -12.4402
 287   2.0000      -0.456792       -12.4299
 288   2.0000      -0.456574       -12.4240
 289   2.0000      -0.455754       -12.4017
 290   2.0000      -0.453028       -12.3275
 291   2.0000      -0.448240       -12.1972
 292   2.0000      -0.447863       -12.1870
 293   2.0000      -0.446940       -12.1619
 294   2.0000      -0.445058       -12.1107
 295   2.0000      -0.443187       -12.0597
 296   2.0000      -0.442260       -12.0345
 297   2.0000      -0.437169       -11.8960
 298   2.0000      -0.435844       -11.8599
 299   2.0000      -0.435682       -11.8555
 300   2.0000      -0.434330       -11.8187
 301   2.0000      -0.433771       -11.8035
 302   2.0000      -0.432791       -11.7768
 303   2.0000      -0.431910       -11.7529
 304   2.0000      -0.430694       -11.7198
 305   2.0000      -0.428849       -11.6696
 306   2.0000      -0.422058       -11.4848
 307   2.0000      -0.420174       -11.4335
 308   2.0000      -0.415630       -11.3099
 309   2.0000      -0.414511       -11.2794
 310   2.0000      -0.414069       -11.2674
 311   2.0000      -0.406154       -11.0520
 312   2.0000      -0.403648       -10.9838
 313   2.0000      -0.402059       -10.9406
 314   2.0000      -0.400687       -10.9032
 315   2.0000      -0.399994       -10.8844
 316   2.0000      -0.391316       -10.6483
 317   2.0000      -0.390019       -10.6130
 318   2.0000      -0.384395       -10.4599
 319   2.0000      -0.383330       -10.4309
 320   2.0000      -0.376803       -10.2533
 321   2.0000      -0.363291        -9.8857
 322   2.0000      -0.361752        -9.8438
 323   2.0000      -0.355410        -9.6712
 324   2.0000      -0.354342        -9.6421
 325   2.0000      -0.351397        -9.5620
 326   2.0000      -0.350679        -9.5424
 327   2.0000      -0.347588        -9.4583
 328   2.0000      -0.345045        -9.3892
 329   2.0000      -0.344197        -9.3661
 330   2.0000      -0.343736        -9.3535
 331   2.0000      -0.337376        -9.1805
 332   2.0000      -0.334164        -9.0931
 333   2.0000      -0.328438        -8.9373
 334   2.0000      -0.327291        -8.9061
 335   2.0000      -0.315779        -8.5928
 336   2.0000      -0.314072        -8.5463
 337   2.0000      -0.308536        -8.3957
 338   2.0000      -0.282775        -7.6947
 339   2.0000      -0.249110        -6.7786
 340   0.0000      -0.139920        -3.8074
 341   0.0000      -0.113028        -3.0757
 342   0.0000      -0.104550        -2.8450
 343   0.0000      -0.094102        -2.5606
 344   0.0000      -0.093634        -2.5479

MULLIKEN ATOMIC CHARGES
-----------------------
   0 C :    0.157072
   1 O :   -0.140342
   2 C :   -0.012343
   3 C :    0.033798
   4 C :   -0.011919
   5 C :   -0.024231
   6 C :   -0.011991
   7 C :   -0.024459
   8 Br:    0.016694
   9 Br:    0.021753
  10 C :    0.318868
  11 C :   -0.357254
  12 C :   -0.186298
  13 N :    0.156233
  14 C :   -0.178196
  15 N :    0.147131
  16 C :   -0.091288
  17 C :    0.044570
  18 C :   -0.114629
  19 C :   -0.016683
  20 C :   -0.002282
  21 C :   -0.081403
  22 S :    0.205656
  23 C :   -0.075899
  24 C :    0.055801
  25 C :    0.321554
  26 C :   -0.308626
  27 C :   -0.186899
  28 N :    0.169895
  29 C :   -0.196190
  30 N :    0.198528
  31 C :   -0.069717
  32 C :   -0.173262
  33 S :    0.212338
  34 C :    0.190799
  35 C :   -0.064177
  36 C :   -0.070229
  37 N :   -0.032217
  38 C :    0.045399
  39 C :    0.048243
  40 N :   -0.032572
  41 C :    0.196741
  42 C :   -0.019345
  43 C :   -0.018378
  44 N :   -0.333355
  45 S :    0.571750
  46 N :   -0.331311
  47 C :   -0.177787
  48 C :   -0.065685
  49 C :    0.053896
  50 C :   -0.074890
  51 S :    0.212410
  52 C :   -0.073009
  53 C :   -0.003331
  54 C :    0.315054
  55 C :   -0.295006
  56 C :   -0.186722
  57 N :    0.171262
  58 C :   -0.182993
  59 N :    0.172790
  60 C :   -0.006673
  61 C :   -0.110889
  62 S :    0.217088
  63 C :    0.081226
  64 C :   -0.140277
  65 C :    0.137009
  66 O :   -0.137227
  67 C :    0.006423
  68 C :    0.012475
  69 C :    0.263349
  70 C :   -0.323085
  71 C :   -0.201781
  72 N :    0.169176
  73 C :   -0.170552
  74 N :    0.169309
  75 C :   -0.006385
  76 C :   -0.024840
  77 C :   -0.015727
  78 C :   -0.021876
  79 Br:    0.014672
  80 Br:    0.024063
  81 H :    0.007638
  82 H :    0.010606
  83 H :   -0.002616
  84 H :    0.039467
  85 H :    0.024541
  86 H :    0.036711
  87 H :    0.035909
  88 H :    0.024210
  89 H :    0.027475
  90 H :    0.023345
  91 H :    0.016545
  92 H :    0.007374
Sum of atomic charges:   -0.0000000

LOEWDIN ATOMIC CHARGES
----------------------
   0 C :    0.086994
   1 O :   -0.129385
   2 C :   -0.040873
   3 C :   -0.013249
   4 C :   -0.007262
   5 C :   -0.118947
   6 C :   -0.122255
   7 C :    0.007606
   8 Br:    0.139454
   9 Br:    0.141208
  10 C :    0.076302
  11 C :   -0.138472
  12 C :   -0.019535
  13 N :   -0.046398
  14 C :   -0.022609
  15 N :   -0.050065
  16 C :   -0.102416
  17 C :    0.043017
  18 C :   -0.176933
  19 C :    0.018374
  20 C :   -0.073029
  21 C :   -0.153721
  22 S :    0.496312
  23 C :   -0.195235
  24 C :   -0.057562
  25 C :    0.075488
  26 C :   -0.095470
  27 C :   -0.012089
  28 N :   -0.035421
  29 C :   -0.024356
  30 N :   -0.015109
  31 C :   -0.014710
  32 C :   -0.149544
  33 S :    0.512957
  34 C :   -0.045849
  35 C :   -0.002034
  36 C :   -0.004652
  37 N :   -0.021835
  38 C :    0.026939
  39 C :    0.028987
  40 N :   -0.022263
  41 C :   -0.039788
  42 C :   -0.049254
  43 C :   -0.047850
  44 N :   -0.303323
  45 S :    0.688374
  46 N :   -0.301926
  47 C :   -0.154583
  48 C :   -0.009509
  49 C :   -0.062539
  50 C :   -0.186836
  51 S :    0.514875
  52 C :   -0.154937
  53 C :   -0.063431
  54 C :    0.082398
  55 C :   -0.098972
  56 C :   -0.012906
  57 N :   -0.033553
  58 C :   -0.014067
  59 N :   -0.032655
  60 C :    0.010650
  61 C :   -0.181864
  62 S :    0.499971
  63 C :    0.045091
  64 C :   -0.095431
  65 C :    0.083359
  66 O :   -0.137235
  67 C :   -0.044723
  68 C :   -0.008516
  69 C :    0.063303
  70 C :   -0.130770
  71 C :   -0.015388
  72 N :   -0.042194
  73 C :   -0.020984
  74 N :   -0.037686
  75 C :   -0.006465
  76 C :   -0.117756
  77 C :   -0.123707
  78 C :    0.007011
  79 Br:    0.137999
  80 Br:    0.144222
  81 H :    0.044559
  82 H :    0.048002
  83 H :    0.041911
  84 H :    0.043139
  85 H :    0.037293
  86 H :    0.036767
  87 H :    0.036793
  88 H :    0.037806
  89 H :    0.042905
  90 H :    0.046846
  91 H :    0.046653
  92 H :    0.046560

  Mayer bond orders larger than 0.100000
B(  0-C ,  1-O ) :   2.1705 B(  0-C ,  2-C ) :   0.9522 B(  0-C , 16-C ) :   0.9411
B(  2-C ,  3-C ) :   1.3336 B(  2-C ,  7-C ) :   1.3703 B(  3-C ,  4-C ) :   1.3622
B(  3-C , 10-C ) :   0.9836 B(  4-C ,  5-C ) :   1.3700 B(  4-C , 81-H ) :   0.9786
B(  5-C ,  6-C ) :   1.4226 B(  5-C ,  9-Br) :   1.0589 B(  6-C ,  7-C ) :   1.3460
B(  6-C ,  8-Br) :   1.0348 B(  7-C , 82-H ) :   1.0097 B( 10-C , 11-C ) :   1.6202
B( 10-C , 16-C ) :   1.0943 B( 11-C , 12-C ) :   1.1447 B( 11-C , 14-C ) :   1.1410
B( 12-C , 13-N ) :   2.9668 B( 14-C , 15-N ) :   2.9533 B( 16-C , 17-C ) :   1.5732
B( 17-C , 18-C ) :   1.2423 B( 17-C , 83-H ) :   0.9025 B( 18-C , 19-C ) :   1.3791
B( 18-C , 22-S ) :   1.0713 B( 19-C , 20-C ) :   1.3244 B( 19-C , 84-H ) :   0.9682
B( 20-C , 21-C ) :   1.3577 B( 20-C , 25-C ) :   0.9920 B( 21-C , 22-S ) :   1.1672
B( 21-C , 23-C ) :   1.2177 B( 23-C , 24-C ) :   1.3920 B( 23-C , 33-S ) :   1.0851
B( 24-C , 25-C ) :   0.9942 B( 24-C , 31-C ) :   1.2601 B( 25-C , 26-C ) :   1.7119
B( 26-C , 27-C ) :   1.1423 B( 26-C , 29-C ) :   1.1365 B( 27-C , 28-N ) :   2.9867
B( 29-C , 30-N ) :   3.0002 B( 31-C , 32-C ) :   1.4004 B( 31-C , 85-H ) :   0.9805
B( 32-C , 33-S ) :   1.1110 B( 32-C , 34-C ) :   1.1920 B( 34-C , 35-C ) :   1.2670
B( 34-C , 41-C ) :   0.1343 B( 34-C , 43-C ) :   1.2025 B( 35-C , 36-C ) :   1.1203
B( 35-C , 40-N ) :   1.4666 B( 36-C , 37-N ) :   1.4667 B( 36-C , 41-C ) :   1.2648
B( 37-N , 38-C ) :   1.6695 B( 38-C , 39-C ) :   1.1785 B( 38-C , 86-H ) :   0.9751
B( 39-C , 40-N ) :   1.6704 B( 39-C , 87-H ) :   0.9749 B( 41-C , 42-C ) :   1.2026
B( 41-C , 47-C ) :   1.1958 B( 42-C , 43-C ) :   1.1205 B( 42-C , 46-N ) :   1.4617
B( 43-C , 44-N ) :   1.4610 B( 44-N , 45-S ) :   1.2799 B( 44-N , 46-N ) :   0.1557
B( 45-S , 46-N ) :   1.2821 B( 47-C , 48-C ) :   1.4014 B( 47-C , 51-S ) :   1.1057
B( 48-C , 49-C ) :   1.2637 B( 48-C , 88-H ) :   0.9808 B( 49-C , 50-C ) :   1.3926
B( 49-C , 54-C ) :   0.9925 B( 50-C , 51-S ) :   1.0947 B( 50-C , 52-C ) :   1.2106
B( 52-C , 53-C ) :   1.3918 B( 52-C , 62-S ) :   1.1542 B( 53-C , 54-C ) :   0.9958
B( 53-C , 60-C ) :   1.3733 B( 54-C , 55-C ) :   1.7153 B( 55-C , 56-C ) :   1.1344
B( 55-C , 58-C ) :   1.1374 B( 56-C , 57-N ) :   2.9820 B( 58-C , 59-N ) :   2.9895
B( 60-C , 61-C ) :   1.3780 B( 60-C , 89-H ) :   0.9781 B( 61-C , 62-S ) :   1.0859
B( 61-C , 63-C ) :   1.1529 B( 63-C , 64-C ) :   1.6498 B( 63-C , 90-H ) :   0.9304
B( 64-C , 65-C ) :   0.9499 B( 64-C , 69-C ) :   1.0444 B( 65-C , 66-O ) :   2.2696
B( 65-C , 67-C ) :   0.9204 B( 67-C , 68-C ) :   1.3295 B( 67-C , 78-C ) :   1.3731
B( 68-C , 69-C ) :   0.9995 B( 68-C , 75-C ) :   1.3722 B( 69-C , 70-C ) :   1.6579
B( 70-C , 71-C ) :   1.1704 B( 70-C , 73-C ) :   1.1224 B( 71-C , 72-N ) :   2.9968
B( 73-C , 74-N ) :   2.9956 B( 75-C , 76-C ) :   1.3683 B( 75-C , 91-H ) :   0.9833
B( 76-C , 77-C ) :   1.4221 B( 76-C , 80-Br) :   1.0532 B( 77-C , 78-C ) :   1.3555
B( 77-C , 79-Br) :   1.0329 B( 78-C , 92-H ) :   1.0083

-----------------------------------------------------------------------------
         ABSORPTION SPECTRUM VIA TRANSITION ELECTRIC DIPOLE MOMENTS
-----------------------------------------------------------------------------
State   Energy  Wavelength   fosc         T2         TX        TY        TZ
        (cm-1)    (nm)                  (au**2)     (au)      (au)      (au)
-----------------------------------------------------------------------------
   0    9317.6   1073.2   1.267600088  44.78713  -2.48193  -6.21468   0.07055
   1   13448.8    743.6   0.015439427   0.37794   0.08164  -0.45315   0.40734
   2   14627.8    683.6   0.007005635   0.15767   0.17934   0.32447   0.14222
   3   17746.8    563.5   0.010228527   0.18974   0.27342  -0.10583   0.32216
   4   19490.2    513.1   0.489460278   8.26756   1.59228   2.39374  -0.04710
   5   20554.8    486.5   0.711324855  11.39279  -0.73526  -3.11240   1.07941
   6   22551.3    443.4   0.063079072   0.92085  -0.36249  -0.67259   0.58058
   7   22675.9    441.0   0.004377350   0.06355  -0.20584  -0.03347   0.14163
   8   24551.2    407.3   0.029729576   0.39865  -0.06397  -0.59595   0.19850
   9   25073.8    398.8   0.133132684   1.74800  -0.59633  -1.16636  -0.17887
  10   25700.8    389.1   0.043180755   0.55312   0.15627   0.72675   0.02311
  11   25931.5    385.6   0.067485985   0.85676   0.32950   0.37462   0.77965
  12   26135.1    382.6   0.043178591   0.54390   0.09865   0.42084   0.59755
  13   26186.7    381.9   0.076559630   0.96248  -0.42687  -0.86816  -0.16299
  14   27209.7    367.5   0.164458564   1.98980   0.13550   1.39342   0.17269
  15   27582.4    362.6   0.196690016   2.34761   0.47833   1.14163   0.90304
  16   28391.5    352.2   0.020986669   0.24335   0.33504   0.33267  -0.14294
  17   28659.0    348.9   0.020529795   0.23583   0.48524   0.01414  -0.01317
  18   28837.3    346.8   0.043706948   0.49897   0.00379   0.44822  -0.54594
  19   29117.7    343.4   0.050495749   0.57092   0.00299   0.53473  -0.53383
  20   29624.7    337.6   0.036139767   0.40161   0.15869   0.60425  -0.10636
  21   30021.6    333.1   0.153277607   1.68082  -0.44060  -0.16251  -1.20842
  22   30212.7    331.0   0.068559853   0.74706  -0.31290   0.13302  -0.79464
  23   30480.6    328.1   0.129055883   1.39390   0.26919   1.07193  -0.41521
  24   30883.7    323.8   0.060830492   0.64844   0.10018   0.73598  -0.31102
  25   30939.5    323.2   0.185502655   1.97384  -0.19653  -1.29014   0.52035
  26   31415.9    318.3   0.281235185   2.94710  -0.68734  -1.16086  -1.06164
  27   31595.5    316.5   0.035119019   0.36593  -0.25616  -0.30958   0.45218
  28   31948.5    313.0   0.173801441   1.79093  -0.52935  -0.10136  -1.22492
  29   32064.4    311.9   0.149828646   1.53832  -0.40753  -0.71818   0.92545
  30   32316.5    309.4   0.160580619   1.63585  -0.34373  -1.19331  -0.30610
  31   32582.7    306.9   0.000685184   0.00692   0.02067  -0.00967   0.08002
  32   32630.6    306.5   0.162639011   1.64087   0.12571   1.25946  -0.19708
  33   32796.7    304.9   0.111473307   1.11896  -0.25607  -0.83144  -0.60175
  34   33007.9    303.0   0.074923967   0.74727  -0.15925  -0.75622  -0.38736
  35   33146.3    301.7   0.019272140   0.19141   0.26586  -0.34184   0.06225
  36   33320.7    300.1   0.040988004   0.40497  -0.09013  -0.59692   0.20131
  37   33527.8    298.3   0.048588631   0.47709   0.05114  -0.31394  -0.61312
  38   34134.8    293.0   0.216274749   2.08585  -0.34403  -0.67004  -1.23229
  39   34218.3    292.2   0.081190713   0.78113  -0.29975  -0.70511  -0.44056
  40   34231.4    292.1   0.004403548   0.04235  -0.00252   0.03725   0.20238
  41   34303.4    291.5   0.001143061   0.01097   0.08694   0.05290  -0.02476
  42   34322.2    291.4   0.010454469   0.10028   0.06387  -0.10457   0.29200
  43   34753.7    287.7   0.153362115   1.45276   0.28123  -0.25349   1.14429
  44   34853.9    286.9   0.077135139   0.72858   0.28877   0.44120   0.67122
  45   34999.9    285.7   0.136598933   1.28486  -0.43491  -0.69110  -0.78619
  46   35284.8    283.4   0.117243907   1.09390   0.13269  -1.03265  -0.09960
  47   35365.6    282.8   0.268768260   2.50191  -0.36803  -1.10226  -1.07308
  48   35486.4    281.8   0.144433088   1.33992  -0.02178  -1.07903   0.41850
  49   35588.0    281.0   0.272160872   2.51766  -0.12339   0.90911   1.29458
  50   35690.1    280.2   0.005014110   0.04625   0.01492   0.17556   0.12331
  51   35977.1    278.0   0.129672063   1.18658   0.17392   1.02323   0.33066
  52   36238.9    275.9   0.857255031   7.78771   0.66375  -0.38635   2.68289
  53   36324.8    275.3   0.048003966   0.43506  -0.16959  -0.09275  -0.63063
  54   36490.4    274.0   0.000026175   0.00024   0.00546   0.00736   0.01233
  55   36665.8    272.7   0.013958172   0.12533   0.07059   0.32571   0.11939
  56   36822.8    271.6   0.084452767   0.75504  -0.08668   0.41226  -0.75998
  57   37035.5    270.0   0.081698743   0.72623   0.42047   0.73975  -0.04696
  58   37275.6    268.3   0.027676079   0.24443   0.13714   0.00782  -0.47493
  59   37542.3    266.4   0.137780572   1.20821   0.01163   0.70525  -0.84303
  60   37697.3    265.3   0.065762198   0.57430   0.04116   0.44772  -0.61005
  61   37954.8    263.5   0.131755805   1.14282   0.05650   0.25729  -1.03607
  62   38036.1    262.9   0.069897007   0.60498   0.30771   0.69189   0.17770
  63   38238.1    261.5   0.014338693   0.12345   0.08763   0.30965   0.14102
  64   38733.0    258.2   0.024456227   0.20787   0.26778   0.00714  -0.36893
  65   38911.7    257.0   0.000743801   0.00629   0.02766   0.07433  -0.00147
  66   39084.8    255.9   0.004946991   0.04167   0.14039   0.09608  -0.11282
  67   39129.5    255.6   0.022753752   0.19144  -0.00977  -0.34399   0.27021
  68   39412.6    253.7   0.004556626   0.03806   0.01859  -0.19089   0.03572
  69   39431.5    253.6   0.000121742   0.00102   0.00319   0.02410   0.02062
  70   39544.0    252.9   0.002587313   0.02154  -0.05876   0.12886   0.03850
  71   39783.9    251.4   0.036254566   0.30001  -0.06915  -0.42620  -0.33701
  72   39892.0    250.7   0.012825487   0.10584  -0.00325   0.14431  -0.29156
  73   39923.7    250.5   0.002272544   0.01874  -0.03092  -0.11168   0.07287
  74   39958.8    250.3   0.011794244   0.09717  -0.06343   0.29405  -0.08174
  75   40185.8    248.8   0.026803051   0.21958   0.12217   0.27556   0.35877
  76   40252.1    248.4   0.019573761   0.16009   0.04833  -0.19205   0.34767

FINAL SINGLE POINT ENERGY    -15307.029378305086

DIPOLE MOMENT
-------------
                                X             Y             Z
Electronic contribution:      1.03728       2.26161      16.65304
Nuclear contribution   :     -0.66723      -3.46481     -18.16241
                        -----------------------------------------
Total Dipole Moment    :      0.37005      -1.20320      -1.50937
                        -----------------------------------------
Magnitude (a.u.)       :      1.96541
Magnitude (Debye)      :      4.99566

Rotational constants in cm-1:     0.002427     0.000090     0.000088
Rotational constants in MHz :    72.749710     2.711948     2.630305

                             ****ORCA TERMINATED NORMALLY****
TOTAL RUN TIME: 0 days 0 hours 14 minutes 47 seconds 661 msec
