                         Program Version 4.2.0 -  RELEASE  -
|  1> # ORCA input file
|  2> # SCF done       -186.917147324836          0.000605561706
|  3> ! CAM-B3LYP def2-SVP def2/J RIJCOSX Grid4 TightSCF
|  4> %maxcore 5000
|  5> %tddft
|  6>     Mode sTDDFT
|  7>     Ethresh 5.0
|  8>     maxcore 5000
|  9> end
| 10>
| 11> %pal
| 12>   nprocs 6
| 13>   end
| 14> * xyz 0 1
| 15>    C        5.19447        -1.75804        -5.37649
| 16>    C        5.69260        -0.50447        -5.19623
| 17>    C        6.08891        -0.26364        -3.86892
| 18>    C        5.87511        -1.36448        -3.06156
| 19>    S        5.19139        -2.68988        -3.92709
| 20>    C        6.23006        -1.26157        -1.68545
| 21>    C        6.77209        -0.06548        -1.24938
| 22>   Ge        6.86585         1.17682        -2.77405
| 23>    C        5.68735         2.76075        -2.57146
| 24>    C        8.72263         1.66032        -3.28505
| 25>    C        7.08438        -0.09616         0.11371
| 26>    C        6.78443        -1.29712         0.70269
| 27>    S        6.09122        -2.42520        -0.42406
| 28>    C        6.99049        -1.69864         2.07807
| 29>    S        6.96445        -0.36429         3.40774
| 30>    C        8.32302        -1.40578         3.83354
| 31>    C        8.25467        -2.24453         2.73057
| 32>    C        6.69243        -3.06947         2.55475
| 33>    C        6.05315        -3.61515         3.65264
| 34>    C        4.78207        -3.16055         4.19319
| 35>    O        4.07341        -2.31575         3.69776
| 36>    O        4.44251        -3.79964         5.33192
| 37>    C        6.88318        -4.66914         4.17315
| 38>    C        8.06714        -4.72043         3.52377
| 39>    C        8.09659        -3.71422         2.43884
| 40>    O        8.66137        -4.06915         1.22600
| 41>    C        9.15719        -1.38004         4.94771
| 42>    C       10.21012        -2.25195         5.22329
| 43>    C       10.89379        -1.95361         6.43347
| 44>    S       12.13979        -3.12615         6.68602
| 45>    C       11.64657        -3.89247         5.14739
| 46>    N       10.66933        -3.33085         4.54683
| 47>    C       12.36228        -5.08977         4.66562
| 48>    C       10.38966        -0.85470         7.11265
| 49>    S        9.03014        -0.19340         6.21585
| 50>    C       10.78033        -0.23944         8.31897
| 51>    S        9.76192         0.98462         9.02969
| 52>    C       10.84334         1.26727        10.37395
| 53>    C       11.96325         0.42674        10.26209
| 54>    C       11.91035        -0.40852         9.11155
| 55>    S       13.31640        -1.40649         8.96004
| 56>    C       13.95373        -0.72206        10.43174
| 57>    C       15.26047        -1.21244        10.88489
| 58>    O       15.90394        -2.04197        10.28831
| 59>    O       15.64001        -0.61820        12.01810
| 60>    C       16.89500        -1.02088        12.56844
| 61>    C       16.76357        -2.30578        13.37327
| 62>    C       13.14845         0.21717        11.00500
| 63>    C       10.48618         2.23795        11.32046
| 64>    C       11.22048         2.60347        12.41561
| 65>    C       10.78717         3.60162        13.30171
| 66>    C       11.50114         4.02591        14.39613
| 67>    C       11.11629         5.05592        15.33583
| 68>    C        9.93821         5.76235        15.35621
| 69>    C        9.62651         6.75294        16.30948
| 70>    N        9.30840         7.57245        17.04900
| 71>    C        8.86851         5.60702        14.45200
| 72>    N        7.94990         5.54088        13.76464
| 73>    C       12.20814         5.21794        16.29243
| 74>    C       13.23590         4.28736        15.96897
| 75>    C       12.83233         3.50533        14.78738
| 76>    O       13.47689         2.62042        14.25631
| 77>    C       14.39024         4.20511        16.69181
| 78>    C       14.57715         5.07040        17.79329
| 79>    C       13.55548         6.00634        18.12252
| 80>    C       12.36829         6.06552        17.35578
| 81>    C       13.75264         6.86772        19.22056
| 82>    C       14.90327         6.80921        19.95904
| 83>    C       15.90862         5.88676        19.63405
| 84>    C       15.74868         5.03559        18.57430
| 85>    H        4.82264        -2.20333        -6.27857
| 86>    H        5.77279         0.22112        -5.98697
| 87>    H        5.63181         3.31267        -3.50468
| 88>    H        6.07792         3.41976        -1.80225
| 89>    H        4.68640         2.45085        -2.28878
| 90>    H        9.33024         0.76688        -3.38734
| 91>    H        9.16477         2.29737        -2.52536
| 92>    H        8.72641         2.19527        -4.22972
| 93>    H        7.50769         0.72949         0.65890
| 94>    H        3.58400        -3.46979         5.63800
| 95>    H        6.58401        -5.28832         4.99861
| 96>    H        8.84658        -5.44693         3.65481
| 97>    H        8.36523        -4.95432         0.98391
| 98>    H       12.22651        -5.91605         5.36276
| 99>    H       13.42962        -4.88656         4.59423
|100>    H       11.97805        -5.36954         3.68861
|101>    H       17.20062        -0.18657        13.20250
|102>    H       17.61292        -1.15656        11.75264
|103>    H       16.01470        -2.18540        14.15238
|104>    H       17.71857        -2.54730        13.83087
|105>    H       16.46897        -3.12441        12.72108
|106>    H       13.42311         0.71826        11.91399
|107>    H        9.53995         2.73686        11.14515
|108>    H       12.16612         2.13256        12.62012
|109>    H        9.83218         4.06454        13.08946
|110>    H       15.15394         3.48943        16.42511
|111>    H       11.61577         6.78664        17.63200
|112>    H       12.97538         7.57624        19.46703
|113>    H       15.04495         7.47399        20.79802
|114>    H       16.81046         5.85398        20.22714
|115>    H       16.51970         4.32310        18.31902
|116> *
|117>
|118>                          ****END OF INPUT****

CARTESIAN COORDINATES (ANGSTROEM)
---------------------------------
  C      5.194470   -1.758040   -5.376490
  C      5.692600   -0.504470   -5.196230
  C      6.088910   -0.263640   -3.868920
  C      5.875110   -1.364480   -3.061560
  S      5.191390   -2.689880   -3.927090
  C      6.230060   -1.261570   -1.685450
  C      6.772090   -0.065480   -1.249380
  Ge     6.865850    1.176820   -2.774050
  C      5.687350    2.760750   -2.571460
  C      8.722630    1.660320   -3.285050
  C      7.084380   -0.096160    0.113710
  C      6.784430   -1.297120    0.702690
  S      6.091220   -2.425200   -0.424060
  C      6.990490   -1.698640    2.078070
  S      6.964450   -0.364290    3.407740
  C      8.323020   -1.405780    3.833540
  C      8.254670   -2.244530    2.730570
  C      6.692430   -3.069470    2.554750
  C      6.053150   -3.615150    3.652640
  C      4.782070   -3.160550    4.193190
  O      4.073410   -2.315750    3.697760
  O      4.442510   -3.799640    5.331920
  C      6.883180   -4.669140    4.173150
  C      8.067140   -4.720430    3.523770
  C      8.096590   -3.714220    2.438840
  O      8.661370   -4.069150    1.226000
  C      9.157190   -1.380040    4.947710
  C     10.210120   -2.251950    5.223290
  C     10.893790   -1.953610    6.433470
  S     12.139790   -3.126150    6.686020
  C     11.646570   -3.892470    5.147390
  N     10.669330   -3.330850    4.546830
  C     12.362280   -5.089770    4.665620
  C     10.389660   -0.854700    7.112650
  S      9.030140   -0.193400    6.215850
  C     10.780330   -0.239440    8.318970
  S      9.761920    0.984620    9.029690
  C     10.843340    1.267270   10.373950
  C     11.963250    0.426740   10.262090
  C     11.910350   -0.408520    9.111550
  S     13.316400   -1.406490    8.960040
  C     13.953730   -0.722060   10.431740
  C     15.260470   -1.212440   10.884890
  O     15.903940   -2.041970   10.288310
  O     15.640010   -0.618200   12.018100
  C     16.895000   -1.020880   12.568440
  C     16.763570   -2.305780   13.373270
  C     13.148450    0.217170   11.005000
  C     10.486180    2.237950   11.320460
  C     11.220480    2.603470   12.415610
  C     10.787170    3.601620   13.301710
  C     11.501140    4.025910   14.396130
  C     11.116290    5.055920   15.335830
  C      9.938210    5.762350   15.356210
  C      9.626510    6.752940   16.309480
  N      9.308400    7.572450   17.049000
  C      8.868510    5.607020   14.452000
  N      7.949900    5.540880   13.764640
  C     12.208140    5.217940   16.292430
  C     13.235900    4.287360   15.968970
  C     12.832330    3.505330   14.787380
  O     13.476890    2.620420   14.256310
  C     14.390240    4.205110   16.691810
  C     14.577150    5.070400   17.793290
  C     13.555480    6.006340   18.122520
  C     12.368290    6.065520   17.355780
  C     13.752640    6.867720   19.220560
  C     14.903270    6.809210   19.959040
  C     15.908620    5.886760   19.634050
  C     15.748680    5.035590   18.574300
  H      4.822640   -2.203330   -6.278570
  H      5.772790    0.221120   -5.986970
  H      5.631810    3.312670   -3.504680
  H      6.077920    3.419760   -1.802250
  H      4.686400    2.450850   -2.288780
  H      9.330240    0.766880   -3.387340
  H      9.164770    2.297370   -2.525360
  H      8.726410    2.195270   -4.229720
  H      7.507690    0.729490    0.658900
  H      3.584000   -3.469790    5.638000
  H      6.584010   -5.288320    4.998610
  H      8.846580   -5.446930    3.654810
  H      8.365230   -4.954320    0.983910
  H     12.226510   -5.916050    5.362760
  H     13.429620   -4.886560    4.594230
  H     11.978050   -5.369540    3.688610
  H     17.200620   -0.186570   13.202500
  H     17.612920   -1.156560   11.752640
  H     16.014700   -2.185400   14.152380
  H     17.718570   -2.547300   13.830870
  H     16.468970   -3.124410   12.721080
  H     13.423110    0.718260   11.913990
  H      9.539950    2.736860   11.145150
  H     12.166120    2.132560   12.620120
  H      9.832180    4.064540   13.089460
  H     15.153940    3.489430   16.425110
  H     11.615770    6.786640   17.632000
  H     12.975380    7.576240   19.467030
  H     15.044950    7.473990   20.798020
  H     16.810460    5.853980   20.227140
  H     16.519700    4.323100   18.319020

 Total Charge           Charge          ....    0
 Multiplicity           Mult            ....    1
 Number of Electrons    NEL             ....  562
 Basis Dimension        Dim             .... 1181

ORBITAL ENERGIES
----------------

  NO   OCC          E(Eh)            E(eV)
   0   2.0000    -398.758858    -10850.7802
   1   2.0000     -88.983518     -2421.3646
   2   2.0000     -88.981307     -2421.3045
   3   2.0000     -88.971570     -2421.0395
   4   2.0000     -88.971410     -2421.0351
   5   2.0000     -88.945473     -2420.3294
   6   2.0000     -88.943625     -2420.2791
   7   2.0000     -88.939130     -2420.1568
   8   2.0000     -49.818392     -1355.6274
   9   2.0000     -44.355584     -1206.9768
  10   2.0000     -44.354878     -1206.9576
  11   2.0000     -44.354578     -1206.9494
  12   2.0000     -19.265866      -524.2509
  13   2.0000     -19.242462      -523.6140
  14   2.0000     -19.219321      -522.9843
  15   2.0000     -19.213076      -522.8144
  16   2.0000     -19.211541      -522.7726
  17   2.0000     -19.178009      -521.8602
  18   2.0000     -14.423738      -392.4899
  19   2.0000     -14.409730      -392.1087
  20   2.0000     -14.406940      -392.0328
  21   2.0000     -10.413599      -283.3684
  22   2.0000     -10.382547      -282.5235
  23   2.0000     -10.361587      -281.9531
  24   2.0000     -10.359474      -281.8956
  25   2.0000     -10.342690      -281.4389
  26   2.0000     -10.339940      -281.3641
  27   2.0000     -10.339083      -281.3408
  28   2.0000     -10.333279      -281.1828
  29   2.0000     -10.332638      -281.1654
  30   2.0000     -10.327920      -281.0370
  31   2.0000     -10.326408      -280.9958
  32   2.0000     -10.325714      -280.9770
  33   2.0000     -10.325150      -280.9616
  34   2.0000     -10.325080      -280.9597
  35   2.0000     -10.324942      -280.9560
  36   2.0000     -10.324725      -280.9500
  37   2.0000     -10.324543      -280.9451
  38   2.0000     -10.321523      -280.8629
  39   2.0000     -10.313030      -280.6318
  40   2.0000     -10.312995      -280.6309
  41   2.0000     -10.310499      -280.5629
  42   2.0000     -10.309350      -280.5317
  43   2.0000     -10.308883      -280.5190
  44   2.0000     -10.300963      -280.3035
  45   2.0000     -10.296973      -280.1949
  46   2.0000     -10.296956      -280.1944
  47   2.0000     -10.296676      -280.1868
  48   2.0000     -10.293323      -280.0956
  49   2.0000     -10.292883      -280.0836
  50   2.0000     -10.291817      -280.0546
  51   2.0000     -10.290940      -280.0307
  52   2.0000     -10.290909      -280.0299
  53   2.0000     -10.289546      -279.9928
  54   2.0000     -10.287725      -279.9432
  55   2.0000     -10.286799      -279.9180
  56   2.0000     -10.286561      -279.9115
  57   2.0000     -10.283255      -279.8216
  58   2.0000     -10.283079      -279.8168
  59   2.0000     -10.282859      -279.8108
  60   2.0000     -10.282701      -279.8065
  61   2.0000     -10.282253      -279.7943
  62   2.0000     -10.281636      -279.7775
  63   2.0000     -10.277378      -279.6617
  64   2.0000     -10.268555      -279.4216
  65   2.0000     -10.267359      -279.3890
  66   2.0000     -10.264070      -279.2995
  67   2.0000     -10.260479      -279.2018
  68   2.0000     -10.259898      -279.1860
  69   2.0000     -10.259853      -279.1848
  70   2.0000     -10.249846      -278.9125
  71   2.0000     -10.249553      -278.9045
  72   2.0000     -10.245840      -278.8035
  73   2.0000     -10.245341      -278.7899
  74   2.0000      -8.078725      -219.8333
  75   2.0000      -8.076234      -219.7655
  76   2.0000      -8.067250      -219.5210
  77   2.0000      -8.066421      -219.4985
  78   2.0000      -8.040594      -218.7957
  79   2.0000      -8.039470      -218.7651
  80   2.0000      -8.033983      -218.6158
  81   2.0000      -6.278282      -170.8407
  82   2.0000      -6.048070      -164.5764
  83   2.0000      -6.045783      -164.5141
  84   2.0000      -6.043871      -164.4621
  85   2.0000      -6.041551      -164.3990
  86   2.0000      -6.040781      -164.3780
  87   2.0000      -6.037945      -164.3008
  88   2.0000      -6.036921      -164.2730
  89   2.0000      -6.036175      -164.2527
  90   2.0000      -6.032640      -164.1565
  91   2.0000      -6.031828      -164.1344
  92   2.0000      -6.028518      -164.0443
  93   2.0000      -6.027685      -164.0216
  94   2.0000      -6.009723      -163.5329
  95   2.0000      -6.008659      -163.5039
  96   2.0000      -6.005818      -163.4266
  97   2.0000      -6.004497      -163.3907
  98   2.0000      -6.003700      -163.3690
  99   2.0000      -6.002882      -163.3467
 100   2.0000      -6.001829      -163.3181
 101   2.0000      -6.000767      -163.2892
 102   2.0000      -5.993942      -163.1035
 103   2.0000      -4.454426      -121.2111
 104   2.0000      -4.453427      -121.1839
 105   2.0000      -4.452527      -121.1594
 106   2.0000      -1.278459       -34.7886
 107   2.0000      -1.276582       -34.7376
 108   2.0000      -1.276325       -34.7306
 109   2.0000      -1.275280       -34.7021
 110   2.0000      -1.274753       -34.6878
 111   2.0000      -1.199351       -32.6360
 112   2.0000      -1.165792       -31.7228
 113   2.0000      -1.124552       -30.6006
 114   2.0000      -1.118556       -30.4375
 115   2.0000      -1.106996       -30.1229
 116   2.0000      -1.084305       -29.5054
 117   2.0000      -1.068108       -29.0647
 118   2.0000      -1.033547       -28.1242
 119   2.0000      -1.029781       -28.0218
 120   2.0000      -1.011130       -27.5142
 121   2.0000      -0.995904       -27.0999
 122   2.0000      -0.992800       -27.0154
 123   2.0000      -0.986631       -26.8476
 124   2.0000      -0.978335       -26.6218
 125   2.0000      -0.967369       -26.3234
 126   2.0000      -0.965544       -26.2738
 127   2.0000      -0.953527       -25.9468
 128   2.0000      -0.940383       -25.5891
 129   2.0000      -0.929278       -25.2869
 130   2.0000      -0.918152       -24.9842
 131   2.0000      -0.912306       -24.8251
 132   2.0000      -0.893646       -24.3173
 133   2.0000      -0.879629       -23.9359
 134   2.0000      -0.877392       -23.8750
 135   2.0000      -0.876327       -23.8461
 136   2.0000      -0.874687       -23.8014
 137   2.0000      -0.866102       -23.5678
 138   2.0000      -0.851580       -23.1727
 139   2.0000      -0.846860       -23.0442
 140   2.0000      -0.839457       -22.8428
 141   2.0000      -0.834327       -22.7032
 142   2.0000      -0.823617       -22.4118
 143   2.0000      -0.821722       -22.3602
 144   2.0000      -0.818684       -22.2775
 145   2.0000      -0.806329       -21.9413
 146   2.0000      -0.802839       -21.8464
 147   2.0000      -0.801436       -21.8082
 148   2.0000      -0.789790       -21.4913
 149   2.0000      -0.777691       -21.1621
 150   2.0000      -0.773638       -21.0518
 151   2.0000      -0.761939       -20.7334
 152   2.0000      -0.755790       -20.5661
 153   2.0000      -0.755604       -20.5610
 154   2.0000      -0.746570       -20.3152
 155   2.0000      -0.725866       -19.7518
 156   2.0000      -0.717695       -19.5295
 157   2.0000      -0.712015       -19.3749
 158   2.0000      -0.709385       -19.3034
 159   2.0000      -0.699944       -19.0464
 160   2.0000      -0.697536       -18.9809
 161   2.0000      -0.695080       -18.9141
 162   2.0000      -0.689622       -18.7656
 163   2.0000      -0.680046       -18.5050
 164   2.0000      -0.663997       -18.0683
 165   2.0000      -0.661832       -18.0094
 166   2.0000      -0.659916       -17.9572
 167   2.0000      -0.656806       -17.8726
 168   2.0000      -0.651052       -17.7160
 169   2.0000      -0.642876       -17.4935
 170   2.0000      -0.636205       -17.3120
 171   2.0000      -0.631699       -17.1894
 172   2.0000      -0.626205       -17.0399
 173   2.0000      -0.619190       -16.8490
 174   2.0000      -0.615897       -16.7594
 175   2.0000      -0.609581       -16.5876
 176   2.0000      -0.601919       -16.3791
 177   2.0000      -0.599594       -16.3158
 178   2.0000      -0.595887       -16.2149
 179   2.0000      -0.590949       -16.0805
 180   2.0000      -0.583989       -15.8912
 181   2.0000      -0.576798       -15.6955
 182   2.0000      -0.573630       -15.6093
 183   2.0000      -0.571400       -15.5486
 184   2.0000      -0.562879       -15.3167
 185   2.0000      -0.560002       -15.2384
 186   2.0000      -0.557477       -15.1697
 187   2.0000      -0.553787       -15.0693
 188   2.0000      -0.553052       -15.0493
 189   2.0000      -0.546168       -14.8620
 190   2.0000      -0.544427       -14.8146
 191   2.0000      -0.541929       -14.7466
 192   2.0000      -0.539953       -14.6929
 193   2.0000      -0.534366       -14.5408
 194   2.0000      -0.532780       -14.4977
 195   2.0000      -0.531137       -14.4530
 196   2.0000      -0.528464       -14.3802
 197   2.0000      -0.525796       -14.3076
 198   2.0000      -0.524915       -14.2837
 199   2.0000      -0.521926       -14.2023
 200   2.0000      -0.521544       -14.1919
 201   2.0000      -0.517327       -14.0772
 202   2.0000      -0.515593       -14.0300
 203   2.0000      -0.512382       -13.9426
 204   2.0000      -0.510500       -13.8914
 205   2.0000      -0.508581       -13.8392
 206   2.0000      -0.505808       -13.7637
 207   2.0000      -0.502869       -13.6838
 208   2.0000      -0.500344       -13.6150
 209   2.0000      -0.495358       -13.4794
 210   2.0000      -0.492717       -13.4075
 211   2.0000      -0.490817       -13.3558
 212   2.0000      -0.490545       -13.3484
 213   2.0000      -0.489134       -13.3100
 214   2.0000      -0.482619       -13.1327
 215   2.0000      -0.481818       -13.1109
 216   2.0000      -0.481127       -13.0921
 217   2.0000      -0.479101       -13.0370
 218   2.0000      -0.477947       -13.0056
 219   2.0000      -0.476632       -12.9698
 220   2.0000      -0.472300       -12.8519
 221   2.0000      -0.469421       -12.7736
 222   2.0000      -0.465090       -12.6557
 223   2.0000      -0.464970       -12.6525
 224   2.0000      -0.462018       -12.5721
 225   2.0000      -0.460202       -12.5227
 226   2.0000      -0.456850       -12.4315
 227   2.0000      -0.455534       -12.3957
 228   2.0000      -0.453191       -12.3320
 229   2.0000      -0.449906       -12.2426
 230   2.0000      -0.446920       -12.1613
 231   2.0000      -0.446145       -12.1402
 232   2.0000      -0.443701       -12.0737
 233   2.0000      -0.442729       -12.0473
 234   2.0000      -0.441086       -12.0026
 235   2.0000      -0.439488       -11.9591
 236   2.0000      -0.438954       -11.9446
 237   2.0000      -0.437298       -11.8995
 238   2.0000      -0.434815       -11.8319
 239   2.0000      -0.428743       -11.6667
 240   2.0000      -0.428452       -11.6588
 241   2.0000      -0.427336       -11.6284
 242   2.0000      -0.427307       -11.6276
 243   2.0000      -0.422680       -11.5017
 244   2.0000      -0.420599       -11.4451
 245   2.0000      -0.418778       -11.3955
 246   2.0000      -0.418312       -11.3829
 247   2.0000      -0.416609       -11.3365
 248   2.0000      -0.413856       -11.2616
 249   2.0000      -0.412696       -11.2300
 250   2.0000      -0.406569       -11.0633
 251   2.0000      -0.403399       -10.9771
 252   2.0000      -0.399463       -10.8699
 253   2.0000      -0.386181       -10.5085
 254   2.0000      -0.382271       -10.4021
 255   2.0000      -0.380689       -10.3591
 256   2.0000      -0.375623       -10.2212
 257   2.0000      -0.373716       -10.1693
 258   2.0000      -0.371596       -10.1117
 259   2.0000      -0.367012        -9.9869
 260   2.0000      -0.365475        -9.9451
 261   2.0000      -0.361266        -9.8305
 262   2.0000      -0.360114        -9.7992
 263   2.0000      -0.356643        -9.7047
 264   2.0000      -0.351333        -9.5603
 265   2.0000      -0.343823        -9.3559
 266   2.0000      -0.333100        -9.0641
 267   2.0000      -0.330807        -9.0017
 268   2.0000      -0.330504        -8.9935
 269   2.0000      -0.326302        -8.8791
 270   2.0000      -0.323047        -8.7906
 271   2.0000      -0.319975        -8.7070
 272   2.0000      -0.313402        -8.5281
 273   2.0000      -0.306820        -8.3490
 274   2.0000      -0.305600        -8.3158
 275   2.0000      -0.305077        -8.3016
 276   2.0000      -0.293526        -7.9873
 277   2.0000      -0.289326        -7.8730
 278   2.0000      -0.265604        -7.2274
 279   2.0000      -0.241652        -6.5757
 280   2.0000      -0.231093        -6.2884
 281   0.0000      -0.111852        -3.0436
 282   0.0000      -0.076164        -2.0725
 283   0.0000      -0.056152        -1.5280
 284   0.0000      -0.041154        -1.1199
 285   0.0000      -0.017589        -0.4786

MULLIKEN ATOMIC CHARGES
-----------------------
   0 C :   -0.081511
   1 C :    0.019505
   2 C :   -0.109216
   3 C :   -0.124110
   4 S :    0.127086
   5 C :   -0.079009
   6 C :   -0.095736
   7 Ge:    0.441476
   8 C :   -0.190982
   9 C :   -0.191728
  10 C :   -0.044871
  11 C :   -0.017520
  12 S :    0.159207
  13 C :   -0.152094
  14 S :    0.106079
  15 C :   -0.041209
  16 C :    0.055539
  17 C :   -0.032848
  18 C :   -0.016256
  19 C :    0.115538
  20 O :   -0.198595
  21 O :   -0.185005
  22 C :    0.011987
  23 C :    0.005196
  24 C :    0.063134
  25 O :   -0.219970
  26 C :   -0.104748
  27 C :    0.091040
  28 C :   -0.011082
  29 S :    0.100815
  30 C :   -0.181698
  31 N :   -0.010482
  32 C :    0.120287
  33 C :   -0.188561
  34 S :    0.177829
  35 C :   -0.112926
  36 S :    0.169846
  37 C :   -0.113033
  38 C :    0.133587
  39 C :   -0.048702
  40 S :    0.167051
  41 C :   -0.132869
  42 C :    0.219028
  43 O :   -0.204620
  44 O :   -0.291243
  45 C :    0.173973
  46 C :   -0.027020
  47 C :   -0.009661
  48 C :    0.090764
  49 C :   -0.028266
  50 C :   -0.024939
  51 C :   -0.088041
  52 C :    0.340704
  53 C :   -0.358606
  54 C :   -0.183439
  55 N :    0.138851
  56 C :   -0.191726
  57 N :    0.142666
  58 C :    0.043780
  59 C :    0.007405
  60 C :    0.147767
  61 O :   -0.169426
  62 C :   -0.087154
  63 C :    0.099757
  64 C :    0.095426
  65 C :   -0.085909
  66 C :   -0.020276
  67 C :    0.034171
  68 C :    0.036177
  69 C :   -0.018098
  70 H :    0.019052
  71 H :   -0.019489
  72 H :    0.040538
  73 H :    0.041974
  74 H :    0.055468
  75 H :    0.055510
  76 H :    0.042177
  77 H :    0.039619
  78 H :   -0.023151
  79 H :    0.184991
  80 H :   -0.012955
  81 H :   -0.027463
  82 H :    0.172776
  83 H :    0.047665
  84 H :    0.046453
  85 H :    0.049422
  86 H :    0.028424
  87 H :    0.030027
  88 H :    0.029977
  89 H :    0.023526
  90 H :    0.035866
  91 H :    0.029246
  92 H :    0.000437
  93 H :    0.013557
  94 H :    0.005325
  95 H :   -0.019313
  96 H :   -0.008942
  97 H :   -0.009468
  98 H :   -0.006005
  99 H :   -0.007282
 100 H :   -0.020449
Sum of atomic charges:   -0.0000000

LOEWDIN ATOMIC CHARGES
----------------------
   0 C :   -0.192479
   1 C :   -0.065076
   2 C :   -0.176623
   3 C :   -0.196567
   4 S :    0.426905
   5 C :   -0.191059
   6 C :   -0.172516
   7 Ge:    0.511967
   8 C :   -0.202364
   9 C :   -0.202859
  10 C :   -0.051661
  11 C :   -0.189143
  12 S :    0.455133
  13 C :   -0.097876
  14 S :    0.314592
  15 C :   -0.132609
  16 C :   -0.033533
  17 C :    0.002204
  18 C :   -0.105605
  19 C :    0.068694
  20 O :   -0.195212
  21 O :   -0.052997
  22 C :   -0.004513
  23 C :   -0.052721
  24 C :    0.043118
  25 O :   -0.086575
  26 C :   -0.193273
  27 C :   -0.043207
  28 C :   -0.200558
  29 S :    0.374625
  30 C :   -0.082926
  31 N :   -0.078922
  32 C :   -0.065538
  33 C :   -0.204513
  34 S :    0.454397
  35 C :   -0.192431
  36 S :    0.467158
  37 C :   -0.176378
  38 C :   -0.054213
  39 C :   -0.187456
  40 S :    0.443015
  41 C :   -0.188337
  42 C :    0.065982
  43 O :   -0.180143
  44 O :   -0.078930
  45 C :    0.086805
  46 C :   -0.067557
  47 C :   -0.015038
  48 C :    0.010117
  49 C :   -0.038418
  50 C :    0.066002
  51 C :   -0.101299
  52 C :    0.074986
  53 C :   -0.146522
  54 C :   -0.017174
  55 N :   -0.060997
  56 C :   -0.020159
  57 N :   -0.059754
  58 C :   -0.024104
  59 C :   -0.053837
  60 C :    0.085718
  61 O :   -0.161211
  62 C :    0.027721
  63 C :   -0.009311
  64 C :   -0.006880
  65 C :    0.017442
  66 C :   -0.005728
  67 C :   -0.015275
  68 C :   -0.014385
  69 C :   -0.011611
  70 H :    0.019490
  71 H :    0.026704
  72 H :    0.034232
  73 H :    0.035161
  74 H :    0.040794
  75 H :    0.040417
  76 H :    0.034964
  77 H :    0.033999
  78 H :    0.024791
  79 H :    0.096178
  80 H :    0.027016
  81 H :    0.017805
  82 H :    0.083541
  83 H :    0.047880
  84 H :    0.047427
  85 H :    0.049991
  86 H :    0.026100
  87 H :    0.022494
  88 H :    0.029177
  89 H :    0.033550
  90 H :    0.031444
  91 H :    0.045350
  92 H :    0.037061
  93 H :    0.030011
  94 H :    0.041100
  95 H :    0.036465
  96 H :    0.038843
  97 H :    0.034613
  98 H :    0.032565
  99 H :    0.031835
 100 H :    0.030494

  Mayer bond orders larger than 0.100000
B(  0-C ,  1-C ) :   1.5624 B(  0-C ,  4-S ) :   1.1510 B(  0-C , 70-H ) :   0.9720
B(  1-C ,  2-C ) :   1.2422 B(  1-C , 71-H ) :   0.9980 B(  2-C ,  3-C ) :   1.5573
B(  2-C ,  7-Ge) :   0.8884 B(  3-C ,  4-S ) :   1.1195 B(  3-C ,  5-C ) :   1.1352
B(  5-C ,  6-C ) :   1.5508 B(  5-C , 11-C ) :   0.1049 B(  5-C , 12-S ) :   1.1168
B(  6-C ,  7-Ge) :   0.8871 B(  6-C , 10-C ) :   1.2249 B(  7-Ge,  8-C ) :   1.0094
B(  7-Ge,  9-C ) :   1.0099 B(  8-C , 72-H ) :   0.9609 B(  8-C , 73-H ) :   0.9608
B(  8-C , 74-H ) :   0.9602 B(  9-C , 75-H ) :   0.9597 B(  9-C , 76-H ) :   0.9606
B(  9-C , 77-H ) :   0.9615 B( 10-C , 11-C ) :   1.5445 B( 10-C , 78-H ) :   1.0050
B( 11-C , 12-S ) :   1.1317 B( 11-C , 13-C ) :   1.0381 B( 13-C , 14-S ) :   1.0061
B( 13-C , 16-C ) :   0.9399 B( 13-C , 17-C ) :   0.9698 B( 14-S , 15-C ) :   1.0887
B( 15-C , 16-C ) :   1.5046 B( 15-C , 26-C ) :   1.2286 B( 16-C , 17-C ) :   0.1968
B( 16-C , 24-C ) :   0.9562 B( 17-C , 18-C ) :   1.5151 B( 17-C , 24-C ) :   0.8639
B( 18-C , 19-C ) :   0.9608 B( 18-C , 22-C ) :   1.1296 B( 19-C , 20-O ) :   2.1735
B( 19-C , 21-O ) :   1.2793 B( 21-O , 79-H ) :   0.9461 B( 22-C , 23-C ) :   1.6252
B( 22-C , 80-H ) :   1.0128 B( 23-C , 24-C ) :   1.0583 B( 23-C , 81-H ) :   1.0085
B( 24-C , 25-O ) :   1.1752 B( 25-O , 82-H ) :   0.9673 B( 26-C , 27-C ) :   1.4328
B( 26-C , 33-C ) :   0.1314 B( 26-C , 34-S ) :   1.1138 B( 27-C , 28-C ) :   1.2496
B( 27-C , 31-N ) :   1.3075 B( 28-C , 29-S ) :   1.0439 B( 28-C , 33-C ) :   1.5365
B( 29-S , 30-C ) :   1.0481 B( 30-C , 31-N ) :   1.7876 B( 30-C , 32-C ) :   1.0684
B( 32-C , 83-H ) :   0.9429 B( 32-C , 84-H ) :   0.9429 B( 32-C , 85-H ) :   0.9486
B( 33-C , 34-S ) :   1.1116 B( 33-C , 35-C ) :   1.1836 B( 35-C , 36-S ) :   1.1538
B( 35-C , 37-C ) :   0.1088 B( 35-C , 39-C ) :   1.4837 B( 36-S , 37-C ) :   1.1014
B( 37-C , 38-C ) :   1.3235 B( 37-C , 48-C ) :   1.1944 B( 38-C , 39-C ) :   1.2714
B( 38-C , 47-C ) :   1.1475 B( 39-C , 40-S ) :   1.0532 B( 40-S , 41-C ) :   1.0859
B( 41-C , 42-C ) :   0.9465 B( 41-C , 47-C ) :   1.6051 B( 42-C , 43-O ) :   2.1190
B( 42-C , 44-O ) :   1.2526 B( 44-O , 45-C ) :   0.8978 B( 45-C , 46-C ) :   1.1218
B( 45-C , 86-H ) :   0.9612 B( 45-C , 87-H ) :   0.9457 B( 46-C , 88-H ) :   0.9672
B( 46-C , 89-H ) :   0.9643 B( 46-C , 90-H ) :   0.9670 B( 47-C , 91-H ) :   0.9957
B( 48-C , 49-C ) :   1.5011 B( 48-C , 92-H ) :   0.9636 B( 49-C , 50-C ) :   1.2216
B( 49-C , 93-H ) :   0.9822 B( 50-C , 51-C ) :   1.4840 B( 50-C , 94-H ) :   0.9630
B( 51-C , 52-C ) :   1.0764 B( 51-C , 60-C ) :   0.9581 B( 52-C , 53-C ) :   1.6086
B( 52-C , 58-C ) :   0.9827 B( 53-C , 54-C ) :   1.1484 B( 53-C , 56-C ) :   1.1511
B( 54-C , 55-N ) :   2.9578 B( 56-C , 57-N ) :   2.9572 B( 58-C , 59-C ) :   1.2169
B( 58-C , 65-C ) :   1.4554 B( 59-C , 60-C ) :   0.9461 B( 59-C , 62-C ) :   1.4729
B( 60-C , 61-O ) :   2.1736 B( 62-C , 63-C ) :   1.1742 B( 62-C , 95-H ) :   1.0159
B( 63-C , 64-C ) :   1.2598 B( 63-C , 69-C ) :   1.2449 B( 64-C , 65-C ) :   1.2021
B( 64-C , 66-C ) :   1.2412 B( 65-C , 96-H ) :   0.9885 B( 66-C , 67-C ) :   1.4875
B( 66-C , 97-H ) :   0.9971 B( 67-C , 68-C ) :   1.2624 B( 67-C , 98-H ) :   0.9887
B( 68-C , 69-C ) :   1.4861 B( 68-C , 99-H ) :   0.9885 B( 69-C ,100-H ) :   0.9973

-----------------------------------------------------------------------------
         ABSORPTION SPECTRUM VIA TRANSITION ELECTRIC DIPOLE MOMENTS
-----------------------------------------------------------------------------
State   Energy  Wavelength   fosc         T2         TX        TY        TZ
        (cm-1)    (nm)                  (au**2)     (au)      (au)      (au)
-----------------------------------------------------------------------------
   0   12297.9    813.1   1.448734723  38.78214   1.66788   3.40327   4.94147
   1   16187.7    617.8   0.198033532   4.02744  -0.04801   0.78035   1.84829
   2   18928.9    528.3   0.223079439   3.87981   1.51321  -0.79772  -0.97656
   3   19780.2    505.6   0.078652102   1.30905  -0.44935  -0.51878  -0.91542
   4   23375.3    427.8   0.010709585   0.15083   0.29067  -0.23956  -0.09462
   5   24111.6    414.7   0.089848821   1.22676  -0.58132   0.46918  -0.81774
   6   24613.8    406.3   0.021967211   0.29381   0.36824   0.08758   0.38800
   7   25359.2    394.3   0.099481029   1.29146   0.87547  -0.53471   0.48897
   8   26558.4    376.5   0.002765848   0.03428   0.09688  -0.15619  -0.02246
   9   26682.0    374.8   0.086935509   1.07264  -0.57410   0.85987  -0.06055
  10   27533.8    363.2   0.024769548   0.29616  -0.43591   0.03378   0.32404
  11   27930.6    358.0   0.033158791   0.39084  -0.45044   0.10151  -0.42146
  12   28510.6    350.7   0.010168019   0.11741   0.13305   0.02994  -0.31435
  13   29494.1    339.1   0.040807939   0.45550  -0.09496  -0.28213  -0.60571
  14   29605.4    337.8   0.042575055   0.47343   0.06306   0.34032   0.59468
  15   29806.3    335.5   0.116466044   1.28637  -0.24275   0.56992  -0.95007
  16   30546.4    327.4   0.246657664   2.65834   0.76147   0.21463   1.42563
  17   31050.4    322.1   0.016002737   0.16967   0.14338  -0.11092   0.36988
  18   31776.8    314.7   0.083513949   0.86522   0.07003   0.01749  -0.92736
  19   31891.0    313.6   0.052644594   0.54345   0.47875  -0.44551   0.34024
  20   32295.8    309.6   0.012788859   0.13037  -0.30943   0.03187   0.18330
  21   32515.6    307.5   0.735341050   7.44514  -2.01079  -0.41833  -1.79635
  22   32575.8    307.0   0.428329387   4.32871  -0.92152   0.21753  -1.85262
  23   32787.3    305.0   0.034258368   0.34398  -0.09632   0.54642   0.19007
  24   33227.5    301.0   0.040109142   0.39739  -0.59132   0.04462  -0.21388
  25   33314.0    300.2   0.002827651   0.02794  -0.12592   0.01941  -0.10821
  26   33682.5    296.9   0.088223172   0.86229   0.14255  -0.21276  -0.89258
  27   33926.3    294.8   0.000898218   0.00872  -0.02798  -0.04889  -0.07445
  28   34209.3    292.3   0.069245208   0.66638   0.43868   0.26018   0.63738
  29   34512.6    289.7   0.069349755   0.66152  -0.23986  -0.06050  -0.77481
  30   34856.7    286.9   0.045564967   0.43035  -0.03894   0.65271   0.05294
  31   35577.9    281.1   0.053855864   0.49834  -0.53245   0.45869   0.06665
  32   36037.1    277.5   0.016260867   0.14855  -0.11202   0.08196  -0.35956
  33   36605.5    273.2   0.021140015   0.19012  -0.23765  -0.26607  -0.25070
  34   36745.9    272.1   0.096507690   0.86463   0.67201  -0.53265  -0.35960
  35   36907.6    270.9   0.028401175   0.25334  -0.03230  -0.49393   0.09122
  36   37103.4    269.5   0.262333050   2.32763   1.00238  -0.34332   1.09772
  37   37265.0    268.3   0.010500846   0.09277   0.02930  -0.00044   0.30317
  38   37696.6    265.3   0.007743389   0.06762  -0.22966   0.00422  -0.12192
  39   37910.6    263.8   0.006327883   0.05495   0.04835  -0.22205  -0.05750
  40   38079.5    262.6   0.066827994   0.57775  -0.50556   0.43865   0.36020
  41   38280.0    261.2   0.320662558   2.75773  -1.47010   0.76831  -0.07900
  42   38997.1    256.4   0.015417080   0.13015   0.22111  -0.21223   0.19031
  43   39483.1    253.3   0.018362569   0.15311   0.04251  -0.28086  -0.26911
  44   39725.2    251.7   0.021450659   0.17777   0.27752   0.02239   0.31662
  45   40037.0    249.8   0.022286446   0.18325   0.19569  -0.30150  -0.23251
  46   40114.7    249.3   0.006651996   0.05459  -0.06104   0.17002   0.14819
  47   40289.1    248.2   0.000534748   0.00437   0.00891   0.01494  -0.06377

FINAL SINGLE POINT ENERGY     -7513.802421164651

DIPOLE MOMENT
-------------
                                X             Y             Z
Electronic contribution:    -58.07272       0.57431     -92.07290
Nuclear contribution   :     61.36345      -2.30832      92.34644
                        -----------------------------------------
Total Dipole Moment    :      3.29073      -1.73401       0.27354
                        -----------------------------------------
Magnitude (a.u.)       :      3.72968
Magnitude (Debye)      :      9.48009

Rotational constants in cm-1:     0.001491     0.000236     0.000220
Rotational constants in MHz :    44.711877     7.082533     6.597133

                             ****ORCA TERMINATED NORMALLY****
TOTAL RUN TIME: 0 days 0 hours 10 minutes 51 seconds 950 msec
