                         Program Version 4.2.0 -  RELEASE  -
|  1> # ORCA input file
|  2> # SCF done       -191.516074989568          0.000434104634
|  3> ! CAM-B3LYP def2-SVP def2/J RIJCOSX Grid4 TightSCF
|  4> %maxcore 5000
|  5> %tddft
|  6>     Mode sTDDFT
|  7>     Ethresh 5.0
|  8>     maxcore 5000
|  9> end
| 10>
| 11> %pal
| 12>   nprocs 6
| 13>   end
| 14> * xyz 0 1
| 15>    C       -0.34418        -1.25909        -1.89932
| 16>    C       -0.46992        -0.35916        -2.92160
| 17>    C       -0.55190         1.02511        -2.69085
| 18>    C       -0.50813         1.57335        -1.42651
| 19>    C       -0.36462         0.66476        -0.34644
| 20>    C       -0.29287        -0.75349        -0.59069
| 21>    N       -0.17818        -1.45236         0.54025
| 22>    S       -0.16946        -0.43062         1.77812
| 23>    N       -0.30465         0.94350         0.95640
| 24>    C       -0.59408         3.01179        -1.18875
| 25>    C        0.12439         3.61353        -0.17352
| 26>    C        0.07963         4.98704         0.04725
| 27>    C       -0.67490         5.82895        -0.74889
| 28>    C       -1.46503         5.24250        -1.77746
| 29>    C       -1.43112         3.83783        -1.98919
| 30>    N       -2.22736         3.28497        -2.92579
| 31>    C       -3.01319         4.04721        -3.63837
| 32>    C       -3.04130         5.45618        -3.43193
| 33>    N       -2.28631         6.01141        -2.52088
| 34>    C       -3.93721         6.35033        -4.22157
| 35>    C       -3.88331         3.38386        -4.65279
| 36>    C       -0.70326         7.26332        -0.51965
| 37>    C       -0.89376         8.19193        -1.52253
| 38>    C       -1.04447         9.56596        -1.28516
| 39>    C       -1.01749        10.12143        -0.02319
| 40>    C       -0.70869         9.22134         1.02783
| 41>    C       -0.55685         7.80702         0.78538
| 42>    N       -0.30258         7.24577         1.95200
| 43>    O       -0.29193         8.22394         2.84919
| 44>    N       -0.53706         9.42211         2.31978
| 45>    C       -1.31073        11.51576         0.26526
| 46>    C       -0.53649        12.09825         1.37049
| 47>    C       -1.15288        12.74849         2.44119
| 48>    C       -0.42439        13.22095         3.52484
| 49>    C        0.95527        13.04320         3.56383
| 50>    C        1.59308        12.39213         2.51201
| 51>    C        0.84723        11.92707         1.43800
| 52>    F        1.48287        11.31723         0.43174
| 53>    F        2.91609        12.22157         2.53759
| 54>    F        1.66114        13.49679         4.59885
| 55>    F       -1.04341        13.84529         4.52876
| 56>    F       -2.47827        12.91782         2.43986
| 57>    C       -2.29590        12.20114        -0.39005
| 58>    C       -3.24475        11.47020        -1.25801
| 59>    C       -3.93985        10.34660        -0.80302
| 60>    C       -4.81783         9.64730        -1.62187
| 61>    C       -5.03740        10.07636        -2.92823
| 62>    C       -4.37784        11.20736        -3.39877
| 63>    C       -3.49852        11.88924        -2.56551
| 64>    F       -2.85140        12.95184        -3.05479
| 65>    F       -4.58090        11.62556        -4.64935
| 66>    F       -5.87155         9.40552        -3.72366
| 67>    F       -5.45558         8.57059        -1.16265
| 68>    F       -3.76944         9.92334         0.45062
| 69>    C       -2.49639        13.63196        -0.31047
| 70>    C       -3.74205        14.19287        -0.40529
| 71>    C       -4.01068        15.56358        -0.36750
| 72>    C       -2.92098        16.54060        -0.22407
| 73>    C       -1.61651        16.21270        -0.12107
| 74>    S       -1.03319        14.60039        -0.14813
| 75>    C       -3.55856        17.80735        -0.22343
| 76>    C       -4.94295        17.64564        -0.35699
| 77>    C       -5.60630        18.89509        -0.38249
| 78>    C       -4.73768        19.93238        -0.26627
| 79>    S       -3.08099        19.45292        -0.12262
| 80>    C       -5.23504        16.23958        -0.44042
| 81>    C       -6.51372        15.60320        -0.57540
| 82>    C       -7.70582        16.19962        -0.54159
| 83>    H       -0.28260        -2.32226        -2.06520
| 84>    H       -0.50616        -0.71225        -3.94160
| 85>    H       -0.64361         1.68403        -3.53871
| 86>    H        0.74723         3.00301         0.46017
| 87>    H        0.66471         5.40972         0.84845
| 88>    H       -3.77049         6.21694        -5.28892
| 89>    H       -3.74349         7.38438        -3.95177
| 90>    H       -4.98072         6.11975        -4.01271
| 91>    H       -3.72163         2.31037        -4.61750
| 92>    H       -3.65195         3.75189        -5.65145
| 93>    H       -4.93139         3.59799        -4.45049
| 94>    H       -0.94622         7.84717        -2.54151
| 95>    H       -1.17949        10.21392        -2.13826
| 96>    H       -4.57898        13.51142        -0.48374
| 97>    H       -0.83565        16.94924        -0.01536
| 98>    H       -6.66502        19.04146        -0.48820
| 99>    H       -4.96716        20.98037        -0.25579
|100>    H       -6.47861        14.52921        -0.70796
|101>    H       -7.81915        17.25763        -0.39593
|102>    H       -8.61460        15.63344        -0.64955
|103> *
|104>
|105>                          ****END OF INPUT****

CARTESIAN COORDINATES (ANGSTROEM)
---------------------------------
  C     -0.344180   -1.259090   -1.899320
  C     -0.469920   -0.359160   -2.921600
  C     -0.551900    1.025110   -2.690850
  C     -0.508130    1.573350   -1.426510
  C     -0.364620    0.664760   -0.346440
  C     -0.292870   -0.753490   -0.590690
  N     -0.178180   -1.452360    0.540250
  S     -0.169460   -0.430620    1.778120
  N     -0.304650    0.943500    0.956400
  C     -0.594080    3.011790   -1.188750
  C      0.124390    3.613530   -0.173520
  C      0.079630    4.987040    0.047250
  C     -0.674900    5.828950   -0.748890
  C     -1.465030    5.242500   -1.777460
  C     -1.431120    3.837830   -1.989190
  N     -2.227360    3.284970   -2.925790
  C     -3.013190    4.047210   -3.638370
  C     -3.041300    5.456180   -3.431930
  N     -2.286310    6.011410   -2.520880
  C     -3.937210    6.350330   -4.221570
  C     -3.883310    3.383860   -4.652790
  C     -0.703260    7.263320   -0.519650
  C     -0.893760    8.191930   -1.522530
  C     -1.044470    9.565960   -1.285160
  C     -1.017490   10.121430   -0.023190
  C     -0.708690    9.221340    1.027830
  C     -0.556850    7.807020    0.785380
  N     -0.302580    7.245770    1.952000
  O     -0.291930    8.223940    2.849190
  N     -0.537060    9.422110    2.319780
  C     -1.310730   11.515760    0.265260
  C     -0.536490   12.098250    1.370490
  C     -1.152880   12.748490    2.441190
  C     -0.424390   13.220950    3.524840
  C      0.955270   13.043200    3.563830
  C      1.593080   12.392130    2.512010
  C      0.847230   11.927070    1.438000
  F      1.482870   11.317230    0.431740
  F      2.916090   12.221570    2.537590
  F      1.661140   13.496790    4.598850
  F     -1.043410   13.845290    4.528760
  F     -2.478270   12.917820    2.439860
  C     -2.295900   12.201140   -0.390050
  C     -3.244750   11.470200   -1.258010
  C     -3.939850   10.346600   -0.803020
  C     -4.817830    9.647300   -1.621870
  C     -5.037400   10.076360   -2.928230
  C     -4.377840   11.207360   -3.398770
  C     -3.498520   11.889240   -2.565510
  F     -2.851400   12.951840   -3.054790
  F     -4.580900   11.625560   -4.649350
  F     -5.871550    9.405520   -3.723660
  F     -5.455580    8.570590   -1.162650
  F     -3.769440    9.923340    0.450620
  C     -2.496390   13.631960   -0.310470
  C     -3.742050   14.192870   -0.405290
  C     -4.010680   15.563580   -0.367500
  C     -2.920980   16.540600   -0.224070
  C     -1.616510   16.212700   -0.121070
  S     -1.033190   14.600390   -0.148130
  C     -3.558560   17.807350   -0.223430
  C     -4.942950   17.645640   -0.356990
  C     -5.606300   18.895090   -0.382490
  C     -4.737680   19.932380   -0.266270
  S     -3.080990   19.452920   -0.122620
  C     -5.235040   16.239580   -0.440420
  C     -6.513720   15.603200   -0.575400
  C     -7.705820   16.199620   -0.541590
  H     -0.282600   -2.322260   -2.065200
  H     -0.506160   -0.712250   -3.941600
  H     -0.643610    1.684030   -3.538710
  H      0.747230    3.003010    0.460170
  H      0.664710    5.409720    0.848450
  H     -3.770490    6.216940   -5.288920
  H     -3.743490    7.384380   -3.951770
  H     -4.980720    6.119750   -4.012710
  H     -3.721630    2.310370   -4.617500
  H     -3.651950    3.751890   -5.651450
  H     -4.931390    3.597990   -4.450490
  H     -0.946220    7.847170   -2.541510
  H     -1.179490   10.213920   -2.138260
  H     -4.578980   13.511420   -0.483740
  H     -0.835650   16.949240   -0.015360
  H     -6.665020   19.041460   -0.488200
  H     -4.967160   20.980370   -0.255790
  H     -6.478610   14.529210   -0.707960
  H     -7.819150   17.257630   -0.395930
  H     -8.614600   15.633440   -0.649550

 Total Charge           Charge          ....    0
 Multiplicity           Mult            ....    1
 Number of Electrons    NEL             ....  496
 Basis Dimension        Dim             .... 1064

ORBITAL ENERGIES
----------------

  NO   OCC          E(Eh)            E(eV)
   0   2.0000     -89.012928     -2422.1649
   1   2.0000     -88.970401     -2421.0077
   2   2.0000     -88.951956     -2420.5058
   3   2.0000     -24.818815      -675.3543
   4   2.0000     -24.811715      -675.1611
   5   2.0000     -24.811667      -675.1598
   6   2.0000     -24.811182      -675.1466
   7   2.0000     -24.810927      -675.1397
   8   2.0000     -24.805063      -674.9801
   9   2.0000     -24.803894      -674.9483
  10   2.0000     -24.801655      -674.8873
  11   2.0000     -24.799896      -674.8395
  12   2.0000     -24.798472      -674.8007
  13   2.0000     -19.350497      -526.5538
  14   2.0000     -14.475153      -393.8889
  15   2.0000     -14.474851      -393.8807
  16   2.0000     -14.426626      -392.5684
  17   2.0000     -14.426441      -392.5634
  18   2.0000     -14.417174      -392.3113
  19   2.0000     -14.415576      -392.2678
  20   2.0000     -10.398925      -282.9691
  21   2.0000     -10.393688      -282.8266
  22   2.0000     -10.393626      -282.8249
  23   2.0000     -10.392739      -282.8008
  24   2.0000     -10.391999      -282.7807
  25   2.0000     -10.386941      -282.6430
  26   2.0000     -10.381894      -282.5057
  27   2.0000     -10.381315      -282.4899
  28   2.0000     -10.379383      -282.4374
  29   2.0000     -10.378790      -282.4212
  30   2.0000     -10.325838      -280.9803
  31   2.0000     -10.322950      -280.9017
  32   2.0000     -10.322585      -280.8918
  33   2.0000     -10.321235      -280.8551
  34   2.0000     -10.320990      -280.8484
  35   2.0000     -10.320695      -280.8404
  36   2.0000     -10.320491      -280.8348
  37   2.0000     -10.318553      -280.7821
  38   2.0000     -10.314333      -280.6673
  39   2.0000     -10.313092      -280.6335
  40   2.0000     -10.312672      -280.6221
  41   2.0000     -10.312617      -280.6206
  42   2.0000     -10.311625      -280.5936
  43   2.0000     -10.310367      -280.5593
  44   2.0000     -10.305324      -280.4221
  45   2.0000     -10.301728      -280.3243
  46   2.0000     -10.294786      -280.1354
  47   2.0000     -10.294418      -280.1254
  48   2.0000     -10.291398      -280.0432
  49   2.0000     -10.291108      -280.0353
  50   2.0000     -10.287256      -279.9305
  51   2.0000     -10.286291      -279.9042
  52   2.0000     -10.285885      -279.8932
  53   2.0000     -10.285501      -279.8827
  54   2.0000     -10.282592      -279.8036
  55   2.0000     -10.278231      -279.6849
  56   2.0000     -10.277815      -279.6736
  57   2.0000     -10.277276      -279.6589
  58   2.0000     -10.275129      -279.6005
  59   2.0000     -10.274898      -279.5942
  60   2.0000     -10.273893      -279.5668
  61   2.0000     -10.272194      -279.5206
  62   2.0000     -10.271941      -279.5137
  63   2.0000     -10.271175      -279.4929
  64   2.0000     -10.270354      -279.4706
  65   2.0000     -10.269733      -279.4536
  66   2.0000     -10.269469      -279.4465
  67   2.0000     -10.257162      -279.1116
  68   2.0000      -8.104924      -220.5462
  69   2.0000      -8.065006      -219.4600
  70   2.0000      -8.047555      -218.9851
  71   2.0000      -6.076083      -165.3386
  72   2.0000      -6.068342      -165.1280
  73   2.0000      -6.067409      -165.1026
  74   2.0000      -6.034686      -164.2122
  75   2.0000      -6.030046      -164.0859
  76   2.0000      -6.026853      -163.9990
  77   2.0000      -6.016966      -163.7300
  78   2.0000      -6.012757      -163.6154
  79   2.0000      -6.009563      -163.5285
  80   2.0000      -1.343699       -36.5639
  81   2.0000      -1.335351       -36.3368
  82   2.0000      -1.331545       -36.2332
  83   2.0000      -1.330222       -36.1972
  84   2.0000      -1.324668       -36.0461
  85   2.0000      -1.319957       -35.9179
  86   2.0000      -1.319671       -35.9101
  87   2.0000      -1.316487       -35.8234
  88   2.0000      -1.309219       -35.6256
  89   2.0000      -1.304680       -35.5022
  90   2.0000      -1.304126       -35.4871
  91   2.0000      -1.112749       -30.2795
  92   2.0000      -1.078217       -29.3398
  93   2.0000      -1.014040       -27.5934
  94   2.0000      -1.007435       -27.4137
  95   2.0000      -1.003373       -27.3032
  96   2.0000      -0.999512       -27.1981
  97   2.0000      -0.997758       -27.1504
  98   2.0000      -0.988131       -26.8884
  99   2.0000      -0.971586       -26.4382
 100   2.0000      -0.969560       -26.3831
 101   2.0000      -0.958066       -26.0703
 102   2.0000      -0.945381       -25.7251
 103   2.0000      -0.941251       -25.6127
 104   2.0000      -0.919159       -25.0116
 105   2.0000      -0.911642       -24.8070
 106   2.0000      -0.901889       -24.5416
 107   2.0000      -0.885570       -24.0976
 108   2.0000      -0.883261       -24.0347
 109   2.0000      -0.877453       -23.8767
 110   2.0000      -0.869272       -23.6541
 111   2.0000      -0.860074       -23.4038
 112   2.0000      -0.857344       -23.3295
 113   2.0000      -0.855071       -23.2677
 114   2.0000      -0.846717       -23.0403
 115   2.0000      -0.838002       -22.8032
 116   2.0000      -0.827711       -22.5232
 117   2.0000      -0.825158       -22.4537
 118   2.0000      -0.809195       -22.0193
 119   2.0000      -0.800890       -21.7933
 120   2.0000      -0.794462       -21.6184
 121   2.0000      -0.783537       -21.3211
 122   2.0000      -0.768836       -20.9211
 123   2.0000      -0.763197       -20.7677
 124   2.0000      -0.753536       -20.5048
 125   2.0000      -0.748993       -20.3811
 126   2.0000      -0.742660       -20.2088
 127   2.0000      -0.740710       -20.1558
 128   2.0000      -0.733986       -19.9728
 129   2.0000      -0.722846       -19.6696
 130   2.0000      -0.717564       -19.5259
 131   2.0000      -0.716769       -19.5043
 132   2.0000      -0.715694       -19.4750
 133   2.0000      -0.704198       -19.1622
 134   2.0000      -0.690989       -18.8028
 135   2.0000      -0.688845       -18.7444
 136   2.0000      -0.686353       -18.6766
 137   2.0000      -0.680637       -18.5211
 138   2.0000      -0.675537       -18.3823
 139   2.0000      -0.670176       -18.2364
 140   2.0000      -0.665241       -18.1021
 141   2.0000      -0.659018       -17.9328
 142   2.0000      -0.655399       -17.8343
 143   2.0000      -0.653916       -17.7940
 144   2.0000      -0.645175       -17.5561
 145   2.0000      -0.639200       -17.3935
 146   2.0000      -0.633848       -17.2479
 147   2.0000      -0.632107       -17.2005
 148   2.0000      -0.628341       -17.0980
 149   2.0000      -0.626170       -17.0390
 150   2.0000      -0.622520       -16.9396
 151   2.0000      -0.620734       -16.8910
 152   2.0000      -0.618593       -16.8328
 153   2.0000      -0.615056       -16.7365
 154   2.0000      -0.612578       -16.6691
 155   2.0000      -0.611015       -16.6266
 156   2.0000      -0.607396       -16.5281
 157   2.0000      -0.603474       -16.4214
 158   2.0000      -0.601032       -16.3549
 159   2.0000      -0.596288       -16.2258
 160   2.0000      -0.591062       -16.0836
 161   2.0000      -0.588227       -16.0065
 162   2.0000      -0.584677       -15.9099
 163   2.0000      -0.580130       -15.7861
 164   2.0000      -0.576886       -15.6979
 165   2.0000      -0.572605       -15.5814
 166   2.0000      -0.571998       -15.5649
 167   2.0000      -0.566963       -15.4279
 168   2.0000      -0.564212       -15.3530
 169   2.0000      -0.561869       -15.2892
 170   2.0000      -0.557182       -15.1617
 171   2.0000      -0.556337       -15.1387
 172   2.0000      -0.553965       -15.0742
 173   2.0000      -0.552551       -15.0357
 174   2.0000      -0.550616       -14.9830
 175   2.0000      -0.547930       -14.9099
 176   2.0000      -0.546440       -14.8694
 177   2.0000      -0.544831       -14.8256
 178   2.0000      -0.540149       -14.6982
 179   2.0000      -0.537320       -14.6212
 180   2.0000      -0.534079       -14.5330
 181   2.0000      -0.532785       -14.4978
 182   2.0000      -0.530372       -14.4322
 183   2.0000      -0.527400       -14.3513
 184   2.0000      -0.523105       -14.2344
 185   2.0000      -0.521445       -14.1892
 186   2.0000      -0.517739       -14.0884
 187   2.0000      -0.514965       -14.0129
 188   2.0000      -0.508109       -13.8263
 189   2.0000      -0.507155       -13.8004
 190   2.0000      -0.504053       -13.7160
 191   2.0000      -0.500213       -13.6115
 192   2.0000      -0.498848       -13.5743
 193   2.0000      -0.496376       -13.5071
 194   2.0000      -0.495604       -13.4861
 195   2.0000      -0.490883       -13.3576
 196   2.0000      -0.489660       -13.3243
 197   2.0000      -0.488558       -13.2943
 198   2.0000      -0.482243       -13.1225
 199   2.0000      -0.481287       -13.0965
 200   2.0000      -0.479033       -13.0352
 201   2.0000      -0.475332       -12.9345
 202   2.0000      -0.471606       -12.8330
 203   2.0000      -0.470034       -12.7903
 204   2.0000      -0.468511       -12.7488
 205   2.0000      -0.464886       -12.6502
 206   2.0000      -0.460404       -12.5282
 207   2.0000      -0.457973       -12.4621
 208   2.0000      -0.456659       -12.4263
 209   2.0000      -0.454438       -12.3659
 210   2.0000      -0.453024       -12.3274
 211   2.0000      -0.450764       -12.2659
 212   2.0000      -0.447965       -12.1897
 213   2.0000      -0.447426       -12.1751
 214   2.0000      -0.442319       -12.0361
 215   2.0000      -0.440339       -11.9822
 216   2.0000      -0.432080       -11.7575
 217   2.0000      -0.430091       -11.7034
 218   2.0000      -0.426905       -11.6167
 219   2.0000      -0.422661       -11.5012
 220   2.0000      -0.416103       -11.3227
 221   2.0000      -0.412454       -11.2235
 222   2.0000      -0.411437       -11.1958
 223   2.0000      -0.407518       -11.0891
 224   2.0000      -0.405054       -11.0221
 225   2.0000      -0.400741       -10.9047
 226   2.0000      -0.395568       -10.7640
 227   2.0000      -0.394673       -10.7396
 228   2.0000      -0.387550       -10.5458
 229   2.0000      -0.385700       -10.4954
 230   2.0000      -0.376842       -10.2544
 231   2.0000      -0.365679        -9.9506
 232   2.0000      -0.361278        -9.8309
 233   2.0000      -0.357330        -9.7235
 234   2.0000      -0.353403        -9.6166
 235   2.0000      -0.344012        -9.3610
 236   2.0000      -0.333113        -9.0645
 237   2.0000      -0.329775        -8.9736
 238   2.0000      -0.324537        -8.8311
 239   2.0000      -0.321014        -8.7352
 240   2.0000      -0.318349        -8.6627
 241   2.0000      -0.316285        -8.6065
 242   2.0000      -0.314648        -8.5620
 243   2.0000      -0.309695        -8.4272
 244   2.0000      -0.294076        -8.0022
 245   2.0000      -0.273244        -7.4354
 246   2.0000      -0.261549        -7.1171
 247   2.0000      -0.232777        -6.3342
 248   0.0000      -0.079993        -2.1767
 249   0.0000      -0.053529        -1.4566
 250   0.0000      -0.043555        -1.1852
 251   0.0000      -0.033950        -0.9238
 252   0.0000      -0.029455        -0.8015

MULLIKEN ATOMIC CHARGES
-----------------------
   0 C :   -0.019278
   1 C :    0.031884
   2 C :   -0.000500
   3 C :    0.059810
   4 C :   -0.006543
   5 C :    0.042489
   6 N :   -0.267497
   7 S :    0.492926
   8 N :   -0.283327
   9 C :    0.068209
  10 C :   -0.010750
  11 C :   -0.036688
  12 C :    0.065107
  13 C :   -0.050832
  14 C :   -0.053423
  15 N :    0.010642
  16 C :   -0.172448
  17 C :   -0.168103
  18 N :   -0.001816
  19 C :    0.128709
  20 C :    0.123856
  21 C :    0.053628
  22 C :   -0.001012
  23 C :   -0.012398
  24 C :    0.000764
  25 C :   -0.044922
  26 C :   -0.020242
  27 N :    0.047250
  28 O :   -0.092696
  29 N :    0.040725
  30 C :    0.064892
  31 C :   -0.172889
  32 C :    0.230800
  33 C :    0.171864
  34 C :    0.133846
  35 C :    0.172288
  36 C :    0.200615
  37 F :   -0.161955
  38 F :   -0.159218
  39 F :   -0.153868
  40 F :   -0.159430
  41 F :   -0.155142
  42 C :    0.093280
  43 C :   -0.228813
  44 C :    0.247539
  45 C :    0.166493
  46 C :    0.126192
  47 C :    0.169444
  48 C :    0.203359
  49 F :   -0.155565
  50 F :   -0.156151
  51 F :   -0.156808
  52 F :   -0.154292
  53 F :   -0.149507
  54 C :   -0.149454
  55 C :   -0.009239
  56 C :    0.044115
  57 C :    0.072943
  58 C :   -0.124154
  59 S :    0.129443
  60 C :   -0.113484
  61 C :    0.048832
  62 C :   -0.001300
  63 C :   -0.071439
  64 S :    0.125290
  65 C :    0.067277
  66 C :   -0.019263
  67 C :   -0.020164
  68 H :   -0.019748
  69 H :   -0.009284
  70 H :   -0.017355
  71 H :   -0.009424
  72 H :   -0.006323
  73 H :    0.023434
  74 H :    0.014048
  75 H :    0.034505
  76 H :    0.028029
  77 H :    0.024749
  78 H :    0.027561
  79 H :   -0.013062
  80 H :   -0.014815
  81 H :   -0.007314
  82 H :    0.034017
  83 H :   -0.015675
  84 H :    0.024387
  85 H :   -0.034202
  86 H :   -0.000478
  87 H :    0.017047
Sum of atomic charges:   -0.0000000

LOEWDIN ATOMIC CHARGES
----------------------
   0 C :   -0.019222
   1 C :   -0.018315
   2 C :    0.004099
   3 C :   -0.022534
   4 C :   -0.043637
   5 C :   -0.055381
   6 N :   -0.288219
   7 S :    0.634222
   8 N :   -0.291333
   9 C :   -0.010662
  10 C :    0.003897
  11 C :    0.003858
  12 C :   -0.027012
  13 C :   -0.003823
  14 C :   -0.005910
  15 N :   -0.039086
  16 C :   -0.005233
  17 C :   -0.002694
  18 N :   -0.044853
  19 C :   -0.053121
  20 C :   -0.053384
  21 C :   -0.009849
  22 C :    0.003143
  23 C :    0.000204
  24 C :   -0.036338
  25 C :   -0.048853
  26 C :   -0.044218
  27 N :   -0.023897
  28 O :    0.076279
  29 N :   -0.033401
  30 C :   -0.010705
  31 C :   -0.095703
  32 C :    0.070068
  33 C :    0.028577
  34 C :    0.046664
  35 C :    0.027950
  36 C :    0.068996
  37 F :   -0.037862
  38 F :   -0.038886
  39 F :   -0.031588
  40 F :   -0.038607
  41 F :   -0.031924
  42 C :   -0.020284
  43 C :   -0.077007
  44 C :    0.068104
  45 C :    0.027885
  46 C :    0.037736
  47 C :    0.024611
  48 C :    0.062640
  49 F :   -0.034482
  50 F :   -0.036965
  51 F :   -0.032001
  52 F :   -0.034345
  53 F :   -0.027525
  54 C :   -0.180025
  55 C :   -0.005684
  56 C :   -0.028813
  57 C :   -0.051980
  58 C :   -0.139326
  59 S :    0.462143
  60 C :   -0.197961
  61 C :   -0.037837
  62 C :   -0.063894
  63 C :   -0.167650
  64 S :    0.420872
  65 C :   -0.040319
  66 C :   -0.023157
  67 C :   -0.052109
  68 H :    0.036227
  69 H :    0.031521
  70 H :    0.028786
  71 H :    0.033039
  72 H :    0.033575
  73 H :    0.036834
  74 H :    0.032383
  75 H :    0.041707
  76 H :    0.038963
  77 H :    0.037019
  78 H :    0.038533
  79 H :    0.032216
  80 H :    0.034972
  81 H :    0.036031
  82 H :    0.035734
  83 H :    0.028965
  84 H :    0.022910
  85 H :    0.024792
  86 H :    0.017769
  87 H :    0.023688

  Mayer bond orders larger than 0.100000
B(  0-C ,  1-C ) :   1.4912 B(  0-C ,  3-C ) :   0.1089 B(  0-C ,  5-C ) :   1.2071
B(  0-C , 68-H ) :   1.0217 B(  1-C ,  2-C ) :   1.1971 B(  1-C , 69-H ) :   0.9867
B(  2-C ,  3-C ) :   1.5468 B(  2-C , 70-H ) :   0.9857 B(  3-C ,  4-C ) :   1.2126
B(  3-C ,  9-C ) :   0.9704 B(  4-C ,  5-C ) :   1.1652 B(  4-C ,  8-N ) :   1.5195
B(  5-C ,  6-N ) :   1.5102 B(  6-N ,  7-S ) :   1.2781 B(  6-N ,  8-N ) :   0.1518
B(  7-S ,  8-N ) :   1.2589 B(  9-C , 10-C ) :   1.4535 B(  9-C , 12-C ) :   0.1201
B(  9-C , 14-C ) :   1.2468 B( 10-C , 11-C ) :   1.2317 B( 10-C , 71-H ) :   0.9927
B( 11-C , 12-C ) :   1.4406 B( 11-C , 72-H ) :   0.9947 B( 12-C , 13-C ) :   1.2442
B( 12-C , 21-C ) :   0.9948 B( 13-C , 14-C ) :   1.2610 B( 13-C , 18-N ) :   1.4263
B( 14-C , 15-N ) :   1.4318 B( 15-N , 16-C ) :   1.6959 B( 16-C , 17-C ) :   1.1700
B( 16-C , 20-C ) :   1.0922 B( 17-C , 18-N ) :   1.6882 B( 17-C , 19-C ) :   1.0893
B( 19-C , 73-H ) :   0.9392 B( 19-C , 74-H ) :   0.9439 B( 19-C , 75-H ) :   0.9411
B( 20-C , 76-H ) :   0.9429 B( 20-C , 77-H ) :   0.9423 B( 20-C , 78-H ) :   0.9420
B( 21-C , 22-C ) :   1.5144 B( 21-C , 24-C ) :   0.1138 B( 21-C , 26-C ) :   1.1660
B( 22-C , 23-C ) :   1.1734 B( 22-C , 79-H ) :   0.9901 B( 23-C , 24-C ) :   1.4939
B( 23-C , 80-H ) :   0.9942 B( 24-C , 25-C ) :   1.1735 B( 24-C , 30-C ) :   1.0380
B( 25-C , 26-C ) :   1.1567 B( 25-C , 29-N ) :   1.5949 B( 26-C , 27-N ) :   1.5906
B( 27-N , 28-O ) :   1.0701 B( 27-N , 29-N ) :   0.1819 B( 28-O , 29-N ) :   1.0588
B( 30-C , 31-C ) :   0.9776 B( 30-C , 42-C ) :   1.7287 B( 31-C , 32-C ) :   1.3187
B( 31-C , 34-C ) :   0.1112 B( 31-C , 36-C ) :   1.3085 B( 32-C , 33-C ) :   1.2948
B( 32-C , 41-F ) :   1.1717 B( 33-C , 34-C ) :   1.2779 B( 33-C , 40-F ) :   1.1706
B( 34-C , 35-C ) :   1.2738 B( 34-C , 39-F ) :   1.1764 B( 35-C , 36-C ) :   1.2893
B( 35-C , 38-F ) :   1.1729 B( 36-C , 37-F ) :   1.1713 B( 42-C , 43-C ) :   0.9628
B( 42-C , 54-C ) :   1.0638 B( 43-C , 44-C ) :   1.3299 B( 43-C , 46-C ) :   0.1121
B( 43-C , 48-C ) :   1.3276 B( 44-C , 45-C ) :   1.2899 B( 44-C , 53-F ) :   1.1712
B( 45-C , 46-C ) :   1.2724 B( 45-C , 52-F ) :   1.1809 B( 46-C , 47-C ) :   1.2782
B( 46-C , 51-F ) :   1.1605 B( 47-C , 48-C ) :   1.2769 B( 47-C , 50-F ) :   1.1774
B( 48-C , 49-F ) :   1.1740 B( 54-C , 55-C ) :   1.5766 B( 54-C , 59-S ) :   1.0443
B( 55-C , 56-C ) :   1.2115 B( 55-C , 81-H ) :   0.9586 B( 56-C , 57-C ) :   1.0428
B( 56-C , 65-C ) :   1.4294 B( 57-C , 58-C ) :   1.6079 B( 57-C , 60-C ) :   1.1858
B( 58-C , 59-S ) :   1.1392 B( 58-C , 82-H ) :   0.9408 B( 60-C , 61-C ) :   1.4435
B( 60-C , 64-S ) :   1.0789 B( 61-C , 62-C ) :   1.2048 B( 61-C , 65-C ) :   1.0961
B( 62-C , 63-C ) :   1.5918 B( 62-C , 83-H ) :   1.0012 B( 63-C , 64-S ) :   1.1506
B( 63-C , 84-H ) :   0.9655 B( 65-C , 66-C ) :   1.1367 B( 66-C , 67-C ) :   1.9113
B( 66-C , 85-H ) :   0.9506 B( 67-C , 86-H ) :   0.9569 B( 67-C , 87-H ) :   0.9432

-----------------------------------------------------------------------------
         ABSORPTION SPECTRUM VIA TRANSITION ELECTRIC DIPOLE MOMENTS
-----------------------------------------------------------------------------
State   Energy  Wavelength   fosc         T2         TX        TY        TZ
        (cm-1)    (nm)                  (au**2)     (au)      (au)      (au)
-----------------------------------------------------------------------------
   0   18571.5    538.5   0.773998145  13.72043  -1.67293   3.30381  -0.08100
   1   22941.3    435.9   0.139490005   2.00170  -0.46613   1.33455   0.05841
   2   23741.9    421.2   0.377858476   5.23950   0.10197   2.27552   0.22602
   3   25737.0    388.5   0.078398197   1.00282   0.79826  -0.44662   0.40761
   4   26761.8    373.7   0.045962230   0.56541   0.01554  -0.59937  -0.45379
   5   28680.7    348.7   0.106769795   1.22556   0.07477  -1.10441   0.01590
   6   29612.9    337.7   0.026966191   0.29979   0.02050   0.42001   0.35066
   7   30132.1    331.9   0.046843196   0.51179  -0.01682   0.68532   0.20457
   8   30680.2    325.9   0.004911455   0.05270  -0.21604   0.03151  -0.07098
   9   30819.0    324.5   0.022278831   0.23799  -0.35237  -0.24191  -0.23516
  10   31124.7    321.3   0.087251494   0.92288  -0.94840  -0.14641   0.04443
  11   32528.9    307.4   0.028761352   0.29108   0.27458  -0.34289   0.31324
  12   33311.4    300.2   0.030585988   0.30228  -0.39350   0.18287  -0.33764
  13   33350.1    299.8   0.037444275   0.36963  -0.39054  -0.17254  -0.43282
  14   34297.6    291.6   0.115189554   1.10567   0.50739  -0.85628  -0.33912
  15   34399.9    290.7   0.243857962   2.33376   1.25098  -0.59132   0.64741
  16   34889.1    286.6   0.091761649   0.86586   0.78466  -0.47103  -0.16821
  17   35342.4    282.9   0.007338578   0.06836  -0.02096  -0.24584  -0.08649
  18   35529.1    281.5   0.000254853   0.00236   0.03943  -0.00664  -0.02761
  19   35719.6    280.0   0.330042899   3.04186  -1.20951   1.02367  -0.72873
  20   35966.1    278.0   0.008569791   0.07844  -0.12835   0.24340  -0.05222
  21   36436.3    274.5   0.076187005   0.68837  -0.06382  -0.80897  -0.17281
  22   37137.9    269.3   0.150131791   1.33086   0.77567  -0.84785  -0.10168
  23   37627.5    265.8   0.046187193   0.40410  -0.51737   0.35840   0.08936
  24   38284.5    261.2   0.072886425   0.62676   0.33711  -0.32109   0.64032
  25   38407.8    260.4   0.083476805   0.71552   0.08792  -0.71456  -0.44406
  26   38528.8    259.5   0.002695497   0.02303   0.02137   0.07926  -0.12764
  27   38657.4    258.7   0.060464269   0.51492   0.46599   0.22493   0.49718
  28   38734.0    258.2   0.135476306   1.15145  -0.63768  -0.86205  -0.04102
  29   39300.1    254.5   0.300198209   2.51472   1.06702  -1.16892  -0.09908
  30   39453.5    253.5   0.016792255   0.14012   0.22244   0.26869   0.13580
  31   39788.6    251.3   0.004124778   0.03413  -0.16506  -0.07037  -0.04395
  32   39961.6    250.2   0.064810912   0.53393   0.02745  -0.36223   0.63400
  33   40149.3    249.1   0.056253813   0.46126   0.33603   0.57692   0.12453

FINAL SINGLE POINT ENERGY     -4433.470148827109

DIPOLE MOMENT
-------------
                                X             Y             Z
Electronic contribution:     24.89589      37.99590      37.99894
Nuclear contribution   :    -25.49316     -37.99547     -40.27817
                        -----------------------------------------
Total Dipole Moment    :     -0.59727       0.00043      -2.27923
                        -----------------------------------------
Magnitude (a.u.)       :      2.35619
Magnitude (Debye)      :      5.98896

Rotational constants in cm-1:     0.001963     0.000505     0.000428
Rotational constants in MHz :    58.859852    15.143229    12.837344

                             ****ORCA TERMINATED NORMALLY****
TOTAL RUN TIME: 0 days 0 hours 8 minutes 46 seconds 529 msec
