                         Program Version 4.2.0 -  RELEASE  -
|  1> # ORCA input file
|  2> # SCF done       -209.725617910143          0.000819295535
|  3> ! CAM-B3LYP def2-SVP def2/J RIJCOSX Grid4 TightSCF
|  4> %maxcore 5000
|  5> %tddft
|  6>     Mode sTDDFT
|  7>     Ethresh 5.0
|  8>     maxcore 5000
|  9> end
| 10>
| 11> %pal
| 12>   nprocs 6
| 13>   end
| 14> * xyz 0 1
| 15>    C       10.26115         5.27844        -1.66223
| 16>    C       11.03138         6.34840        -2.00316
| 17>    S       12.68395         5.88383        -2.17519
| 18>    C       12.34531         4.23960        -1.78473
| 19>    C       11.02098         4.07082        -1.53941
| 20>    C       10.13761         2.95944        -1.17181
| 21>    O       10.46780         1.81840        -0.94385
| 22>    C        8.77701         3.57724        -1.05187
| 23>    C        8.86899         4.99136        -1.38620
| 24>    C        7.84793         5.89848        -1.49085
| 25>    C        8.09904         7.23914        -1.85032
| 26>    N        8.29340         8.33322        -2.13627
| 27>    C        6.48073         5.62766        -1.28546
| 28>    N        5.35107         5.47891        -1.14498
| 29>    C        7.68418         2.96035        -0.52804
| 30>    C        7.58795         1.55990        -0.25809
| 31>    N        8.22803         0.68370        -1.02591
| 32>    N        8.30417        -0.56233        -0.74087
| 33>    C        7.71200        -1.13283         0.30663
| 34>    C        6.81377        -0.34533         1.08037
| 35>    C        6.78172         1.06201         0.80406
| 36>    N        5.98122         1.71848         1.63628
| 37>    S        5.31112         0.66382         2.64911
| 38>    N        6.02536        -0.67382         2.09944
| 39>    C        8.03972        -2.49672         0.60237
| 40>    C        7.08624        -3.22113         1.45619
| 41>    C        7.46725        -3.73848         2.69478
| 42>    C        6.55108        -4.34752         3.54210
| 43>    C        5.21565        -4.44225         3.16275
| 44>    C        4.80981        -3.92634         1.93586
| 45>    C        5.74107        -3.32132         1.10222
| 46>    F        5.33468        -2.83407        -0.07239
| 47>    F        3.52940        -4.01366         1.56833
| 48>    F        4.32909        -5.02393         3.97196
| 49>    F        6.94478        -4.83741         4.72072
| 50>    F        8.74312        -3.65026         3.08120
| 51>    C        9.21674        -3.04445         0.13313
| 52>    C       10.23989        -2.12363        -0.42690
| 53>    C       10.85946        -1.18528         0.40007
| 54>    C       11.85588        -0.34181        -0.06800
| 55>    C       12.24690        -0.41728        -1.40135
| 56>    C       11.65073        -1.35007        -2.24231
| 57>    C       10.67216        -2.20389        -1.74742
| 58>    F       10.12967        -3.11419        -2.56327
| 59>    F       12.03853        -1.43989        -3.51821
| 60>    F       13.19927         0.39372        -1.86598
| 61>    F       12.44944         0.52416         0.75314
| 62>    F       10.48037        -1.09255         1.68093
| 63>    C        9.56861        -4.41293         0.15959
| 64>    S        8.41837        -5.68712         0.55010
| 65>    C        9.62873        -6.87468         0.31197
| 66>    C       10.86020        -6.31903        -0.07243
| 67>    C       10.82444        -4.94522        -0.15232
| 68>    C       11.89049        -7.40464        -0.27897
| 69>    C       12.35185        -7.45350        -1.73879
| 70>    C       13.08458        -7.23118         0.66308
| 71>    C       11.07867        -8.62698         0.08286
| 72>    C        9.76453        -8.26596         0.42064
| 73>    S        8.80810        -9.61253         0.88803
| 74>    C       10.17814       -10.68390         0.63109
| 75>    C       11.30441        -9.98338         0.18925
| 76>    C       10.09579       -12.06057         0.89035
| 77>    C        9.00980       -12.68092         1.44920
| 78>    C        8.94912       -14.04579         1.73625
| 79>    C        7.89386       -14.65685         2.37592
| 80>    C        7.78140       -16.02899         2.70543
| 81>    C        6.63938       -16.35414         3.37075
| 82>    C        5.78163       -15.25399         3.60736
| 83>    S        6.47648       -13.79108         2.93788
| 84>    C        4.57398       -15.25062         4.27026
| 85>    C        3.91917       -16.36289         4.87073
| 86>    C        2.74591       -16.06017         5.46907
| 87>    C        2.37940       -14.67534         5.38577
| 88>    S        3.63113       -13.79557         4.49300
| 89>    C        1.28444       -14.08426         5.88304
| 90>    H       10.75096         7.37060        -2.16003
| 91>    H       13.13174         3.51161        -1.76675
| 92>    H        6.82382         3.54436        -0.22703
| 93>    H       11.66521        -4.32561        -0.40645
| 94>    H       12.86264        -6.53026        -1.99960
| 95>    H       11.49870        -7.57718        -2.40161
| 96>    H       13.03385        -8.28702        -1.88685
| 97>    H       13.60989        -6.30789         0.43295
| 98>    H       13.77357        -8.06431         0.54981
| 99>    H       12.74892        -7.19316         1.69682
|100>    H       12.23648       -10.47714        -0.01874
|101>    H       10.97439       -12.64674         0.65321
|102>    H        8.14755       -12.07821         1.70888
|103>    H        9.78761       -14.67073         1.45729
|104>    H        8.55196       -16.73173         2.44117
|105>    H        6.39325       -17.34814         3.69806
|106>    H        4.34628       -17.34933         4.83809
|107>    H        2.11234       -16.76604         5.97592
|108>    H        0.54846       -14.65561         6.42075
|109>    H        1.10640       -13.03126         5.76388
|110> *
|111>
|112>                          ****END OF INPUT****

CARTESIAN COORDINATES (ANGSTROEM)
---------------------------------
  C     10.261150    5.278440   -1.662230
  C     11.031380    6.348400   -2.003160
  S     12.683950    5.883830   -2.175190
  C     12.345310    4.239600   -1.784730
  C     11.020980    4.070820   -1.539410
  C     10.137610    2.959440   -1.171810
  O     10.467800    1.818400   -0.943850
  C      8.777010    3.577240   -1.051870
  C      8.868990    4.991360   -1.386200
  C      7.847930    5.898480   -1.490850
  C      8.099040    7.239140   -1.850320
  N      8.293400    8.333220   -2.136270
  C      6.480730    5.627660   -1.285460
  N      5.351070    5.478910   -1.144980
  C      7.684180    2.960350   -0.528040
  C      7.587950    1.559900   -0.258090
  N      8.228030    0.683700   -1.025910
  N      8.304170   -0.562330   -0.740870
  C      7.712000   -1.132830    0.306630
  C      6.813770   -0.345330    1.080370
  C      6.781720    1.062010    0.804060
  N      5.981220    1.718480    1.636280
  S      5.311120    0.663820    2.649110
  N      6.025360   -0.673820    2.099440
  C      8.039720   -2.496720    0.602370
  C      7.086240   -3.221130    1.456190
  C      7.467250   -3.738480    2.694780
  C      6.551080   -4.347520    3.542100
  C      5.215650   -4.442250    3.162750
  C      4.809810   -3.926340    1.935860
  C      5.741070   -3.321320    1.102220
  F      5.334680   -2.834070   -0.072390
  F      3.529400   -4.013660    1.568330
  F      4.329090   -5.023930    3.971960
  F      6.944780   -4.837410    4.720720
  F      8.743120   -3.650260    3.081200
  C      9.216740   -3.044450    0.133130
  C     10.239890   -2.123630   -0.426900
  C     10.859460   -1.185280    0.400070
  C     11.855880   -0.341810   -0.068000
  C     12.246900   -0.417280   -1.401350
  C     11.650730   -1.350070   -2.242310
  C     10.672160   -2.203890   -1.747420
  F     10.129670   -3.114190   -2.563270
  F     12.038530   -1.439890   -3.518210
  F     13.199270    0.393720   -1.865980
  F     12.449440    0.524160    0.753140
  F     10.480370   -1.092550    1.680930
  C      9.568610   -4.412930    0.159590
  S      8.418370   -5.687120    0.550100
  C      9.628730   -6.874680    0.311970
  C     10.860200   -6.319030   -0.072430
  C     10.824440   -4.945220   -0.152320
  C     11.890490   -7.404640   -0.278970
  C     12.351850   -7.453500   -1.738790
  C     13.084580   -7.231180    0.663080
  C     11.078670   -8.626980    0.082860
  C      9.764530   -8.265960    0.420640
  S      8.808100   -9.612530    0.888030
  C     10.178140  -10.683900    0.631090
  C     11.304410   -9.983380    0.189250
  C     10.095790  -12.060570    0.890350
  C      9.009800  -12.680920    1.449200
  C      8.949120  -14.045790    1.736250
  C      7.893860  -14.656850    2.375920
  C      7.781400  -16.028990    2.705430
  C      6.639380  -16.354140    3.370750
  C      5.781630  -15.253990    3.607360
  S      6.476480  -13.791080    2.937880
  C      4.573980  -15.250620    4.270260
  C      3.919170  -16.362890    4.870730
  C      2.745910  -16.060170    5.469070
  C      2.379400  -14.675340    5.385770
  S      3.631130  -13.795570    4.493000
  C      1.284440  -14.084260    5.883040
  H     10.750960    7.370600   -2.160030
  H     13.131740    3.511610   -1.766750
  H      6.823820    3.544360   -0.227030
  H     11.665210   -4.325610   -0.406450
  H     12.862640   -6.530260   -1.999600
  H     11.498700   -7.577180   -2.401610
  H     13.033850   -8.287020   -1.886850
  H     13.609890   -6.307890    0.432950
  H     13.773570   -8.064310    0.549810
  H     12.748920   -7.193160    1.696820
  H     12.236480  -10.477140   -0.018740
  H     10.974390  -12.646740    0.653210
  H      8.147550  -12.078210    1.708880
  H      9.787610  -14.670730    1.457290
  H      8.551960  -16.731730    2.441170
  H      6.393250  -17.348140    3.698060
  H      4.346280  -17.349330    4.838090
  H      2.112340  -16.766040    5.975920
  H      0.548460  -14.655610    6.420750
  H      1.106400  -13.031260    5.763880

 Total Charge           Charge          ....    0
 Multiplicity           Mult            ....    1
 Number of Electrons    NEL             ....  568
 Basis Dimension        Dim             .... 1174

ORBITAL ENERGIES
----------------

  NO   OCC          E(Eh)            E(eV)
   0   2.0000     -89.041216     -2422.9347
   1   2.0000     -88.981940     -2421.3217
   2   2.0000     -88.971857     -2421.0473
   3   2.0000     -88.966171     -2420.8926
   4   2.0000     -88.945881     -2420.3405
   5   2.0000     -88.942260     -2420.2419
   6   2.0000     -24.806519      -675.0197
   7   2.0000     -24.804318      -674.9598
   8   2.0000     -24.801248      -674.8763
   9   2.0000     -24.800532      -674.8568
  10   2.0000     -24.800133      -674.8459
  11   2.0000     -24.797630      -674.7778
  12   2.0000     -24.793587      -674.6678
  13   2.0000     -24.791251      -674.6042
  14   2.0000     -24.790835      -674.5929
  15   2.0000     -24.790527      -674.5845
  16   2.0000     -19.213505      -522.8260
  17   2.0000     -14.458091      -393.4247
  18   2.0000     -14.453753      -393.3066
  19   2.0000     -14.446162      -393.1000
  20   2.0000     -14.437231      -392.8570
  21   2.0000     -14.413576      -392.2133
  22   2.0000     -14.413456      -392.2101
  23   2.0000     -10.388073      -282.6738
  24   2.0000     -10.382224      -282.5147
  25   2.0000     -10.382055      -282.5101
  26   2.0000     -10.379752      -282.4474
  27   2.0000     -10.379485      -282.4401
  28   2.0000     -10.373414      -282.2749
  29   2.0000     -10.370322      -282.1908
  30   2.0000     -10.369394      -282.1656
  31   2.0000     -10.369130      -282.1584
  32   2.0000     -10.368916      -282.1526
  33   2.0000     -10.368332      -282.1367
  34   2.0000     -10.341652      -281.4107
  35   2.0000     -10.341086      -281.3952
  36   2.0000     -10.340682      -281.3843
  37   2.0000     -10.339997      -281.3656
  38   2.0000     -10.339631      -281.3557
  39   2.0000     -10.325021      -280.9581
  40   2.0000     -10.324657      -280.9482
  41   2.0000     -10.319567      -280.8097
  42   2.0000     -10.319468      -280.8070
  43   2.0000     -10.317865      -280.7634
  44   2.0000     -10.315672      -280.7037
  45   2.0000     -10.315473      -280.6983
  46   2.0000     -10.314712      -280.6776
  47   2.0000     -10.313973      -280.6575
  48   2.0000     -10.312870      -280.6275
  49   2.0000     -10.311769      -280.5975
  50   2.0000     -10.311582      -280.5924
  51   2.0000     -10.311406      -280.5876
  52   2.0000     -10.310556      -280.5645
  53   2.0000     -10.309841      -280.5450
  54   2.0000     -10.307580      -280.4835
  55   2.0000     -10.307170      -280.4724
  56   2.0000     -10.304207      -280.3917
  57   2.0000     -10.301376      -280.3147
  58   2.0000     -10.301343      -280.3138
  59   2.0000     -10.300774      -280.2983
  60   2.0000     -10.292839      -280.0824
  61   2.0000     -10.292702      -280.0787
  62   2.0000     -10.291775      -280.0534
  63   2.0000     -10.288689      -279.9695
  64   2.0000     -10.288197      -279.9561
  65   2.0000     -10.286443      -279.9083
  66   2.0000     -10.285118      -279.8723
  67   2.0000     -10.285071      -279.8710
  68   2.0000     -10.283811      -279.8367
  69   2.0000     -10.282873      -279.8112
  70   2.0000     -10.281180      -279.7651
  71   2.0000     -10.279984      -279.7326
  72   2.0000     -10.274293      -279.5777
  73   2.0000     -10.270541      -279.4756
  74   2.0000     -10.269779      -279.4549
  75   2.0000      -8.132756      -221.3035
  76   2.0000      -8.077674      -219.8047
  77   2.0000      -8.065958      -219.4859
  78   2.0000      -8.061187      -219.3560
  79   2.0000      -8.042240      -218.8405
  80   2.0000      -8.039047      -218.7536
  81   2.0000      -6.103903      -166.0956
  82   2.0000      -6.096072      -165.8825
  83   2.0000      -6.095361      -165.8632
  84   2.0000      -6.046849      -164.5431
  85   2.0000      -6.042168      -164.4157
  86   2.0000      -6.040514      -164.3707
  87   2.0000      -6.035407      -164.2318
  88   2.0000      -6.031202      -164.1173
  89   2.0000      -6.030512      -164.0986
  90   2.0000      -6.027999      -164.0302
  91   2.0000      -6.026539      -163.9905
  92   2.0000      -6.023123      -163.8975
  93   2.0000      -6.011951      -163.5935
  94   2.0000      -6.008838      -163.5088
  95   2.0000      -6.008034      -163.4869
  96   2.0000      -6.004937      -163.4026
  97   2.0000      -6.003071      -163.3519
  98   2.0000      -5.999594      -163.2573
  99   2.0000      -1.332288       -36.2534
 100   2.0000      -1.325068       -36.0569
 101   2.0000      -1.321990       -35.9732
 102   2.0000      -1.319952       -35.9177
 103   2.0000      -1.314405       -35.7668
 104   2.0000      -1.309742       -35.6399
 105   2.0000      -1.309366       -35.6296
 106   2.0000      -1.305402       -35.5218
 107   2.0000      -1.299390       -35.3582
 108   2.0000      -1.295482       -35.2519
 109   2.0000      -1.145943       -31.1827
 110   2.0000      -1.131465       -30.7887
 111   2.0000      -1.121647       -30.5216
 112   2.0000      -1.021655       -27.8007
 113   2.0000      -1.021064       -27.7846
 114   2.0000      -1.005210       -27.3532
 115   2.0000      -1.004635       -27.3375
 116   2.0000      -0.996007       -27.1027
 117   2.0000      -0.991914       -26.9913
 118   2.0000      -0.991190       -26.9716
 119   2.0000      -0.985786       -26.8246
 120   2.0000      -0.977110       -26.5885
 121   2.0000      -0.973042       -26.4778
 122   2.0000      -0.963635       -26.2219
 123   2.0000      -0.954149       -25.9637
 124   2.0000      -0.936453       -25.4822
 125   2.0000      -0.927417       -25.2363
 126   2.0000      -0.909489       -24.7485
 127   2.0000      -0.906817       -24.6757
 128   2.0000      -0.897206       -24.4142
 129   2.0000      -0.886180       -24.1142
 130   2.0000      -0.880829       -23.9686
 131   2.0000      -0.867763       -23.6130
 132   2.0000      -0.862013       -23.4566
 133   2.0000      -0.858138       -23.3511
 134   2.0000      -0.848046       -23.0765
 135   2.0000      -0.846753       -23.0413
 136   2.0000      -0.843949       -22.9650
 137   2.0000      -0.839467       -22.8430
 138   2.0000      -0.837302       -22.7841
 139   2.0000      -0.832820       -22.6622
 140   2.0000      -0.827920       -22.5288
 141   2.0000      -0.821561       -22.3558
 142   2.0000      -0.808403       -21.9978
 143   2.0000      -0.793176       -21.5834
 144   2.0000      -0.782004       -21.2794
 145   2.0000      -0.780637       -21.2422
 146   2.0000      -0.766623       -20.8609
 147   2.0000      -0.758938       -20.6518
 148   2.0000      -0.752888       -20.4871
 149   2.0000      -0.744258       -20.2523
 150   2.0000      -0.739106       -20.1121
 151   2.0000      -0.738752       -20.1025
 152   2.0000      -0.735147       -20.0044
 153   2.0000      -0.730359       -19.8741
 154   2.0000      -0.713135       -19.4054
 155   2.0000      -0.709631       -19.3100
 156   2.0000      -0.698017       -18.9940
 157   2.0000      -0.687285       -18.7020
 158   2.0000      -0.681374       -18.5411
 159   2.0000      -0.678779       -18.4705
 160   2.0000      -0.676064       -18.3966
 161   2.0000      -0.669107       -18.2073
 162   2.0000      -0.667967       -18.1763
 163   2.0000      -0.667523       -18.1642
 164   2.0000      -0.665717       -18.1151
 165   2.0000      -0.661325       -17.9956
 166   2.0000      -0.649830       -17.6828
 167   2.0000      -0.646084       -17.5808
 168   2.0000      -0.644744       -17.5444
 169   2.0000      -0.641677       -17.4609
 170   2.0000      -0.635613       -17.2959
 171   2.0000      -0.632445       -17.2097
 172   2.0000      -0.630694       -17.1620
 173   2.0000      -0.624628       -16.9970
 174   2.0000      -0.623310       -16.9611
 175   2.0000      -0.620161       -16.8754
 176   2.0000      -0.618741       -16.8368
 177   2.0000      -0.613133       -16.6842
 178   2.0000      -0.612793       -16.6750
 179   2.0000      -0.608257       -16.5515
 180   2.0000      -0.606965       -16.5164
 181   2.0000      -0.606116       -16.4933
 182   2.0000      -0.602514       -16.3952
 183   2.0000      -0.600874       -16.3506
 184   2.0000      -0.600632       -16.3440
 185   2.0000      -0.598035       -16.2734
 186   2.0000      -0.592910       -16.1339
 187   2.0000      -0.589714       -16.0469
 188   2.0000      -0.580880       -15.8065
 189   2.0000      -0.577529       -15.7154
 190   2.0000      -0.574023       -15.6199
 191   2.0000      -0.568672       -15.4744
 192   2.0000      -0.566262       -15.4088
 193   2.0000      -0.564453       -15.3595
 194   2.0000      -0.562566       -15.3082
 195   2.0000      -0.557171       -15.1614
 196   2.0000      -0.553861       -15.0713
 197   2.0000      -0.553021       -15.0485
 198   2.0000      -0.546580       -14.8732
 199   2.0000      -0.541616       -14.7381
 200   2.0000      -0.540785       -14.7155
 201   2.0000      -0.539815       -14.6891
 202   2.0000      -0.537325       -14.6214
 203   2.0000      -0.533715       -14.5231
 204   2.0000      -0.531566       -14.4646
 205   2.0000      -0.529665       -14.4129
 206   2.0000      -0.528414       -14.3789
 207   2.0000      -0.523923       -14.2567
 208   2.0000      -0.522546       -14.2192
 209   2.0000      -0.521260       -14.1842
 210   2.0000      -0.516892       -14.0654
 211   2.0000      -0.515824       -14.0363
 212   2.0000      -0.514887       -14.0108
 213   2.0000      -0.511893       -13.9293
 214   2.0000      -0.511657       -13.9229
 215   2.0000      -0.507953       -13.8221
 216   2.0000      -0.506361       -13.7788
 217   2.0000      -0.503405       -13.6983
 218   2.0000      -0.501818       -13.6552
 219   2.0000      -0.498315       -13.5598
 220   2.0000      -0.495133       -13.4733
 221   2.0000      -0.494353       -13.4520
 222   2.0000      -0.492124       -13.3914
 223   2.0000      -0.491351       -13.3703
 224   2.0000      -0.490515       -13.3476
 225   2.0000      -0.485057       -13.1991
 226   2.0000      -0.483808       -13.1651
 227   2.0000      -0.481211       -13.0944
 228   2.0000      -0.479630       -13.0514
 229   2.0000      -0.477457       -12.9923
 230   2.0000      -0.476059       -12.9542
 231   2.0000      -0.475413       -12.9366
 232   2.0000      -0.473622       -12.8879
 233   2.0000      -0.469641       -12.7796
 234   2.0000      -0.467858       -12.7311
 235   2.0000      -0.464111       -12.6291
 236   2.0000      -0.462950       -12.5975
 237   2.0000      -0.460941       -12.5428
 238   2.0000      -0.457753       -12.4561
 239   2.0000      -0.453578       -12.3425
 240   2.0000      -0.451414       -12.2836
 241   2.0000      -0.448858       -12.2140
 242   2.0000      -0.447036       -12.1645
 243   2.0000      -0.444840       -12.1047
 244   2.0000      -0.442890       -12.0516
 245   2.0000      -0.440574       -11.9886
 246   2.0000      -0.438986       -11.9454
 247   2.0000      -0.433485       -11.7957
 248   2.0000      -0.431858       -11.7515
 249   2.0000      -0.431521       -11.7423
 250   2.0000      -0.429611       -11.6903
 251   2.0000      -0.425927       -11.5901
 252   2.0000      -0.424830       -11.5602
 253   2.0000      -0.422988       -11.5101
 254   2.0000      -0.420430       -11.4405
 255   2.0000      -0.416779       -11.3411
 256   2.0000      -0.413604       -11.2547
 257   2.0000      -0.409626       -11.1465
 258   2.0000      -0.408357       -11.1119
 259   2.0000      -0.407039       -11.0761
 260   2.0000      -0.399279       -10.8649
 261   2.0000      -0.397343       -10.8123
 262   2.0000      -0.393694       -10.7130
 263   2.0000      -0.386203       -10.5091
 264   2.0000      -0.378841       -10.3088
 265   2.0000      -0.373725       -10.1696
 266   2.0000      -0.362988        -9.8774
 267   2.0000      -0.346306        -9.4235
 268   2.0000      -0.340495        -9.2653
 269   2.0000      -0.339947        -9.2504
 270   2.0000      -0.336973        -9.1695
 271   2.0000      -0.334573        -9.1042
 272   2.0000      -0.330882        -9.0038
 273   2.0000      -0.329374        -8.9627
 274   2.0000      -0.325710        -8.8630
 275   2.0000      -0.320706        -8.7269
 276   2.0000      -0.316084        -8.6011
 277   2.0000      -0.313856        -8.5404
 278   2.0000      -0.307778        -8.3751
 279   2.0000      -0.305250        -8.3063
 280   2.0000      -0.291304        -7.9268
 281   2.0000      -0.274035        -7.4569
 282   2.0000      -0.249384        -6.7861
 283   2.0000      -0.209808        -5.7092
 284   0.0000      -0.111428        -3.0321
 285   0.0000      -0.082313        -2.2398
 286   0.0000      -0.066818        -1.8182
 287   0.0000      -0.048225        -1.3123
 288   0.0000      -0.040867        -1.1120

MULLIKEN ATOMIC CHARGES
-----------------------
   0 C :    0.036843
   1 C :   -0.136608
   2 S :    0.161222
   3 C :   -0.132394
   4 C :    0.021372
   5 C :    0.187576
   6 O :   -0.129750
   7 C :   -0.085401
   8 C :    0.288166
   9 C :   -0.320195
  10 C :   -0.195291
  11 N :    0.154061
  12 C :   -0.192187
  13 N :    0.164227
  14 C :   -0.040628
  15 C :   -0.082705
  16 N :    0.010512
  17 N :   -0.080925
  18 C :   -0.061983
  19 C :    0.047973
  20 C :    0.069539
  21 N :   -0.251614
  22 S :    0.541414
  23 N :   -0.268557
  24 C :    0.020395
  25 C :   -0.222877
  26 C :    0.232862
  27 C :    0.163063
  28 C :    0.139503
  29 C :    0.149394
  30 C :    0.245384
  31 F :   -0.158975
  32 F :   -0.161236
  33 F :   -0.155935
  34 F :   -0.161488
  35 F :   -0.156637
  36 C :    0.129976
  37 C :   -0.165466
  38 C :    0.203246
  39 C :    0.219796
  40 C :    0.124179
  41 C :    0.170161
  42 C :    0.198241
  43 F :   -0.163213
  44 F :   -0.166068
  45 F :   -0.166020
  46 F :   -0.164041
  47 F :   -0.169062
  48 C :   -0.140173
  49 S :    0.144073
  50 C :   -0.051886
  51 C :    0.020763
  52 C :   -0.014177
  53 C :   -0.108952
  54 C :    0.109004
  55 C :    0.098977
  56 C :    0.036461
  57 C :   -0.090311
  58 S :    0.142319
  59 C :   -0.027374
  60 C :   -0.055419
  61 C :   -0.010990
  62 C :    0.006425
  63 C :   -0.020296
  64 C :   -0.016227
  65 C :    0.033503
  66 C :    0.027849
  67 C :   -0.050300
  68 S :    0.074963
  69 C :   -0.061466
  70 C :    0.026453
  71 C :    0.056499
  72 C :   -0.067655
  73 S :    0.087095
  74 C :   -0.025951
  75 H :    0.050828
  76 H :    0.040818
  77 H :    0.040251
  78 H :   -0.004572
  79 H :    0.014930
  80 H :    0.025515
  81 H :    0.011909
  82 H :    0.013805
  83 H :    0.012782
  84 H :    0.026095
  85 H :   -0.024214
  86 H :   -0.013751
  87 H :    0.009059
  88 H :   -0.017894
  89 H :   -0.013329
  90 H :   -0.013429
  91 H :   -0.011044
  92 H :   -0.009424
  93 H :    0.022923
  94 H :    0.025682
Sum of atomic charges:   -0.0000000

LOEWDIN ATOMIC CHARGES
----------------------
   0 C :   -0.063876
   1 C :   -0.151091
   2 S :    0.490997
   3 C :   -0.136505
   4 C :   -0.090340
   5 C :    0.090594
   6 O :   -0.119285
   7 C :   -0.064857
   8 C :    0.074215
   9 C :   -0.133395
  10 C :   -0.014226
  11 N :   -0.052765
  12 C :   -0.024895
  13 N :   -0.043280
  14 C :    0.066930
  15 C :   -0.047841
  16 N :    0.000539
  17 N :   -0.048082
  18 C :    0.017480
  19 C :   -0.061067
  20 C :   -0.049504
  21 N :   -0.274910
  22 S :    0.670317
  23 N :   -0.270636
  24 C :   -0.059878
  25 C :   -0.099918
  26 C :    0.061501
  27 C :    0.024113
  28 C :    0.044823
  29 C :    0.025476
  30 C :    0.070298
  31 F :   -0.036004
  32 F :   -0.040427
  33 F :   -0.033878
  34 F :   -0.040888
  35 F :   -0.036102
  36 C :    0.034170
  37 C :   -0.066368
  38 C :    0.058808
  39 C :    0.031878
  40 C :    0.041663
  41 C :    0.028295
  42 C :    0.065825
  43 F :   -0.042500
  44 F :   -0.044815
  45 F :   -0.039704
  46 F :   -0.038573
  47 F :   -0.046654
  48 C :   -0.176487
  49 S :    0.464939
  50 C :   -0.165495
  51 C :   -0.043853
  52 C :   -0.015401
  53 C :   -0.035002
  54 C :   -0.022390
  55 C :   -0.024166
  56 C :   -0.019938
  57 C :   -0.205072
  58 S :    0.438218
  59 C :   -0.143910
  60 C :   -0.060004
  61 C :   -0.049662
  62 C :   -0.027754
  63 C :   -0.065160
  64 C :   -0.139001
  65 C :   -0.038284
  66 C :   -0.026943
  67 C :   -0.183309
  68 S :    0.370322
  69 C :   -0.173361
  70 C :   -0.027494
  71 C :   -0.027734
  72 C :   -0.140084
  73 S :    0.358212
  74 C :   -0.069912
  75 H :    0.035606
  76 H :    0.036189
  77 H :    0.049701
  78 H :    0.034817
  79 H :    0.025805
  80 H :    0.031957
  81 H :    0.024169
  82 H :    0.025091
  83 H :    0.024482
  84 H :    0.031577
  85 H :    0.030305
  86 H :    0.034244
  87 H :    0.017092
  88 H :    0.032298
  89 H :    0.033309
  90 H :    0.031712
  91 H :    0.032591
  92 H :    0.034276
  93 H :    0.029913
  94 H :    0.027932

  Mayer bond orders larger than 0.100000
B(  0-C ,  1-C ) :   1.5291 B(  0-C ,  4-C ) :   1.2214 B(  0-C ,  8-C ) :   1.0011
B(  1-C ,  2-S ) :   1.1828 B(  1-C , 75-H ) :   0.9563 B(  2-S ,  3-C ) :   1.1923
B(  3-C ,  4-C ) :   1.5416 B(  3-C , 76-H ) :   0.9685 B(  4-C ,  5-C ) :   0.9668
B(  5-C ,  6-O ) :   2.1677 B(  5-C ,  7-C ) :   0.9258 B(  7-C ,  8-C ) :   1.0509
B(  7-C , 14-C ) :   1.6516 B(  8-C ,  9-C ) :   1.6671 B(  9-C , 10-C ) :   1.1457
B(  9-C , 12-C ) :   1.1325 B( 10-C , 11-N ) :   2.9936 B( 12-C , 13-N ) :   2.9870
B( 14-C , 15-C ) :   1.1493 B( 14-C , 77-H ) :   0.9459 B( 15-C , 16-N ) :   1.5754
B( 15-C , 18-C ) :   0.1098 B( 15-C , 20-C ) :   1.0944 B( 16-N , 17-N ) :   1.2999
B( 17-N , 18-C ) :   1.5619 B( 18-C , 19-C ) :   1.1128 B( 18-C , 24-C ) :   1.2020
B( 19-C , 20-C ) :   1.2000 B( 19-C , 23-N ) :   1.5349 B( 20-C , 21-N ) :   1.5631
B( 21-N , 22-S ) :   1.2693 B( 21-N , 23-N ) :   0.1440 B( 22-S , 23-N ) :   1.2735
B( 24-C , 25-C ) :   0.9475 B( 24-C , 36-C ) :   1.5840 B( 25-C , 26-C ) :   1.3240
B( 25-C , 28-C ) :   0.1135 B( 25-C , 30-C ) :   1.3275 B( 26-C , 27-C ) :   1.2856
B( 26-C , 35-F ) :   1.1784 B( 27-C , 28-C ) :   1.2780 B( 27-C , 34-F ) :   1.1704
B( 28-C , 29-C ) :   1.2771 B( 28-C , 33-F ) :   1.1734 B( 29-C , 30-C ) :   1.2833
B( 29-C , 32-F ) :   1.1713 B( 30-C , 31-F ) :   1.1752 B( 36-C , 37-C ) :   0.9349
B( 36-C , 48-C ) :   1.2392 B( 37-C , 38-C ) :   1.3415 B( 37-C , 40-C ) :   0.1154
B( 37-C , 42-C ) :   1.3353 B( 38-C , 39-C ) :   1.3083 B( 38-C , 47-F ) :   1.1608
B( 39-C , 40-C ) :   1.2719 B( 39-C , 46-F ) :   1.1642 B( 40-C , 41-C ) :   1.2921
B( 40-C , 45-F ) :   1.1496 B( 41-C , 42-C ) :   1.2772 B( 41-C , 44-F ) :   1.1656
B( 42-C , 43-F ) :   1.1830 B( 48-C , 49-S ) :   1.0707 B( 48-C , 52-C ) :   1.3729
B( 49-S , 50-C ) :   1.1106 B( 50-C , 51-C ) :   1.4521 B( 50-C , 57-C ) :   1.2183
B( 51-C , 52-C ) :   1.3632 B( 51-C , 53-C ) :   0.9341 B( 52-C , 78-H ) :   0.9917
B( 53-C , 54-C ) :   1.0318 B( 53-C , 55-C ) :   1.0369 B( 53-C , 56-C ) :   0.9400
B( 54-C , 79-H ) :   0.9649 B( 54-C , 80-H ) :   0.9636 B( 54-C , 81-H ) :   0.9646
B( 55-C , 82-H ) :   0.9649 B( 55-C , 83-H ) :   0.9646 B( 55-C , 84-H ) :   0.9651
B( 56-C , 57-C ) :   1.4771 B( 56-C , 60-C ) :   1.3314 B( 57-C , 58-S ) :   1.0662
B( 58-S , 59-C ) :   1.1048 B( 59-C , 60-C ) :   1.3840 B( 59-C , 61-C ) :   1.1873
B( 60-C , 85-H ) :   1.0121 B( 61-C , 62-C ) :   1.5743 B( 61-C , 86-H ) :   0.9848
B( 62-C , 63-C ) :   1.1937 B( 62-C , 87-H ) :   0.9646 B( 63-C , 64-C ) :   1.5377
B( 63-C , 88-H ) :   0.9845 B( 64-C , 65-C ) :   1.1469 B( 64-C , 68-S ) :   1.0411
B( 65-C , 66-C ) :   1.5914 B( 65-C , 89-H ) :   0.9995 B( 66-C , 67-C ) :   1.1827
B( 66-C , 90-H ) :   0.9934 B( 67-C , 68-S ) :   1.0375 B( 67-C , 69-C ) :   1.5401
B( 69-C , 70-C ) :   1.1540 B( 69-C , 73-S ) :   1.0526 B( 70-C , 71-C ) :   1.6585
B( 70-C , 91-H ) :   0.9926 B( 71-C , 72-C ) :   1.0811 B( 71-C , 92-H ) :   0.9932
B( 72-C , 73-S ) :   1.0073 B( 72-C , 74-C ) :   1.8633 B( 74-C , 93-H ) :   0.9506
B( 74-C , 94-H ) :   0.9418

-----------------------------------------------------------------------------
         ABSORPTION SPECTRUM VIA TRANSITION ELECTRIC DIPOLE MOMENTS
-----------------------------------------------------------------------------
State   Energy  Wavelength   fosc         T2         TX        TY        TZ
        (cm-1)    (nm)                  (au**2)     (au)      (au)      (au)
-----------------------------------------------------------------------------
   0   10401.2    961.4   1.423482867  45.05530   0.96138   6.47034  -1.50525
   1   13189.8    758.2   0.026621323   0.66446  -0.74390  -0.08973   0.32098
   2   16367.6    611.0   0.572768649  11.52046  -2.88378  -0.83891   1.58130
   3   17809.6    561.5   0.292494429   5.40678   0.72400  -2.20960   0.01619
   4   21570.4    463.6   0.244145725   3.72620   1.61510   0.20707  -1.03671
   5   22389.5    446.6   0.048755173   0.71689   0.54499  -0.64771  -0.01870
   6   23152.4    431.9   0.008994665   0.12790   0.27704  -0.12634  -0.18759
   7   23952.1    417.5   0.576851446   7.92859   2.12041  -1.52996  -1.04484
   8   24502.6    408.1   0.011327225   0.15219  -0.25425   0.05758   0.29022
   9   24955.7    400.7   0.031966481   0.42170  -0.34068   0.55278  -0.00838
  10   25195.2    396.9   0.015037925   0.19649   0.31790  -0.30352  -0.05749
  11   27223.8    367.3   0.043731300   0.52883   0.03353  -0.67784   0.26124
  12   27337.5    365.8   0.019586566   0.23587  -0.44131   0.12062   0.16299
  13   27449.4    364.3   0.001794584   0.02152  -0.06981  -0.11823   0.05169
  14   27563.9    362.8   0.046195328   0.55174  -0.16568   0.62633  -0.36331
  15   28083.9    356.1   0.042530792   0.49856   0.42673  -0.56118  -0.03937
  16   28652.1    349.0   0.102109652   1.17324   0.17480   1.05306  -0.18368
  17   29188.4    342.6   0.059742509   0.67383  -0.28178   0.76619   0.08591
  18   29853.7    335.0   0.020096330   0.22161   0.40632   0.15818  -0.17747
  19   30409.6    328.8   0.041047680   0.44438  -0.61248   0.19694   0.17452
  20   30821.8    324.4   0.072916179   0.77883  -0.28757  -0.78683   0.27753
  21   31690.8    315.5   0.018375177   0.19089  -0.04419   0.40743  -0.15143
  22   32050.9    312.0   0.189995810   1.95155   0.67516   1.15381  -0.40550
  23   32784.3    305.0   0.038196507   0.38356  -0.42347   0.42617   0.15039
  24   32940.9    303.6   0.006566853   0.06563  -0.08740   0.23598  -0.04801
  25   33331.9    300.0   0.022253873   0.21980  -0.00880   0.42883  -0.18928
  26   33783.3    296.0   0.209344973   2.04003   1.16226   0.58109  -0.59289
  27   34105.4    293.2   0.002165584   0.02090  -0.10185  -0.07616   0.06878
  28   34162.8    292.7   0.000358897   0.00346  -0.01161  -0.04525   0.03573
  29   34505.8    289.8   0.060246194   0.57480  -0.60649  -0.29226   0.34864
  30   34753.3    287.7   0.018962833   0.17963  -0.39868   0.10383  -0.09954
  31   34871.7    286.8   0.001793046   0.01693   0.12951   0.01100   0.00570
  32   35142.8    284.6   0.052128656   0.48833   0.50148   0.42924  -0.22934
  33   35396.8    282.5   0.026575554   0.24717   0.46336  -0.08610  -0.15827
  34   35763.3    279.6   0.012527437   0.11532  -0.31747   0.09126   0.07875
  35   35885.9    278.7   0.007062466   0.06479  -0.14502   0.10589  -0.18040
  36   36184.5    276.4   0.002602218   0.02368  -0.00059  -0.09233   0.12309
  37   36319.7    275.3   0.057693980   0.52295  -0.69528   0.01282   0.19844
  38   36629.9    273.0   0.042837929   0.38501   0.57721   0.17228  -0.14887
  39   36660.4    272.8   0.033263127   0.29870  -0.47504  -0.12479   0.23972
  40   36850.8    271.4   0.113878432   1.01735  -0.92320   0.40311   0.05051
  41   37072.7    269.7   0.005311241   0.04716  -0.19727   0.00677   0.09058
  42   37247.3    268.5   0.010813159   0.09557   0.27038  -0.09845   0.11301
  43   37565.7    266.2   0.008120922   0.07117  -0.03905   0.12933  -0.23004
  44   37753.9    264.9   0.068089106   0.59373   0.75176  -0.12345  -0.11555
  45   37935.5    263.6   0.025340681   0.21991   0.21167  -0.35109   0.22769
  46   38359.3    260.7   0.061942728   0.53161  -0.08981   0.67771  -0.25348
  47   38509.8    259.7   0.048424031   0.41397  -0.49042  -0.17602   0.37745
  48   38768.3    257.9   0.030312315   0.25741   0.44808   0.01764  -0.23732
  49   39132.1    255.5   0.138847083   1.16810   1.00854  -0.38807   0.01860
  50   39515.4    253.1   0.026979312   0.22477   0.43413   0.09094  -0.16742
  51   39680.2    252.0   0.164237757   1.36262  -1.05262  -0.27460   0.42331
  52   39882.0    250.7   0.038894618   0.32106   0.36631   0.35724  -0.24343
  53   39994.5    250.0   0.179054907   1.47388  -1.00142   0.47398   0.49637
  54   40062.7    249.6   0.019707407   0.16194   0.24877  -0.31452   0.03371
  55   40267.8    248.3   0.011636927   0.09514   0.21431   0.11981  -0.18670

FINAL SINGLE POINT ENERGY     -5779.825330831282

DIPOLE MOMENT
-------------
                                X             Y             Z
Electronic contribution:    -11.27285     101.85582      -6.91406
Nuclear contribution   :     12.90428    -106.80922       8.36434
                        -----------------------------------------
Total Dipole Moment    :      1.63143      -4.95340       1.45028
                        -----------------------------------------
Magnitude (a.u.)       :      5.41304
Magnitude (Debye)      :     13.75887

Rotational constants in cm-1:     0.001650     0.000303     0.000265
Rotational constants in MHz :    49.455776     9.086072     7.942716

                             ****ORCA TERMINATED NORMALLY****
TOTAL RUN TIME: 0 days 0 hours 11 minutes 2 seconds 407 msec
