                         Program Version 4.2.0 -  RELEASE  -
|  1> # ORCA input file
|  2> # SCF done       -222.294394869457          0.000843675668
|  3> ! CAM-B3LYP def2-SVP def2/J RIJCOSX Grid4 TightSCF
|  4> %maxcore 5000
|  5> %tddft
|  6>     Mode sTDDFT
|  7>     Ethresh 5.0
|  8>     maxcore 5000
|  9> end
| 10>
| 11> %pal
| 12>   nprocs 6
| 13>   end
| 14> * xyz 0 1
| 15>    C        5.83577        -1.02687         7.78672
| 16>    C        5.45641        -0.51642         8.99154
| 17>    S        5.14759        -1.77878        10.12255
| 18>    C        5.53436        -3.00714         8.97696
| 19>    C        5.87716        -2.45880         7.78321
| 20>    C        6.29806        -2.93803         6.46329
| 21>    O        6.53492        -4.08265         6.13780
| 22>    C        6.41493        -1.70720         5.62745
| 23>    C        6.23005        -0.53957         6.48274
| 24>    C        6.41831         0.78432         6.17457
| 25>    C        6.18264         1.79482         7.13173
| 26>    N        5.98898         2.62644         7.89750
| 27>    C        6.88532         1.29348         4.94968
| 28>    N        7.29303         1.75020         3.97584
| 29>    C        6.63838        -1.60065         4.28563
| 30>    C        6.74621        -2.57965         3.26085
| 31>    C        6.27588        -3.95675         3.48982
| 32>    C        7.12788        -5.04630         3.31070
| 33>    C        6.71778        -6.34219         3.59007
| 34>    C        5.42700        -6.57344         4.05598
| 35>    C        4.55579        -5.50356         4.23225
| 36>    C        4.98651        -4.21419         3.95101
| 37>    F        4.14085        -3.19323         4.13244
| 38>    F        3.31511        -5.71761         4.67332
| 39>    F        5.02551        -7.81512         4.32368
| 40>    F        7.55328        -7.36633         3.40573
| 41>    F        8.36873        -4.84367         2.85648
| 42>    C        7.27097        -2.21733         2.03279
| 43>    C        7.96693        -0.91660         1.89569
| 44>    C        9.04505        -0.57282         2.71221
| 45>    C        9.70380         0.64428         2.57902
| 46>    C        9.28296         1.55840         1.61687
| 47>    C        8.20511         1.24072         0.79473
| 48>    C        7.56605         0.01476         0.93718
| 49>    F        6.52807        -0.26496         0.14239
| 50>    F        7.79721         2.10233        -0.13575
| 51>    F        9.91322         2.71808         1.47404
| 52>    F       10.73847         0.93272         3.36580
| 53>    F        9.47186        -1.43454         3.63822
| 54>    C        7.18765        -2.98591         0.84025
| 55>    S        5.90776        -4.15898         0.56496
| 56>    C        6.47661        -4.41896        -1.02684
| 57>    C        7.61633        -3.66147        -1.32643
| 58>    C        8.00587        -2.84907        -0.27996
| 59>    C        8.07779        -3.92626        -2.73982
| 60>    C        8.02381        -2.65015        -3.58537
| 61>    C        9.48165        -4.53745        -2.76488
| 62>    C        7.03269        -4.92136        -3.18655
| 63>    C        6.11868        -5.17975        -2.15778
| 64>    S        4.88642        -6.27595        -2.62112
| 65>    C        5.59315        -6.39963        -4.22060
| 66>    C        6.73765        -5.61780        -4.34556
| 67>    C        5.00283        -7.18611        -5.23832
| 68>    C        3.81798        -7.83269        -5.11418
| 69>    C        3.16017        -8.57300        -6.14125
| 70>    C        3.69233        -8.92602        -7.37391
| 71>    C        2.96054        -9.59376        -8.35771
| 72>    C        1.61709        -9.91964        -8.23180
| 73>    C        1.04332        -9.63120        -6.96386
| 74>    C        1.81469        -8.98913        -5.93090
| 75>    N        1.03926        -8.88596        -4.87206
| 76>    O       -0.12519        -9.42578        -5.20530
| 77>    N       -0.14986        -9.88061        -6.46026
| 78>    C        0.89955       -10.54539        -9.29823
| 79>    C       -0.43191       -10.54128        -9.55453
| 80>    C       -0.99570       -11.55954       -10.48857
| 81>    O       -0.37776       -12.27211       -11.24188
| 82>    C       -2.45442       -11.53141       -10.24671
| 83>    C       -2.76250       -10.49125        -9.34945
| 84>    C       -1.53757        -9.76645        -9.02651
| 85>    C       -1.48004        -8.48703        -8.54679
| 86>    C       -0.29640        -7.72353        -8.49058
| 87>    N        0.63713        -7.05621        -8.45678
| 88>    C       -2.60956        -7.74900        -8.13355
| 89>    N       -3.49239        -7.10662        -7.78149
| 90>    C       -4.07585       -10.29372        -8.94889
| 91>    C       -5.05992       -11.12639        -9.45863
| 92>    C       -4.73755       -12.13581       -10.35780
| 93>    C       -3.42903       -12.35943       -10.76531
| 94>   Br       -6.12286       -13.23835       -11.04303
| 95>    H        5.33366         0.50448         9.29335
| 96>    H        5.48054        -4.04092         9.25391
| 97>    H        6.72569        -0.58819         3.91543
| 98>    H        8.85803        -2.19355        -0.29488
| 99>    H        8.73920        -1.92340        -3.20971
|100>    H        7.02947        -2.21174        -3.54683
|101>    H        8.26595        -2.87760        -4.62016
|102>    H       10.20360        -3.82988        -2.36581
|103>    H        9.76128        -4.78543        -3.78547
|104>    H        9.51250        -5.44302        -2.16362
|105>    H        7.30273        -5.56859        -5.25877
|106>    H        5.54652        -7.21334        -6.17299
|107>    H        3.27142        -7.75759        -4.18294
|108>    H        4.71843        -8.67644        -7.59443
|109>    H        3.45234        -9.82231        -9.29218
|110>    H        1.49492       -11.15066        -9.97571
|111>    H       -4.34076        -9.52078        -8.24599
|112>    H       -6.08721       -10.99065        -9.15696
|113>    H       -3.17563       -13.14552       -11.45964
|114> *
|115>
|116>                          ****END OF INPUT****

CARTESIAN COORDINATES (ANGSTROEM)
---------------------------------
  C      5.835770   -1.026870    7.786720
  C      5.456410   -0.516420    8.991540
  S      5.147590   -1.778780   10.122550
  C      5.534360   -3.007140    8.976960
  C      5.877160   -2.458800    7.783210
  C      6.298060   -2.938030    6.463290
  O      6.534920   -4.082650    6.137800
  C      6.414930   -1.707200    5.627450
  C      6.230050   -0.539570    6.482740
  C      6.418310    0.784320    6.174570
  C      6.182640    1.794820    7.131730
  N      5.988980    2.626440    7.897500
  C      6.885320    1.293480    4.949680
  N      7.293030    1.750200    3.975840
  C      6.638380   -1.600650    4.285630
  C      6.746210   -2.579650    3.260850
  C      6.275880   -3.956750    3.489820
  C      7.127880   -5.046300    3.310700
  C      6.717780   -6.342190    3.590070
  C      5.427000   -6.573440    4.055980
  C      4.555790   -5.503560    4.232250
  C      4.986510   -4.214190    3.951010
  F      4.140850   -3.193230    4.132440
  F      3.315110   -5.717610    4.673320
  F      5.025510   -7.815120    4.323680
  F      7.553280   -7.366330    3.405730
  F      8.368730   -4.843670    2.856480
  C      7.270970   -2.217330    2.032790
  C      7.966930   -0.916600    1.895690
  C      9.045050   -0.572820    2.712210
  C      9.703800    0.644280    2.579020
  C      9.282960    1.558400    1.616870
  C      8.205110    1.240720    0.794730
  C      7.566050    0.014760    0.937180
  F      6.528070   -0.264960    0.142390
  F      7.797210    2.102330   -0.135750
  F      9.913220    2.718080    1.474040
  F     10.738470    0.932720    3.365800
  F      9.471860   -1.434540    3.638220
  C      7.187650   -2.985910    0.840250
  S      5.907760   -4.158980    0.564960
  C      6.476610   -4.418960   -1.026840
  C      7.616330   -3.661470   -1.326430
  C      8.005870   -2.849070   -0.279960
  C      8.077790   -3.926260   -2.739820
  C      8.023810   -2.650150   -3.585370
  C      9.481650   -4.537450   -2.764880
  C      7.032690   -4.921360   -3.186550
  C      6.118680   -5.179750   -2.157780
  S      4.886420   -6.275950   -2.621120
  C      5.593150   -6.399630   -4.220600
  C      6.737650   -5.617800   -4.345560
  C      5.002830   -7.186110   -5.238320
  C      3.817980   -7.832690   -5.114180
  C      3.160170   -8.573000   -6.141250
  C      3.692330   -8.926020   -7.373910
  C      2.960540   -9.593760   -8.357710
  C      1.617090   -9.919640   -8.231800
  C      1.043320   -9.631200   -6.963860
  C      1.814690   -8.989130   -5.930900
  N      1.039260   -8.885960   -4.872060
  O     -0.125190   -9.425780   -5.205300
  N     -0.149860   -9.880610   -6.460260
  C      0.899550  -10.545390   -9.298230
  C     -0.431910  -10.541280   -9.554530
  C     -0.995700  -11.559540  -10.488570
  O     -0.377760  -12.272110  -11.241880
  C     -2.454420  -11.531410  -10.246710
  C     -2.762500  -10.491250   -9.349450
  C     -1.537570   -9.766450   -9.026510
  C     -1.480040   -8.487030   -8.546790
  C     -0.296400   -7.723530   -8.490580
  N      0.637130   -7.056210   -8.456780
  C     -2.609560   -7.749000   -8.133550
  N     -3.492390   -7.106620   -7.781490
  C     -4.075850  -10.293720   -8.948890
  C     -5.059920  -11.126390   -9.458630
  C     -4.737550  -12.135810  -10.357800
  C     -3.429030  -12.359430  -10.765310
  Br    -6.122860  -13.238350  -11.043030
  H      5.333660    0.504480    9.293350
  H      5.480540   -4.040920    9.253910
  H      6.725690   -0.588190    3.915430
  H      8.858030   -2.193550   -0.294880
  H      8.739200   -1.923400   -3.209710
  H      7.029470   -2.211740   -3.546830
  H      8.265950   -2.877600   -4.620160
  H     10.203600   -3.829880   -2.365810
  H      9.761280   -4.785430   -3.785470
  H      9.512500   -5.443020   -2.163620
  H      7.302730   -5.568590   -5.258770
  H      5.546520   -7.213340   -6.172990
  H      3.271420   -7.757590   -4.182940
  H      4.718430   -8.676440   -7.594430
  H      3.452340   -9.822310   -9.292180
  H      1.494920  -11.150660   -9.975710
  H     -4.340760   -9.520780   -8.245990
  H     -6.087210  -10.990650   -9.156960
  H     -3.175630  -13.145520  -11.459640

 Total Charge           Charge          ....    0
 Multiplicity           Mult            ....    1
 Number of Electrons    NEL             ....  600
 Basis Dimension        Dim             .... 1245

ORBITAL ENERGIES
----------------

  NO   OCC          E(Eh)            E(eV)
   0   2.0000    -482.872142    -13139.6190
   1   2.0000     -88.985795     -2421.4266
   2   2.0000     -88.985059     -2421.4065
   3   2.0000     -88.981563     -2421.3114
   4   2.0000     -62.549872     -1702.0685
   5   2.0000     -56.383709     -1534.2787
   6   2.0000     -56.381183     -1534.2100
   7   2.0000     -56.381176     -1534.2098
   8   2.0000     -24.813262      -675.2032
   9   2.0000     -24.813220      -675.2020
  10   2.0000     -24.813085      -675.1984
  11   2.0000     -24.808424      -675.0715
  12   2.0000     -24.807400      -675.0437
  13   2.0000     -24.807395      -675.0435
  14   2.0000     -24.806127      -675.0090
  15   2.0000     -24.804174      -674.9559
  16   2.0000     -24.801590      -674.8856
  17   2.0000     -24.800930      -674.8676
  18   2.0000     -19.361928      -526.8649
  19   2.0000     -19.223156      -523.0887
  20   2.0000     -19.219791      -522.9971
  21   2.0000     -14.489684      -394.2843
  22   2.0000     -14.483636      -394.1198
  23   2.0000     -14.426311      -392.5599
  24   2.0000     -14.418813      -392.3559
  25   2.0000     -14.416482      -392.2924
  26   2.0000     -14.415856      -392.2754
  27   2.0000     -10.396600      -282.9059
  28   2.0000     -10.395826      -282.8848
  29   2.0000     -10.394476      -282.8481
  30   2.0000     -10.389150      -282.7032
  31   2.0000     -10.388320      -282.6806
  32   2.0000     -10.387326      -282.6535
  33   2.0000     -10.382693      -282.5274
  34   2.0000     -10.381756      -282.5019
  35   2.0000     -10.380128      -282.4577
  36   2.0000     -10.379769      -282.4479
  37   2.0000     -10.375535      -282.3327
  38   2.0000     -10.373087      -282.2660
  39   2.0000     -10.347145      -281.5601
  40   2.0000     -10.345552      -281.5168
  41   2.0000     -10.345051      -281.5032
  42   2.0000     -10.343615      -281.4641
  43   2.0000     -10.342455      -281.4325
  44   2.0000     -10.340095      -281.3683
  45   2.0000     -10.332275      -281.1555
  46   2.0000     -10.331524      -281.1351
  47   2.0000     -10.330767      -281.1145
  48   2.0000     -10.328623      -281.0561
  49   2.0000     -10.326862      -281.0082
  50   2.0000     -10.325467      -280.9702
  51   2.0000     -10.325145      -280.9615
  52   2.0000     -10.324909      -280.9551
  53   2.0000     -10.324384      -280.9408
  54   2.0000     -10.324055      -280.9318
  55   2.0000     -10.323881      -280.9271
  56   2.0000     -10.321382      -280.8591
  57   2.0000     -10.320682      -280.8400
  58   2.0000     -10.319664      -280.8123
  59   2.0000     -10.318889      -280.7913
  60   2.0000     -10.318592      -280.7832
  61   2.0000     -10.316823      -280.7350
  62   2.0000     -10.315365      -280.6953
  63   2.0000     -10.314890      -280.6824
  64   2.0000     -10.313443      -280.6431
  65   2.0000     -10.312768      -280.6247
  66   2.0000     -10.312009      -280.6040
  67   2.0000     -10.311960      -280.6027
  68   2.0000     -10.305722      -280.4330
  69   2.0000     -10.305369      -280.4234
  70   2.0000     -10.304910      -280.4108
  71   2.0000     -10.304844      -280.4091
  72   2.0000     -10.304079      -280.3883
  73   2.0000     -10.303732      -280.3788
  74   2.0000     -10.303367      -280.3689
  75   2.0000     -10.302827      -280.3542
  76   2.0000     -10.301146      -280.3084
  77   2.0000     -10.300944      -280.3029
  78   2.0000     -10.298044      -280.2240
  79   2.0000     -10.296643      -280.1859
  80   2.0000     -10.294834      -280.1367
  81   2.0000     -10.293303      -280.0950
  82   2.0000     -10.280529      -279.7474
  83   2.0000     -10.279857      -279.7291
  84   2.0000      -8.779168      -238.8933
  85   2.0000      -8.081673      -219.9135
  86   2.0000      -8.079027      -219.8415
  87   2.0000      -8.076540      -219.7738
  88   2.0000      -6.615036      -180.0043
  89   2.0000      -6.601262      -179.6295
  90   2.0000      -6.600839      -179.6180
  91   2.0000      -6.050886      -164.6530
  92   2.0000      -6.048442      -164.5865
  93   2.0000      -6.046163      -164.5244
  94   2.0000      -6.045788      -164.5142
  95   2.0000      -6.044437      -164.4775
  96   2.0000      -6.044203      -164.4711
  97   2.0000      -6.041804      -164.4058
  98   2.0000      -6.041184      -164.3890
  99   2.0000      -6.038622      -164.3192
 100   2.0000      -2.730924       -74.3122
 101   2.0000      -2.727203       -74.2110
 102   2.0000      -2.726902       -74.2028
 103   2.0000      -2.715943       -73.9046
 104   2.0000      -2.715925       -73.9041
 105   2.0000      -1.341259       -36.4975
 106   2.0000      -1.335065       -36.3290
 107   2.0000      -1.333239       -36.2793
 108   2.0000      -1.330233       -36.1975
 109   2.0000      -1.326867       -36.1059
 110   2.0000      -1.321657       -35.9641
 111   2.0000      -1.319123       -35.8952
 112   2.0000      -1.315493       -35.7964
 113   2.0000      -1.314438       -35.7677
 114   2.0000      -1.311461       -35.6867
 115   2.0000      -1.306697       -35.5570
 116   2.0000      -1.138566       -30.9820
 117   2.0000      -1.135876       -30.9088
 118   2.0000      -1.034796       -28.1582
 119   2.0000      -1.027687       -27.9648
 120   2.0000      -1.026278       -27.9264
 121   2.0000      -1.017499       -27.6876
 122   2.0000      -1.013839       -27.5880
 123   2.0000      -1.010582       -27.4993
 124   2.0000      -1.009350       -27.4658
 125   2.0000      -1.003167       -27.2976
 126   2.0000      -0.998915       -27.1818
 127   2.0000      -0.995494       -27.0888
 128   2.0000      -0.995056       -27.0769
 129   2.0000      -0.991072       -26.9684
 130   2.0000      -0.969440       -26.3798
 131   2.0000      -0.965481       -26.2721
 132   2.0000      -0.958273       -26.0759
 133   2.0000      -0.940424       -25.5902
 134   2.0000      -0.932284       -25.3687
 135   2.0000      -0.926706       -25.2170
 136   2.0000      -0.911510       -24.8035
 137   2.0000      -0.906897       -24.6779
 138   2.0000      -0.901425       -24.5290
 139   2.0000      -0.897841       -24.4315
 140   2.0000      -0.887766       -24.1573
 141   2.0000      -0.875145       -23.8139
 142   2.0000      -0.868578       -23.6352
 143   2.0000      -0.867396       -23.6030
 144   2.0000      -0.859709       -23.3939
 145   2.0000      -0.858881       -23.3713
 146   2.0000      -0.850909       -23.1544
 147   2.0000      -0.847620       -23.0649
 148   2.0000      -0.844414       -22.9777
 149   2.0000      -0.842709       -22.9313
 150   2.0000      -0.836650       -22.7664
 151   2.0000      -0.810029       -22.0420
 152   2.0000      -0.796718       -21.6798
 153   2.0000      -0.792172       -21.5561
 154   2.0000      -0.773145       -21.0383
 155   2.0000      -0.771397       -20.9908
 156   2.0000      -0.768945       -20.9240
 157   2.0000      -0.768260       -20.9054
 158   2.0000      -0.758788       -20.6477
 159   2.0000      -0.756541       -20.5865
 160   2.0000      -0.752374       -20.4731
 161   2.0000      -0.749035       -20.3823
 162   2.0000      -0.743495       -20.2315
 163   2.0000      -0.736997       -20.0547
 164   2.0000      -0.721399       -19.6303
 165   2.0000      -0.710903       -19.3447
 166   2.0000      -0.703543       -19.1444
 167   2.0000      -0.695506       -18.9257
 168   2.0000      -0.690970       -18.8023
 169   2.0000      -0.686565       -18.6824
 170   2.0000      -0.684013       -18.6129
 171   2.0000      -0.683165       -18.5899
 172   2.0000      -0.679395       -18.4873
 173   2.0000      -0.678270       -18.4567
 174   2.0000      -0.672343       -18.2954
 175   2.0000      -0.667486       -18.1632
 176   2.0000      -0.663174       -18.0459
 177   2.0000      -0.658366       -17.9150
 178   2.0000      -0.655662       -17.8415
 179   2.0000      -0.650439       -17.6993
 180   2.0000      -0.647113       -17.6088
 181   2.0000      -0.643784       -17.5183
 182   2.0000      -0.639452       -17.4004
 183   2.0000      -0.632430       -17.2093
 184   2.0000      -0.632265       -17.2048
 185   2.0000      -0.628524       -17.1030
 186   2.0000      -0.625618       -17.0239
 187   2.0000      -0.624764       -17.0007
 188   2.0000      -0.623818       -16.9749
 189   2.0000      -0.618363       -16.8265
 190   2.0000      -0.617417       -16.8008
 191   2.0000      -0.615056       -16.7365
 192   2.0000      -0.614554       -16.7229
 193   2.0000      -0.612833       -16.6760
 194   2.0000      -0.610651       -16.6167
 195   2.0000      -0.608206       -16.5501
 196   2.0000      -0.604191       -16.4409
 197   2.0000      -0.598870       -16.2961
 198   2.0000      -0.590720       -16.0743
 199   2.0000      -0.587695       -15.9920
 200   2.0000      -0.586451       -15.9581
 201   2.0000      -0.582623       -15.8540
 202   2.0000      -0.581042       -15.8110
 203   2.0000      -0.578755       -15.7487
 204   2.0000      -0.575723       -15.6662
 205   2.0000      -0.570988       -15.5374
 206   2.0000      -0.566132       -15.4052
 207   2.0000      -0.563802       -15.3418
 208   2.0000      -0.556335       -15.1386
 209   2.0000      -0.552222       -15.0267
 210   2.0000      -0.551072       -14.9954
 211   2.0000      -0.550075       -14.9683
 212   2.0000      -0.548444       -14.9239
 213   2.0000      -0.545512       -14.8441
 214   2.0000      -0.543602       -14.7922
 215   2.0000      -0.542172       -14.7533
 216   2.0000      -0.541209       -14.7270
 217   2.0000      -0.538934       -14.6651
 218   2.0000      -0.538017       -14.6402
 219   2.0000      -0.532757       -14.4970
 220   2.0000      -0.532303       -14.4847
 221   2.0000      -0.530967       -14.4483
 222   2.0000      -0.530823       -14.4444
 223   2.0000      -0.525841       -14.3089
 224   2.0000      -0.525131       -14.2895
 225   2.0000      -0.523495       -14.2450
 226   2.0000      -0.521516       -14.1912
 227   2.0000      -0.518134       -14.0992
 228   2.0000      -0.516760       -14.0617
 229   2.0000      -0.513385       -13.9699
 230   2.0000      -0.512644       -13.9497
 231   2.0000      -0.509303       -13.8588
 232   2.0000      -0.504070       -13.7164
 233   2.0000      -0.501004       -13.6330
 234   2.0000      -0.500426       -13.6173
 235   2.0000      -0.499110       -13.5815
 236   2.0000      -0.497914       -13.5489
 237   2.0000      -0.497156       -13.5283
 238   2.0000      -0.493546       -13.4301
 239   2.0000      -0.492360       -13.3978
 240   2.0000      -0.491290       -13.3687
 241   2.0000      -0.486952       -13.2506
 242   2.0000      -0.485423       -13.2090
 243   2.0000      -0.482292       -13.1238
 244   2.0000      -0.478148       -13.0111
 245   2.0000      -0.477770       -13.0008
 246   2.0000      -0.475650       -12.9431
 247   2.0000      -0.473888       -12.8951
 248   2.0000      -0.472850       -12.8669
 249   2.0000      -0.470025       -12.7900
 250   2.0000      -0.469129       -12.7656
 251   2.0000      -0.468768       -12.7558
 252   2.0000      -0.465379       -12.6636
 253   2.0000      -0.463922       -12.6240
 254   2.0000      -0.461982       -12.5712
 255   2.0000      -0.456795       -12.4300
 256   2.0000      -0.455892       -12.4054
 257   2.0000      -0.451574       -12.2880
 258   2.0000      -0.450842       -12.2680
 259   2.0000      -0.448429       -12.2024
 260   2.0000      -0.445928       -12.1343
 261   2.0000      -0.445124       -12.1124
 262   2.0000      -0.443816       -12.0769
 263   2.0000      -0.442826       -12.0499
 264   2.0000      -0.440284       -11.9807
 265   2.0000      -0.437406       -11.9024
 266   2.0000      -0.433287       -11.7903
 267   2.0000      -0.431112       -11.7311
 268   2.0000      -0.430628       -11.7180
 269   2.0000      -0.426584       -11.6079
 270   2.0000      -0.423164       -11.5149
 271   2.0000      -0.421224       -11.4621
 272   2.0000      -0.420371       -11.4389
 273   2.0000      -0.416260       -11.3270
 274   2.0000      -0.414317       -11.2741
 275   2.0000      -0.412850       -11.2342
 276   2.0000      -0.411295       -11.1919
 277   2.0000      -0.407892       -11.0993
 278   2.0000      -0.402172       -10.9436
 279   2.0000      -0.395479       -10.7615
 280   2.0000      -0.384873       -10.4729
 281   2.0000      -0.372441       -10.1346
 282   2.0000      -0.367200        -9.9920
 283   2.0000      -0.363808        -9.8997
 284   2.0000      -0.353695        -9.6245
 285   2.0000      -0.352840        -9.6013
 286   2.0000      -0.351840        -9.5740
 287   2.0000      -0.348269        -9.4769
 288   2.0000      -0.345451        -9.4002
 289   2.0000      -0.341196        -9.2844
 290   2.0000      -0.339602        -9.2410
 291   2.0000      -0.337343        -9.1796
 292   2.0000      -0.330149        -8.9838
 293   2.0000      -0.326191        -8.8761
 294   2.0000      -0.317208        -8.6317
 295   2.0000      -0.313496        -8.5307
 296   2.0000      -0.311243        -8.4694
 297   2.0000      -0.306293        -8.3346
 298   2.0000      -0.286406        -7.7935
 299   2.0000      -0.249639        -6.7930
 300   0.0000      -0.115914        -3.1542
 301   0.0000      -0.099198        -2.6993
 302   0.0000      -0.070102        -1.9076
 303   0.0000      -0.059366        -1.6154
 304   0.0000      -0.049696        -1.3523

MULLIKEN ATOMIC CHARGES
-----------------------
   0 C :    0.032089
   1 C :   -0.133919
   2 S :    0.163041
   3 C :   -0.136973
   4 C :    0.037647
   5 C :    0.158065
   6 O :   -0.151411
   7 C :   -0.067718
   8 C :    0.292540
   9 C :   -0.347277
  10 C :   -0.191493
  11 N :    0.151725
  12 C :   -0.153712
  13 N :    0.121186
  14 C :   -0.068915
  15 C :    0.055399
  16 C :   -0.196299
  17 C :    0.247393
  18 C :    0.162563
  19 C :    0.141526
  20 C :    0.170894
  21 C :    0.202013
  22 F :   -0.163859
  23 F :   -0.160031
  24 F :   -0.155803
  25 F :   -0.161132
  26 F :   -0.160058
  27 C :    0.137140
  28 C :   -0.199458
  29 C :    0.181063
  30 C :    0.186924
  31 C :    0.163855
  32 C :    0.175356
  33 C :    0.201178
  34 F :   -0.156220
  35 F :   -0.155124
  36 F :   -0.144239
  37 F :   -0.153566
  38 F :   -0.154051
  39 C :   -0.151137
  40 S :    0.174255
  41 C :   -0.063681
  42 C :    0.019227
  43 C :   -0.011169
  44 C :   -0.109699
  45 C :    0.103586
  46 C :    0.108294
  47 C :    0.025763
  48 C :   -0.081446
  49 S :    0.167296
  50 C :   -0.049160
  51 C :   -0.046131
  52 C :    0.045571
  53 C :   -0.044109
  54 C :    0.106112
  55 C :   -0.044727
  56 C :    0.014775
  57 C :    0.077995
  58 C :   -0.055801
  59 C :   -0.023583
  60 N :    0.061801
  61 O :   -0.093691
  62 N :    0.044898
  63 C :   -0.002610
  64 C :   -0.109461
  65 C :    0.130559
  66 O :   -0.133536
  67 C :   -0.003742
  68 C :    0.019270
  69 C :    0.299895
  70 C :   -0.313680
  71 C :   -0.204758
  72 N :    0.164733
  73 C :   -0.188168
  74 N :    0.162545
  75 C :   -0.021647
  76 C :    0.051535
  77 C :   -0.007333
  78 C :   -0.013399
  79 Br:   -0.019559
  80 H :    0.052750
  81 H :    0.041264
  82 H :    0.022840
  83 H :   -0.003422
  84 H :    0.014826
  85 H :    0.028974
  86 H :    0.014119
  87 H :    0.015078
  88 H :    0.013396
  89 H :    0.025800
  90 H :   -0.017281
  91 H :   -0.004789
  92 H :    0.013750
  93 H :   -0.014177
  94 H :   -0.005757
  95 H :    0.021770
  96 H :    0.013581
  97 H :    0.006777
  98 H :    0.004282
Sum of atomic charges:   -0.0000000

LOEWDIN ATOMIC CHARGES
----------------------
   0 C :   -0.063964
   1 C :   -0.148888
   2 S :    0.491540
   3 C :   -0.139905
   4 C :   -0.088884
   5 C :    0.081065
   6 O :   -0.140451
   7 C :   -0.091554
   8 C :    0.083961
   9 C :   -0.149417
  10 C :   -0.016213
  11 N :   -0.055465
  12 C :   -0.007689
  13 N :   -0.069341
  14 C :    0.064505
  15 C :   -0.041512
  16 C :   -0.097446
  17 C :    0.066050
  18 C :    0.028475
  19 C :    0.046990
  20 C :    0.028044
  21 C :    0.063392
  22 F :   -0.040741
  23 F :   -0.039249
  24 F :   -0.032561
  25 F :   -0.040131
  26 F :   -0.038064
  27 C :    0.028468
  28 C :   -0.089774
  29 C :    0.065444
  30 C :    0.031446
  31 C :    0.058950
  32 C :    0.030541
  33 C :    0.071496
  34 F :   -0.036006
  35 F :   -0.034337
  36 F :   -0.021146
  37 F :   -0.032115
  38 F :   -0.032978
  39 C :   -0.174938
  40 S :    0.479733
  41 C :   -0.173923
  42 C :   -0.037002
  43 C :   -0.019174
  44 C :   -0.035364
  45 C :   -0.022439
  46 C :   -0.022652
  47 C :   -0.027979
  48 C :   -0.189941
  49 S :    0.459172
  50 C :   -0.160272
  51 C :   -0.040882
  52 C :   -0.002751
  53 C :   -0.032611
  54 C :    0.007480
  55 C :   -0.016766
  56 C :    0.036921
  57 C :   -0.051340
  58 C :   -0.047813
  59 C :   -0.047775
  60 N :   -0.011972
  61 O :    0.079847
  62 N :   -0.029793
  63 C :    0.065992
  64 C :   -0.079690
  65 C :    0.086897
  66 O :   -0.132641
  67 C :   -0.041497
  68 C :   -0.007152
  69 C :    0.073782
  70 C :   -0.126787
  71 C :   -0.016599
  72 N :   -0.053012
  73 C :   -0.018247
  74 N :   -0.045958
  75 C :    0.008335
  76 C :   -0.009694
  77 C :   -0.100152
  78 C :    0.001229
  79 Br:    0.115819
  80 H :    0.036349
  81 H :    0.036386
  82 H :    0.043733
  83 H :    0.035163
  84 H :    0.025669
  85 H :    0.033035
  86 H :    0.025269
  87 H :    0.025982
  88 H :    0.025091
  89 H :    0.031887
  90 H :    0.033070
  91 H :    0.036747
  92 H :    0.030788
  93 H :    0.032784
  94 H :    0.039991
  95 H :    0.048041
  96 H :    0.044098
  97 H :    0.040691
  98 H :    0.044299

  Mayer bond orders larger than 0.100000
B(  0-C ,  1-C ) :   1.5274 B(  0-C ,  4-C ) :   1.2230 B(  0-C ,  8-C ) :   0.9983
B(  1-C ,  2-S ) :   1.1842 B(  1-C , 80-H ) :   0.9565 B(  2-S ,  3-C ) :   1.1889
B(  3-C ,  4-C ) :   1.5392 B(  3-C , 81-H ) :   0.9708 B(  4-C ,  5-C ) :   0.9477
B(  5-C ,  6-O ) :   2.2144 B(  5-C ,  7-C ) :   0.9270 B(  7-C ,  8-C ) :   1.0913
B(  7-C , 14-C ) :   1.5906 B(  8-C ,  9-C ) :   1.6185 B(  9-C , 10-C ) :   1.1461
B(  9-C , 12-C ) :   1.1501 B( 10-C , 11-N ) :   2.9924 B( 12-C , 13-N ) :   2.9331
B( 14-C , 15-C ) :   1.1993 B( 14-C , 82-H ) :   0.9164 B( 15-C , 16-C ) :   0.9426
B( 15-C , 27-C ) :   1.5841 B( 16-C , 17-C ) :   1.3363 B( 16-C , 19-C ) :   0.1142
B( 16-C , 21-C ) :   1.3226 B( 17-C , 18-C ) :   1.2935 B( 17-C , 26-F ) :   1.1706
B( 18-C , 19-C ) :   1.2745 B( 18-C , 25-F ) :   1.1707 B( 19-C , 20-C ) :   1.2833
B( 19-C , 24-F ) :   1.1728 B( 20-C , 21-C ) :   1.2804 B( 20-C , 23-F ) :   1.1742
B( 21-C , 22-F ) :   1.1719 B( 27-C , 28-C ) :   0.9542 B( 27-C , 39-C ) :   1.1731
B( 28-C , 29-C ) :   1.3322 B( 28-C , 31-C ) :   0.1056 B( 28-C , 33-C ) :   1.3209
B( 29-C , 30-C ) :   1.2819 B( 29-C , 38-F ) :   1.1715 B( 30-C , 31-C ) :   1.2743
B( 30-C , 37-F ) :   1.1783 B( 31-C , 32-C ) :   1.2752 B( 31-C , 36-F ) :   1.1865
B( 32-C , 33-C ) :   1.2873 B( 32-C , 35-F ) :   1.1763 B( 33-C , 34-F ) :   1.1765
B( 39-C , 40-S ) :   1.0914 B( 39-C , 43-C ) :   1.4044 B( 40-S , 41-C ) :   1.1103
B( 41-C , 42-C ) :   1.4786 B( 41-C , 48-C ) :   1.1914 B( 42-C , 43-C ) :   1.3480
B( 42-C , 44-C ) :   0.9343 B( 43-C , 83-H ) :   0.9944 B( 44-C , 45-C ) :   1.0353
B( 44-C , 46-C ) :   1.0336 B( 44-C , 47-C ) :   0.9386 B( 45-C , 84-H ) :   0.9643
B( 45-C , 85-H ) :   0.9646 B( 45-C , 86-H ) :   0.9646 B( 46-C , 87-H ) :   0.9646
B( 46-C , 88-H ) :   0.9646 B( 46-C , 89-H ) :   0.9639 B( 47-C , 48-C ) :   1.4980
B( 47-C , 51-C ) :   1.3177 B( 48-C , 49-S ) :   1.0902 B( 49-S , 50-C ) :   1.1056
B( 50-C , 51-C ) :   1.4044 B( 50-C , 52-C ) :   1.1860 B( 51-C , 90-H ) :   1.0122
B( 52-C , 53-C ) :   1.5938 B( 52-C , 91-H ) :   0.9735 B( 53-C , 54-C ) :   1.1528
B( 53-C , 92-H ) :   0.9762 B( 54-C , 55-C ) :   1.4374 B( 54-C , 57-C ) :   0.1005
B( 54-C , 59-C ) :   1.1196 B( 55-C , 56-C ) :   1.2422 B( 55-C , 93-H ) :   0.9885
B( 56-C , 57-C ) :   1.4385 B( 56-C , 94-H ) :   0.9921 B( 57-C , 58-C ) :   1.1349
B( 57-C , 63-C ) :   1.0736 B( 58-C , 59-C ) :   1.1503 B( 58-C , 62-N ) :   1.5953
B( 59-C , 60-N ) :   1.6226 B( 60-N , 61-O ) :   1.0776 B( 60-N , 62-N ) :   0.1755
B( 61-O , 62-N ) :   1.0520 B( 63-C , 64-C ) :   1.6942 B( 63-C , 95-H ) :   0.9450
B( 64-C , 65-C ) :   0.9370 B( 64-C , 69-C ) :   1.0271 B( 65-C , 66-O ) :   2.2741
B( 65-C , 67-C ) :   0.9220 B( 67-C , 68-C ) :   1.3308 B( 67-C , 78-C ) :   1.3776
B( 68-C , 69-C ) :   1.0141 B( 68-C , 75-C ) :   1.3663 B( 69-C , 70-C ) :   1.6622
B( 70-C , 71-C ) :   1.1648 B( 70-C , 73-C ) :   1.1351 B( 71-C , 72-N ) :   3.0022
B( 73-C , 74-N ) :   2.9975 B( 75-C , 76-C ) :   1.3818 B( 75-C , 96-H ) :   0.9865
B( 76-C , 77-C ) :   1.3885 B( 76-C , 97-H ) :   0.9853 B( 77-C , 78-C ) :   1.3439
B( 77-C , 79-Br) :   0.9921 B( 78-C , 98-H ) :   1.0075

-----------------------------------------------------------------------------
         ABSORPTION SPECTRUM VIA TRANSITION ELECTRIC DIPOLE MOMENTS
-----------------------------------------------------------------------------
State   Energy  Wavelength   fosc         T2         TX        TY        TZ
        (cm-1)    (nm)                  (au**2)     (au)      (au)      (au)
-----------------------------------------------------------------------------
   0   14626.1    683.7   1.996940564  44.94805  -2.36518  -3.09791  -5.45499
   1   19142.0    522.4   0.328878319   5.65618   2.11885  -0.10246  -1.07525
   2   23305.7    429.1   0.065649698   0.92736   0.74180   0.53802   0.29603
   3   24948.8    400.8   0.087726022   1.15759   0.56617  -0.81022  -0.42495
   4   25631.7    390.1   0.002066663   0.02654  -0.11611   0.02607   0.11128
   5   26001.8    384.6   0.066261335   0.83894  -0.34885  -0.69089  -0.48981
   6   26741.4    374.0   0.068205900   0.83968  -0.91424  -0.05673   0.02485
   7   27476.0    364.0   0.011380300   0.13636  -0.26182  -0.25157  -0.06724
   8   27863.5    358.9   0.153647571   1.81537   0.74569   1.11048   0.16172
   9   28808.4    347.1   0.136079953   1.55507  -0.29105   0.16294  -1.20159
  10   29729.6    336.4   0.034177847   0.37847  -0.21906  -0.13569  -0.55863
  11   30041.0    332.9   0.137850140   1.51067  -0.53236  -0.84177   0.72020
  12   30166.3    331.5   0.005291882   0.05775   0.21399   0.02110   0.10730
  13   30718.6    325.5   0.039346540   0.42168  -0.29230   0.48810  -0.31304
  14   31282.5    319.7   0.060723103   0.63904  -0.53722  -0.58933   0.05589
  15   32057.1    311.9   0.087164341   0.89514  -0.59820   0.08553   0.72800
  16   32384.8    308.8   0.064665806   0.65737   0.25410   0.34990   0.68583
  17   32919.8    303.8   0.176403522   1.76411   0.46841   1.13036   0.51671
  18   33322.9    300.1   0.013206756   0.13048   0.13451   0.31823   0.10543
  19   33516.0    298.4   0.060600683   0.59525  -0.34885  -0.64524  -0.23922
  20   33828.1    295.6   0.056082956   0.54579  -0.12456   0.02394  -0.72781
  21   34071.9    293.5   0.222981524   2.15451  -0.75565  -1.21699  -0.32006
  22   34523.4    289.7   0.340771515   3.24957  -0.85586  -1.38031  -0.78219
  23   34600.6    289.0   0.020344212   0.19357  -0.29510  -0.02570   0.32530
  24   35022.9    285.5   0.007347119   0.06906  -0.23202  -0.00211   0.12339
  25   35429.4    282.3   0.050164176   0.46613   0.48813   0.46680  -0.09979
  26   35824.0    279.1   0.043031406   0.39545  -0.29060  -0.41202  -0.37582
  27   35921.9    278.4   0.012176492   0.11159  -0.15343  -0.28468  -0.08372
  28   36394.1    274.8   0.154061171   1.39360  -0.36703  -0.90529   0.66283
  29   36534.3    273.7   0.133126614   1.19961  -0.29324   0.51141   0.92308
  30   36903.3    271.0   0.032630743   0.29110   0.52269  -0.11273  -0.07203
  31   37042.2    270.0   0.120120203   1.06757   0.21561   0.85011   0.54625
  32   37338.5    267.8   0.037865486   0.33386   0.04514   0.55275   0.16212
  33   38080.1    262.6   0.104720482   0.90533   0.10021  -0.94000   0.10813
  34   38170.3    262.0   0.126766163   1.09334  -0.42929  -0.60515   0.73678
  35   38536.2    259.5   0.076890415   0.65687  -0.32264  -0.68027   0.30001
  36   38697.8    258.4   0.052749487   0.44875   0.01899   0.56489  -0.35956
  37   39002.8    256.4   0.011430911   0.09649   0.10574   0.25425  -0.14374
  38   39100.6    255.8   0.051352478   0.43237  -0.12336   0.58209  -0.27985
  39   39269.7    254.6   0.163808914   1.37327  -0.63713  -0.39407   0.90113
  40   39465.8    253.4   0.045085422   0.37609   0.11248   0.24160  -0.55233
  41   40095.2    249.4   0.069154174   0.56781  -0.36822  -0.54618   0.36594
  42   40236.4    248.5   0.003747474   0.03066   0.14037   0.04698   0.09354

FINAL SINGLE POINT ENERGY     -7499.528177881601

DIPOLE MOMENT
-------------
                                X             Y             Z
Electronic contribution:    -76.29274     -39.27480     -11.67600
Nuclear contribution   :     78.29606      37.51376      10.64901
                        -----------------------------------------
Total Dipole Moment    :      2.00332      -1.76104      -1.02699
                        -----------------------------------------
Magnitude (a.u.)       :      2.85819
Magnitude (Debye)      :      7.26495

Rotational constants in cm-1:     0.001367     0.000189     0.000179
Rotational constants in MHz :    40.974207     5.673397     5.363755

                             ****ORCA TERMINATED NORMALLY****
TOTAL RUN TIME: 0 days 0 hours 11 minutes 41 seconds 624 msec
