                         Program Version 4.2.0 -  RELEASE  -
|  1> # ORCA input file
|  2> # SCF done       -171.505229457651          0.000564781837
|  3> ! CAM-B3LYP def2-SVP def2/J RIJCOSX Grid4 TightSCF
|  4> %maxcore 5000
|  5> %tddft
|  6>     Mode sTDDFT
|  7>     Ethresh 5.0
|  8>     maxcore 5000
|  9> end
| 10>
| 11> %pal
| 12>   nprocs 6
| 13>   end
| 14> * xyz 0 1
| 15>    C      -12.64028         5.65988         9.32906
| 16>    C      -13.08752         6.08648         8.11259
| 17>    C      -12.34085         6.95605         7.28918
| 18>    C      -11.09903         7.45270         7.63139
| 19>    C      -10.60367         7.02589         8.89880
| 20>    C      -11.37936         6.13477         9.73351
| 21>    N      -10.68072         5.91538        10.83144
| 22>    O       -9.55613         6.60983        10.70236
| 23>    N       -9.48695         7.28325         9.55266
| 24>    C      -10.34595         8.34092         6.76997
| 25>    C       -9.09382         8.83004         7.10808
| 26>    C       -8.34033         9.68179         6.29517
| 27>    C       -8.77033        10.13157         5.05641
| 28>    C      -10.05614         9.65907         4.66921
| 29>    C      -10.83612         8.77647         5.50732
| 30>    N      -11.96016         8.53351         4.85926
| 31>    O      -11.89736         9.20424         3.71067
| 32>    N      -10.75895         9.88760         3.57793
| 33>    C       -8.01797        10.99411         4.20401
| 34>    N       -8.51851        11.40599         2.99027
| 35>    C       -7.59843        12.20349         2.39486
| 36>    C       -7.32966        12.95870         1.26114
| 37>    C       -6.04943        13.50265         1.45057
| 38>    N       -5.55145        13.09236         2.67066
| 39>    C       -6.47633        12.29826         3.26612
| 40>    C       -6.74175        11.54033         4.40024
| 41>    C       -5.34178        14.32870         0.54979
| 42>    C       -4.09211        14.82409         0.75279
| 43>    C       -3.39459        15.62083        -0.18008
| 44>    S       -4.08144        16.04451        -1.71443
| 45>    C       -2.10207        16.14037        -0.05771
| 46>    C       -1.23211        15.82628         1.09263
| 47>    O       -1.60284        15.22932         2.09379
| 48>    C        0.13511        16.26786         0.89236
| 49>    C        1.26408        16.04481         1.65063
| 50>    N        2.30761        16.68139         1.06773
| 51>    C        3.67703        16.61131         1.51209
| 52>    C        4.40108        15.42906         0.87128
| 53>    C        1.88343        17.32163        -0.04668
| 54>    C        0.53353        17.08838        -0.19823
| 55>    C       -0.38154        17.59756        -1.19967
| 56>    O       -0.08945        18.52806        -1.93430
| 57>    C       -1.69395        16.91330        -1.17944
| 58>    C       -2.65535        16.93447        -2.19457
| 59>    C       -2.67323        17.37038        -3.54222
| 60>    C       -1.69046        18.02347        -4.21761
| 61>    C       -1.73844        18.26796        -5.60313
| 62>    C       -0.67726        18.68564        -6.35823
| 63>    C       -0.87774        19.27473        -7.70092
| 64>    O       -1.87972        19.24070        -8.37751
| 65>    C        0.40037        19.96106        -8.01178
| 66>    C        1.32598        19.71891        -6.98083
| 67>    C        2.58871        20.28639        -7.03423
| 68>    C        2.89706        21.08459        -8.12569
| 69>    C        1.97802        21.31013        -9.15055
| 70>    C        0.71238        20.74761        -9.10277
| 71>    F        2.32239        22.08077       -10.19035
| 72>    F        4.10785        21.65141        -8.19351
| 73>    C        0.71934        18.81015        -6.00639
| 74>    C        1.40893        18.07083        -5.08121
| 75>    C        0.89502        16.95363        -4.38617
| 76>    N        0.59370        15.98658        -3.84584
| 77>    C        2.77155        18.25854        -4.77166
| 78>    N        3.86703        18.37451        -4.44756
| 79>    H      -13.20013         4.99647         9.96595
| 80>    H      -14.04904         5.75459         7.75062
| 81>    H      -12.76482         7.24660         6.34126
| 82>    H       -8.67526         8.53325         8.05680
| 83>    H       -7.37582        10.00045         6.65653
| 84>    H       -9.42567        11.12369         2.64847
| 85>    H       -7.94783        13.11344         0.40008
| 86>    H       -4.64961        13.34772         3.03436
| 87>    H       -6.11359        11.39048         5.25426
| 88>    H       -5.85725        14.56449        -0.37266
| 89>    H       -3.54919        14.61774         1.66340
| 90>    H        1.37486        15.47972         2.55478
| 91>    H        3.68399        16.51036         2.60050
| 92>    H        4.17727        17.54506         1.24343
| 93>    H        3.91287        14.49493         1.13860
| 94>    H        5.43137        15.39548         1.21365
| 95>    H        4.39551        15.52445        -0.21175
| 96>    H        2.54928        17.88482        -0.67016
| 97>    H       -3.55275        17.05948        -4.09669
| 98>    H       -0.83023        18.37816        -3.67211
| 99>    H       -2.68869        18.18130        -6.11901
|100>    H        3.32940        20.14206        -6.26463
|101>    H        0.00037        20.92201        -9.89357
|102> *
|103>
|104>                          ****END OF INPUT****

CARTESIAN COORDINATES (ANGSTROEM)
---------------------------------
  C    -12.640280    5.659880    9.329060
  C    -13.087520    6.086480    8.112590
  C    -12.340850    6.956050    7.289180
  C    -11.099030    7.452700    7.631390
  C    -10.603670    7.025890    8.898800
  C    -11.379360    6.134770    9.733510
  N    -10.680720    5.915380   10.831440
  O     -9.556130    6.609830   10.702360
  N     -9.486950    7.283250    9.552660
  C    -10.345950    8.340920    6.769970
  C     -9.093820    8.830040    7.108080
  C     -8.340330    9.681790    6.295170
  C     -8.770330   10.131570    5.056410
  C    -10.056140    9.659070    4.669210
  C    -10.836120    8.776470    5.507320
  N    -11.960160    8.533510    4.859260
  O    -11.897360    9.204240    3.710670
  N    -10.758950    9.887600    3.577930
  C     -8.017970   10.994110    4.204010
  N     -8.518510   11.405990    2.990270
  C     -7.598430   12.203490    2.394860
  C     -7.329660   12.958700    1.261140
  C     -6.049430   13.502650    1.450570
  N     -5.551450   13.092360    2.670660
  C     -6.476330   12.298260    3.266120
  C     -6.741750   11.540330    4.400240
  C     -5.341780   14.328700    0.549790
  C     -4.092110   14.824090    0.752790
  C     -3.394590   15.620830   -0.180080
  S     -4.081440   16.044510   -1.714430
  C     -2.102070   16.140370   -0.057710
  C     -1.232110   15.826280    1.092630
  O     -1.602840   15.229320    2.093790
  C      0.135110   16.267860    0.892360
  C      1.264080   16.044810    1.650630
  N      2.307610   16.681390    1.067730
  C      3.677030   16.611310    1.512090
  C      4.401080   15.429060    0.871280
  C      1.883430   17.321630   -0.046680
  C      0.533530   17.088380   -0.198230
  C     -0.381540   17.597560   -1.199670
  O     -0.089450   18.528060   -1.934300
  C     -1.693950   16.913300   -1.179440
  C     -2.655350   16.934470   -2.194570
  C     -2.673230   17.370380   -3.542220
  C     -1.690460   18.023470   -4.217610
  C     -1.738440   18.267960   -5.603130
  C     -0.677260   18.685640   -6.358230
  C     -0.877740   19.274730   -7.700920
  O     -1.879720   19.240700   -8.377510
  C      0.400370   19.961060   -8.011780
  C      1.325980   19.718910   -6.980830
  C      2.588710   20.286390   -7.034230
  C      2.897060   21.084590   -8.125690
  C      1.978020   21.310130   -9.150550
  C      0.712380   20.747610   -9.102770
  F      2.322390   22.080770  -10.190350
  F      4.107850   21.651410   -8.193510
  C      0.719340   18.810150   -6.006390
  C      1.408930   18.070830   -5.081210
  C      0.895020   16.953630   -4.386170
  N      0.593700   15.986580   -3.845840
  C      2.771550   18.258540   -4.771660
  N      3.867030   18.374510   -4.447560
  H    -13.200130    4.996470    9.965950
  H    -14.049040    5.754590    7.750620
  H    -12.764820    7.246600    6.341260
  H     -8.675260    8.533250    8.056800
  H     -7.375820   10.000450    6.656530
  H     -9.425670   11.123690    2.648470
  H     -7.947830   13.113440    0.400080
  H     -4.649610   13.347720    3.034360
  H     -6.113590   11.390480    5.254260
  H     -5.857250   14.564490   -0.372660
  H     -3.549190   14.617740    1.663400
  H      1.374860   15.479720    2.554780
  H      3.683990   16.510360    2.600500
  H      4.177270   17.545060    1.243430
  H      3.912870   14.494930    1.138600
  H      5.431370   15.395480    1.213650
  H      4.395510   15.524450   -0.211750
  H      2.549280   17.884820   -0.670160
  H     -3.552750   17.059480   -4.096690
  H     -0.830230   18.378160   -3.672110
  H     -2.688690   18.181300   -6.119010
  H      3.329400   20.142060   -6.264630
  H      0.000370   20.922010   -9.893570

 Total Charge           Charge          ....    0
 Multiplicity           Mult            ....    1
 Number of Electrons    NEL             ....  442
 Basis Dimension        Dim             .... 1015

ORBITAL ENERGIES
----------------

  NO   OCC          E(Eh)            E(eV)
   0   2.0000     -88.966817     -2420.9102
   1   2.0000     -24.798000      -674.7879
   2   2.0000     -24.797684      -674.7793
   3   2.0000     -19.362485      -526.8800
   4   2.0000     -19.352318      -526.6033
   5   2.0000     -19.213470      -522.8251
   6   2.0000     -19.203024      -522.5408
   7   2.0000     -19.197904      -522.4015
   8   2.0000     -14.493469      -394.3873
   9   2.0000     -14.487050      -394.2127
  10   2.0000     -14.484139      -394.1334
  11   2.0000     -14.477974      -393.9657
  12   2.0000     -14.476844      -393.9349
  13   2.0000     -14.459202      -393.4549
  14   2.0000     -14.455742      -393.3607
  15   2.0000     -14.415575      -392.2677
  16   2.0000     -14.409301      -392.0970
  17   2.0000     -10.383284      -282.5435
  18   2.0000     -10.382608      -282.5251
  19   2.0000     -10.364942      -282.0444
  20   2.0000     -10.362187      -281.9694
  21   2.0000     -10.358162      -281.8599
  22   2.0000     -10.341702      -281.4120
  23   2.0000     -10.339849      -281.3616
  24   2.0000     -10.335264      -281.2368
  25   2.0000     -10.332602      -281.1644
  26   2.0000     -10.329213      -281.0722
  27   2.0000     -10.324719      -280.9499
  28   2.0000     -10.321382      -280.8591
  29   2.0000     -10.321120      -280.8519
  30   2.0000     -10.320067      -280.8233
  31   2.0000     -10.318449      -280.7793
  32   2.0000     -10.314634      -280.6755
  33   2.0000     -10.314087      -280.6606
  34   2.0000     -10.313404      -280.6420
  35   2.0000     -10.313161      -280.6354
  36   2.0000     -10.310545      -280.5642
  37   2.0000     -10.309267      -280.5294
  38   2.0000     -10.308927      -280.5202
  39   2.0000     -10.308603      -280.5113
  40   2.0000     -10.308203      -280.5005
  41   2.0000     -10.305563      -280.4286
  42   2.0000     -10.305334      -280.4224
  43   2.0000     -10.304573      -280.4017
  44   2.0000     -10.304429      -280.3978
  45   2.0000     -10.299942      -280.2757
  46   2.0000     -10.298778      -280.2440
  47   2.0000     -10.297601      -280.2120
  48   2.0000     -10.295566      -280.1566
  49   2.0000     -10.294946      -280.1397
  50   2.0000     -10.293641      -280.1042
  51   2.0000     -10.292481      -280.0726
  52   2.0000     -10.292218      -280.0655
  53   2.0000     -10.291587      -280.0483
  54   2.0000     -10.290744      -280.0254
  55   2.0000     -10.287847      -279.9465
  56   2.0000     -10.285800      -279.8909
  57   2.0000     -10.276463      -279.6368
  58   2.0000     -10.275794      -279.6186
  59   2.0000     -10.275765      -279.6178
  60   2.0000     -10.272099      -279.5180
  61   2.0000     -10.271710      -279.5074
  62   2.0000     -10.265304      -279.3331
  63   2.0000     -10.264866      -279.3212
  64   2.0000      -8.062789      -219.3996
  65   2.0000      -6.031845      -164.1348
  66   2.0000      -6.027916      -164.0279
  67   2.0000      -6.025048      -163.9499
  68   2.0000      -1.321249       -35.9530
  69   2.0000      -1.315154       -35.7872
  70   2.0000      -1.306042       -35.5392
  71   2.0000      -1.305245       -35.5175
  72   2.0000      -1.128357       -30.7041
  73   2.0000      -1.120646       -30.4943
  74   2.0000      -1.113723       -30.3059
  75   2.0000      -1.103992       -30.0411
  76   2.0000      -1.094171       -29.7739
  77   2.0000      -1.058609       -28.8062
  78   2.0000      -1.020177       -27.7604
  79   2.0000      -1.018040       -27.7023
  80   2.0000      -1.011579       -27.5265
  81   2.0000      -1.004332       -27.3293
  82   2.0000      -0.999681       -27.2027
  83   2.0000      -0.997962       -27.1559
  84   2.0000      -0.991157       -26.9708
  85   2.0000      -0.990580       -26.9551
  86   2.0000      -0.955093       -25.9894
  87   2.0000      -0.934962       -25.4416
  88   2.0000      -0.923801       -25.1379
  89   2.0000      -0.921406       -25.0727
  90   2.0000      -0.916899       -24.9501
  91   2.0000      -0.905080       -24.6285
  92   2.0000      -0.899845       -24.4860
  93   2.0000      -0.897457       -24.4210
  94   2.0000      -0.881126       -23.9767
  95   2.0000      -0.876455       -23.8496
  96   2.0000      -0.871285       -23.7089
  97   2.0000      -0.868517       -23.6335
  98   2.0000      -0.856689       -23.3117
  99   2.0000      -0.845606       -23.0101
 100   2.0000      -0.837168       -22.7805
 101   2.0000      -0.832580       -22.6557
 102   2.0000      -0.825301       -22.4576
 103   2.0000      -0.795170       -21.6377
 104   2.0000      -0.785868       -21.3846
 105   2.0000      -0.773738       -21.0545
 106   2.0000      -0.769745       -20.9458
 107   2.0000      -0.766662       -20.8619
 108   2.0000      -0.762414       -20.7463
 109   2.0000      -0.754377       -20.5276
 110   2.0000      -0.751383       -20.4462
 111   2.0000      -0.739564       -20.1246
 112   2.0000      -0.737990       -20.0817
 113   2.0000      -0.720593       -19.6083
 114   2.0000      -0.712988       -19.4014
 115   2.0000      -0.701976       -19.1017
 116   2.0000      -0.697495       -18.9798
 117   2.0000      -0.694638       -18.9021
 118   2.0000      -0.691333       -18.8121
 119   2.0000      -0.688555       -18.7365
 120   2.0000      -0.680046       -18.5050
 121   2.0000      -0.665075       -18.0976
 122   2.0000      -0.656470       -17.8634
 123   2.0000      -0.652165       -17.7463
 124   2.0000      -0.647216       -17.6116
 125   2.0000      -0.642876       -17.4935
 126   2.0000      -0.639084       -17.3904
 127   2.0000      -0.637818       -17.3559
 128   2.0000      -0.635169       -17.2838
 129   2.0000      -0.630085       -17.1455
 130   2.0000      -0.620388       -16.8816
 131   2.0000      -0.618032       -16.8175
 132   2.0000      -0.614246       -16.7145
 133   2.0000      -0.609598       -16.5880
 134   2.0000      -0.603416       -16.4198
 135   2.0000      -0.602437       -16.3931
 136   2.0000      -0.597379       -16.2555
 137   2.0000      -0.593336       -16.1455
 138   2.0000      -0.589273       -16.0349
 139   2.0000      -0.586255       -15.9528
 140   2.0000      -0.583293       -15.8722
 141   2.0000      -0.570214       -15.5163
 142   2.0000      -0.568752       -15.4765
 143   2.0000      -0.567887       -15.4530
 144   2.0000      -0.563714       -15.3394
 145   2.0000      -0.558660       -15.2019
 146   2.0000      -0.554827       -15.0976
 147   2.0000      -0.552483       -15.0338
 148   2.0000      -0.549034       -14.9400
 149   2.0000      -0.546487       -14.8707
 150   2.0000      -0.542666       -14.7667
 151   2.0000      -0.539958       -14.6930
 152   2.0000      -0.538217       -14.6456
 153   2.0000      -0.532638       -14.4938
 154   2.0000      -0.530746       -14.4423
 155   2.0000      -0.529558       -14.4100
 156   2.0000      -0.525258       -14.2930
 157   2.0000      -0.521437       -14.1890
 158   2.0000      -0.520662       -14.1679
 159   2.0000      -0.519928       -14.1480
 160   2.0000      -0.516733       -14.0610
 161   2.0000      -0.513106       -13.9623
 162   2.0000      -0.509033       -13.8515
 163   2.0000      -0.507062       -13.7979
 164   2.0000      -0.503969       -13.7137
 165   2.0000      -0.496632       -13.5141
 166   2.0000      -0.496223       -13.5029
 167   2.0000      -0.493597       -13.4315
 168   2.0000      -0.491114       -13.3639
 169   2.0000      -0.488002       -13.2792
 170   2.0000      -0.484957       -13.1964
 171   2.0000      -0.482815       -13.1381
 172   2.0000      -0.481580       -13.1045
 173   2.0000      -0.476682       -12.9712
 174   2.0000      -0.475793       -12.9470
 175   2.0000      -0.471798       -12.8383
 176   2.0000      -0.470953       -12.8153
 177   2.0000      -0.468320       -12.7436
 178   2.0000      -0.466981       -12.7072
 179   2.0000      -0.459053       -12.4915
 180   2.0000      -0.457655       -12.4534
 181   2.0000      -0.456956       -12.4344
 182   2.0000      -0.456332       -12.4174
 183   2.0000      -0.453421       -12.3382
 184   2.0000      -0.450212       -12.2509
 185   2.0000      -0.448872       -12.2144
 186   2.0000      -0.446801       -12.1581
 187   2.0000      -0.445691       -12.1279
 188   2.0000      -0.443907       -12.0793
 189   2.0000      -0.440687       -11.9917
 190   2.0000      -0.437127       -11.8948
 191   2.0000      -0.435170       -11.8416
 192   2.0000      -0.429902       -11.6982
 193   2.0000      -0.427101       -11.6220
 194   2.0000      -0.422918       -11.5082
 195   2.0000      -0.419201       -11.4070
 196   2.0000      -0.418593       -11.3905
 197   2.0000      -0.410082       -11.1589
 198   2.0000      -0.403471       -10.9790
 199   2.0000      -0.403200       -10.9716
 200   2.0000      -0.402849       -10.9621
 201   2.0000      -0.395926       -10.7737
 202   2.0000      -0.388234       -10.5644
 203   2.0000      -0.378779       -10.3071
 204   2.0000      -0.372011       -10.1229
 205   2.0000      -0.361459        -9.8358
 206   2.0000      -0.359807        -9.7908
 207   2.0000      -0.348647        -9.4872
 208   2.0000      -0.343949        -9.3593
 209   2.0000      -0.339131        -9.2282
 210   2.0000      -0.335776        -9.1369
 211   2.0000      -0.330983        -9.0065
 212   2.0000      -0.325997        -8.8708
 213   2.0000      -0.324316        -8.8251
 214   2.0000      -0.320587        -8.7236
 215   2.0000      -0.310680        -8.4540
 216   2.0000      -0.299687        -8.1549
 217   2.0000      -0.295295        -8.0354
 218   2.0000      -0.291905        -7.9432
 219   2.0000      -0.268803        -7.3145
 220   2.0000      -0.223976        -6.0947
 221   0.0000      -0.098043        -2.6679
 222   0.0000      -0.085557        -2.3281
 223   0.0000      -0.061283        -1.6676
 224   0.0000      -0.052534        -1.4295
 225   0.0000      -0.042177        -1.1477

MULLIKEN ATOMIC CHARGES
-----------------------
   0 C :   -0.024455
   1 C :    0.051215
   2 C :   -0.071929
   3 C :    0.111817
   4 C :   -0.071851
   5 C :   -0.001834
   6 N :    0.059367
   7 O :   -0.097668
   8 N :    0.030406
   9 C :    0.057034
  10 C :   -0.034076
  11 C :   -0.054767
  12 C :    0.155748
  13 C :   -0.037282
  14 C :   -0.031084
  15 N :    0.039156
  16 O :   -0.092077
  17 N :    0.003693
  18 C :   -0.001513
  19 N :   -0.029491
  20 C :    0.127331
  21 C :   -0.167489
  22 C :    0.082694
  23 N :   -0.030038
  24 C :    0.124095
  25 C :   -0.163161
  26 C :    0.043728
  27 C :   -0.020415
  28 C :   -0.123344
  29 S :    0.127307
  30 C :   -0.000480
  31 C :    0.143842
  32 O :   -0.190224
  33 C :   -0.010312
  34 C :    0.007946
  35 N :   -0.134984
  36 C :    0.087947
  37 C :    0.002205
  38 C :    0.012718
  39 C :    0.007700
  40 C :    0.137429
  41 O :   -0.186436
  42 C :    0.055184
  43 C :   -0.136403
  44 C :    0.056827
  45 C :   -0.009762
  46 C :    0.034095
  47 C :   -0.115076
  48 C :    0.141818
  49 O :   -0.138949
  50 C :   -0.002244
  51 C :    0.034109
  52 C :   -0.093618
  53 C :    0.236875
  54 C :    0.234159
  55 C :   -0.105673
  56 F :   -0.170656
  57 F :   -0.167394
  58 C :    0.276989
  59 C :   -0.312983
  60 C :   -0.211468
  61 N :    0.159320
  62 C :   -0.188707
  63 N :    0.146109
  64 H :   -0.008671
  65 H :    0.001533
  66 H :    0.002604
  67 H :    0.002493
  68 H :   -0.019019
  69 H :    0.130597
  70 H :   -0.029769
  71 H :    0.134470
  72 H :   -0.033255
  73 H :   -0.010660
  74 H :   -0.004815
  75 H :    0.003242
  76 H :    0.032153
  77 H :    0.035543
  78 H :    0.028133
  79 H :    0.029925
  80 H :    0.039133
  81 H :    0.012798
  82 H :   -0.005365
  83 H :    0.058479
  84 H :    0.011326
  85 H :    0.016111
  86 H :    0.011997
Sum of atomic charges:   -0.0000000

LOEWDIN ATOMIC CHARGES
----------------------
   0 C :   -0.017231
   1 C :   -0.004810
   2 C :   -0.004954
   3 C :   -0.021569
   4 C :   -0.043422
   5 C :   -0.057774
   6 N :   -0.020183
   7 O :    0.073176
   8 N :   -0.035096
   9 C :   -0.045042
  10 C :    0.011576
  11 C :   -0.015054
  12 C :   -0.020905
  13 C :   -0.038754
  14 C :   -0.035605
  15 N :   -0.025414
  16 O :    0.072538
  17 N :   -0.035832
  18 C :    0.000901
  19 N :    0.077547
  20 C :   -0.015904
  21 C :   -0.077099
  22 C :    0.000389
  23 N :    0.071790
  24 C :   -0.008824
  25 C :   -0.085533
  26 C :   -0.007666
  27 C :   -0.070274
  28 C :   -0.116288
  29 S :    0.458159
  30 C :   -0.093652
  31 C :    0.084028
  32 O :   -0.179863
  33 C :   -0.099706
  34 C :    0.029117
  35 N :    0.091039
  36 C :    0.044056
  37 C :   -0.056853
  38 C :    0.036019
  39 C :   -0.097355
  40 C :    0.095147
  41 O :   -0.159489
  42 C :   -0.056828
  43 C :   -0.141403
  44 C :    0.001211
  45 C :   -0.023273
  46 C :    0.073425
  47 C :   -0.097629
  48 C :    0.080838
  49 O :   -0.141518
  50 C :   -0.045842
  51 C :   -0.011226
  52 C :   -0.021625
  53 C :    0.073355
  54 C :    0.068881
  55 C :   -0.006194
  56 F :   -0.047610
  57 F :   -0.045856
  58 C :    0.072657
  59 C :   -0.130661
  60 C :   -0.017112
  61 N :   -0.054320
  62 C :   -0.016575
  63 N :   -0.058841
  64 H :    0.040174
  65 H :    0.036999
  66 H :    0.032632
  67 H :    0.035427
  68 H :    0.034710
  69 H :    0.076936
  70 H :    0.027605
  71 H :    0.094447
  72 H :    0.025249
  73 H :    0.028241
  74 H :    0.028162
  75 H :    0.028238
  76 H :    0.032933
  77 H :    0.034614
  78 H :    0.029788
  79 H :    0.033006
  80 H :    0.033872
  81 H :    0.031648
  82 H :    0.030638
  83 H :    0.030079
  84 H :    0.042775
  85 H :    0.050719
  86 H :    0.051918

  Mayer bond orders larger than 0.100000
B(  0-C ,  1-C ) :   1.5270 B(  0-C ,  3-C ) :   0.1063 B(  0-C ,  5-C ) :   1.1605
B(  0-C , 64-H ) :   1.0238 B(  1-C ,  2-C ) :   1.1722 B(  1-C , 65-H ) :   0.9828
B(  2-C ,  3-C ) :   1.5474 B(  2-C , 66-H ) :   0.9679 B(  3-C ,  4-C ) :   1.1306
B(  3-C ,  9-C ) :   1.0775 B(  4-C ,  5-C ) :   1.1451 B(  4-C ,  8-N ) :   1.5872
B(  5-C ,  6-N ) :   1.5987 B(  6-N ,  7-O ) :   1.0736 B(  6-N ,  8-N ) :   0.1825
B(  7-O ,  8-N ) :   1.0540 B(  9-C , 10-C ) :   1.4870 B(  9-C , 12-C ) :   0.1137
B(  9-C , 14-C ) :   1.1399 B( 10-C , 11-C ) :   1.2044 B( 10-C , 67-H ) :   0.9656
B( 11-C , 12-C ) :   1.4805 B( 11-C , 68-H ) :   0.9925 B( 12-C , 13-C ) :   1.0992
B( 12-C , 18-C ) :   1.0664 B( 13-C , 14-C ) :   1.1486 B( 13-C , 17-N ) :   1.5728
B( 14-C , 15-N ) :   1.5912 B( 15-N , 16-O ) :   1.0583 B( 15-N , 17-N ) :   0.1759
B( 16-O , 17-N ) :   1.0669 B( 18-C , 19-N ) :   1.2534 B( 18-C , 25-C ) :   1.3820
B( 19-N , 20-C ) :   1.1744 B( 19-N , 69-H ) :   0.8973 B( 20-C , 21-C ) :   1.2517
B( 20-C , 24-C ) :   1.2869 B( 21-C , 22-C ) :   1.3377 B( 21-C , 70-H ) :   1.0425
B( 22-C , 23-N ) :   1.1983 B( 22-C , 26-C ) :   1.1866 B( 23-N , 24-C ) :   1.1735
B( 23-N , 71-H ) :   0.9286 B( 24-C , 25-C ) :   1.2778 B( 25-C , 72-H ) :   1.0176
B( 26-C , 27-C ) :   1.5303 B( 26-C , 73-H ) :   0.9580 B( 27-C , 28-C ) :   1.2260
B( 27-C , 74-H ) :   0.9486 B( 28-C , 29-S ) :   1.1331 B( 28-C , 30-C ) :   1.4277
B( 29-S , 43-C ) :   1.1144 B( 30-C , 31-C ) :   0.9517 B( 30-C , 42-C ) :   1.2375
B( 31-C , 32-O ) :   2.1484 B( 31-C , 33-C ) :   1.0069 B( 32-O , 74-H ) :   0.1014
B( 33-C , 34-C ) :   1.4219 B( 33-C , 39-C ) :   1.2981 B( 34-C , 35-N ) :   1.2334
B( 34-C , 75-H ) :   0.9945 B( 35-N , 36-C ) :   0.9511 B( 35-N , 38-C ) :   1.2373
B( 36-C , 37-C ) :   1.1115 B( 36-C , 76-H ) :   0.9510 B( 36-C , 77-H ) :   0.9510
B( 37-C , 78-H ) :   0.9673 B( 37-C , 79-H ) :   0.9680 B( 37-C , 80-H ) :   0.9672
B( 38-C , 39-C ) :   1.4175 B( 38-C , 81-H ) :   0.9941 B( 39-C , 40-C ) :   0.9952
B( 40-C , 41-O ) :   2.1282 B( 40-C , 42-C ) :   0.9322 B( 41-O , 83-H ) :   0.1163
B( 42-C , 43-C ) :   1.4542 B( 43-C , 44-C ) :   1.1509 B( 44-C , 45-C ) :   1.6573
B( 44-C , 82-H ) :   0.9546 B( 45-C , 46-C ) :   1.1399 B( 45-C , 83-H ) :   0.9136
B( 46-C , 47-C ) :   1.5825 B( 46-C , 84-H ) :   0.9666 B( 47-C , 48-C ) :   0.9512
B( 47-C , 58-C ) :   1.0531 B( 48-C , 49-O ) :   2.2774 B( 48-C , 50-C ) :   0.9263
B( 50-C , 51-C ) :   1.3415 B( 50-C , 55-C ) :   1.3265 B( 51-C , 52-C ) :   1.3191
B( 51-C , 58-C ) :   1.0183 B( 52-C , 53-C ) :   1.3345 B( 52-C , 55-C ) :   0.1060
B( 52-C , 85-H ) :   0.9931 B( 53-C , 54-C ) :   1.2933 B( 53-C , 57-F ) :   1.1412
B( 54-C , 55-C ) :   1.3202 B( 54-C , 56-F ) :   1.1293 B( 55-C , 86-H ) :   1.0188
B( 58-C , 59-C ) :   1.6432 B( 59-C , 60-C ) :   1.1588 B( 59-C , 62-C ) :   1.1360
B( 60-C , 61-N ) :   2.9868 B( 62-C , 63-N ) :   2.9831

-----------------------------------------------------------------------------
         ABSORPTION SPECTRUM VIA TRANSITION ELECTRIC DIPOLE MOMENTS
-----------------------------------------------------------------------------
State   Energy  Wavelength   fosc         T2         TX        TY        TZ
        (cm-1)    (nm)                  (au**2)     (au)      (au)      (au)
-----------------------------------------------------------------------------
   0   13861.3    721.4   1.927653286  45.78258  -3.74291  -3.56881   4.36311
   1   16603.2    602.3   0.227845585   4.51778   1.40530   1.51003  -0.51255
   2   22422.7    446.0   0.174590409   2.56335   1.17126   1.01756  -0.39507
   3   23078.3    433.3   0.249695494   3.56191   1.66412   0.54411  -0.70467
   4   24293.6    411.6   0.126966734   1.72057   0.00040   0.29612  -1.27784
   5   25369.9    394.2   0.042649870   0.55344  -0.36052  -0.46994   0.45014
   6   26427.8    378.4   0.007968852   0.09927   0.29481  -0.05716   0.09533
   7   26955.4    371.0   0.020587623   0.25144  -0.44258  -0.19881   0.12666
   8   27042.2    369.8   0.085993016   1.04688  -0.13203  -0.50417   0.88049
   9   28143.9    355.3   0.035023334   0.40968  -0.29285   0.30724  -0.47909
  10   28514.0    350.7   0.078607486   0.90757  -0.14972  -0.59333   0.73015
  11   29906.5    334.4   0.018863680   0.20765  -0.20997  -0.05844   0.40019
  12   30403.5    328.9   0.000385503   0.00417   0.06233  -0.00310   0.01672
  13   30527.7    327.6   0.019202284   0.20708   0.06690   0.34563  -0.28834
  14   30803.3    324.6   0.082375773   0.88040  -0.47760  -0.56747   0.57469
  15   31383.9    318.6   0.094191587   0.98805   0.06744   0.61680  -0.77657
  16   31587.6    316.6   0.013793857   0.14376   0.32572   0.17610  -0.08159
  17   31836.9    314.1   0.168878922   1.74631   0.57883  -0.51422   1.07091
  18   32290.8    309.7   0.009920470   0.10114  -0.30716  -0.02588   0.07825
  19   32645.4    306.3   0.005593759   0.05641   0.16552  -0.00817   0.17014
  20   32946.6    303.5   0.121246302   1.21153   0.36916   0.53849  -0.88616
  21   33946.4    294.6   0.014920859   0.14470  -0.37539   0.01094   0.06051
  22   34266.9    291.8   0.043230975   0.41533   0.61909   0.00635   0.17894
  23   35500.8    281.7   0.113385632   1.05147  -0.56094  -0.65760   0.55170
  24   35820.2    279.2   0.073319142   0.67385  -0.29327  -0.51902   0.56432
  25   35939.1    278.2   0.103293550   0.94620  -0.26663  -0.51846   0.77866
  26   36086.6    277.1   0.004684712   0.04274   0.16597  -0.09636   0.07686
  27   36396.8    274.7   0.091449095   0.82716   0.13661  -0.49813   0.74858
  28   36595.3    273.3   0.672823109   6.05272  -0.40000   1.36057  -2.01036
  29   36724.0    272.3   0.120272739   1.07819  -0.91909  -0.45827   0.15312
  30   37135.9    269.3   0.049627449   0.43995   0.56754   0.32064  -0.12262
  31   37383.6    267.5   0.053801558   0.47379  -0.66040  -0.18192  -0.06761
  32   37732.8    265.0   0.043172385   0.37667  -0.56320  -0.01149  -0.24360
  33   38309.8    261.0   0.002304014   0.01980   0.02914  -0.10743  -0.08608
  34   38966.8    256.6   0.098281312   0.83033  -0.77693  -0.38832   0.27553
  35   39172.0    255.3   0.041931200   0.35240   0.25875   0.28046  -0.45475
  36   39340.8    254.2   0.041947755   0.35103   0.57567  -0.08551   0.11098
  37   39709.6    251.8   0.004771812   0.03956  -0.11105   0.08142  -0.14352
  38   40225.0    248.6   0.011221997   0.09184   0.15439   0.23121  -0.12063

FINAL SINGLE POINT ENERGY     -3267.751088948316

DIPOLE MOMENT
-------------
                                X             Y             Z
Electronic contribution:     -0.87680      22.64034     -38.38202
Nuclear contribution   :      0.64162     -23.05414      39.66784
                        -----------------------------------------
Total Dipole Moment    :     -0.23518      -0.41381       1.28582
                        -----------------------------------------
Magnitude (a.u.)       :      1.37109
Magnitude (Debye)      :      3.48503

Rotational constants in cm-1:     0.003248     0.000252     0.000236
Rotational constants in MHz :    97.360231     7.565696     7.083890

                             ****ORCA TERMINATED NORMALLY****
TOTAL RUN TIME: 0 days 0 hours 7 minutes 4 seconds 554 msec
