                         Program Version 4.2.0 -  RELEASE  -
|  1> # ORCA input file
|  2> # SCF done       -186.190711749195          0.000640905889
|  3> ! CAM-B3LYP def2-SVP def2/J RIJCOSX Grid4 TightSCF
|  4> %maxcore 5000
|  5> %tddft
|  6>     Mode sTDDFT
|  7>     Ethresh 5.0
|  8>     maxcore 5000
|  9> end
| 10>
| 11> %pal
| 12>   nprocs 6
| 13>   end
| 14> * xyz 0 1
| 15>    C       -5.66887        -8.07017        11.92628
| 16>    O       -5.79552        -9.21142        11.53490
| 17>    C       -5.70343        -7.65028        13.34543
| 18>    C       -5.47988        -6.26741        13.44234
| 19>    C       -5.48371        -5.65937        14.68995
| 20>    C       -5.70263        -6.44228        15.81314
| 21>    C       -5.91081        -7.81022        15.69331
| 22>    C       -5.91715        -8.43978        14.45646
| 23>   Br       -6.19583        -8.84286        17.26270
| 24>    C       -5.25980        -5.74070        12.09918
| 25>    C       -4.81856        -4.47623        11.81290
| 26>    C       -4.61895        -3.47522        12.78761
| 27>    N       -4.45065        -2.61852        13.53280
| 28>    C       -4.43124        -4.00292        10.53924
| 29>    N       -4.04744        -3.54438         9.55917
| 30>    C       -5.48031        -6.82373        11.15014
| 31>    C       -5.62607        -6.60375         9.80656
| 32>    C       -5.78360        -7.47374         8.69617
| 33>    C       -5.63226        -8.86007         8.64960
| 34>    C       -5.73740        -9.60534         7.47917
| 35>    C       -5.99596        -9.05155         6.22653
| 36>    C       -6.16886        -7.63633         6.22548
| 37>    C       -6.06803        -6.86610         7.43664
| 38>    N       -6.28610        -5.60749         7.11615
| 39>    O       -6.50281        -5.58086         5.80634
| 40>    N       -6.43610        -6.79309         5.24749
| 41>    C       -6.07594        -9.79265         5.01866
| 42>    N       -6.28131        -9.16269         3.81071
| 43>    C       -6.29170       -10.09970         2.83436
| 44>    C       -6.40556       -10.29616         1.46436
| 45>    C       -6.27989       -11.67862         1.25799
| 46>    N       -6.09779       -12.31201         2.46914
| 47>    C       -6.09327       -11.37193         3.44848
| 48>    C       -5.95677       -11.17950         4.81411
| 49>    C       -6.30494       -12.35666         0.01617
| 50>    C       -6.19684       -13.70165        -0.13451
| 51>    C       -6.17954       -14.37558        -1.37592
| 52>    S       -6.25607       -13.52303        -2.89194
| 53>    C       -6.09161       -15.75459        -1.57384
| 54>    C       -6.05038       -16.74035        -0.47928
| 55>    O       -6.01499       -16.45148         0.70874
| 56>    C       -6.06530       -18.10927        -0.96531
| 57>    C       -6.10368       -19.29062        -0.25679
| 58>    N       -6.11221       -20.32256        -1.13395
| 59>    C       -6.23161       -21.71462        -0.77897
| 60>    C       -7.69615       -22.14671        -0.74759
| 61>    C       -6.08763       -19.84251        -2.39820
| 62>    C       -6.05441       -18.46495        -2.34467
| 63>    C       -6.02923       -17.50511        -3.42933
| 64>    O       -5.99975       -17.82613        -4.60893
| 65>    C       -6.06282       -16.10959        -2.94716
| 66>    C       -6.13229       -15.00561        -3.79124
| 67>    C       -6.16741       -15.04331        -5.20376
| 68>    C       -6.53347       -14.02520        -6.02103
| 69>    C       -6.61538       -14.14661        -7.43166
| 70>    C       -6.72969       -15.26590        -8.20154
| 71>    C       -6.39224       -15.15870        -9.64803
| 72>    O       -6.26141       -14.14341       -10.29058
| 73>    C       -6.19619       -16.55237       -10.10335
| 74>    C       -6.52666       -17.43536        -9.05970
| 75>    C       -7.01727       -16.66229        -7.91948
| 76>    C       -7.80785       -17.17297        -6.92660
| 77>    C       -8.10910       -18.54284        -6.77584
| 78>    N       -8.39052       -19.64093        -6.59718
| 79>    C       -8.46607       -16.39651        -5.95163
| 80>    N       -9.05330       -15.81743        -5.15342
| 81>    C       -6.37243       -18.80198        -9.23945
| 82>    C       -5.90696       -19.26464       -10.46049
| 83>    C       -5.60652       -18.37630       -11.48559
| 84>    C       -5.74081       -17.00419       -11.32532
| 85>   Br       -4.98243       -19.06029       -13.14479
| 86>    H       -5.32755        -4.59965        14.80553
| 87>    H       -5.71029        -5.98567        16.79095
| 88>    H       -6.08041        -9.50166        14.35650
| 89>    H       -5.64322        -5.56308         9.50091
| 90>    H       -5.41954        -9.38598         9.56570
| 91>    H       -5.59743       -10.67243         7.54772
| 92>    H       -6.40328        -8.16282         3.73136
| 93>    H       -6.55813        -9.56556         0.69617
| 94>    H       -5.97632       -13.30342         2.58473
| 95>    H       -5.79572       -11.91808         5.57244
| 96>    H       -6.41048       -11.73130        -0.86073
| 97>    H       -6.11274       -14.35479         0.72245
| 98>    H       -6.12302       -19.44441         0.80394
| 99>    H       -5.77536       -21.86190         0.20316
|100>    H       -5.68249       -22.30947        -1.51338
|101>    H       -8.24858       -21.56134        -0.01644
|102>    H       -7.76743       -23.19700        -0.48001
|103>    H       -8.15422       -22.00243        -1.72302
|104>    H       -6.09551       -20.48545        -3.25591
|105>    H       -5.88391       -15.99589        -5.62941
|106>    H       -6.73866       -13.05002        -5.59766
|107>    H       -6.52292       -13.22563        -8.00008
|108>    H       -6.59157       -19.50178        -8.44973
|109>    H       -5.77614       -20.32410       -10.61929
|110>    H       -5.50008       -16.31122       -12.11650
|111> *
|112>
|113>                          ****END OF INPUT****

CARTESIAN COORDINATES (ANGSTROEM)
---------------------------------
  C     -5.668870   -8.070170   11.926280
  O     -5.795520   -9.211420   11.534900
  C     -5.703430   -7.650280   13.345430
  C     -5.479880   -6.267410   13.442340
  C     -5.483710   -5.659370   14.689950
  C     -5.702630   -6.442280   15.813140
  C     -5.910810   -7.810220   15.693310
  C     -5.917150   -8.439780   14.456460
  Br    -6.195830   -8.842860   17.262700
  C     -5.259800   -5.740700   12.099180
  C     -4.818560   -4.476230   11.812900
  C     -4.618950   -3.475220   12.787610
  N     -4.450650   -2.618520   13.532800
  C     -4.431240   -4.002920   10.539240
  N     -4.047440   -3.544380    9.559170
  C     -5.480310   -6.823730   11.150140
  C     -5.626070   -6.603750    9.806560
  C     -5.783600   -7.473740    8.696170
  C     -5.632260   -8.860070    8.649600
  C     -5.737400   -9.605340    7.479170
  C     -5.995960   -9.051550    6.226530
  C     -6.168860   -7.636330    6.225480
  C     -6.068030   -6.866100    7.436640
  N     -6.286100   -5.607490    7.116150
  O     -6.502810   -5.580860    5.806340
  N     -6.436100   -6.793090    5.247490
  C     -6.075940   -9.792650    5.018660
  N     -6.281310   -9.162690    3.810710
  C     -6.291700  -10.099700    2.834360
  C     -6.405560  -10.296160    1.464360
  C     -6.279890  -11.678620    1.257990
  N     -6.097790  -12.312010    2.469140
  C     -6.093270  -11.371930    3.448480
  C     -5.956770  -11.179500    4.814110
  C     -6.304940  -12.356660    0.016170
  C     -6.196840  -13.701650   -0.134510
  C     -6.179540  -14.375580   -1.375920
  S     -6.256070  -13.523030   -2.891940
  C     -6.091610  -15.754590   -1.573840
  C     -6.050380  -16.740350   -0.479280
  O     -6.014990  -16.451480    0.708740
  C     -6.065300  -18.109270   -0.965310
  C     -6.103680  -19.290620   -0.256790
  N     -6.112210  -20.322560   -1.133950
  C     -6.231610  -21.714620   -0.778970
  C     -7.696150  -22.146710   -0.747590
  C     -6.087630  -19.842510   -2.398200
  C     -6.054410  -18.464950   -2.344670
  C     -6.029230  -17.505110   -3.429330
  O     -5.999750  -17.826130   -4.608930
  C     -6.062820  -16.109590   -2.947160
  C     -6.132290  -15.005610   -3.791240
  C     -6.167410  -15.043310   -5.203760
  C     -6.533470  -14.025200   -6.021030
  C     -6.615380  -14.146610   -7.431660
  C     -6.729690  -15.265900   -8.201540
  C     -6.392240  -15.158700   -9.648030
  O     -6.261410  -14.143410  -10.290580
  C     -6.196190  -16.552370  -10.103350
  C     -6.526660  -17.435360   -9.059700
  C     -7.017270  -16.662290   -7.919480
  C     -7.807850  -17.172970   -6.926600
  C     -8.109100  -18.542840   -6.775840
  N     -8.390520  -19.640930   -6.597180
  C     -8.466070  -16.396510   -5.951630
  N     -9.053300  -15.817430   -5.153420
  C     -6.372430  -18.801980   -9.239450
  C     -5.906960  -19.264640  -10.460490
  C     -5.606520  -18.376300  -11.485590
  C     -5.740810  -17.004190  -11.325320
  Br    -4.982430  -19.060290  -13.144790
  H     -5.327550   -4.599650   14.805530
  H     -5.710290   -5.985670   16.790950
  H     -6.080410   -9.501660   14.356500
  H     -5.643220   -5.563080    9.500910
  H     -5.419540   -9.385980    9.565700
  H     -5.597430  -10.672430    7.547720
  H     -6.403280   -8.162820    3.731360
  H     -6.558130   -9.565560    0.696170
  H     -5.976320  -13.303420    2.584730
  H     -5.795720  -11.918080    5.572440
  H     -6.410480  -11.731300   -0.860730
  H     -6.112740  -14.354790    0.722450
  H     -6.123020  -19.444410    0.803940
  H     -5.775360  -21.861900    0.203160
  H     -5.682490  -22.309470   -1.513380
  H     -8.248580  -21.561340   -0.016440
  H     -7.767430  -23.197000   -0.480010
  H     -8.154220  -22.002430   -1.723020
  H     -6.095510  -20.485450   -3.255910
  H     -5.883910  -15.995890   -5.629410
  H     -6.738660  -13.050020   -5.597660
  H     -6.522920  -13.225630   -8.000080
  H     -6.591570  -19.501780   -8.449730
  H     -5.776140  -20.324100  -10.619290
  H     -5.500080  -16.311220  -12.116500

 Total Charge           Charge          ....    0
 Multiplicity           Mult            ....    1
 Number of Electrons    NEL             ....  538
 Basis Dimension        Dim             .... 1159

ORBITAL ENERGIES
----------------

  NO   OCC          E(Eh)            E(eV)
   0   2.0000    -482.871574    -13139.6035
   1   2.0000    -482.870052    -13139.5621
   2   2.0000     -88.974125     -2421.1090
   3   2.0000     -62.549287     -1702.0526
   4   2.0000     -62.547761     -1702.0111
   5   2.0000     -56.383123     -1534.2628
   6   2.0000     -56.381592     -1534.2211
   7   2.0000     -56.380602     -1534.1942
   8   2.0000     -56.380592     -1534.1939
   9   2.0000     -56.379075     -1534.1526
  10   2.0000     -56.379072     -1534.1526
  11   2.0000     -19.363523      -526.9083
  12   2.0000     -19.223759      -523.1051
  13   2.0000     -19.215158      -522.8710
  14   2.0000     -19.209125      -522.7069
  15   2.0000     -19.205428      -522.6063
  16   2.0000     -14.495670      -394.4472
  17   2.0000     -14.492432      -394.3591
  18   2.0000     -14.486086      -394.1864
  19   2.0000     -14.468654      -393.7121
  20   2.0000     -14.465568      -393.6281
  21   2.0000     -14.413273      -392.2051
  22   2.0000     -14.413161      -392.2021
  23   2.0000     -14.411831      -392.1659
  24   2.0000     -14.411466      -392.1559
  25   2.0000     -10.374477      -282.3039
  26   2.0000     -10.368679      -282.1461
  27   2.0000     -10.365892      -282.0703
  28   2.0000     -10.365698      -282.0650
  29   2.0000     -10.344064      -281.4763
  30   2.0000     -10.342095      -281.4227
  31   2.0000     -10.341888      -281.4171
  32   2.0000     -10.340781      -281.3869
  33   2.0000     -10.339715      -281.3579
  34   2.0000     -10.338730      -281.3312
  35   2.0000     -10.338180      -281.3162
  36   2.0000     -10.336398      -281.2677
  37   2.0000     -10.332113      -281.1511
  38   2.0000     -10.327752      -281.0324
  39   2.0000     -10.327689      -281.0307
  40   2.0000     -10.323724      -280.9228
  41   2.0000     -10.323333      -280.9122
  42   2.0000     -10.323093      -280.9057
  43   2.0000     -10.318338      -280.7762
  44   2.0000     -10.316970      -280.7390
  45   2.0000     -10.316864      -280.7361
  46   2.0000     -10.315942      -280.7111
  47   2.0000     -10.314820      -280.6805
  48   2.0000     -10.314212      -280.6640
  49   2.0000     -10.313548      -280.6459
  50   2.0000     -10.312111      -280.6068
  51   2.0000     -10.310867      -280.5730
  52   2.0000     -10.310362      -280.5592
  53   2.0000     -10.309132      -280.5258
  54   2.0000     -10.308080      -280.4971
  55   2.0000     -10.305211      -280.4190
  56   2.0000     -10.303742      -280.3791
  57   2.0000     -10.302824      -280.3541
  58   2.0000     -10.302063      -280.3334
  59   2.0000     -10.301901      -280.3290
  60   2.0000     -10.301208      -280.3101
  61   2.0000     -10.300736      -280.2973
  62   2.0000     -10.299717      -280.2696
  63   2.0000     -10.299638      -280.2674
  64   2.0000     -10.299626      -280.2671
  65   2.0000     -10.299087      -280.2524
  66   2.0000     -10.298308      -280.2312
  67   2.0000     -10.297020      -280.1962
  68   2.0000     -10.296553      -280.1834
  69   2.0000     -10.296300      -280.1766
  70   2.0000     -10.295784      -280.1625
  71   2.0000     -10.291664      -280.0504
  72   2.0000     -10.291130      -280.0359
  73   2.0000     -10.286845      -279.9193
  74   2.0000     -10.285354      -279.8787
  75   2.0000     -10.283313      -279.8232
  76   2.0000     -10.279447      -279.7180
  77   2.0000     -10.273813      -279.5647
  78   2.0000     -10.273363      -279.5524
  79   2.0000      -8.778572      -238.8771
  80   2.0000      -8.777042      -238.8354
  81   2.0000      -8.069674      -219.5870
  82   2.0000      -6.614416      -179.9874
  83   2.0000      -6.612847      -179.9447
  84   2.0000      -6.600677      -179.6136
  85   2.0000      -6.600254      -179.6020
  86   2.0000      -6.599153      -179.5721
  87   2.0000      -6.598762      -179.5614
  88   2.0000      -6.038717      -164.3218
  89   2.0000      -6.034830      -164.2161
  90   2.0000      -6.031971      -164.1383
  91   2.0000      -2.730323       -74.2959
  92   2.0000      -2.728827       -74.2551
  93   2.0000      -2.726601       -74.1946
  94   2.0000      -2.726277       -74.1858
  95   2.0000      -2.725012       -74.1513
  96   2.0000      -2.724717       -74.1433
  97   2.0000      -2.715357       -73.8886
  98   2.0000      -2.715344       -73.8883
  99   2.0000      -2.713850       -73.8476
 100   2.0000      -2.713829       -73.8470
 101   2.0000      -1.316727       -35.8300
 102   2.0000      -1.138475       -30.9795
 103   2.0000      -1.130600       -30.7652
 104   2.0000      -1.126281       -30.6477
 105   2.0000      -1.120739       -30.4969
 106   2.0000      -1.112033       -30.2600
 107   2.0000      -1.104531       -30.0558
 108   2.0000      -1.068572       -29.0773
 109   2.0000      -1.021492       -27.7962
 110   2.0000      -1.018279       -27.7088
 111   2.0000      -1.016816       -27.6690
 112   2.0000      -1.008023       -27.4297
 113   2.0000      -1.004202       -27.3257
 114   2.0000      -0.999825       -27.2066
 115   2.0000      -0.998594       -27.1731
 116   2.0000      -0.990593       -26.9554
 117   2.0000      -0.990531       -26.9537
 118   2.0000      -0.963483       -26.2177
 119   2.0000      -0.962086       -26.1797
 120   2.0000      -0.942310       -25.6416
 121   2.0000      -0.929013       -25.2797
 122   2.0000      -0.928374       -25.2624
 123   2.0000      -0.917572       -24.9684
 124   2.0000      -0.913128       -24.8475
 125   2.0000      -0.908239       -24.7145
 126   2.0000      -0.906504       -24.6672
 127   2.0000      -0.892507       -24.2863
 128   2.0000      -0.891450       -24.2576
 129   2.0000      -0.885974       -24.1086
 130   2.0000      -0.879220       -23.9248
 131   2.0000      -0.876281       -23.8448
 132   2.0000      -0.864395       -23.5214
 133   2.0000      -0.859464       -23.3872
 134   2.0000      -0.851711       -23.1762
 135   2.0000      -0.845268       -23.0009
 136   2.0000      -0.843722       -22.9588
 137   2.0000      -0.839056       -22.8319
 138   2.0000      -0.824280       -22.4298
 139   2.0000      -0.807689       -21.9783
 140   2.0000      -0.787921       -21.4404
 141   2.0000      -0.780293       -21.2328
 142   2.0000      -0.769671       -20.9438
 143   2.0000      -0.769472       -20.9384
 144   2.0000      -0.764868       -20.8131
 145   2.0000      -0.763884       -20.7863
 146   2.0000      -0.758174       -20.6310
 147   2.0000      -0.752679       -20.4814
 148   2.0000      -0.739839       -20.1321
 149   2.0000      -0.720226       -19.5984
 150   2.0000      -0.707970       -19.2648
 151   2.0000      -0.705849       -19.2071
 152   2.0000      -0.703822       -19.1520
 153   2.0000      -0.699877       -19.0446
 154   2.0000      -0.696309       -18.9475
 155   2.0000      -0.694197       -18.8901
 156   2.0000      -0.686234       -18.6734
 157   2.0000      -0.680815       -18.5259
 158   2.0000      -0.675095       -18.3703
 159   2.0000      -0.669973       -18.2309
 160   2.0000      -0.661261       -17.9938
 161   2.0000      -0.656655       -17.8685
 162   2.0000      -0.654718       -17.8158
 163   2.0000      -0.643747       -17.5172
 164   2.0000      -0.638699       -17.3799
 165   2.0000      -0.626928       -17.0596
 166   2.0000      -0.624221       -16.9859
 167   2.0000      -0.618466       -16.8293
 168   2.0000      -0.616680       -16.7807
 169   2.0000      -0.615275       -16.7425
 170   2.0000      -0.613460       -16.6931
 171   2.0000      -0.611213       -16.6320
 172   2.0000      -0.601081       -16.3562
 173   2.0000      -0.597150       -16.2493
 174   2.0000      -0.586870       -15.9695
 175   2.0000      -0.582116       -15.8402
 176   2.0000      -0.578462       -15.7407
 177   2.0000      -0.575303       -15.6548
 178   2.0000      -0.573866       -15.6157
 179   2.0000      -0.569505       -15.4970
 180   2.0000      -0.567406       -15.4399
 181   2.0000      -0.558454       -15.1963
 182   2.0000      -0.549859       -14.9624
 183   2.0000      -0.549575       -14.9547
 184   2.0000      -0.549227       -14.9452
 185   2.0000      -0.546637       -14.8748
 186   2.0000      -0.545336       -14.8394
 187   2.0000      -0.543179       -14.7807
 188   2.0000      -0.541099       -14.7241
 189   2.0000      -0.539607       -14.6834
 190   2.0000      -0.537718       -14.6320
 191   2.0000      -0.535017       -14.5585
 192   2.0000      -0.532828       -14.4990
 193   2.0000      -0.531242       -14.4558
 194   2.0000      -0.529168       -14.3994
 195   2.0000      -0.527168       -14.3450
 196   2.0000      -0.524510       -14.2726
 197   2.0000      -0.522482       -14.2175
 198   2.0000      -0.520179       -14.1548
 199   2.0000      -0.516075       -14.0431
 200   2.0000      -0.514098       -13.9893
 201   2.0000      -0.508574       -13.8390
 202   2.0000      -0.505157       -13.7460
 203   2.0000      -0.500068       -13.6075
 204   2.0000      -0.497646       -13.5416
 205   2.0000      -0.494883       -13.4664
 206   2.0000      -0.493925       -13.4404
 207   2.0000      -0.492640       -13.4054
 208   2.0000      -0.489342       -13.3157
 209   2.0000      -0.484528       -13.1847
 210   2.0000      -0.483603       -13.1595
 211   2.0000      -0.479895       -13.0586
 212   2.0000      -0.478235       -13.0134
 213   2.0000      -0.476275       -12.9601
 214   2.0000      -0.475789       -12.9469
 215   2.0000      -0.473708       -12.8902
 216   2.0000      -0.472658       -12.8617
 217   2.0000      -0.470802       -12.8112
 218   2.0000      -0.465292       -12.6612
 219   2.0000      -0.462629       -12.5888
 220   2.0000      -0.460918       -12.5422
 221   2.0000      -0.459923       -12.5152
 222   2.0000      -0.458040       -12.4639
 223   2.0000      -0.453755       -12.3473
 224   2.0000      -0.452781       -12.3208
 225   2.0000      -0.451707       -12.2916
 226   2.0000      -0.449457       -12.2303
 227   2.0000      -0.448241       -12.1973
 228   2.0000      -0.446048       -12.1376
 229   2.0000      -0.445058       -12.1106
 230   2.0000      -0.442270       -12.0348
 231   2.0000      -0.439560       -11.9610
 232   2.0000      -0.438711       -11.9379
 233   2.0000      -0.434965       -11.8360
 234   2.0000      -0.431470       -11.7409
 235   2.0000      -0.423823       -11.5328
 236   2.0000      -0.423360       -11.5202
 237   2.0000      -0.421917       -11.4809
 238   2.0000      -0.420210       -11.4345
 239   2.0000      -0.419792       -11.4231
 240   2.0000      -0.419354       -11.4112
 241   2.0000      -0.413008       -11.2385
 242   2.0000      -0.405662       -11.0386
 243   2.0000      -0.405417       -11.0320
 244   2.0000      -0.403614       -10.9829
 245   2.0000      -0.394002       -10.7213
 246   2.0000      -0.388649       -10.5757
 247   2.0000      -0.379463       -10.3257
 248   2.0000      -0.370958       -10.0943
 249   2.0000      -0.366363        -9.9692
 250   2.0000      -0.365326        -9.9410
 251   2.0000      -0.363995        -9.9048
 252   2.0000      -0.353939        -9.6312
 253   2.0000      -0.350681        -9.5425
 254   2.0000      -0.348507        -9.4834
 255   2.0000      -0.345321        -9.3967
 256   2.0000      -0.343314        -9.3420
 257   2.0000      -0.338031        -9.1983
 258   2.0000      -0.336779        -9.1642
 259   2.0000      -0.332791        -9.0557
 260   2.0000      -0.330541        -8.9945
 261   2.0000      -0.329110        -8.9556
 262   2.0000      -0.311529        -8.4771
 263   2.0000      -0.308731        -8.4010
 264   2.0000      -0.306143        -8.3306
 265   2.0000      -0.302595        -8.2340
 266   2.0000      -0.299356        -8.1459
 267   2.0000      -0.275567        -7.4986
 268   2.0000      -0.233386        -6.3507
 269   0.0000      -0.108964        -2.9651
 270   0.0000      -0.094707        -2.5771
 271   0.0000      -0.070786        -1.9262
 272   0.0000      -0.063109        -1.7173
 273   0.0000      -0.058884        -1.6023

MULLIKEN ATOMIC CHARGES
-----------------------
   0 C :    0.162530
   1 O :   -0.154740
   2 C :   -0.020168
   3 C :    0.035003
   4 C :   -0.024637
   5 C :    0.049107
   6 C :   -0.004358
   7 C :   -0.013911
   8 Br:   -0.022174
   9 C :    0.290959
  10 C :   -0.340755
  11 C :   -0.188725
  12 N :    0.151934
  13 C :   -0.210238
  14 N :    0.176461
  15 C :   -0.066464
  16 C :   -0.056908
  17 C :    0.036948
  18 C :    0.005450
  19 C :   -0.055667
  20 C :    0.150404
  21 C :   -0.021598
  22 C :   -0.023857
  23 N :    0.060912
  24 O :   -0.090342
  25 N :    0.000880
  26 C :   -0.001283
  27 N :   -0.025346
  28 C :    0.130672
  29 C :   -0.165801
  30 C :    0.089960
  31 N :   -0.028346
  32 C :    0.119975
  33 C :   -0.149755
  34 C :    0.042856
  35 C :   -0.024250
  36 C :   -0.120100
  37 S :    0.143597
  38 C :    0.010817
  39 C :    0.144532
  40 O :   -0.185862
  41 C :   -0.013935
  42 C :    0.009436
  43 N :   -0.133989
  44 C :    0.090571
  45 C :   -0.000330
  46 C :    0.017304
  47 C :   -0.020511
  48 C :    0.152064
  49 O :   -0.184819
  50 C :    0.037413
  51 C :   -0.130895
  52 C :    0.013202
  53 C :    0.012120
  54 C :    0.043655
  55 C :   -0.113545
  56 C :    0.130737
  57 O :   -0.141326
  58 C :   -0.005027
  59 C :    0.011233
  60 C :    0.265974
  61 C :   -0.318459
  62 C :   -0.161768
  63 N :    0.147338
  64 C :   -0.207237
  65 N :    0.171742
  66 C :   -0.022036
  67 C :    0.044969
  68 C :   -0.004327
  69 C :   -0.012559
  70 Br:   -0.024443
  71 H :    0.010358
  72 H :    0.005234
  73 H :    0.001620
  74 H :    0.037001
  75 H :    0.009384
  76 H :   -0.016725
  77 H :    0.134103
  78 H :   -0.024701
  79 H :    0.136745
  80 H :   -0.025911
  81 H :   -0.007141
  82 H :   -0.004928
  83 H :    0.006802
  84 H :    0.032046
  85 H :    0.035232
  86 H :    0.031064
  87 H :    0.031547
  88 H :    0.037728
  89 H :    0.014948
  90 H :    0.049811
  91 H :    0.001300
  92 H :    0.024727
  93 H :    0.011118
  94 H :    0.004899
  95 H :    0.003477
Sum of atomic charges:   -0.0000000

LOEWDIN ATOMIC CHARGES
----------------------
   0 C :    0.088376
   1 O :   -0.139958
   2 C :   -0.037687
   3 C :   -0.014999
   4 C :    0.007770
   5 C :   -0.012980
   6 C :   -0.099100
   7 C :   -0.001270
   8 Br:    0.113286
   9 C :    0.073419
  10 C :   -0.134531
  11 C :   -0.017581
  12 N :   -0.051796
  13 C :   -0.030199
  14 N :   -0.039041
  15 C :   -0.097964
  16 C :    0.078387
  17 C :   -0.072460
  18 C :    0.045325
  19 C :   -0.028640
  20 C :    0.001155
  21 C :   -0.045947
  22 C :   -0.039043
  23 N :   -0.014104
  24 O :    0.079243
  25 N :   -0.036804
  26 C :   -0.003078
  27 N :    0.081264
  28 C :   -0.003284
  29 C :   -0.081100
  30 C :    0.014204
  31 N :    0.071722
  32 C :   -0.009554
  33 C :   -0.069924
  34 C :   -0.013291
  35 C :   -0.056284
  36 C :   -0.115879
  37 S :    0.463562
  38 C :   -0.091239
  39 C :    0.084037
  40 O :   -0.179428
  41 C :   -0.099641
  42 C :    0.031353
  43 N :    0.091517
  44 C :    0.044319
  45 C :   -0.056745
  46 C :    0.039407
  47 C :   -0.102066
  48 C :    0.090724
  49 O :   -0.171480
  50 C :   -0.067583
  51 C :   -0.136552
  52 C :    0.016679
  53 C :   -0.042562
  54 C :    0.065417
  55 C :   -0.088821
  56 C :    0.083614
  57 O :   -0.138795
  58 C :   -0.040829
  59 C :   -0.009656
  60 C :    0.062442
  61 C :   -0.122748
  62 C :   -0.012032
  63 N :   -0.058142
  64 C :   -0.012520
  65 N :   -0.043694
  66 C :    0.005815
  67 C :   -0.013530
  68 C :   -0.100706
  69 C :   -0.000147
  70 Br:    0.111642
  71 H :    0.043190
  72 H :    0.040247
  73 H :    0.043056
  74 H :    0.050656
  75 H :    0.036428
  76 H :    0.035161
  77 H :    0.079480
  78 H :    0.029732
  79 H :    0.095446
  80 H :    0.028248
  81 H :    0.030050
  82 H :    0.029019
  83 H :    0.029478
  84 H :    0.033339
  85 H :    0.034377
  86 H :    0.030801
  87 H :    0.033707
  88 H :    0.033201
  89 H :    0.032927
  90 H :    0.041525
  91 H :    0.027502
  92 H :    0.046573
  93 H :    0.043112
  94 H :    0.039432
  95 H :    0.044046

  Mayer bond orders larger than 0.100000
B(  0-C ,  1-O ) :   2.1630 B(  0-C ,  2-C ) :   0.9546 B(  0-C , 15-C ) :   0.9462
B(  2-C ,  3-C ) :   1.3345 B(  2-C ,  7-C ) :   1.3790 B(  3-C ,  4-C ) :   1.3633
B(  3-C ,  9-C ) :   0.9904 B(  4-C ,  5-C ) :   1.3833 B(  4-C , 71-H ) :   0.9840
B(  5-C ,  6-C ) :   1.3878 B(  5-C , 72-H ) :   0.9852 B(  6-C ,  7-C ) :   1.3385
B(  6-C ,  8-Br) :   0.9903 B(  7-C , 73-H ) :   1.0068 B(  9-C , 10-C ) :   1.6414
B(  9-C , 15-C ) :   1.0715 B( 10-C , 11-C ) :   1.1437 B( 10-C , 13-C ) :   1.1340
B( 11-C , 12-N ) :   2.9783 B( 13-C , 14-N ) :   3.0051 B( 15-C , 16-C ) :   1.5213
B( 16-C , 17-C ) :   1.2274 B( 16-C , 74-H ) :   0.9429 B( 17-C , 18-C ) :   1.3756
B( 17-C , 22-C ) :   1.1105 B( 18-C , 19-C ) :   1.2707 B( 18-C , 75-H ) :   0.9688
B( 19-C , 20-C ) :   1.4255 B( 19-C , 76-H ) :   0.9936 B( 20-C , 21-C ) :   1.0960
B( 20-C , 26-C ) :   1.1165 B( 21-C , 22-C ) :   1.1511 B( 21-C , 25-N ) :   1.5638
B( 22-C , 23-N ) :   1.6240 B( 23-N , 24-O ) :   1.0631 B( 23-N , 25-N ) :   0.1762
B( 24-O , 25-N ) :   1.0695 B( 26-C , 27-N ) :   1.2380 B( 26-C , 33-C ) :   1.3419
B( 27-N , 28-C ) :   1.1927 B( 27-N , 77-H ) :   0.8955 B( 28-C , 29-C ) :   1.2503
B( 28-C , 32-C ) :   1.2693 B( 29-C , 30-C ) :   1.3446 B( 29-C , 78-H ) :   1.0436
B( 30-C , 31-N ) :   1.2034 B( 30-C , 34-C ) :   1.1714 B( 31-N , 32-C ) :   1.1678
B( 31-N , 79-H ) :   0.9278 B( 32-C , 33-C ) :   1.3076 B( 33-C , 80-H ) :   1.0189
B( 34-C , 35-C ) :   1.5499 B( 34-C , 81-H ) :   0.9610 B( 35-C , 36-C ) :   1.2182
B( 35-C , 82-H ) :   0.9471 B( 36-C , 37-S ) :   1.1258 B( 36-C , 38-C ) :   1.4560
B( 37-S , 51-C ) :   1.1083 B( 38-C , 39-C ) :   0.9488 B( 38-C , 50-C ) :   1.1994
B( 39-C , 40-O ) :   2.1588 B( 39-C , 41-C ) :   1.0050 B( 40-O , 82-H ) :   0.1047
B( 41-C , 42-C ) :   1.4265 B( 41-C , 47-C ) :   1.2891 B( 42-C , 43-N ) :   1.2318
B( 42-C , 83-H ) :   0.9933 B( 43-N , 44-C ) :   0.9507 B( 43-N , 46-C ) :   1.2404
B( 44-C , 45-C ) :   1.1090 B( 44-C , 84-H ) :   0.9512 B( 44-C , 85-H ) :   0.9509
B( 45-C , 86-H ) :   0.9674 B( 45-C , 87-H ) :   0.9684 B( 45-C , 88-H ) :   0.9678
B( 46-C , 47-C ) :   1.4199 B( 46-C , 89-H ) :   0.9934 B( 47-C , 48-C ) :   1.0139
B( 48-C , 49-O ) :   2.1299 B( 48-C , 50-C ) :   0.9400 B( 50-C , 51-C ) :   1.4850
B( 51-C , 52-C ) :   1.2111 B( 52-C , 53-C ) :   1.6019 B( 52-C , 90-H ) :   0.9355
B( 53-C , 54-C ) :   1.1608 B( 53-C , 91-H ) :   0.9608 B( 54-C , 55-C ) :   1.6713
B( 54-C , 92-H ) :   0.9331 B( 55-C , 56-C ) :   0.9520 B( 55-C , 60-C ) :   1.0194
B( 56-C , 57-O ) :   2.2615 B( 56-C , 58-C ) :   0.9180 B( 58-C , 59-C ) :   1.3355
B( 58-C , 69-C ) :   1.3780 B( 59-C , 60-C ) :   1.0055 B( 59-C , 66-C ) :   1.3700
B( 60-C , 61-C ) :   1.6763 B( 61-C , 62-C ) :   1.1240 B( 61-C , 64-C ) :   1.1728
B( 62-C , 63-N ) :   2.9895 B( 64-C , 65-N ) :   2.9889 B( 66-C , 67-C ) :   1.3817
B( 66-C , 93-H ) :   0.9859 B( 67-C , 68-C ) :   1.3878 B( 67-C , 94-H ) :   0.9857
B( 68-C , 69-C ) :   1.3440 B( 68-C , 70-Br) :   0.9902 B( 69-C , 95-H ) :   1.0071

-----------------------------------------------------------------------------
         ABSORPTION SPECTRUM VIA TRANSITION ELECTRIC DIPOLE MOMENTS
-----------------------------------------------------------------------------
State   Energy  Wavelength   fosc         T2         TX        TY        TZ
        (cm-1)    (nm)                  (au**2)     (au)      (au)      (au)
-----------------------------------------------------------------------------
   0   13163.4    759.7   2.279719739  57.01484   0.47346   3.83864   6.48502
   1   16944.2    590.2   0.039781578   0.77292   0.26302  -0.65416   0.52519
   2   22599.7    442.5   0.081195356   1.18278  -0.38414   0.86679   0.53282
   3   23355.7    428.2   0.010741172   0.15140  -0.25834   0.29029   0.01985
   4   23650.3    422.8   0.180005207   2.50568   0.13112   1.42125   0.68449
   5   24801.1    403.2   0.036761455   0.48797   0.26811   0.64316   0.04934
   6   25370.4    394.2   0.144674806   1.87733  -0.50818   0.32764  -1.22953
   7   25639.0    390.0   0.012529897   0.16089   0.16335   0.36634  -0.00095
   8   26514.9    377.1   0.074533135   0.92541   0.06271   0.16129   0.94629
   9   27285.7    366.5   0.070097388   0.84575   0.04918   0.16541  -0.90331
  10   27795.7    359.8   0.153560072   1.81876  -0.31433  -0.42829   1.23957
  11   28026.0    356.8   0.055378663   0.65051   0.28279  -0.32752  -0.68064
  12   29241.0    342.0   0.020536636   0.23121  -0.16416  -0.29176   0.34517
  13   29499.6    339.0   0.016794850   0.18743  -0.00392   0.38691  -0.19420
  14   30119.8    332.0   0.014859957   0.16242   0.00866   0.06256   0.39804
  15   30203.7    331.1   0.033299795   0.36296   0.28676  -0.44861  -0.28192
  16   30378.2    329.2   0.121409214   1.31572  -0.00848   0.16498   1.13509
  17   30487.9    328.0   0.005409276   0.05841  -0.06539   0.01127   0.23240
  18   32226.9    310.3   0.114412238   1.16877  -0.30102  -0.19052   1.02071
  19   32543.0    307.3   0.089716514   0.90759   0.12360   0.38814  -0.86120
  20   32748.7    305.4   0.105783512   1.06341  -0.20367  -0.85382   0.54121
  21   32863.6    304.3   0.007414381   0.07427  -0.24402  -0.04946   0.11081
  22   33076.6    302.3   0.128352832   1.27750  -0.37649  -0.63684   0.85451
  23   33264.0    300.6   0.044454890   0.43997  -0.07175  -0.32436   0.57412
  24   33500.8    298.5   0.001816184   0.01785   0.00617  -0.12846  -0.03616
  25   33617.6    297.5   0.032282757   0.31614  -0.02029   0.55410  -0.09326
  26   33858.5    295.3   0.070883286   0.68921   0.24182   0.74761  -0.26797
  27   33930.7    294.7   0.049953525   0.48467  -0.05128   0.52027   0.45974
  28   34639.3    288.7   0.432559153   4.11105  -0.49842  -1.37018   1.40898
  29   35236.3    283.8   0.278317091   2.60031   0.69723  -0.21924  -1.43740
  30   35528.7    281.5   0.024131806   0.22361   0.02437  -0.14676  -0.44886
  31   35937.4    278.3   0.001965529   0.01801   0.08609  -0.01953  -0.10106
  32   36161.1    276.5   0.018195978   0.16566   0.19264   0.35785   0.02211
  33   36299.8    275.5   0.040257120   0.36510   0.06521  -0.57075   0.18735
  34   36400.2    274.7   0.040096576   0.36264   0.18911   0.34611  -0.45507
  35   36615.0    273.1   0.060256138   0.54177  -0.11906  -0.27513   0.67224
  36   36768.2    272.0   0.030421824   0.27239  -0.30012  -0.34471   0.25198
  37   36894.5    271.0   0.178299489   1.59098   0.35722   0.47827  -1.11114
  38   37078.0    269.7   0.334247113   2.96775   0.17241  -1.27322  -1.14757
  39   37475.8    266.8   0.084511249   0.74240   0.38317  -0.04395  -0.77049
  40   37723.6    265.1   0.088355697   0.77108  -0.46008  -0.66172   0.34862
  41   38523.0    259.6   0.006475942   0.05534  -0.19231  -0.13467   0.01492
  42   38782.7    257.8   0.118200468   1.00336  -0.06891  -0.93272  -0.35867
  43   39069.5    256.0   0.114792109   0.96727   0.03499  -0.76874   0.61244
  44   39156.8    255.4   0.026349664   0.22154  -0.04509  -0.38147  -0.27200
  45   39369.1    254.0   0.013001523   0.10872  -0.03516  -0.32772   0.00922
  46   39705.9    251.9   0.049411499   0.40968   0.00168  -0.42962   0.47445
  47   39858.1    250.9   0.027610828   0.22805  -0.05717   0.47298  -0.03279
  48   39915.6    250.5   0.007638521   0.06300  -0.16712   0.18511   0.02835
  49   40151.2    249.1   0.009904818   0.08121  -0.04238  -0.10665  -0.26085

FINAL SINGLE POINT ENERGY     -8483.844884295897

DIPOLE MOMENT
-------------
                                X             Y             Z
Electronic contribution:     13.19780      15.57637      19.14376
Nuclear contribution   :    -12.83168     -20.19193     -19.13489
                        -----------------------------------------
Total Dipole Moment    :      0.36612      -4.61557       0.00888
                        -----------------------------------------
Magnitude (a.u.)       :      4.63007
Magnitude (Debye)      :     11.76871

Rotational constants in cm-1:     0.002064     0.000146     0.000138
Rotational constants in MHz :    61.863392     4.378713     4.131666

                             ****ORCA TERMINATED NORMALLY****
TOTAL RUN TIME: 0 days 0 hours 9 minutes 16 seconds 831 msec
