                         Program Version 4.2.0 -  RELEASE  -
|  1> # ORCA input file
|  2> # SCF done       -197.051677243961          0.000800390384
|  3> ! CAM-B3LYP def2-SVP def2/J RIJCOSX Grid4 TightSCF
|  4> %maxcore 5000
|  5> %tddft
|  6>     Mode sTDDFT
|  7>     Ethresh 5.0
|  8>     maxcore 5000
|  9> end
| 10>
| 11> %pal
| 12>   nprocs 6
| 13>   end
| 14> * xyz 0 1
| 15>    C        1.55074        -0.71800         0.79401
| 16>    C        2.44833         0.48243         1.08775
| 17>    N        2.89376         1.10654        -0.13254
| 18>    C        4.02216         0.78474        -0.80795
| 19>    C        4.08200         1.54981        -1.95303
| 20>    C        2.91490         2.35908        -1.96153
| 21>    C        2.20617         2.04751        -0.82150
| 22>    C        2.60855         3.29321        -3.02592
| 23>    O        1.56485         3.92377        -3.07914
| 24>    C        3.69639         3.39567        -4.02333
| 25>    C        3.65801         4.32790        -5.05445
| 26>    C        2.63951         5.27105        -5.33690
| 27>    C        2.63248         6.09516        -6.41132
| 28>    C        1.58489         7.01149        -6.68617
| 29>    S        0.25163         7.18910        -5.57534
| 30>    C       -0.47065         8.40887        -6.57132
| 31>    C       -1.66746         9.06748        -6.32095
| 32>    C       -2.12352         9.98854        -7.23630
| 33>    C       -1.40402        10.21533        -8.42065
| 34>    C       -1.89097        11.12929        -9.38297
| 35>    N       -2.26611        11.86891       -10.17436
| 36>    C       -0.20948         9.55480        -8.67288
| 37>    C        0.29879         8.67140        -7.72350
| 38>    C        1.50231         7.88740        -7.76237
| 39>    C        2.49836         7.97013        -8.78654
| 40>    C        2.88967         9.06181        -9.48750
| 41>    C        3.63902         8.89585       -10.76908
| 42>    O        4.18290         7.88732       -11.15756
| 43>    C        3.50766        10.19281       -11.45400
| 44>    C        3.88069        10.55078       -12.73399
| 45>    C        3.61365        11.83747       -13.19090
| 46>    C        4.00904        12.23267       -14.57715
| 47>    C        2.96674        12.75738       -12.34914
| 48>    C        2.65939        14.13603       -12.83701
| 49>    C        2.60271        12.39500       -11.05555
| 50>    C        2.87368        11.11627       -10.60157
| 51>    C        2.62279        10.47858        -9.31586
| 52>    C        2.37781        11.12159        -8.13247
| 53>    C        2.38446        10.47769        -6.87905
| 54>    N        2.43338        10.00693        -5.83317
| 55>    C        2.17570        12.51246        -8.02160
| 56>    N        1.99110        13.63593        -7.87698
| 57>    S        5.09052         4.22240        -6.02730
| 58>    C        5.74065         2.91349        -5.07302
| 59>    C        7.01537         2.47635        -5.53478
| 60>    C        7.75186         1.41800        -5.11767
| 61>    C        9.02388         1.04788        -5.62248
| 62>    C        9.74431        -0.09214        -5.24011
| 63>    C       10.92952        -0.06056        -5.96315
| 64>    N       12.08711        -0.71768        -6.19870
| 65>    C       12.84511         0.02148        -7.09241
| 66>    C       14.07442        -0.47606        -7.54589
| 67>    C       15.06746         0.12197        -8.28052
| 68>    C       16.01597        -0.73926        -9.02240
| 69>    O       16.14127        -1.94008        -8.92734
| 70>    C       16.74192         0.17577        -9.93471
| 71>    C       17.66595        -0.13165       -10.91278
| 72>    C       18.18543         0.91479       -11.65918
| 73>    F       19.08248         0.66100       -12.62121
| 74>    C       17.78222         2.22807       -11.42127
| 75>    F       18.29064         3.21702       -12.16661
| 76>    C       16.86184         2.53911       -10.43040
| 77>    C       16.33918         1.49847        -9.68134
| 78>    C       15.39401         1.49495        -8.56122
| 79>    C       15.10579         2.58602        -7.77826
| 80>    C       14.44914         2.49739        -6.53591
| 81>    N       13.95570         2.46702        -5.49964
| 82>    C       15.51508         3.90055        -8.07538
| 83>    N       15.80028         4.99309        -8.28340
| 84>    C       12.11270         1.16568        -7.47452
| 85>    C       10.91982         1.10983        -6.77738
| 86>    N        9.74213         1.75412        -6.56434
| 87>    C        4.87298         2.58287        -4.02643
| 88>    C        5.09311         1.54841        -2.99627
| 89>    O        6.01117         0.74158        -2.98442
| 90>    H        1.22484        -1.17437         1.72430
| 91>    H        2.08995        -1.46032         0.21034
| 92>    H        0.67395        -0.40641         0.23146
| 93>    H        3.32666         0.16297         1.65426
| 94>    H        1.90161         1.22257         1.67792
| 95>    H        4.71762         0.05556        -0.44260
| 96>    H        1.27625         2.44781        -0.46969
| 97>    H        1.81947         5.29441        -4.63056
| 98>    H        3.45257         6.06186        -7.11768
| 99>    H       -2.22481         8.85385        -5.42282
|100>    H       -3.04243        10.52751        -7.06426
|101>    H        0.30068         9.71819        -9.61028
|102>    H        2.96990         7.03987        -9.08758
|103>    H        4.37276         9.82926       -13.36903
|104>    H        4.49258        11.40633       -15.09080
|105>    H        4.69573        13.07819       -14.55358
|106>    H        3.13440        12.53631       -15.15155
|107>    H        2.16681        14.71770       -12.06304
|108>    H        2.00829        14.09566       -13.70964
|109>    H        3.57337        14.65043       -13.13182
|110>    H        2.09603        13.11016       -10.42663
|111>    H        7.39214         3.09133        -6.34558
|112>    H        7.36672         0.78379        -4.33420
|113>    H        9.41229        -0.81860        -4.52681
|114>    H       12.41325        -1.54872        -5.73502
|115>    H       14.24370        -1.53488        -7.36718
|116>    H       17.97783        -1.14769       -11.09483
|117>    H       16.58012         3.56912       -10.28371
|118>    H       12.42054         1.89042        -8.20128
|119>    H        9.46664         2.63670        -6.95810
|120> *
|121>
|122>                          ****END OF INPUT****

CARTESIAN COORDINATES (ANGSTROEM)
---------------------------------
  C      1.550740   -0.718000    0.794010
  C      2.448330    0.482430    1.087750
  N      2.893760    1.106540   -0.132540
  C      4.022160    0.784740   -0.807950
  C      4.082000    1.549810   -1.953030
  C      2.914900    2.359080   -1.961530
  C      2.206170    2.047510   -0.821500
  C      2.608550    3.293210   -3.025920
  O      1.564850    3.923770   -3.079140
  C      3.696390    3.395670   -4.023330
  C      3.658010    4.327900   -5.054450
  C      2.639510    5.271050   -5.336900
  C      2.632480    6.095160   -6.411320
  C      1.584890    7.011490   -6.686170
  S      0.251630    7.189100   -5.575340
  C     -0.470650    8.408870   -6.571320
  C     -1.667460    9.067480   -6.320950
  C     -2.123520    9.988540   -7.236300
  C     -1.404020   10.215330   -8.420650
  C     -1.890970   11.129290   -9.382970
  N     -2.266110   11.868910  -10.174360
  C     -0.209480    9.554800   -8.672880
  C      0.298790    8.671400   -7.723500
  C      1.502310    7.887400   -7.762370
  C      2.498360    7.970130   -8.786540
  C      2.889670    9.061810   -9.487500
  C      3.639020    8.895850  -10.769080
  O      4.182900    7.887320  -11.157560
  C      3.507660   10.192810  -11.454000
  C      3.880690   10.550780  -12.733990
  C      3.613650   11.837470  -13.190900
  C      4.009040   12.232670  -14.577150
  C      2.966740   12.757380  -12.349140
  C      2.659390   14.136030  -12.837010
  C      2.602710   12.395000  -11.055550
  C      2.873680   11.116270  -10.601570
  C      2.622790   10.478580   -9.315860
  C      2.377810   11.121590   -8.132470
  C      2.384460   10.477690   -6.879050
  N      2.433380   10.006930   -5.833170
  C      2.175700   12.512460   -8.021600
  N      1.991100   13.635930   -7.876980
  S      5.090520    4.222400   -6.027300
  C      5.740650    2.913490   -5.073020
  C      7.015370    2.476350   -5.534780
  C      7.751860    1.418000   -5.117670
  C      9.023880    1.047880   -5.622480
  C      9.744310   -0.092140   -5.240110
  C     10.929520   -0.060560   -5.963150
  N     12.087110   -0.717680   -6.198700
  C     12.845110    0.021480   -7.092410
  C     14.074420   -0.476060   -7.545890
  C     15.067460    0.121970   -8.280520
  C     16.015970   -0.739260   -9.022400
  O     16.141270   -1.940080   -8.927340
  C     16.741920    0.175770   -9.934710
  C     17.665950   -0.131650  -10.912780
  C     18.185430    0.914790  -11.659180
  F     19.082480    0.661000  -12.621210
  C     17.782220    2.228070  -11.421270
  F     18.290640    3.217020  -12.166610
  C     16.861840    2.539110  -10.430400
  C     16.339180    1.498470   -9.681340
  C     15.394010    1.494950   -8.561220
  C     15.105790    2.586020   -7.778260
  C     14.449140    2.497390   -6.535910
  N     13.955700    2.467020   -5.499640
  C     15.515080    3.900550   -8.075380
  N     15.800280    4.993090   -8.283400
  C     12.112700    1.165680   -7.474520
  C     10.919820    1.109830   -6.777380
  N      9.742130    1.754120   -6.564340
  C      4.872980    2.582870   -4.026430
  C      5.093110    1.548410   -2.996270
  O      6.011170    0.741580   -2.984420
  H      1.224840   -1.174370    1.724300
  H      2.089950   -1.460320    0.210340
  H      0.673950   -0.406410    0.231460
  H      3.326660    0.162970    1.654260
  H      1.901610    1.222570    1.677920
  H      4.717620    0.055560   -0.442600
  H      1.276250    2.447810   -0.469690
  H      1.819470    5.294410   -4.630560
  H      3.452570    6.061860   -7.117680
  H     -2.224810    8.853850   -5.422820
  H     -3.042430   10.527510   -7.064260
  H      0.300680    9.718190   -9.610280
  H      2.969900    7.039870   -9.087580
  H      4.372760    9.829260  -13.369030
  H      4.492580   11.406330  -15.090800
  H      4.695730   13.078190  -14.553580
  H      3.134400   12.536310  -15.151550
  H      2.166810   14.717700  -12.063040
  H      2.008290   14.095660  -13.709640
  H      3.573370   14.650430  -13.131820
  H      2.096030   13.110160  -10.426630
  H      7.392140    3.091330   -6.345580
  H      7.366720    0.783790   -4.334200
  H      9.412290   -0.818600   -4.526810
  H     12.413250   -1.548720   -5.735020
  H     14.243700   -1.534880   -7.367180
  H     17.977830   -1.147690  -11.094830
  H     16.580120    3.569120  -10.283710
  H     12.420540    1.890420   -8.201280
  H      9.466640    2.636700   -6.958100

 Total Charge           Charge          ....    0
 Multiplicity           Mult            ....    1
 Number of Electrons    NEL             ....  522
 Basis Dimension        Dim             .... 1208

ORBITAL ENERGIES
----------------

  NO   OCC          E(Eh)            E(eV)
   0   2.0000     -88.972078     -2421.0533
   1   2.0000     -88.963912     -2420.8311
   2   2.0000     -24.795913      -674.7311
   3   2.0000     -24.795436      -674.7181
   4   2.0000     -19.214341      -522.8488
   5   2.0000     -19.210921      -522.7557
   6   2.0000     -19.205184      -522.5996
   7   2.0000     -19.203809      -522.5622
   8   2.0000     -14.491031      -394.3210
   9   2.0000     -14.472917      -393.8281
  10   2.0000     -14.469837      -393.7443
  11   2.0000     -14.412115      -392.1736
  12   2.0000     -14.410952      -392.1419
  13   2.0000     -14.410735      -392.1360
  14   2.0000     -14.409644      -392.1063
  15   2.0000     -14.398697      -391.8085
  16   2.0000     -10.380719      -282.4737
  17   2.0000     -10.379922      -282.4520
  18   2.0000     -10.365635      -282.0633
  19   2.0000     -10.364775      -282.0399
  20   2.0000     -10.364006      -282.0189
  21   2.0000     -10.362548      -281.9793
  22   2.0000     -10.341222      -281.3989
  23   2.0000     -10.337822      -281.3064
  24   2.0000     -10.337695      -281.3030
  25   2.0000     -10.336536      -281.2715
  26   2.0000     -10.336280      -281.2645
  27   2.0000     -10.331688      -281.1395
  28   2.0000     -10.326308      -280.9931
  29   2.0000     -10.323324      -280.9119
  30   2.0000     -10.322053      -280.8774
  31   2.0000     -10.321987      -280.8755
  32   2.0000     -10.316089      -280.7150
  33   2.0000     -10.315531      -280.6999
  34   2.0000     -10.315298      -280.6935
  35   2.0000     -10.315037      -280.6864
  36   2.0000     -10.314798      -280.6799
  37   2.0000     -10.314517      -280.6723
  38   2.0000     -10.314290      -280.6661
  39   2.0000     -10.313970      -280.6574
  40   2.0000     -10.313003      -280.6311
  41   2.0000     -10.311721      -280.5962
  42   2.0000     -10.311237      -280.5830
  43   2.0000     -10.310789      -280.5708
  44   2.0000     -10.310751      -280.5698
  45   2.0000     -10.303550      -280.3738
  46   2.0000     -10.302955      -280.3577
  47   2.0000     -10.300124      -280.2806
  48   2.0000     -10.299133      -280.2537
  49   2.0000     -10.298476      -280.2358
  50   2.0000     -10.297776      -280.2167
  51   2.0000     -10.297325      -280.2044
  52   2.0000     -10.297123      -280.1990
  53   2.0000     -10.297083      -280.1979
  54   2.0000     -10.296250      -280.1752
  55   2.0000     -10.295677      -280.1596
  56   2.0000     -10.295477      -280.1542
  57   2.0000     -10.295100      -280.1439
  58   2.0000     -10.294959      -280.1401
  59   2.0000     -10.294646      -280.1316
  60   2.0000     -10.294233      -280.1203
  61   2.0000     -10.293374      -280.0969
  62   2.0000     -10.292772      -280.0806
  63   2.0000     -10.288991      -279.9777
  64   2.0000     -10.287915      -279.9484
  65   2.0000     -10.287890      -279.9477
  66   2.0000     -10.286655      -279.9141
  67   2.0000     -10.286232      -279.9026
  68   2.0000     -10.285935      -279.8945
  69   2.0000     -10.285094      -279.8716
  70   2.0000     -10.278024      -279.6793
  71   2.0000     -10.274789      -279.5912
  72   2.0000     -10.271472      -279.5010
  73   2.0000     -10.271231      -279.4944
  74   2.0000     -10.270871      -279.4846
  75   2.0000      -8.068107      -219.5443
  76   2.0000      -8.059588      -219.3125
  77   2.0000      -6.037132      -164.2787
  78   2.0000      -6.033207      -164.1719
  79   2.0000      -6.030383      -164.0951
  80   2.0000      -6.028959      -164.0563
  81   2.0000      -6.025005      -163.9487
  82   2.0000      -6.021195      -163.8450
  83   2.0000      -1.319018       -35.8923
  84   2.0000      -1.303853       -35.4796
  85   2.0000      -1.128712       -30.7138
  86   2.0000      -1.125973       -30.6393
  87   2.0000      -1.124185       -30.5906
  88   2.0000      -1.119791       -30.4711
  89   2.0000      -1.110528       -30.2190
  90   2.0000      -1.105589       -30.0846
  91   2.0000      -1.068438       -29.0737
  92   2.0000      -1.018713       -27.7206
  93   2.0000      -1.015281       -27.6272
  94   2.0000      -1.008348       -27.4385
  95   2.0000      -1.002664       -27.2839
  96   2.0000      -0.996773       -27.1236
  97   2.0000      -0.993434       -27.0327
  98   2.0000      -0.989603       -26.9285
  99   2.0000      -0.988935       -26.9103
 100   2.0000      -0.985488       -26.8165
 101   2.0000      -0.954394       -25.9704
 102   2.0000      -0.951843       -25.9010
 103   2.0000      -0.951088       -25.8804
 104   2.0000      -0.941004       -25.6060
 105   2.0000      -0.919776       -25.0284
 106   2.0000      -0.906274       -24.6610
 107   2.0000      -0.905441       -24.6383
 108   2.0000      -0.902492       -24.5581
 109   2.0000      -0.902180       -24.5496
 110   2.0000      -0.893862       -24.3232
 111   2.0000      -0.885215       -24.0879
 112   2.0000      -0.877074       -23.8664
 113   2.0000      -0.871988       -23.7280
 114   2.0000      -0.869915       -23.6716
 115   2.0000      -0.868902       -23.6440
 116   2.0000      -0.866921       -23.5901
 117   2.0000      -0.852117       -23.1873
 118   2.0000      -0.842962       -22.9382
 119   2.0000      -0.840440       -22.8695
 120   2.0000      -0.837932       -22.8013
 121   2.0000      -0.823973       -22.4215
 122   2.0000      -0.812079       -22.0978
 123   2.0000      -0.806912       -21.9572
 124   2.0000      -0.797709       -21.7068
 125   2.0000      -0.782365       -21.2892
 126   2.0000      -0.770249       -20.9595
 127   2.0000      -0.766715       -20.8634
 128   2.0000      -0.761987       -20.7347
 129   2.0000      -0.753258       -20.4972
 130   2.0000      -0.748358       -20.3639
 131   2.0000      -0.736940       -20.0532
 132   2.0000      -0.726956       -19.7815
 133   2.0000      -0.717207       -19.5162
 134   2.0000      -0.714262       -19.4360
 135   2.0000      -0.707665       -19.2565
 136   2.0000      -0.706825       -19.2337
 137   2.0000      -0.704304       -19.1651
 138   2.0000      -0.699440       -19.0327
 139   2.0000      -0.695630       -18.9290
 140   2.0000      -0.689982       -18.7754
 141   2.0000      -0.682174       -18.5629
 142   2.0000      -0.679161       -18.4809
 143   2.0000      -0.670179       -18.2365
 144   2.0000      -0.662626       -18.0310
 145   2.0000      -0.659080       -17.9345
 146   2.0000      -0.655322       -17.8322
 147   2.0000      -0.652778       -17.7630
 148   2.0000      -0.645751       -17.5718
 149   2.0000      -0.635875       -17.3030
 150   2.0000      -0.631872       -17.1941
 151   2.0000      -0.627679       -17.0800
 152   2.0000      -0.624523       -16.9941
 153   2.0000      -0.622180       -16.9304
 154   2.0000      -0.610501       -16.6126
 155   2.0000      -0.607972       -16.5438
 156   2.0000      -0.606710       -16.5094
 157   2.0000      -0.598818       -16.2947
 158   2.0000      -0.592350       -16.1187
 159   2.0000      -0.585801       -15.9404
 160   2.0000      -0.584696       -15.9104
 161   2.0000      -0.584014       -15.8918
 162   2.0000      -0.578438       -15.7401
 163   2.0000      -0.574830       -15.6419
 164   2.0000      -0.570509       -15.5244
 165   2.0000      -0.567521       -15.4430
 166   2.0000      -0.562799       -15.3145
 167   2.0000      -0.560012       -15.2387
 168   2.0000      -0.556527       -15.1439
 169   2.0000      -0.549275       -14.9465
 170   2.0000      -0.548230       -14.9181
 171   2.0000      -0.547394       -14.8954
 172   2.0000      -0.546773       -14.8784
 173   2.0000      -0.544278       -14.8106
 174   2.0000      -0.544155       -14.8072
 175   2.0000      -0.540791       -14.7157
 176   2.0000      -0.536240       -14.5918
 177   2.0000      -0.534446       -14.5430
 178   2.0000      -0.533082       -14.5059
 179   2.0000      -0.531660       -14.4672
 180   2.0000      -0.529644       -14.4124
 181   2.0000      -0.528475       -14.3805
 182   2.0000      -0.525590       -14.3020
 183   2.0000      -0.523536       -14.2461
 184   2.0000      -0.521819       -14.1994
 185   2.0000      -0.520656       -14.1678
 186   2.0000      -0.519432       -14.1345
 187   2.0000      -0.518069       -14.0974
 188   2.0000      -0.517843       -14.0912
 189   2.0000      -0.515244       -14.0205
 190   2.0000      -0.515105       -14.0167
 191   2.0000      -0.504597       -13.7308
 192   2.0000      -0.502109       -13.6631
 193   2.0000      -0.497354       -13.5337
 194   2.0000      -0.494754       -13.4630
 195   2.0000      -0.492387       -13.3985
 196   2.0000      -0.491312       -13.3693
 197   2.0000      -0.488600       -13.2955
 198   2.0000      -0.487943       -13.2776
 199   2.0000      -0.486108       -13.2277
 200   2.0000      -0.485540       -13.2122
 201   2.0000      -0.482131       -13.1195
 202   2.0000      -0.480050       -13.0628
 203   2.0000      -0.478970       -13.0334
 204   2.0000      -0.475985       -12.9522
 205   2.0000      -0.473656       -12.8888
 206   2.0000      -0.471929       -12.8418
 207   2.0000      -0.470635       -12.8066
 208   2.0000      -0.468171       -12.7396
 209   2.0000      -0.465083       -12.6555
 210   2.0000      -0.463723       -12.6185
 211   2.0000      -0.460659       -12.5352
 212   2.0000      -0.458093       -12.4653
 213   2.0000      -0.454521       -12.3682
 214   2.0000      -0.453281       -12.3344
 215   2.0000      -0.450125       -12.2485
 216   2.0000      -0.449326       -12.2268
 217   2.0000      -0.447396       -12.1743
 218   2.0000      -0.447006       -12.1636
 219   2.0000      -0.446329       -12.1452
 220   2.0000      -0.444330       -12.0908
 221   2.0000      -0.442551       -12.0424
 222   2.0000      -0.440830       -11.9956
 223   2.0000      -0.438688       -11.9373
 224   2.0000      -0.438648       -11.9362
 225   2.0000      -0.435785       -11.8583
 226   2.0000      -0.434135       -11.8134
 227   2.0000      -0.429040       -11.6748
 228   2.0000      -0.428381       -11.6568
 229   2.0000      -0.425486       -11.5781
 230   2.0000      -0.423163       -11.5149
 231   2.0000      -0.420671       -11.4470
 232   2.0000      -0.420377       -11.4390
 233   2.0000      -0.418838       -11.3972
 234   2.0000      -0.413306       -11.2466
 235   2.0000      -0.412597       -11.2273
 236   2.0000      -0.404151       -10.9975
 237   2.0000      -0.403491       -10.9795
 238   2.0000      -0.402951       -10.9649
 239   2.0000      -0.398805       -10.8520
 240   2.0000      -0.377123       -10.2620
 241   2.0000      -0.376267       -10.2388
 242   2.0000      -0.367026        -9.9873
 243   2.0000      -0.347143        -9.4462
 244   2.0000      -0.343497        -9.3470
 245   2.0000      -0.342242        -9.3129
 246   2.0000      -0.340741        -9.2720
 247   2.0000      -0.335630        -9.1329
 248   2.0000      -0.334376        -9.0988
 249   2.0000      -0.334173        -9.0933
 250   2.0000      -0.331414        -9.0182
 251   2.0000      -0.328096        -8.9279
 252   2.0000      -0.327612        -8.9148
 253   2.0000      -0.314783        -8.5657
 254   2.0000      -0.308619        -8.3979
 255   2.0000      -0.306376        -8.3369
 256   2.0000      -0.302183        -8.2228
 257   2.0000      -0.300620        -8.1803
 258   2.0000      -0.294031        -8.0010
 259   2.0000      -0.268928        -7.3179
 260   2.0000      -0.237897        -6.4735
 261   0.0000      -0.095693        -2.6039
 262   0.0000      -0.086302        -2.3484
 263   0.0000      -0.065177        -1.7736
 264   0.0000      -0.060939        -1.6582
 265   0.0000      -0.047028        -1.2797

MULLIKEN ATOMIC CHARGES
-----------------------
   0 C :    0.003858
   1 C :    0.090102
   2 N :   -0.134667
   3 C :    0.007443
   4 C :   -0.001933
   5 C :   -0.015582
   6 C :    0.009822
   7 C :    0.136773
   8 O :   -0.173076
   9 C :    0.021850
  10 C :   -0.134979
  11 C :    0.010411
  12 C :   -0.007213
  13 C :   -0.046602
  14 S :    0.160287
  15 C :   -0.033385
  16 C :    0.000409
  17 C :    0.049163
  18 C :   -0.112144
  19 C :   -0.142458
  20 N :    0.100035
  21 C :   -0.010276
  22 C :    0.071255
  23 C :    0.087647
  24 C :   -0.016543
  25 C :   -0.124414
  26 C :    0.135827
  27 O :   -0.144234
  28 C :    0.007246
  29 C :   -0.083498
  30 C :   -0.079430
  31 C :    0.117997
  32 C :   -0.081396
  33 C :    0.117290
  34 C :   -0.075253
  35 C :    0.036892
  36 C :    0.213989
  37 C :   -0.310601
  38 C :   -0.186323
  39 N :    0.172632
  40 C :   -0.191314
  41 N :    0.164833
  42 S :    0.128162
  43 C :   -0.129402
  44 C :    0.022528
  45 C :    0.042667
  46 C :    0.085212
  47 C :   -0.169099
  48 C :    0.150135
  49 N :   -0.026864
  50 C :    0.091364
  51 C :    0.024004
  52 C :   -0.151540
  53 C :    0.129892
  54 O :   -0.152538
  55 C :    0.011569
  56 C :   -0.102441
  57 C :    0.231497
  58 F :   -0.172723
  59 C :    0.232549
  60 F :   -0.168560
  61 C :   -0.091324
  62 C :    0.025268
  63 C :    0.268425
  64 C :   -0.346894
  65 C :   -0.209906
  66 N :    0.169160
  67 C :   -0.178834
  68 N :    0.149914
  69 C :   -0.118989
  70 C :    0.118303
  71 N :   -0.033261
  72 C :    0.008654
  73 C :    0.136632
  74 O :   -0.180565
  75 H :    0.030820
  76 H :    0.030223
  77 H :    0.030471
  78 H :    0.033853
  79 H :    0.035325
  80 H :    0.005468
  81 H :    0.006583
  82 H :    0.037892
  83 H :   -0.001421
  84 H :   -0.012052
  85 H :   -0.002495
  86 H :    0.001729
  87 H :    0.024640
  88 H :   -0.017907
  89 H :    0.016239
  90 H :    0.030087
  91 H :    0.029020
  92 H :    0.027730
  93 H :    0.031046
  94 H :    0.026558
  95 H :   -0.005108
  96 H :   -0.040447
  97 H :    0.016170
  98 H :   -0.018576
  99 H :    0.129482
 100 H :    0.005642
 101 H :    0.009277
 102 H :    0.014787
 103 H :   -0.010753
 104 H :    0.132279
Sum of atomic charges:   -0.0000000

LOEWDIN ATOMIC CHARGES
----------------------
   0 C :   -0.056836
   1 C :    0.044252
   2 N :    0.090761
   3 C :    0.029666
   4 C :   -0.100436
   5 C :   -0.102173
   6 C :    0.031186
   7 C :    0.082803
   8 O :   -0.165913
   9 C :   -0.074784
  10 C :   -0.140987
  11 C :   -0.015751
  12 C :   -0.042962
  13 C :   -0.110975
  14 S :    0.458828
  15 C :   -0.133848
  16 C :   -0.029110
  17 C :    0.007919
  18 C :   -0.074015
  19 C :   -0.029013
  20 N :   -0.062120
  21 C :    0.013997
  22 C :   -0.039869
  23 C :   -0.072624
  24 C :    0.062025
  25 C :   -0.086974
  26 C :    0.084683
  27 O :   -0.143748
  28 C :   -0.051497
  29 C :    0.007794
  30 C :   -0.006239
  31 C :   -0.042612
  32 C :    0.000348
  33 C :   -0.041289
  34 C :   -0.004078
  35 C :   -0.017071
  36 C :    0.061153
  37 C :   -0.129662
  38 C :   -0.015524
  39 N :   -0.047799
  40 C :   -0.019071
  41 N :   -0.046761
  42 S :    0.461755
  43 C :   -0.109288
  44 C :   -0.072909
  45 C :    0.005498
  46 C :    0.020619
  47 C :   -0.078896
  48 C :    0.006814
  49 N :    0.081776
  50 C :   -0.011675
  51 C :    0.050366
  52 C :   -0.115465
  53 C :    0.080892
  54 O :   -0.151787
  55 C :   -0.046479
  56 C :   -0.007095
  57 C :    0.066976
  58 F :   -0.049002
  59 C :    0.072031
  60 F :   -0.046422
  61 C :   -0.022933
  62 C :   -0.011918
  63 C :    0.064743
  64 C :   -0.151307
  65 C :   -0.019232
  66 N :   -0.048533
  67 C :   -0.023810
  68 N :   -0.057476
  69 C :   -0.037949
  70 C :   -0.007361
  71 N :    0.069784
  72 C :   -0.095993
  73 C :    0.086993
  74 O :   -0.165261
  75 H :    0.033373
  76 H :    0.030705
  77 H :    0.030562
  78 H :    0.034039
  79 H :    0.034179
  80 H :    0.028927
  81 H :    0.029578
  82 H :    0.033593
  83 H :    0.026379
  84 H :    0.036181
  85 H :    0.040597
  86 H :    0.038997
  87 H :    0.044549
  88 H :    0.035942
  89 H :    0.032812
  90 H :    0.039031
  91 H :    0.039098
  92 H :    0.037322
  93 H :    0.039666
  94 H :    0.038267
  95 H :    0.038157
  96 H :    0.015199
  97 H :    0.037614
  98 H :    0.032330
  99 H :    0.095269
 100 H :    0.043789
 101 H :    0.050968
 102 H :    0.050279
 103 H :    0.031767
 104 H :    0.091702

  Mayer bond orders larger than 0.100000
B(  0-C ,  1-C ) :   1.1111 B(  0-C , 75-H ) :   0.9681 B(  0-C , 76-H ) :   0.9675
B(  0-C , 77-H ) :   0.9675 B(  1-C ,  2-N ) :   0.9497 B(  1-C , 78-H ) :   0.9511
B(  1-C , 79-H ) :   0.9513 B(  2-N ,  3-C ) :   1.2337 B(  2-N ,  6-C ) :   1.2375
B(  3-C ,  4-C ) :   1.4215 B(  3-C , 80-H ) :   0.9936 B(  4-C ,  5-C ) :   1.2958
B(  4-C , 73-C ) :   1.0081 B(  5-C ,  6-C ) :   1.4200 B(  5-C ,  7-C ) :   1.0021
B(  6-C , 81-H ) :   0.9938 B(  7-C ,  8-O ) :   2.1739 B(  7-C ,  9-C ) :   0.9407
B(  9-C , 10-C ) :   1.4808 B(  9-C , 72-C ) :   1.1917 B( 10-C , 11-C ) :   1.1843
B( 10-C , 42-S ) :   1.1075 B( 11-C , 12-C ) :   1.5968 B( 11-C , 82-H ) :   0.9446
B( 12-C , 13-C ) :   1.1877 B( 12-C , 83-H ) :   0.9630 B( 13-C , 14-S ) :   1.1103
B( 13-C , 23-C ) :   1.4555 B( 14-S , 15-C ) :   1.0665 B( 15-C , 16-C ) :   1.3365
B( 15-C , 22-C ) :   1.3259 B( 16-C , 17-C ) :   1.4172 B( 16-C , 84-H ) :   0.9939
B( 17-C , 18-C ) :   1.3264 B( 17-C , 85-H ) :   0.9933 B( 18-C , 19-C ) :   1.0595
B( 18-C , 21-C ) :   1.4184 B( 19-C , 20-N ) :   3.0510 B( 21-C , 22-C ) :   1.3328
B( 21-C , 86-H ) :   0.9787 B( 22-C , 23-C ) :   1.1097 B( 23-C , 24-C ) :   1.0646
B( 24-C , 25-C ) :   1.7199 B( 24-C , 87-H ) :   0.9368 B( 25-C , 26-C ) :   0.9245
B( 25-C , 36-C ) :   1.0131 B( 26-C , 27-O ) :   2.2669 B( 26-C , 28-C ) :   0.9236
B( 28-C , 29-C ) :   1.3603 B( 28-C , 35-C ) :   1.3268 B( 29-C , 30-C ) :   1.3573
B( 29-C , 88-H ) :   1.0090 B( 30-C , 31-C ) :   1.0951 B( 30-C , 32-C ) :   1.3706
B( 31-C , 89-H ) :   0.9513 B( 31-C , 90-H ) :   0.9399 B( 31-C , 91-H ) :   0.9394
B( 32-C , 33-C ) :   1.0955 B( 32-C , 34-C ) :   1.3745 B( 33-C , 92-H ) :   0.9503
B( 33-C , 93-H ) :   0.9395 B( 33-C , 94-H ) :   0.9385 B( 34-C , 35-C ) :   1.3551
B( 34-C , 95-H ) :   0.9868 B( 35-C , 36-C ) :   1.0068 B( 36-C , 37-C ) :   1.6668
B( 37-C , 38-C ) :   1.1689 B( 37-C , 40-C ) :   1.1355 B( 38-C , 39-N ) :   3.0016
B( 40-C , 41-N ) :   2.9922 B( 42-S , 43-C ) :   1.1496 B( 43-C , 44-C ) :   1.1708
B( 43-C , 72-C ) :   1.4507 B( 44-C , 45-C ) :   1.6283 B( 44-C , 96-H ) :   0.9364
B( 45-C , 46-C ) :   1.1502 B( 45-C , 97-H ) :   0.9266 B( 46-C , 47-C ) :   1.3562
B( 46-C , 71-N ) :   1.1998 B( 47-C , 48-C ) :   1.2343 B( 47-C , 98-H ) :   1.0464
B( 48-C , 49-N ) :   1.2023 B( 48-C , 70-C ) :   1.2672 B( 49-N , 50-C ) :   1.1520
B( 49-N , 99-H ) :   0.9339 B( 50-C , 51-C ) :   1.1746 B( 50-C , 69-C ) :   1.2963
B( 51-C , 52-C ) :   1.5598 B( 51-C ,100-H ) :   0.9347 B( 52-C , 53-C ) :   0.9706
B( 52-C , 63-C ) :   1.0813 B( 53-C , 54-O ) :   2.2517 B( 53-C , 55-C ) :   0.9268
B( 55-C , 56-C ) :   1.3304 B( 55-C , 62-C ) :   1.3451 B( 56-C , 57-C ) :   1.3133
B( 56-C , 61-C ) :   0.1043 B( 56-C ,101-H ) :   1.0202 B( 57-C , 58-F ) :   1.1271
B( 57-C , 59-C ) :   1.2984 B( 59-C , 60-F ) :   1.1395 B( 59-C , 61-C ) :   1.3297
B( 61-C , 62-C ) :   1.3234 B( 61-C ,102-H ) :   0.9948 B( 62-C , 63-C ) :   1.0098
B( 63-C , 64-C ) :   1.6192 B( 64-C , 65-C ) :   1.1721 B( 64-C , 67-C ) :   1.1259
B( 65-C , 66-N ) :   2.9959 B( 67-C , 68-N ) :   2.9907 B( 69-C , 70-C ) :   1.3535
B( 69-C ,103-H ) :   1.0220 B( 70-C , 71-N ) :   1.1546 B( 71-N ,104-H ) :   0.9311
B( 72-C , 73-C ) :   0.9484 B( 73-C , 74-O ) :   2.1319 B( 74-O , 97-H ) :   0.1202

-----------------------------------------------------------------------------
         ABSORPTION SPECTRUM VIA TRANSITION ELECTRIC DIPOLE MOMENTS
-----------------------------------------------------------------------------
State   Energy  Wavelength   fosc         T2         TX        TY        TZ
        (cm-1)    (nm)                  (au**2)     (au)      (au)      (au)
-----------------------------------------------------------------------------
   0   15916.4    628.3   1.401780286  28.99419   5.03439  -1.78915  -0.66933
   1   19142.0    522.4   0.758343763  13.04229  -0.70106  -2.73135   2.25622
   2   22761.6    439.3   0.521688699   7.54543  -2.30527   0.77502   1.27692
   3   23322.7    428.8   0.046141178   0.65131   0.41312   0.67967  -0.13669
   4   25352.3    394.4   0.386133668   5.01413   0.32032  -1.64372   1.48651
   5   26386.4    379.0   0.035456368   0.44237  -0.46190  -0.00261   0.47855
   6   26804.9    373.1   0.025886156   0.31793  -0.52926  -0.16877   0.09661
   7   27301.6    366.3   0.095943102   1.15691   0.44729  -0.82372   0.52758
   8   27406.4    364.9   0.034859543   0.41874   0.26115   0.58711  -0.07648
   9   28736.8    348.0   0.082541647   0.94560  -0.81981   0.35695  -0.38222
  10   28847.2    346.7   0.094274746   1.07589   0.56997  -0.31475  -0.80744
  11   29100.3    343.6   0.003927752   0.04443  -0.13095   0.09557  -0.13474
  12   30334.9    329.7   0.152767330   1.65792   0.24090  -0.42647   1.19080
  13   30561.9    327.2   0.155507641   1.67513  -0.86522   0.51287   0.81455
  14   30926.7    323.3   0.000558765   0.00595  -0.06095   0.00385   0.04709
  15   31468.4    317.8   0.050191309   0.52508   0.03857   0.25484  -0.67724
  16   31988.5    312.6   0.008115872   0.08353   0.00474   0.21747  -0.19029
  17   32237.3    310.2   0.064343108   0.65708   0.48662  -0.64533   0.06190
  18   32396.7    308.7   0.082943462   0.84286  -0.51793   0.13124   0.74658
  19   32839.5    304.5   0.052465633   0.52596  -0.14287   0.32259   0.63363
  20   33039.1    302.7   0.029823920   0.29717   0.03135   0.35965   0.40847
  21   33312.1    300.2   0.114454756   1.13112   0.27716  -0.43822  -0.92858
  22   33464.9    298.8   0.002297198   0.02260   0.05178  -0.02014   0.13969
  23   33824.1    295.6   0.031480046   0.30640  -0.35264   0.23873  -0.35363
  24   34115.2    293.1   0.006175941   0.05960   0.18675   0.03010  -0.15432
  25   34362.0    291.0   0.030643334   0.29358  -0.40431   0.01376   0.36046
  26   34517.3    289.7   0.061472596   0.58630  -0.24088  -0.03365   0.72605
  27   34692.6    288.2   0.051258918   0.48642   0.09531   0.42684  -0.54327
  28   35214.8    284.0   0.005619776   0.05254  -0.11419  -0.15217   0.12784
  29   35570.6    281.1   0.506478525   4.68754  -0.85300   0.36434   1.95632
  30   35854.1    278.9   0.004061085   0.03729   0.11515  -0.15167   0.03202
  31   36124.1    276.8   0.060431010   0.55073   0.46610  -0.33072  -0.47340
  32   36222.2    276.1   0.003361362   0.03055   0.00610  -0.07945   0.15557
  33   36474.4    274.2   0.064463947   0.58184  -0.27025  -0.29938   0.64744
  34   36514.2    273.9   0.044340352   0.39977   0.23697   0.58509   0.03595
  35   36686.1    272.6   0.035149118   0.31542  -0.34230   0.44486  -0.01885
  36   36805.6    271.7   0.039545498   0.35372  -0.13843   0.46223   0.34771
  37   37017.1    270.1   0.227760413   2.02559   0.78112  -1.17636  -0.17783
  38   37387.6    267.5   0.264861252   2.33220   0.75803  -0.11576  -1.32068
  39   37551.5    266.3   0.078622601   0.68928  -0.36105  -0.01721   0.74741
  40   37597.8    266.0   0.056090684   0.49114  -0.43009   0.48368  -0.26874
  41   37939.1    263.6   0.239965687   2.08227  -0.96923   0.65487   0.84500
  42   38101.6    262.5   0.128995168   1.11457  -0.16932   1.02968   0.16015
  43   38359.0    260.7   0.037594594   0.32265   0.06100   0.13059   0.54943
  44   38893.8    257.1   0.077051858   0.65220  -0.73671  -0.06336   0.32472
  45   39139.0    255.5   0.052264835   0.43962   0.30195   0.29500  -0.51129
  46   39440.6    253.5   0.012899768   0.10767   0.09971   0.31261   0.00293
  47   39795.5    251.3   0.037236882   0.30805   0.46044  -0.27663   0.13969
  48   40071.7    249.6   0.029856804   0.24529   0.17780  -0.39809  -0.23495
  49   40181.5    248.9   0.020729982   0.16984  -0.09486  -0.38953  -0.09546

FINAL SINGLE POINT ENERGY     -3997.002201108792

DIPOLE MOMENT
-------------
                                X             Y             Z
Electronic contribution:     65.70019     -16.90356     -16.07699
Nuclear contribution   :    -67.65376      13.49360      17.47117
                        -----------------------------------------
Total Dipole Moment    :     -1.95357      -3.40995       1.39418
                        -----------------------------------------
Magnitude (a.u.)       :      4.16989
Magnitude (Debye)      :     10.59901

Rotational constants in cm-1:     0.000793     0.000322     0.000236
Rotational constants in MHz :    23.775455     9.655386     7.089467

                             ****ORCA TERMINATED NORMALLY****
TOTAL RUN TIME: 0 days 0 hours 9 minutes 40 seconds 932 msec
