                         Program Version 4.2.0 -  RELEASE  -
|  1> # ORCA input file
|  2> # SCF done       -178.672766091705          0.000935224979
|  3> ! CAM-B3LYP def2-SVP def2/J RIJCOSX Grid4 TightSCF
|  4> %maxcore 5000
|  5> %tddft
|  6>     Mode sTDDFT
|  7>     Ethresh 5.0
|  8>     maxcore 5000
|  9> end
| 10>
| 11> %pal
| 12>   nprocs 6
| 13>   end
| 14> * xyz 0 1
| 15>    C        0.80532         3.60907        -0.24826
| 16>    C        1.15393         2.35167         0.17310
| 17>    C        2.41741         1.76600        -0.05089
| 18>    N        3.42101         1.23174        -0.20909
| 19>    C        0.32376         1.48494         0.91435
| 20>    N       -0.28589         0.73423         1.53430
| 21>    C        1.68527         4.55481        -0.91992
| 22>    C        1.00511         5.79140        -1.04914
| 23>    C        1.57486         6.89312        -1.64044
| 24>    C        2.87871         6.76944        -2.12875
| 25>    C        3.54949         5.52881        -2.00034
| 26>    C        2.97339         4.41477        -1.40136
| 27>    S        5.14373         5.60403        -2.68121
| 28>    C        4.90529         7.26007        -3.11936
| 29>    C        3.69084         7.74224        -2.77633
| 30>    C       -0.34629         5.67878        -0.47563
| 31>    O       -1.18827         6.55097        -0.45220
| 32>    C       -0.47208         4.26632        -0.03086
| 33>    C       -1.62756         3.62376         0.31339
| 34>    C       -2.88706         4.17956         0.62311
| 35>    C       -3.25215         5.44689         1.05479
| 36>    C       -4.62243         5.55796         1.25325
| 37>    C       -5.32292         4.36454         0.96895
| 38>    S       -4.28483         3.10148         0.50396
| 39>    C       -6.70611         4.60355         1.14046
| 40>    C       -6.88641         5.94073         1.54385
| 41>    C       -5.58007         6.57851         1.64248
| 42>    C       -5.31995         7.86141         2.02272
| 43>    C       -4.01091         8.38102         2.12543
| 44>    N       -2.95876         8.82148         2.23752
| 45>    C       -6.35492         8.75930         2.36119
| 46>    N       -7.19929         9.48623         2.63126
| 47>    C       -8.22433         6.28235         1.71346
| 48>    C       -9.07404         5.22140         1.43315
| 49>    S       -8.18887         3.77607         0.96868
| 50>    C      -10.48999         5.17727         1.43622
| 51>    C      -11.30493         6.19757         1.80261
| 52>    C      -12.71822         6.15096         1.73161
| 53>    C      -13.59736         7.15432         2.11145
| 54>    C      -14.92495         6.81038         1.87080
| 55>    C      -15.06340         5.53134         1.29958
| 56>    S      -13.56192         4.75390         1.07305
| 57>    C      -16.43735         5.28162         1.06780
| 58>    C      -17.17086         6.40806         1.49313
| 59>    C      -16.24841         7.39566         2.02566
| 60>    C      -16.57093         8.59938         2.57922
| 61>    C      -15.59346         9.48319         3.08279
| 62>    N      -14.79739        10.20293         3.48558
| 63>    C      -17.91230         9.02664         2.67777
| 64>    N      -19.00627         9.36356         2.74344
| 65>    C      -18.53995         6.26111         1.31410
| 66>    C      -18.86854         5.03267         0.75913
| 67>    S      -17.43747         4.06070         0.43299
| 68>    C      -20.13647         4.52999         0.39262
| 69>    C      -21.37098         4.94790         0.78407
| 70>    C      -21.84441         5.80846         1.84841
| 71>    C      -21.26685         5.98470         3.07961
| 72>    C      -21.85825         6.72293         4.12631
| 73>    N      -22.29916         7.30510         5.01125
| 74>    C      -20.06689         5.36620         3.47883
| 75>    N      -19.10481         4.86115         3.85068
| 76>    C      -23.19272         6.23399         1.49001
| 77>    C      -23.63309         5.46805         0.37908
| 78>    C      -22.54859         4.57117        -0.05281
| 79>    O      -22.56821         3.73704        -0.92862
| 80>    C      -24.88747         5.61386        -0.16324
| 81>    C      -25.73874         6.56549         0.40654
| 82>    C      -25.28102         7.33853         1.50161
| 83>    C      -24.01598         7.18616         2.05757
| 84>    S      -26.49397         8.45989         2.02989
| 85>    C      -27.58352         7.89306         0.81233
| 86>    C      -27.06966         6.91146         0.03933
| 87>    H        1.02984         7.82093        -1.71947
| 88>    H        3.52290         3.49078        -1.33296
| 89>    H        5.70263         7.77837        -3.61554
| 90>    H        3.36553         8.74856        -2.96855
| 91>    H       -1.61038         2.53987         0.31570
| 92>    H       -2.54324         6.23754         1.21177
| 93>    H       -8.57420         7.25315         2.01113
| 94>    H      -10.93523         4.24826         1.10234
| 95>    H      -10.88782         7.12569         2.16667
| 96>    H      -13.26783         8.08478         2.53718
| 97>    H      -19.26921         7.02103         1.52768
| 98>    H      -20.14037         3.74571        -0.35871
| 99>    H      -25.20160         5.01188        -1.00166
|100>    H      -23.70472         7.80265         2.88469
|101>    H      -28.55763         8.33782         0.74927
|102>    H      -27.60105         6.43883        -0.76670
|103> *
|104>
|105>                          ****END OF INPUT****

CARTESIAN COORDINATES (ANGSTROEM)
---------------------------------
  C      0.805320    3.609070   -0.248260
  C      1.153930    2.351670    0.173100
  C      2.417410    1.766000   -0.050890
  N      3.421010    1.231740   -0.209090
  C      0.323760    1.484940    0.914350
  N     -0.285890    0.734230    1.534300
  C      1.685270    4.554810   -0.919920
  C      1.005110    5.791400   -1.049140
  C      1.574860    6.893120   -1.640440
  C      2.878710    6.769440   -2.128750
  C      3.549490    5.528810   -2.000340
  C      2.973390    4.414770   -1.401360
  S      5.143730    5.604030   -2.681210
  C      4.905290    7.260070   -3.119360
  C      3.690840    7.742240   -2.776330
  C     -0.346290    5.678780   -0.475630
  O     -1.188270    6.550970   -0.452200
  C     -0.472080    4.266320   -0.030860
  C     -1.627560    3.623760    0.313390
  C     -2.887060    4.179560    0.623110
  C     -3.252150    5.446890    1.054790
  C     -4.622430    5.557960    1.253250
  C     -5.322920    4.364540    0.968950
  S     -4.284830    3.101480    0.503960
  C     -6.706110    4.603550    1.140460
  C     -6.886410    5.940730    1.543850
  C     -5.580070    6.578510    1.642480
  C     -5.319950    7.861410    2.022720
  C     -4.010910    8.381020    2.125430
  N     -2.958760    8.821480    2.237520
  C     -6.354920    8.759300    2.361190
  N     -7.199290    9.486230    2.631260
  C     -8.224330    6.282350    1.713460
  C     -9.074040    5.221400    1.433150
  S     -8.188870    3.776070    0.968680
  C    -10.489990    5.177270    1.436220
  C    -11.304930    6.197570    1.802610
  C    -12.718220    6.150960    1.731610
  C    -13.597360    7.154320    2.111450
  C    -14.924950    6.810380    1.870800
  C    -15.063400    5.531340    1.299580
  S    -13.561920    4.753900    1.073050
  C    -16.437350    5.281620    1.067800
  C    -17.170860    6.408060    1.493130
  C    -16.248410    7.395660    2.025660
  C    -16.570930    8.599380    2.579220
  C    -15.593460    9.483190    3.082790
  N    -14.797390   10.202930    3.485580
  C    -17.912300    9.026640    2.677770
  N    -19.006270    9.363560    2.743440
  C    -18.539950    6.261110    1.314100
  C    -18.868540    5.032670    0.759130
  S    -17.437470    4.060700    0.432990
  C    -20.136470    4.529990    0.392620
  C    -21.370980    4.947900    0.784070
  C    -21.844410    5.808460    1.848410
  C    -21.266850    5.984700    3.079610
  C    -21.858250    6.722930    4.126310
  N    -22.299160    7.305100    5.011250
  C    -20.066890    5.366200    3.478830
  N    -19.104810    4.861150    3.850680
  C    -23.192720    6.233990    1.490010
  C    -23.633090    5.468050    0.379080
  C    -22.548590    4.571170   -0.052810
  O    -22.568210    3.737040   -0.928620
  C    -24.887470    5.613860   -0.163240
  C    -25.738740    6.565490    0.406540
  C    -25.281020    7.338530    1.501610
  C    -24.015980    7.186160    2.057570
  S    -26.493970    8.459890    2.029890
  C    -27.583520    7.893060    0.812330
  C    -27.069660    6.911460    0.039330
  H      1.029840    7.820930   -1.719470
  H      3.522900    3.490780   -1.332960
  H      5.702630    7.778370   -3.615540
  H      3.365530    8.748560   -2.968550
  H     -1.610380    2.539870    0.315700
  H     -2.543240    6.237540    1.211770
  H     -8.574200    7.253150    2.011130
  H    -10.935230    4.248260    1.102340
  H    -10.887820    7.125690    2.166670
  H    -13.267830    8.084780    2.537180
  H    -19.269210    7.021030    1.527680
  H    -20.140370    3.745710   -0.358710
  H    -25.201600    5.011880   -1.001660
  H    -23.704720    7.802650    2.884690
  H    -28.557630    8.337820    0.749270
  H    -27.601050    6.438830   -0.766700

 Total Charge           Charge          ....    0
 Multiplicity           Mult            ....    1
 Number of Electrons    NEL             ....  520
 Basis Dimension        Dim             .... 1112

ORBITAL ENERGIES
----------------

  NO   OCC          E(Eh)            E(eV)
   0   2.0000     -88.999180     -2421.7908
   1   2.0000     -88.999146     -2421.7899
   2   2.0000     -88.997774     -2421.7526
   3   2.0000     -88.997724     -2421.7512
   4   2.0000     -88.967164     -2420.9196
   5   2.0000     -88.966964     -2420.9142
   6   2.0000     -19.218246      -522.9550
   7   2.0000     -19.216897      -522.9183
   8   2.0000     -14.436410      -392.8347
   9   2.0000     -14.436172      -392.8282
  10   2.0000     -14.435383      -392.8068
  11   2.0000     -14.432628      -392.7318
  12   2.0000     -14.419199      -392.3664
  13   2.0000     -14.416412      -392.2905
  14   2.0000     -14.414737      -392.2449
  15   2.0000     -14.414686      -392.2435
  16   2.0000     -10.371738      -282.2293
  17   2.0000     -10.371391      -282.2199
  18   2.0000     -10.370033      -282.1829
  19   2.0000     -10.368018      -282.1281
  20   2.0000     -10.358570      -281.8710
  21   2.0000     -10.358029      -281.8563
  22   2.0000     -10.348261      -281.5905
  23   2.0000     -10.346199      -281.5344
  24   2.0000     -10.345325      -281.5106
  25   2.0000     -10.344557      -281.4897
  26   2.0000     -10.342174      -281.4249
  27   2.0000     -10.341902      -281.4175
  28   2.0000     -10.341520      -281.4071
  29   2.0000     -10.339486      -281.3517
  30   2.0000     -10.337068      -281.2859
  31   2.0000     -10.336439      -281.2688
  32   2.0000     -10.336280      -281.2645
  33   2.0000     -10.335246      -281.2363
  34   2.0000     -10.334436      -281.2143
  35   2.0000     -10.331930      -281.1461
  36   2.0000     -10.331002      -281.1208
  37   2.0000     -10.329112      -281.0694
  38   2.0000     -10.328272      -281.0466
  39   2.0000     -10.326493      -280.9982
  40   2.0000     -10.321717      -280.8682
  41   2.0000     -10.320947      -280.8473
  42   2.0000     -10.320536      -280.8361
  43   2.0000     -10.319509      -280.8081
  44   2.0000     -10.317623      -280.7568
  45   2.0000     -10.317039      -280.7409
  46   2.0000     -10.316850      -280.7358
  47   2.0000     -10.315358      -280.6952
  48   2.0000     -10.314676      -280.6766
  49   2.0000     -10.314578      -280.6739
  50   2.0000     -10.314387      -280.6687
  51   2.0000     -10.312533      -280.6183
  52   2.0000     -10.311891      -280.6008
  53   2.0000     -10.311388      -280.5871
  54   2.0000     -10.310566      -280.5648
  55   2.0000     -10.310478      -280.5624
  56   2.0000     -10.310073      -280.5514
  57   2.0000     -10.309875      -280.5460
  58   2.0000     -10.308283      -280.5027
  59   2.0000     -10.306686      -280.4592
  60   2.0000     -10.304275      -280.3936
  61   2.0000     -10.303830      -280.3815
  62   2.0000     -10.302660      -280.3496
  63   2.0000     -10.302414      -280.3429
  64   2.0000     -10.302141      -280.3355
  65   2.0000     -10.302052      -280.3331
  66   2.0000     -10.300725      -280.2970
  67   2.0000     -10.299109      -280.2530
  68   2.0000     -10.292562      -280.0748
  69   2.0000     -10.290784      -280.0265
  70   2.0000     -10.289779      -279.9991
  71   2.0000     -10.289279      -279.9855
  72   2.0000      -8.094003      -220.2490
  73   2.0000      -8.093997      -220.2488
  74   2.0000      -8.092660      -220.2125
  75   2.0000      -8.092540      -220.2092
  76   2.0000      -8.063529      -219.4198
  77   2.0000      -8.063273      -219.4128
  78   2.0000      -6.063162      -164.9870
  79   2.0000      -6.063155      -164.9868
  80   2.0000      -6.061791      -164.9497
  81   2.0000      -6.061727      -164.9480
  82   2.0000      -6.059065      -164.8756
  83   2.0000      -6.058989      -164.8735
  84   2.0000      -6.057660      -164.8373
  85   2.0000      -6.057659      -164.8373
  86   2.0000      -6.056468      -164.8049
  87   2.0000      -6.056411      -164.8033
  88   2.0000      -6.055116      -164.7681
  89   2.0000      -6.054876      -164.7616
  90   2.0000      -6.033036      -164.1673
  91   2.0000      -6.032772      -164.1601
  92   2.0000      -6.028721      -164.0498
  93   2.0000      -6.028481      -164.0433
  94   2.0000      -6.025181      -163.9535
  95   2.0000      -6.024938      -163.9469
  96   2.0000      -1.133929       -30.8558
  97   2.0000      -1.132236       -30.8097
  98   2.0000      -1.053911       -28.6784
  99   2.0000      -1.053280       -28.6612
 100   2.0000      -1.028005       -27.9734
 101   2.0000      -1.026996       -27.9460
 102   2.0000      -1.022562       -27.8253
 103   2.0000      -1.020847       -27.7787
 104   2.0000      -1.013579       -27.5809
 105   2.0000      -1.011699       -27.5297
 106   2.0000      -1.010273       -27.4909
 107   2.0000      -1.008765       -27.4499
 108   2.0000      -1.008044       -27.4303
 109   2.0000      -1.005705       -27.3666
 110   2.0000      -0.994876       -27.0720
 111   2.0000      -0.994251       -27.0550
 112   2.0000      -0.986672       -26.8487
 113   2.0000      -0.985788       -26.8247
 114   2.0000      -0.970265       -26.4022
 115   2.0000      -0.966334       -26.2953
 116   2.0000      -0.937460       -25.5096
 117   2.0000      -0.934399       -25.4263
 118   2.0000      -0.930510       -25.3205
 119   2.0000      -0.922496       -25.1024
 120   2.0000      -0.909711       -24.7545
 121   2.0000      -0.900720       -24.5098
 122   2.0000      -0.894026       -24.3277
 123   2.0000      -0.882595       -24.0166
 124   2.0000      -0.881851       -23.9964
 125   2.0000      -0.880691       -23.9648
 126   2.0000      -0.878993       -23.9186
 127   2.0000      -0.869884       -23.6707
 128   2.0000      -0.864843       -23.5336
 129   2.0000      -0.863910       -23.5082
 130   2.0000      -0.858296       -23.3554
 131   2.0000      -0.824915       -22.4471
 132   2.0000      -0.823867       -22.4186
 133   2.0000      -0.823436       -22.4068
 134   2.0000      -0.806182       -21.9373
 135   2.0000      -0.796655       -21.6781
 136   2.0000      -0.784151       -21.3378
 137   2.0000      -0.781328       -21.2610
 138   2.0000      -0.768176       -20.9031
 139   2.0000      -0.759001       -20.6535
 140   2.0000      -0.757076       -20.6011
 141   2.0000      -0.743895       -20.2424
 142   2.0000      -0.725208       -19.7339
 143   2.0000      -0.719108       -19.5679
 144   2.0000      -0.707205       -19.2440
 145   2.0000      -0.702823       -19.1248
 146   2.0000      -0.696364       -18.9490
 147   2.0000      -0.692706       -18.8495
 148   2.0000      -0.691998       -18.8302
 149   2.0000      -0.688589       -18.7375
 150   2.0000      -0.684749       -18.6330
 151   2.0000      -0.682727       -18.5780
 152   2.0000      -0.667772       -18.1710
 153   2.0000      -0.663711       -18.0605
 154   2.0000      -0.661834       -18.0094
 155   2.0000      -0.658131       -17.9087
 156   2.0000      -0.647376       -17.6160
 157   2.0000      -0.645557       -17.5665
 158   2.0000      -0.637846       -17.3567
 159   2.0000      -0.629862       -17.1394
 160   2.0000      -0.625561       -17.0224
 161   2.0000      -0.624227       -16.9861
 162   2.0000      -0.621341       -16.9076
 163   2.0000      -0.619172       -16.8485
 164   2.0000      -0.606726       -16.5099
 165   2.0000      -0.604725       -16.4554
 166   2.0000      -0.597181       -16.2501
 167   2.0000      -0.595489       -16.2041
 168   2.0000      -0.589207       -16.0331
 169   2.0000      -0.583191       -15.8694
 170   2.0000      -0.569378       -15.4936
 171   2.0000      -0.566395       -15.4124
 172   2.0000      -0.556052       -15.1309
 173   2.0000      -0.555262       -15.1094
 174   2.0000      -0.553795       -15.0695
 175   2.0000      -0.549776       -14.9602
 176   2.0000      -0.548047       -14.9131
 177   2.0000      -0.541580       -14.7371
 178   2.0000      -0.540505       -14.7079
 179   2.0000      -0.538587       -14.6557
 180   2.0000      -0.537051       -14.6139
 181   2.0000      -0.534184       -14.5359
 182   2.0000      -0.530829       -14.4446
 183   2.0000      -0.523432       -14.2433
 184   2.0000      -0.522078       -14.2065
 185   2.0000      -0.517551       -14.0833
 186   2.0000      -0.516129       -14.0446
 187   2.0000      -0.513285       -13.9672
 188   2.0000      -0.512187       -13.9373
 189   2.0000      -0.510407       -13.8889
 190   2.0000      -0.508467       -13.8361
 191   2.0000      -0.507412       -13.8074
 192   2.0000      -0.503936       -13.7128
 193   2.0000      -0.502644       -13.6776
 194   2.0000      -0.499585       -13.5944
 195   2.0000      -0.498630       -13.5684
 196   2.0000      -0.496086       -13.4992
 197   2.0000      -0.494004       -13.4425
 198   2.0000      -0.492148       -13.3920
 199   2.0000      -0.490305       -13.3419
 200   2.0000      -0.489318       -13.3150
 201   2.0000      -0.487366       -13.2619
 202   2.0000      -0.486710       -13.2440
 203   2.0000      -0.477479       -12.9929
 204   2.0000      -0.474486       -12.9114
 205   2.0000      -0.472604       -12.8602
 206   2.0000      -0.469129       -12.7656
 207   2.0000      -0.466210       -12.6862
 208   2.0000      -0.465813       -12.6754
 209   2.0000      -0.463207       -12.6045
 210   2.0000      -0.461223       -12.5505
 211   2.0000      -0.457388       -12.4462
 212   2.0000      -0.455667       -12.3993
 213   2.0000      -0.454759       -12.3746
 214   2.0000      -0.453120       -12.3300
 215   2.0000      -0.451300       -12.2805
 216   2.0000      -0.450467       -12.2578
 217   2.0000      -0.449038       -12.2189
 218   2.0000      -0.448377       -12.2010
 219   2.0000      -0.445975       -12.1356
 220   2.0000      -0.445638       -12.1264
 221   2.0000      -0.444127       -12.0853
 222   2.0000      -0.443890       -12.0789
 223   2.0000      -0.443550       -12.0696
 224   2.0000      -0.442536       -12.0420
 225   2.0000      -0.441887       -12.0244
 226   2.0000      -0.435578       -11.8527
 227   2.0000      -0.435349       -11.8464
 228   2.0000      -0.434499       -11.8233
 229   2.0000      -0.433187       -11.7876
 230   2.0000      -0.431980       -11.7548
 231   2.0000      -0.431021       -11.7287
 232   2.0000      -0.429555       -11.6888
 233   2.0000      -0.427774       -11.6403
 234   2.0000      -0.426728       -11.6119
 235   2.0000      -0.423122       -11.5137
 236   2.0000      -0.422462       -11.4958
 237   2.0000      -0.412781       -11.2323
 238   2.0000      -0.410654       -11.1745
 239   2.0000      -0.407038       -11.0761
 240   2.0000      -0.405669       -11.0388
 241   2.0000      -0.404642       -11.0109
 242   2.0000      -0.387144       -10.5347
 243   2.0000      -0.380494       -10.3538
 244   2.0000      -0.374894       -10.2014
 245   2.0000      -0.366391        -9.9700
 246   2.0000      -0.358685        -9.7603
 247   2.0000      -0.356165        -9.6917
 248   2.0000      -0.349187        -9.5019
 249   2.0000      -0.341561        -9.2943
 250   2.0000      -0.337259        -9.1773
 251   2.0000      -0.329793        -8.9741
 252   2.0000      -0.328267        -8.9326
 253   2.0000      -0.317212        -8.6318
 254   2.0000      -0.314791        -8.5659
 255   2.0000      -0.313620        -8.5340
 256   2.0000      -0.296885        -8.0787
 257   2.0000      -0.295367        -8.0373
 258   2.0000      -0.282688        -7.6923
 259   2.0000      -0.251385        -6.8405
 260   0.0000      -0.121281        -3.3002
 261   0.0000      -0.111213        -3.0263
 262   0.0000      -0.090694        -2.4679
 263   0.0000      -0.088741        -2.4148
 264   0.0000      -0.064568        -1.7570

MULLIKEN ATOMIC CHARGES
-----------------------
   0 C :    0.297307
   1 C :   -0.346431
   2 C :   -0.183719
   3 N :    0.150373
   4 C :   -0.203813
   5 N :    0.157825
   6 C :    0.015686
   7 C :   -0.015415
   8 C :   -0.068469
   9 C :    0.116968
  10 C :   -0.091803
  11 C :   -0.027083
  12 S :    0.141981
  13 C :   -0.049261
  14 C :    0.024971
  15 C :    0.146371
  16 O :   -0.151685
  17 C :   -0.091211
  18 C :    0.025842
  19 C :   -0.115106
  20 C :    0.040918
  21 C :   -0.028850
  22 C :   -0.081135
  23 S :    0.204661
  24 C :   -0.107561
  25 C :    0.012115
  26 C :    0.307899
  27 C :   -0.291012
  28 C :   -0.184424
  29 N :    0.187451
  30 C :   -0.188176
  31 N :    0.171057
  32 C :   -0.033882
  33 C :   -0.071848
  34 S :    0.197712
  35 C :    0.034121
  36 C :    0.014208
  37 C :   -0.040744
  38 C :   -0.040389
  39 C :    0.023762
  40 C :   -0.100833
  41 S :    0.176472
  42 C :   -0.070761
  43 C :   -0.007058
  44 C :    0.301448
  45 C :   -0.284285
  46 C :   -0.190942
  47 N :    0.180867
  48 C :   -0.182217
  49 N :    0.171948
  50 C :    0.003205
  51 C :   -0.111847
  52 S :    0.213763
  53 C :    0.077219
  54 C :   -0.130712
  55 C :    0.263804
  56 C :   -0.328655
  57 C :   -0.175164
  58 N :    0.162964
  59 C :   -0.203234
  60 N :    0.167648
  61 C :   -0.003742
  62 C :    0.007869
  63 C :    0.131069
  64 O :   -0.145489
  65 C :   -0.068795
  66 C :    0.108714
  67 C :   -0.089430
  68 C :   -0.020897
  69 S :    0.144032
  70 C :   -0.050111
  71 C :    0.025175
  72 H :   -0.009500
  73 H :   -0.005782
  74 H :    0.039842
  75 H :   -0.005817
  76 H :    0.022521
  77 H :    0.031934
  78 H :    0.008192
  79 H :   -0.007074
  80 H :    0.011172
  81 H :    0.012917
  82 H :    0.025058
  83 H :    0.021478
  84 H :   -0.011186
  85 H :    0.001944
  86 H :    0.039303
  87 H :   -0.006238
Sum of atomic charges:   -0.0000000

LOEWDIN ATOMIC CHARGES
----------------------
   0 C :    0.076031
   1 C :   -0.143203
   2 C :   -0.018552
   3 N :   -0.053337
   4 C :   -0.025041
   5 N :   -0.054265
   6 C :   -0.023160
   7 C :   -0.052988
   8 C :    0.024983
   9 C :   -0.034391
  10 C :   -0.145234
  11 C :   -0.008624
  12 S :    0.430470
  13 C :   -0.148876
  14 C :   -0.057032
  15 C :    0.084363
  16 O :   -0.139305
  17 C :   -0.094194
  18 C :    0.041180
  19 C :   -0.178315
  20 C :    0.024204
  21 C :   -0.076143
  22 C :   -0.159062
  23 S :    0.491546
  24 C :   -0.194833
  25 C :   -0.051151
  26 C :    0.077200
  27 C :   -0.093518
  28 C :   -0.019711
  29 N :   -0.017966
  30 C :   -0.015038
  31 N :   -0.030978
  32 C :   -0.028145
  33 C :   -0.153345
  34 S :    0.482025
  35 C :   -0.053492
  36 C :   -0.022360
  37 C :   -0.155350
  38 C :   -0.022728
  39 C :   -0.059360
  40 C :   -0.179726
  41 S :    0.475070
  42 C :   -0.161846
  43 C :   -0.064773
  44 C :    0.081218
  45 C :   -0.094632
  46 C :   -0.017833
  47 N :   -0.025527
  48 C :   -0.013050
  49 N :   -0.029551
  50 C :    0.008439
  51 C :   -0.179368
  52 S :    0.499311
  53 C :    0.038772
  54 C :   -0.088174
  55 C :    0.065792
  56 C :   -0.137587
  57 C :   -0.019701
  58 N :   -0.045163
  59 C :   -0.015870
  60 N :   -0.047724
  61 C :   -0.019456
  62 C :   -0.056361
  63 C :    0.083715
  64 O :   -0.144884
  65 C :    0.024512
  66 C :   -0.035630
  67 C :   -0.144180
  68 C :   -0.008070
  69 S :    0.432812
  70 C :   -0.149240
  71 C :   -0.057671
  72 H :    0.041414
  73 H :    0.040816
  74 H :    0.029734
  75 H :    0.035798
  76 H :    0.043828
  77 H :    0.045392
  78 H :    0.040090
  79 H :    0.022504
  80 H :    0.043464
  81 H :    0.044214
  82 H :    0.042786
  83 H :    0.045607
  84 H :    0.040764
  85 H :    0.042515
  86 H :    0.029713
  87 H :    0.035429

  Mayer bond orders larger than 0.100000
B(  0-C ,  1-C ) :   1.6347 B(  0-C ,  6-C ) :   1.0055 B(  0-C , 17-C ) :   1.0704
B(  1-C ,  2-C ) :   1.1413 B(  1-C ,  4-C ) :   1.1394 B(  2-C ,  3-N ) :   2.9733
B(  4-C ,  5-N ) :   2.9921 B(  6-C ,  7-C ) :   1.2670 B(  6-C , 11-C ) :   1.4107
B(  7-C ,  8-C ) :   1.4252 B(  7-C , 15-C ) :   0.9500 B(  8-C ,  9-C ) :   1.2436
B(  8-C , 72-H ) :   1.0172 B(  9-C , 10-C ) :   1.3009 B(  9-C , 14-C ) :   1.1713
B( 10-C , 11-C ) :   1.3233 B( 10-C , 12-S ) :   1.0998 B( 11-C , 73-H ) :   0.9832
B( 12-S , 13-C ) :   1.1274 B( 13-C , 14-C ) :   1.6287 B( 13-C , 74-H ) :   0.9680
B( 14-C , 75-H ) :   0.9999 B( 15-C , 16-O ) :   2.1971 B( 15-C , 17-C ) :   0.9423
B( 17-C , 18-C ) :   1.6058 B( 18-C , 19-C ) :   1.1883 B( 18-C , 76-H ) :   0.9273
B( 19-C , 20-C ) :   1.4152 B( 19-C , 23-S ) :   1.0733 B( 20-C , 21-C ) :   1.3362
B( 20-C , 77-H ) :   0.9749 B( 21-C , 22-C ) :   1.3841 B( 21-C , 26-C ) :   0.9990
B( 22-C , 23-S ) :   1.1640 B( 22-C , 24-C ) :   1.2092 B( 24-C , 25-C ) :   1.4225
B( 24-C , 34-S ) :   1.1131 B( 25-C , 26-C ) :   0.9960 B( 25-C , 32-C ) :   1.3178
B( 26-C , 27-C ) :   1.7175 B( 27-C , 28-C ) :   1.1314 B( 27-C , 30-C ) :   1.1360
B( 28-C , 29-N ) :   2.9945 B( 30-C , 31-N ) :   2.9854 B( 32-C , 33-C ) :   1.4421
B( 32-C , 78-H ) :   0.9892 B( 33-C , 34-S ) :   1.1160 B( 33-C , 35-C ) :   1.1373
B( 35-C , 36-C ) :   1.6567 B( 35-C , 79-H ) :   0.9532 B( 36-C , 37-C ) :   1.1754
B( 36-C , 80-H ) :   0.9756 B( 37-C , 38-C ) :   1.4257 B( 37-C , 41-S ) :   1.0944
B( 38-C , 39-C ) :   1.2836 B( 38-C , 81-H ) :   1.0044 B( 39-C , 40-C ) :   1.4332
B( 39-C , 44-C ) :   0.9931 B( 40-C , 41-S ) :   1.1205 B( 40-C , 42-C ) :   1.2001
B( 42-C , 43-C ) :   1.4101 B( 42-C , 52-S ) :   1.1525 B( 43-C , 44-C ) :   1.0010
B( 43-C , 50-C ) :   1.3577 B( 44-C , 45-C ) :   1.7204 B( 45-C , 46-C ) :   1.1313
B( 45-C , 48-C ) :   1.1334 B( 46-C , 47-N ) :   2.9959 B( 48-C , 49-N ) :   2.9831
B( 50-C , 51-C ) :   1.4003 B( 50-C , 82-H ) :   0.9791 B( 51-C , 52-S ) :   1.0913
B( 51-C , 53-C ) :   1.1299 B( 53-C , 54-C ) :   1.6804 B( 53-C , 83-H ) :   0.9283
B( 54-C , 55-C ) :   1.0343 B( 54-C , 63-C ) :   0.9398 B( 55-C , 56-C ) :   1.6486
B( 55-C , 61-C ) :   1.0123 B( 56-C , 57-C ) :   1.1258 B( 56-C , 59-C ) :   1.1743
B( 57-C , 58-N ) :   2.9961 B( 59-C , 60-N ) :   2.9964 B( 61-C , 62-C ) :   1.2679
B( 61-C , 68-C ) :   1.4172 B( 62-C , 63-C ) :   0.9264 B( 62-C , 65-C ) :   1.4213
B( 63-C , 64-O ) :   2.2626 B( 65-C , 66-C ) :   1.2517 B( 65-C , 84-H ) :   1.0180
B( 66-C , 67-C ) :   1.3020 B( 66-C , 71-C ) :   1.1711 B( 67-C , 68-C ) :   1.3173
B( 67-C , 69-S ) :   1.0992 B( 68-C , 85-H ) :   0.9878 B( 69-S , 70-C ) :   1.1282
B( 70-C , 71-C ) :   1.6285 B( 70-C , 86-H ) :   0.9683 B( 71-C , 87-H ) :   1.0004

-----------------------------------------------------------------------------
         ABSORPTION SPECTRUM VIA TRANSITION ELECTRIC DIPOLE MOMENTS
-----------------------------------------------------------------------------
State   Energy  Wavelength   fosc         T2         TX        TY        TZ
        (cm-1)    (nm)                  (au**2)     (au)      (au)      (au)
-----------------------------------------------------------------------------
   0   12152.8    822.9   0.747391133  20.24635  -4.48208   0.27564   0.28512
   1   13423.8    744.9   0.024386447   0.59806   0.63952  -0.34479  -0.26495
   2   19327.2    517.4   1.882466214  32.06526   5.60171  -0.48444  -0.67185
   3   21286.7    469.8   0.201952561   3.12332   1.50516  -0.84698  -0.37475
   4   21643.3    462.0   0.004987487   0.07586   0.11168  -0.24768  -0.04521
   5   23525.1    425.1   0.049561571   0.69357  -0.67268   0.26574   0.41286
   6   25279.3    395.6   0.009667326   0.12590  -0.11616   0.25521  -0.21743
   7   25803.9    387.5   0.032025460   0.40859   0.23125  -0.39484   0.44633
   8   26771.1    373.5   0.489491865   6.01943  -2.40714  -0.47420  -0.01493
   9   27366.1    365.4   0.078511053   0.94448  -0.77966  -0.01875  -0.57988
  10   27900.8    358.4   0.034097019   0.40232  -0.10475   0.62496   0.02788
  11   28005.6    357.1   0.013029555   0.15317  -0.19262   0.11573  -0.32042
  12   28595.7    349.7   0.009360905   0.10777  -0.30320   0.11925   0.04022
  13   28800.7    347.2   0.019249954   0.22004   0.38012   0.00539   0.27481
  14   29125.4    343.3   0.047219415   0.53373   0.15674   0.04509   0.71213
  15   29434.3    339.7   0.034502506   0.38590  -0.02644  -0.62058   0.00922
  16   30111.5    332.1   0.153427451   1.67743   0.39282  -1.21295  -0.22779
  17   30282.9    330.2   0.040777002   0.44330  -0.51997   0.32322  -0.26165
  18   30413.3    328.8   0.223201192   2.41606   1.19049  -0.12751   0.99123
  19   30693.9    325.8   0.403085483   4.32335   1.35906   1.50502  -0.45960
  20   30951.2    323.1   0.471859114   5.01893   1.47157  -1.31770  -1.05692
  21   31379.9    318.7   0.101137956   1.06105  -0.74796  -0.64820  -0.28540
  22   31758.8    314.9   0.269747156   2.79620   0.13930  -1.59631  -0.47810
  23   32057.1    311.9   0.057085070   0.58624   0.47594  -0.59181  -0.09736
  24   32414.7    308.5   0.173818281   1.76534   0.90359  -0.97311  -0.04381
  25   32592.2    306.8   0.350710801   3.54251  -1.78885  -0.41951   0.40809
  26   32864.8    304.3   0.039212200   0.39280   0.13765   0.44175   0.42274
  27   33425.2    299.2   0.010908656   0.10744   0.19489   0.11404  -0.23761
  28   33592.9    297.7   0.069192177   0.67809  -0.11376  -0.76327   0.28735
  29   33638.7    297.3   0.096674198   0.94612   0.81526  -0.37322   0.37707
  30   33687.3    296.8   0.166803983   1.63010   1.14087   0.35132   0.45286
  31   33844.2    295.5   0.026694639   0.25967   0.18436  -0.31478  -0.35579
  32   34350.1    291.1   0.396341549   3.79855   0.58735   1.66148  -0.83250
  33   34747.6    287.8   0.361110247   3.42129   1.51632  -0.20604   1.03905
  34   35059.4    285.2   0.038922826   0.36549   0.06770   0.44749   0.40082
  35   35172.5    284.3   0.161604728   1.51261   0.03435  -1.22688  -0.07877
  36   35377.2    282.7   0.129021720   1.20065  -0.17000  -1.00928  -0.39127
  37   35990.9    277.8   0.002699179   0.02469   0.02989  -0.13984   0.06513
  38   36051.5    277.4   0.030430078   0.27788  -0.50203   0.09689  -0.12829
  39   36500.6    274.0   0.052718790   0.47549  -0.10810   0.54234   0.41191
  40   36871.3    271.2   0.012362893   0.11038  -0.19952   0.25812   0.06286
  41   37172.9    269.0   0.033596303   0.29754   0.45286  -0.30298  -0.02566
  42   37389.9    267.5   0.085162193   0.74984  -0.75305  -0.42718   0.01669
  43   37529.7    266.5   0.036149309   0.31710  -0.37019   0.04065  -0.42238
  44   37894.9    263.9   0.030019771   0.26080  -0.42996  -0.10254   0.25576
  45   38187.8    261.9   0.025351602   0.21855   0.07209  -0.45756  -0.06323
  46   38449.5    260.1   0.002198117   0.01882  -0.05335   0.10082   0.07621
  47   38928.6    256.9   0.131714736   1.11389  -0.58374   0.85798  -0.19236
  48   39014.2    256.3   0.131186329   1.10698  -0.19306  -0.87790  -0.54681
  49   39329.1    254.3   0.119584827   1.00101  -0.67691   0.62696   0.38693
  50   39922.5    250.5   0.040074902   0.33047   0.23936  -0.16959  -0.49438
  51   40035.8    249.8   0.014044904   0.11549  -0.22414  -0.23120  -0.10861
  52   40061.5    249.6   0.030503521   0.25067   0.34402   0.31251   0.18616

FINAL SINGLE POINT ENERGY     -5116.801117196853

DIPOLE MOMENT
-------------
                                X             Y             Z
Electronic contribution:      3.51111      -8.94129       7.53868
Nuclear contribution   :     -4.91935       8.87178     -11.07614
                        -----------------------------------------
Total Dipole Moment    :     -1.40824      -0.06950      -3.53746
                        -----------------------------------------
Magnitude (a.u.)       :      3.80809
Magnitude (Debye)      :      9.67941

Rotational constants in cm-1:     0.003044     0.000162     0.000159
Rotational constants in MHz :    91.268163     4.852951     4.756184

                             ****ORCA TERMINATED NORMALLY****
TOTAL RUN TIME: 0 days 0 hours 9 minutes 33 seconds 901 msec
