                         Program Version 4.2.0 -  RELEASE  -
|  1> # ORCA input file
|  2> # SCF done       -196.763920454548          0.000913505000
|  3> ! CAM-B3LYP def2-SVP def2/J RIJCOSX Grid4 TightSCF
|  4> %maxcore 5000
|  5> %tddft
|  6>     Mode sTDDFT
|  7>     Ethresh 5.0
|  8>     maxcore 5000
|  9> end
| 10>
| 11> %pal
| 12>   nprocs 6
| 13>   end
| 14> * xyz 0 1
| 15>    C       -6.86644        -2.40709         1.17877
| 16>    C       -7.23311        -3.23745         0.15383
| 17>    C       -7.13652        -4.64459         0.20179
| 18>    N       -7.08696        -5.79100         0.18513
| 19>    C       -7.74480        -2.81443        -1.09188
| 20>    N       -8.15628        -2.55272        -2.13126
| 21>    C       -6.28551        -2.82525         2.44760
| 22>    C       -5.97217        -1.67355         3.21007
| 23>    C       -5.41154        -1.74291         4.46243
| 24>    C       -5.13887        -3.01009         4.98667
| 25>    C       -5.45564        -4.15666         4.21840
| 26>    C       -6.02726        -4.08666         2.95465
| 27>    S       -5.04421        -5.62122         5.05832
| 28>    C       -4.46030        -4.68693         6.40995
| 29>    C       -4.56642        -3.34707         6.24345
| 30>   Br       -3.76733        -5.56766         7.91306
| 31>    C       -6.36675        -0.46124         2.46755
| 32>    O       -6.34428         0.67248         2.88837
| 33>    C       -6.92169        -0.95347         1.17355
| 34>    C       -7.52095        -0.16410         0.24981
| 35>    C       -7.42234         1.26988         0.22340
| 36>    C       -8.52073         2.07579        -0.06932
| 37>    C       -8.46946         3.49205        -0.04685
| 38>    N       -9.67270         4.09287        -0.26791
| 39>    C      -10.59832         3.24653        -0.47355
| 40>    S      -10.14128         1.55723        -0.40500
| 41>    C       -7.27168         4.16452         0.23542
| 42>    C       -6.15967         3.36259         0.47219
| 43>    C       -6.21266         1.94629         0.45661
| 44>    N       -5.00812         1.33741         0.62465
| 45>    C       -4.07024         2.18707         0.78376
| 46>    S       -4.52269         3.86809         0.74659
| 47>    C       -7.23478         5.61784         0.28890
| 48>    C       -7.85291         6.40351        -0.69876
| 49>    C       -7.96726         7.83013        -0.56054
| 50>    N       -8.55725         8.55731        -1.53790
| 51>    C       -9.06606         7.92556        -2.55054
| 52>    C       -8.94448         6.52044        -2.69203
| 53>    N       -8.32549         5.79581        -1.81168
| 54>    C       -7.45465         8.49965         0.56208
| 55>    C       -6.75878         7.72999         1.50040
| 56>    C       -6.65428         6.29387         1.36758
| 57>    N       -6.02529         5.74937         2.41788
| 58>    S       -5.60841         6.90790         3.43524
| 59>    N       -6.19630         8.16059         2.63781
| 60>    C       -7.72334         9.90827         0.80638
| 61>    C       -6.74672        10.80796         1.21847
| 62>    C       -7.02957        12.15332         1.55830
| 63>    N       -5.93405        12.88216         1.90991
| 64>    C       -4.86460        12.18435         1.85350
| 65>    S       -5.04104        10.52418         1.37327
| 66>    C       -8.34287        12.65645         1.50069
| 67>    C       -9.30517        11.76972         1.02046
| 68>    C       -9.02370        10.41770         0.69813
| 69>    N      -10.12166         9.69141         0.34804
| 70>    C      -11.18198        10.39206         0.36667
| 71>    S      -11.00237        12.06726         0.84048
| 72>    C       -8.68519        13.99490         1.89199
| 73>    C       -8.11324        14.74166         2.86320
| 74>    C       -7.14726        14.40508         3.89318
| 75>    C       -7.01611        13.19528         4.51861
| 76>    C       -6.07329        12.93125         5.53223
| 77>    N       -5.30294        12.65590         6.33766
| 78>    C       -7.84864        12.08605         4.26306
| 79>    N       -8.53027        11.17162         4.13321
| 80>    C       -6.51898        15.64987         4.31282
| 81>    C       -7.24431        16.73691         3.76049
| 82>    C       -8.32590        16.21738         2.89921
| 83>    O       -9.17424        16.84380         2.31045
| 84>    C       -6.92066        18.04636         4.02282
| 85>    C       -5.82436        18.29430         4.85548
| 86>    C       -5.09605        17.20177         5.38598
| 87>    C       -5.42877        15.87753         5.13108
| 88>    S       -3.77365        17.73675         6.37737
| 89>    C       -4.21252        19.39727         6.07458
| 90>    C       -5.29273        19.54575         5.27160
| 91>   Br       -3.20375        20.77562         6.84767
| 92>    H       -5.18989        -0.84572         5.01876
| 93>    H       -6.25582        -4.98922         2.41300
| 94>    H       -4.25590        -2.62469         6.97607
| 95>    H       -8.15369        -0.60284        -0.51241
| 96>    H      -11.61739         3.51441        -0.67250
| 97>    H       -3.04495         1.90925         0.93381
| 98>    H       -9.53156         8.52850        -3.31866
| 99>    H       -9.30890         6.01154        -3.57430
|100>    H       -3.89640        12.57926         2.09380
|101>    H      -12.15277        10.00952         0.11908
|102>    H       -9.47385        14.47489         1.32025
|103>    H       -7.49430        18.85548         3.59872
|104>    H       -4.84562        15.07566         5.55286
|105>    H       -5.69971        20.49781         4.98369
|106> *
|107>
|108>                          ****END OF INPUT****

CARTESIAN COORDINATES (ANGSTROEM)
---------------------------------
  C     -6.866440   -2.407090    1.178770
  C     -7.233110   -3.237450    0.153830
  C     -7.136520   -4.644590    0.201790
  N     -7.086960   -5.791000    0.185130
  C     -7.744800   -2.814430   -1.091880
  N     -8.156280   -2.552720   -2.131260
  C     -6.285510   -2.825250    2.447600
  C     -5.972170   -1.673550    3.210070
  C     -5.411540   -1.742910    4.462430
  C     -5.138870   -3.010090    4.986670
  C     -5.455640   -4.156660    4.218400
  C     -6.027260   -4.086660    2.954650
  S     -5.044210   -5.621220    5.058320
  C     -4.460300   -4.686930    6.409950
  C     -4.566420   -3.347070    6.243450
  Br    -3.767330   -5.567660    7.913060
  C     -6.366750   -0.461240    2.467550
  O     -6.344280    0.672480    2.888370
  C     -6.921690   -0.953470    1.173550
  C     -7.520950   -0.164100    0.249810
  C     -7.422340    1.269880    0.223400
  C     -8.520730    2.075790   -0.069320
  C     -8.469460    3.492050   -0.046850
  N     -9.672700    4.092870   -0.267910
  C    -10.598320    3.246530   -0.473550
  S    -10.141280    1.557230   -0.405000
  C     -7.271680    4.164520    0.235420
  C     -6.159670    3.362590    0.472190
  C     -6.212660    1.946290    0.456610
  N     -5.008120    1.337410    0.624650
  C     -4.070240    2.187070    0.783760
  S     -4.522690    3.868090    0.746590
  C     -7.234780    5.617840    0.288900
  C     -7.852910    6.403510   -0.698760
  C     -7.967260    7.830130   -0.560540
  N     -8.557250    8.557310   -1.537900
  C     -9.066060    7.925560   -2.550540
  C     -8.944480    6.520440   -2.692030
  N     -8.325490    5.795810   -1.811680
  C     -7.454650    8.499650    0.562080
  C     -6.758780    7.729990    1.500400
  C     -6.654280    6.293870    1.367580
  N     -6.025290    5.749370    2.417880
  S     -5.608410    6.907900    3.435240
  N     -6.196300    8.160590    2.637810
  C     -7.723340    9.908270    0.806380
  C     -6.746720   10.807960    1.218470
  C     -7.029570   12.153320    1.558300
  N     -5.934050   12.882160    1.909910
  C     -4.864600   12.184350    1.853500
  S     -5.041040   10.524180    1.373270
  C     -8.342870   12.656450    1.500690
  C     -9.305170   11.769720    1.020460
  C     -9.023700   10.417700    0.698130
  N    -10.121660    9.691410    0.348040
  C    -11.181980   10.392060    0.366670
  S    -11.002370   12.067260    0.840480
  C     -8.685190   13.994900    1.891990
  C     -8.113240   14.741660    2.863200
  C     -7.147260   14.405080    3.893180
  C     -7.016110   13.195280    4.518610
  C     -6.073290   12.931250    5.532230
  N     -5.302940   12.655900    6.337660
  C     -7.848640   12.086050    4.263060
  N     -8.530270   11.171620    4.133210
  C     -6.518980   15.649870    4.312820
  C     -7.244310   16.736910    3.760490
  C     -8.325900   16.217380    2.899210
  O     -9.174240   16.843800    2.310450
  C     -6.920660   18.046360    4.022820
  C     -5.824360   18.294300    4.855480
  C     -5.096050   17.201770    5.385980
  C     -5.428770   15.877530    5.131080
  S     -3.773650   17.736750    6.377370
  C     -4.212520   19.397270    6.074580
  C     -5.292730   19.545750    5.271600
  Br    -3.203750   20.775620    6.847670
  H     -5.189890   -0.845720    5.018760
  H     -6.255820   -4.989220    2.413000
  H     -4.255900   -2.624690    6.976070
  H     -8.153690   -0.602840   -0.512410
  H    -11.617390    3.514410   -0.672500
  H     -3.044950    1.909250    0.933810
  H     -9.531560    8.528500   -3.318660
  H     -9.308900    6.011540   -3.574300
  H     -3.896400   12.579260    2.093800
  H    -12.152770   10.009520    0.119080
  H     -9.473850   14.474890    1.320250
  H     -7.494300   18.855480    3.598720
  H     -4.845620   15.075660    5.552860
  H     -5.699710   20.497810    4.983690

 Total Charge           Charge          ....    0
 Multiplicity           Mult            ....    1
 Number of Electrons    NEL             ....  620
 Basis Dimension        Dim             .... 1212

ORBITAL ENERGIES
----------------

  NO   OCC          E(Eh)            E(eV)
   0   2.0000    -482.885419    -13139.9803
   1   2.0000    -482.885375    -13139.9791
   2   2.0000     -89.036894     -2422.8171
   3   2.0000     -88.975045     -2421.1341
   4   2.0000     -88.974702     -2421.1247
   5   2.0000     -88.964666     -2420.8516
   6   2.0000     -88.963537     -2420.8209
   7   2.0000     -88.962717     -2420.7986
   8   2.0000     -88.958020     -2420.6708
   9   2.0000     -62.563110     -1702.4288
  10   2.0000     -62.563094     -1702.4283
  11   2.0000     -56.397062     -1534.6421
  12   2.0000     -56.397045     -1534.6416
  13   2.0000     -56.394347     -1534.5682
  14   2.0000     -56.394327     -1534.5676
  15   2.0000     -56.394315     -1534.5673
  16   2.0000     -56.394297     -1534.5668
  17   2.0000     -19.214512      -522.8534
  18   2.0000     -19.211286      -522.7657
  19   2.0000     -14.441151      -392.9637
  20   2.0000     -14.441066      -392.9614
  21   2.0000     -14.423976      -392.4963
  22   2.0000     -14.423691      -392.4886
  23   2.0000     -14.417122      -392.3098
  24   2.0000     -14.414836      -392.2476
  25   2.0000     -14.414511      -392.2388
  26   2.0000     -14.413750      -392.2181
  27   2.0000     -14.413565      -392.2130
  28   2.0000     -14.413449      -392.2099
  29   2.0000     -14.409027      -392.0896
  30   2.0000     -14.408685      -392.0802
  31   2.0000     -10.364993      -282.0458
  32   2.0000     -10.362842      -281.9873
  33   2.0000     -10.358668      -281.8737
  34   2.0000     -10.358200      -281.8609
  35   2.0000     -10.342342      -281.4294
  36   2.0000     -10.342235      -281.4265
  37   2.0000     -10.339980      -281.3652
  38   2.0000     -10.338875      -281.3351
  39   2.0000     -10.337738      -281.3042
  40   2.0000     -10.337190      -281.2892
  41   2.0000     -10.336553      -281.2719
  42   2.0000     -10.335085      -281.2320
  43   2.0000     -10.330444      -281.1057
  44   2.0000     -10.330195      -281.0989
  45   2.0000     -10.325317      -280.9662
  46   2.0000     -10.325128      -280.9610
  47   2.0000     -10.324901      -280.9548
  48   2.0000     -10.324870      -280.9540
  49   2.0000     -10.321819      -280.8710
  50   2.0000     -10.321393      -280.8594
  51   2.0000     -10.318641      -280.7845
  52   2.0000     -10.317532      -280.7543
  53   2.0000     -10.317015      -280.7402
  54   2.0000     -10.316393      -280.7233
  55   2.0000     -10.315645      -280.7030
  56   2.0000     -10.314977      -280.6848
  57   2.0000     -10.314575      -280.6739
  58   2.0000     -10.314094      -280.6608
  59   2.0000     -10.313980      -280.6577
  60   2.0000     -10.313575      -280.6466
  61   2.0000     -10.313012      -280.6313
  62   2.0000     -10.312750      -280.6242
  63   2.0000     -10.310931      -280.5747
  64   2.0000     -10.308742      -280.5151
  65   2.0000     -10.307102      -280.4705
  66   2.0000     -10.307034      -280.4687
  67   2.0000     -10.307000      -280.4677
  68   2.0000     -10.306531      -280.4550
  69   2.0000     -10.306212      -280.4463
  70   2.0000     -10.305004      -280.4134
  71   2.0000     -10.304719      -280.4057
  72   2.0000     -10.304346      -280.3955
  73   2.0000     -10.304145      -280.3900
  74   2.0000     -10.303998      -280.3860
  75   2.0000     -10.302758      -280.3523
  76   2.0000     -10.300397      -280.2881
  77   2.0000     -10.299199      -280.2555
  78   2.0000     -10.298869      -280.2465
  79   2.0000     -10.298004      -280.2229
  80   2.0000     -10.296112      -280.1715
  81   2.0000     -10.296090      -280.1708
  82   2.0000     -10.295926      -280.1664
  83   2.0000     -10.291627      -280.0494
  84   2.0000     -10.290432      -280.0169
  85   2.0000      -8.792529      -239.2569
  86   2.0000      -8.792520      -239.2566
  87   2.0000      -8.128118      -221.1773
  88   2.0000      -8.071058      -219.6247
  89   2.0000      -8.070755      -219.6164
  90   2.0000      -8.060539      -219.3384
  91   2.0000      -8.059963      -219.3227
  92   2.0000      -8.059084      -219.2988
  93   2.0000      -8.053999      -219.1605
  94   2.0000      -6.628834      -180.3797
  95   2.0000      -6.628823      -180.3794
  96   2.0000      -6.614271      -179.9835
  97   2.0000      -6.614259      -179.9831
  98   2.0000      -6.614048      -179.9774
  99   2.0000      -6.614044      -179.9773
 100   2.0000      -6.099018      -165.9627
 101   2.0000      -6.091383      -165.7549
 102   2.0000      -6.091140      -165.7483
 103   2.0000      -6.040744      -164.3770
 104   2.0000      -6.040447      -164.3689
 105   2.0000      -6.036492      -164.2613
 106   2.0000      -6.036178      -164.2528
 107   2.0000      -6.032267      -164.1463
 108   2.0000      -6.031943      -164.1375
 109   2.0000      -6.029912      -164.0822
 110   2.0000      -6.029308      -164.0658
 111   2.0000      -6.028425      -164.0418
 112   2.0000      -6.025701      -163.9677
 113   2.0000      -6.025226      -163.9547
 114   2.0000      -6.024383      -163.9318
 115   2.0000      -6.023403      -163.9051
 116   2.0000      -6.022337      -163.8761
 117   2.0000      -6.021654      -163.8575
 118   2.0000      -6.020763      -163.8333
 119   2.0000      -6.019233      -163.7917
 120   2.0000      -6.015688      -163.6952
 121   2.0000      -2.744695       -74.6870
 122   2.0000      -2.744684       -74.6866
 123   2.0000      -2.740634       -74.5764
 124   2.0000      -2.740588       -74.5752
 125   2.0000      -2.740486       -74.5724
 126   2.0000      -2.740463       -74.5718
 127   2.0000      -2.728884       -74.2567
 128   2.0000      -2.728880       -74.2566
 129   2.0000      -2.728870       -74.2563
 130   2.0000      -2.728866       -74.2562
 131   2.0000      -1.132268       -30.8106
 132   2.0000      -1.129873       -30.7454
 133   2.0000      -1.127411       -30.6784
 134   2.0000      -1.084032       -29.4980
 135   2.0000      -1.077267       -29.3139
 136   2.0000      -1.072566       -29.1860
 137   2.0000      -1.068876       -29.0856
 138   2.0000      -1.064536       -28.9675
 139   2.0000      -1.021825       -27.8053
 140   2.0000      -1.021057       -27.7844
 141   2.0000      -1.012602       -27.5543
 142   2.0000      -1.010171       -27.4881
 143   2.0000      -1.007759       -27.4225
 144   2.0000      -0.993308       -27.0293
 145   2.0000      -0.990651       -26.9570
 146   2.0000      -0.988199       -26.8903
 147   2.0000      -0.986885       -26.8545
 148   2.0000      -0.986302       -26.8386
 149   2.0000      -0.971546       -26.4371
 150   2.0000      -0.956987       -26.0409
 151   2.0000      -0.953546       -25.9473
 152   2.0000      -0.941965       -25.6322
 153   2.0000      -0.939084       -25.5538
 154   2.0000      -0.929516       -25.2934
 155   2.0000      -0.919313       -25.0158
 156   2.0000      -0.907579       -24.6965
 157   2.0000      -0.906380       -24.6639
 158   2.0000      -0.893765       -24.3206
 159   2.0000      -0.892724       -24.2923
 160   2.0000      -0.887384       -24.1469
 161   2.0000      -0.885152       -24.0862
 162   2.0000      -0.884460       -24.0674
 163   2.0000      -0.883567       -24.0431
 164   2.0000      -0.869399       -23.6575
 165   2.0000      -0.869215       -23.6525
 166   2.0000      -0.858910       -23.3721
 167   2.0000      -0.852556       -23.1992
 168   2.0000      -0.833127       -22.6705
 169   2.0000      -0.828544       -22.5458
 170   2.0000      -0.827696       -22.5228
 171   2.0000      -0.827186       -22.5089
 172   2.0000      -0.818231       -22.2652
 173   2.0000      -0.805366       -21.9151
 174   2.0000      -0.789345       -21.4792
 175   2.0000      -0.775191       -21.0940
 176   2.0000      -0.767929       -20.8964
 177   2.0000      -0.757902       -20.6236
 178   2.0000      -0.756323       -20.5806
 179   2.0000      -0.746877       -20.3236
 180   2.0000      -0.741232       -20.1699
 181   2.0000      -0.735704       -20.0195
 182   2.0000      -0.723769       -19.6947
 183   2.0000      -0.708780       -19.2869
 184   2.0000      -0.704766       -19.1777
 185   2.0000      -0.700428       -19.0596
 186   2.0000      -0.693050       -18.8589
 187   2.0000      -0.690109       -18.7788
 188   2.0000      -0.684708       -18.6319
 189   2.0000      -0.682920       -18.5832
 190   2.0000      -0.682566       -18.5736
 191   2.0000      -0.672398       -18.2969
 192   2.0000      -0.661445       -17.9988
 193   2.0000      -0.657900       -17.9024
 194   2.0000      -0.656551       -17.8657
 195   2.0000      -0.652851       -17.7650
 196   2.0000      -0.651585       -17.7305
 197   2.0000      -0.642599       -17.4860
 198   2.0000      -0.641327       -17.4514
 199   2.0000      -0.631809       -17.1924
 200   2.0000      -0.625692       -17.0259
 201   2.0000      -0.621541       -16.9130
 202   2.0000      -0.620901       -16.8956
 203   2.0000      -0.614738       -16.7279
 204   2.0000      -0.606708       -16.5094
 205   2.0000      -0.597489       -16.2585
 206   2.0000      -0.596602       -16.2344
 207   2.0000      -0.590041       -16.0558
 208   2.0000      -0.588209       -16.0060
 209   2.0000      -0.585684       -15.9373
 210   2.0000      -0.584775       -15.9125
 211   2.0000      -0.574484       -15.6325
 212   2.0000      -0.570626       -15.5275
 213   2.0000      -0.561982       -15.2923
 214   2.0000      -0.556562       -15.1448
 215   2.0000      -0.554597       -15.0914
 216   2.0000      -0.548679       -14.9303
 217   2.0000      -0.548100       -14.9146
 218   2.0000      -0.546648       -14.8751
 219   2.0000      -0.541658       -14.7393
 220   2.0000      -0.540746       -14.7144
 221   2.0000      -0.539303       -14.6752
 222   2.0000      -0.538641       -14.6572
 223   2.0000      -0.536707       -14.6045
 224   2.0000      -0.535223       -14.5641
 225   2.0000      -0.534235       -14.5373
 226   2.0000      -0.528957       -14.3937
 227   2.0000      -0.527220       -14.3464
 228   2.0000      -0.524167       -14.2633
 229   2.0000      -0.520883       -14.1740
 230   2.0000      -0.519871       -14.1464
 231   2.0000      -0.517873       -14.0920
 232   2.0000      -0.515550       -14.0288
 233   2.0000      -0.509890       -13.8748
 234   2.0000      -0.508196       -13.8287
 235   2.0000      -0.507426       -13.8078
 236   2.0000      -0.503673       -13.7056
 237   2.0000      -0.501775       -13.6540
 238   2.0000      -0.498736       -13.5713
 239   2.0000      -0.497162       -13.5285
 240   2.0000      -0.492949       -13.4138
 241   2.0000      -0.491245       -13.3675
 242   2.0000      -0.490849       -13.3567
 243   2.0000      -0.488263       -13.2863
 244   2.0000      -0.486763       -13.2455
 245   2.0000      -0.485593       -13.2136
 246   2.0000      -0.482718       -13.1354
 247   2.0000      -0.479001       -13.0343
 248   2.0000      -0.473581       -12.8868
 249   2.0000      -0.472325       -12.8526
 250   2.0000      -0.470103       -12.7922
 251   2.0000      -0.458044       -12.4640
 252   2.0000      -0.457908       -12.4603
 253   2.0000      -0.457223       -12.4417
 254   2.0000      -0.454637       -12.3713
 255   2.0000      -0.448086       -12.1930
 256   2.0000      -0.447836       -12.1862
 257   2.0000      -0.446088       -12.1387
 258   2.0000      -0.445307       -12.1174
 259   2.0000      -0.444725       -12.1016
 260   2.0000      -0.442967       -12.0537
 261   2.0000      -0.441189       -12.0054
 262   2.0000      -0.440463       -11.9856
 263   2.0000      -0.438483       -11.9317
 264   2.0000      -0.435654       -11.8547
 265   2.0000      -0.430745       -11.7212
 266   2.0000      -0.427030       -11.6201
 267   2.0000      -0.426243       -11.5987
 268   2.0000      -0.424873       -11.5614
 269   2.0000      -0.423265       -11.5176
 270   2.0000      -0.420968       -11.4551
 271   2.0000      -0.419158       -11.4059
 272   2.0000      -0.418328       -11.3833
 273   2.0000      -0.411188       -11.1890
 274   2.0000      -0.410081       -11.1589
 275   2.0000      -0.407955       -11.1010
 276   2.0000      -0.406074       -11.0498
 277   2.0000      -0.404766       -11.0142
 278   2.0000      -0.402094       -10.9415
 279   2.0000      -0.395329       -10.7575
 280   2.0000      -0.392448       -10.6791
 281   2.0000      -0.390617       -10.6292
 282   2.0000      -0.386567       -10.5190
 283   2.0000      -0.386347       -10.5130
 284   2.0000      -0.375026       -10.2050
 285   2.0000      -0.374829       -10.1996
 286   2.0000      -0.374705       -10.1962
 287   2.0000      -0.369579       -10.0567
 288   2.0000      -0.366809        -9.9814
 289   2.0000      -0.358276        -9.7492
 290   2.0000      -0.355929        -9.6853
 291   2.0000      -0.353474        -9.6185
 292   2.0000      -0.349543        -9.5115
 293   2.0000      -0.343805        -9.3554
 294   2.0000      -0.340223        -9.2580
 295   2.0000      -0.337970        -9.1966
 296   2.0000      -0.334707        -9.1078
 297   2.0000      -0.333341        -9.0707
 298   2.0000      -0.325947        -8.8695
 299   2.0000      -0.323207        -8.7949
 300   2.0000      -0.318511        -8.6671
 301   2.0000      -0.313496        -8.5307
 302   2.0000      -0.313471        -8.5300
 303   2.0000      -0.306207        -8.3323
 304   2.0000      -0.300837        -8.1862
 305   2.0000      -0.300005        -8.1635
 306   2.0000      -0.292920        -7.9708
 307   2.0000      -0.289744        -7.8843
 308   2.0000      -0.280086        -7.6215
 309   2.0000      -0.262324        -7.1382
 310   0.0000      -0.100763        -2.7419
 311   0.0000      -0.086594        -2.3563
 312   0.0000      -0.081903        -2.2287
 313   0.0000      -0.055744        -1.5169
 314   0.0000      -0.054618        -1.4862

MULLIKEN ATOMIC CHARGES
-----------------------
   0 C :    0.299204
   1 C :   -0.341712
   2 C :   -0.187020
   3 N :    0.148179
   4 C :   -0.190546
   5 N :    0.160580
   6 C :    0.016779
   7 C :   -0.013861
   8 C :   -0.071672
   9 C :    0.117628
  10 C :   -0.088647
  11 C :   -0.021608
  12 S :    0.185587
  13 C :   -0.123838
  14 C :    0.041270
  15 Br:    0.023826
  16 C :    0.155570
  17 O :   -0.138494
  18 C :   -0.045294
  19 C :   -0.091204
  20 C :    0.037292
  21 C :   -0.103233
  22 C :    0.025239
  23 N :   -0.034153
  24 C :    0.010592
  25 S :    0.101177
  26 C :   -0.024720
  27 C :   -0.076178
  28 C :    0.037144
  29 N :   -0.067710
  30 C :    0.020118
  31 S :    0.130470
  32 C :    0.024467
  33 C :   -0.057493
  34 C :   -0.044619
  35 N :    0.011846
  36 C :    0.026216
  37 C :    0.028588
  38 N :    0.007385
  39 C :    0.015026
  40 C :   -0.012015
  41 C :   -0.008544
  42 N :   -0.266592
  43 S :    0.551384
  44 N :   -0.265061
  45 C :   -0.009926
  46 C :   -0.067961
  47 C :   -0.026289
  48 N :   -0.072706
  49 C :    0.022428
  50 S :    0.145788
  51 C :    0.033103
  52 C :   -0.081257
  53 C :    0.029914
  54 N :   -0.037469
  55 C :    0.016792
  56 S :    0.103259
  57 C :   -0.034976
  58 C :   -0.097300
  59 C :    0.324786
  60 C :   -0.337493
  61 C :   -0.190442
  62 N :    0.147463
  63 C :   -0.193056
  64 N :    0.175885
  65 C :    0.001735
  66 C :    0.005033
  67 C :    0.126272
  68 O :   -0.138818
  69 C :   -0.071088
  70 C :    0.112252
  71 C :   -0.086081
  72 C :   -0.024466
  73 S :    0.182015
  74 C :   -0.125049
  75 C :    0.041168
  76 Br:    0.022084
  77 H :   -0.012120
  78 H :   -0.006971
  79 H :   -0.003481
  80 H :    0.034591
  81 H :    0.041370
  82 H :    0.039187
  83 H :    0.012214
  84 H :    0.012507
  85 H :    0.042498
  86 H :    0.040941
  87 H :    0.022259
  88 H :   -0.009228
  89 H :   -0.007077
  90 H :   -0.003642
Sum of atomic charges:   -0.0000000

LOEWDIN ATOMIC CHARGES
----------------------
   0 C :    0.076432
   1 C :   -0.134849
   2 C :   -0.017333
   3 N :   -0.052092
   4 C :   -0.021582
   5 N :   -0.047695
   6 C :   -0.021266
   7 C :   -0.046553
   8 C :    0.021593
   9 C :   -0.031526
  10 C :   -0.143697
  11 C :   -0.009716
  12 S :    0.431819
  13 C :   -0.271126
  14 C :   -0.070579
  15 Br:    0.137350
  16 C :    0.086746
  17 O :   -0.128784
  18 C :   -0.069090
  19 C :    0.070767
  20 C :   -0.051452
  21 C :   -0.152413
  22 C :   -0.021952
  23 N :   -0.075721
  24 C :   -0.101301
  25 S :    0.389442
  26 C :   -0.011469
  27 C :   -0.154926
  28 C :   -0.006090
  29 N :   -0.090662
  30 C :   -0.098204
  31 S :    0.416137
  32 C :   -0.020096
  33 C :    0.004245
  34 C :    0.004223
  35 N :   -0.023533
  36 C :    0.012484
  37 C :    0.012384
  38 N :   -0.021874
  39 C :   -0.021817
  40 C :   -0.048896
  41 C :   -0.049906
  42 N :   -0.296251
  43 S :    0.690372
  44 N :   -0.294385
  45 C :   -0.007397
  46 C :   -0.153100
  47 C :   -0.023243
  48 N :   -0.095196
  49 C :   -0.101950
  50 S :    0.429379
  51 C :   -0.057372
  52 C :   -0.147203
  53 C :   -0.013345
  54 N :   -0.074899
  55 C :   -0.097211
  56 S :    0.394338
  57 C :    0.064269
  58 C :   -0.068717
  59 C :    0.081491
  60 C :   -0.133597
  61 C :   -0.017614
  62 N :   -0.059210
  63 C :   -0.018327
  64 N :   -0.046910
  65 C :   -0.011525
  66 C :   -0.052406
  67 C :    0.085430
  68 O :   -0.138443
  69 C :    0.022997
  70 C :   -0.034289
  71 C :   -0.142329
  72 C :   -0.013395
  73 S :    0.429676
  74 C :   -0.272710
  75 C :   -0.069669
  76 Br:    0.135927
  77 H :    0.040680
  78 H :    0.040829
  79 H :    0.038913
  80 H :    0.041323
  81 H :    0.020304
  82 H :    0.019892
  83 H :    0.026368
  84 H :    0.026578
  85 H :    0.021434
  86 H :    0.020631
  87 H :    0.042317
  88 H :    0.041277
  89 H :    0.040076
  90 H :    0.038773

  Mayer bond orders larger than 0.100000
B(  0-C ,  1-C ) :   1.6488 B(  0-C ,  6-C ) :   1.0098 B(  0-C , 18-C ) :   1.0550
B(  1-C ,  2-C ) :   1.1379 B(  1-C ,  4-C ) :   1.1419 B(  2-C ,  3-N ) :   2.9714
B(  4-C ,  5-N ) :   2.9787 B(  6-C ,  7-C ) :   1.2761 B(  6-C , 11-C ) :   1.3995
B(  7-C ,  8-C ) :   1.4223 B(  7-C , 16-C ) :   0.9456 B(  8-C ,  9-C ) :   1.2447
B(  8-C , 77-H ) :   1.0176 B(  9-C , 10-C ) :   1.3043 B(  9-C , 14-C ) :   1.1624
B( 10-C , 11-C ) :   1.3368 B( 10-C , 12-S ) :   1.0838 B( 11-C , 78-H ) :   0.9802
B( 12-S , 13-C ) :   1.0869 B( 13-C , 14-C ) :   1.6176 B( 13-C , 15-Br) :   1.0191
B( 14-C , 79-H ) :   1.0000 B( 16-C , 17-O ) :   2.2296 B( 16-C , 18-C ) :   0.9209
B( 18-C , 19-C ) :   1.7016 B( 19-C , 20-C ) :   1.0630 B( 19-C , 80-H ) :   0.9316
B( 20-C , 21-C ) :   1.3684 B( 20-C , 28-C ) :   1.3229 B( 21-C , 22-C ) :   1.2848
B( 21-C , 25-S ) :   1.0747 B( 22-C , 23-N ) :   1.3147 B( 22-C , 26-C ) :   1.4112
B( 23-N , 24-C ) :   1.7741 B( 23-N , 25-S ) :   0.1073 B( 24-C , 25-S ) :   1.0935
B( 24-C , 81-H ) :   0.9629 B( 26-C , 27-C ) :   1.4330 B( 26-C , 32-C ) :   0.9323
B( 27-C , 28-C ) :   1.2795 B( 27-C , 31-S ) :   1.0639 B( 28-C , 29-N ) :   1.3293
B( 29-N , 30-C ) :   1.7432 B( 29-N , 31-S ) :   0.1097 B( 30-C , 31-S ) :   1.1304
B( 30-C , 82-H ) :   0.9627 B( 32-C , 33-C ) :   1.3689 B( 32-C , 39-C ) :   0.1580
B( 32-C , 41-C ) :   1.2954 B( 33-C , 34-C ) :   1.0892 B( 33-C , 38-N ) :   1.4230
B( 34-C , 35-N ) :   1.4222 B( 34-C , 39-C ) :   1.3744 B( 35-N , 36-C ) :   1.7265
B( 36-C , 37-C ) :   1.1514 B( 36-C , 83-H ) :   0.9724 B( 37-C , 38-N ) :   1.7240
B( 37-C , 84-H ) :   0.9723 B( 39-C , 40-C ) :   1.2984 B( 39-C , 45-C ) :   0.9251
B( 40-C , 41-C ) :   1.1035 B( 40-C , 44-N ) :   1.4815 B( 41-C , 42-N ) :   1.4850
B( 42-N , 43-S ) :   1.3018 B( 42-N , 44-N ) :   0.1607 B( 43-S , 44-N ) :   1.3025
B( 45-C , 46-C ) :   1.4415 B( 45-C , 53-C ) :   1.4155 B( 46-C , 47-C ) :   1.2779
B( 46-C , 50-S ) :   1.0668 B( 47-C , 48-N ) :   1.3482 B( 47-C , 51-C ) :   1.3065
B( 48-N , 49-C ) :   1.7112 B( 48-N , 50-S ) :   0.1091 B( 49-C , 50-S ) :   1.1453
B( 49-C , 85-H ) :   0.9640 B( 51-C , 52-C ) :   1.3880 B( 51-C , 57-C ) :   1.0279
B( 52-C , 53-C ) :   1.2847 B( 52-C , 56-S ) :   1.0771 B( 53-C , 54-N ) :   1.3188
B( 54-N , 55-C ) :   1.7726 B( 54-N , 56-S ) :   0.1073 B( 55-C , 56-S ) :   1.0956
B( 55-C , 86-H ) :   0.9628 B( 57-C , 58-C ) :   1.7430 B( 57-C , 87-H ) :   0.9415
B( 58-C , 59-C ) :   1.0129 B( 58-C , 67-C ) :   0.9347 B( 59-C , 60-C ) :   1.6549
B( 59-C , 65-C ) :   1.0262 B( 60-C , 61-C ) :   1.1378 B( 60-C , 63-C ) :   1.1644
B( 61-C , 62-N ) :   2.9882 B( 63-C , 64-N ) :   3.0075 B( 65-C , 66-C ) :   1.2728
B( 65-C , 72-C ) :   1.4130 B( 66-C , 67-C ) :   0.9175 B( 66-C , 69-C ) :   1.4205
B( 67-C , 68-O ) :   2.2782 B( 69-C , 70-C ) :   1.2574 B( 69-C , 88-H ) :   1.0156
B( 70-C , 71-C ) :   1.3051 B( 70-C , 75-C ) :   1.1608 B( 71-C , 72-C ) :   1.3282
B( 71-C , 73-S ) :   1.0829 B( 72-C , 89-H ) :   0.9842 B( 73-S , 74-C ) :   1.0849
B( 74-C , 75-C ) :   1.6209 B( 74-C , 76-Br) :   1.0176 B( 75-C , 90-H ) :   1.0009

-----------------------------------------------------------------------------
         ABSORPTION SPECTRUM VIA TRANSITION ELECTRIC DIPOLE MOMENTS
-----------------------------------------------------------------------------
State   Energy  Wavelength   fosc         T2         TX        TY        TZ
        (cm-1)    (nm)                  (au**2)     (au)      (au)      (au)
-----------------------------------------------------------------------------
   0   18136.2    551.4   0.815057366  14.79512   0.13855  -3.82573  -0.37373
   1   21656.0    461.8   0.092811918   1.41092   0.20225  -0.26078   1.14106
   2   22525.4    443.9   0.341457660   4.99045   0.12017   2.19039   0.42214
   3   22954.8    435.6   0.036544097   0.52411  -0.03921   0.12621  -0.71178
   4   23360.4    428.1   0.022454790   0.31645  -0.49208   0.17233  -0.21120
   5   25512.8    392.0   0.015119588   0.19510   0.34193  -0.24533   0.13414
   6   26623.8    375.6   0.013806662   0.17072   0.39336  -0.11729  -0.04726
   7   26757.6    373.7   0.048410950   0.59562  -0.27793   0.70854  -0.12784
   8   27301.2    366.3   0.042193171   0.50879  -0.31691  -0.01470  -0.63886
   9   27477.8    363.9   0.179801838   2.15421  -0.50961  -1.37464   0.06972
  10   27900.8    358.4   0.100794490   1.18931  -0.39561   0.06548  -1.01416
  11   28527.5    350.5   0.169568945   1.95685   0.49086  -0.49263   1.21377
  12   28758.0    347.7   0.002754480   0.03153   0.09389   0.15066   0.00428
  13   29185.0    342.6   0.060632278   0.68394   0.33971  -0.58261   0.47865
  14   29484.9    339.2   0.013924885   0.15548   0.08309   0.37678   0.08131
  15   29750.9    336.1   0.043215711   0.47821  -0.64376  -0.18722  -0.16948
  16   29834.2    335.2   0.029448545   0.32496  -0.07091   0.29646   0.48171
  17   30221.8    330.9   0.051629713   0.56241  -0.20311  -0.68371   0.23173
  18   30437.0    328.5   0.141135121   1.52654  -0.34692  -1.12132  -0.38579
  19   30444.7    328.5   0.149847656   1.62037  -0.00240   1.13987   0.56661
  20   30804.1    324.6   0.003942011   0.04213  -0.05327  -0.14151   0.13880
  21   31397.7    318.5   0.119892793   1.25710  -0.39717  -0.67440  -0.80283
  22   31940.0    313.1   0.174520247   1.79882  -0.45140   0.31869  -1.22209
  23   32076.0    311.8   0.063175033   0.64840   0.29742  -0.45096   0.59713
  24   32316.5    309.4   0.002255448   0.02298  -0.02585   0.14882   0.01265
  25   32875.3    304.2   0.278764894   2.79154   0.53664  -0.52976   1.49094
  26   33255.1    300.7   0.235340842   2.32978  -0.23073  -1.50808   0.04716
  27   33798.4    295.9   0.060370314   0.58803  -0.22604  -0.25035  -0.68867
  28   33858.9    295.3   0.061274591   0.59578   0.08854  -0.73528   0.21749
  29   33985.5    294.2   0.389780508   3.77574   0.53880   1.78368   0.55129
  30   34132.6    293.0   0.210037451   2.02583   0.48909   0.19685   1.32207
  31   34325.1    291.3   0.155100355   1.48757  -0.46825  -1.08060  -0.31718
  32   34482.7    290.0   0.025711010   0.24547  -0.13977  -0.02996  -0.47438
  33   34941.3    286.2   0.016931197   0.15952  -0.39776   0.01497   0.03296
  34   35150.2    284.5   0.012543119   0.11748  -0.33349   0.05157   0.06004
  35   35454.3    282.1   0.047465813   0.44075  -0.05195  -0.49722   0.43683
  36   35592.2    281.0   0.110734701   1.02425  -0.82069  -0.22156  -0.54920
  37   35750.5    279.7   0.044538935   0.41014  -0.40591  -0.30126  -0.39322
  38   36003.6    277.7   0.003911182   0.03576   0.15222  -0.01458   0.11126
  39   36043.6    277.4   0.062429915   0.57022  -0.02243  -0.74081   0.14460
  40   36236.2    276.0   0.015941628   0.14483   0.00655  -0.37989   0.02175
  41   36472.4    274.2   0.027115582   0.24475   0.01963   0.49387   0.02141
  42   36628.9    273.0   0.003344237   0.03006  -0.10498  -0.12776  -0.05208
  43   36759.7    272.0   0.057859195   0.51817   0.55123  -0.15686   0.43556
  44   37083.4    269.7   0.079284871   0.70386  -0.41053   0.30242  -0.66624
  45   37141.2    269.2   0.086527091   0.76696  -0.83802  -0.21495  -0.13595
  46   37375.0    267.6   0.110409185   0.97252  -0.27611  -0.90922  -0.26383
  47   37406.9    267.3   0.010496797   0.09238  -0.05548  -0.16877   0.24662
  48   37594.5    266.0   0.005237050   0.04586  -0.05814  -0.20611  -0.00010
  49   37658.1    265.5   0.002454695   0.02146   0.04249  -0.00391  -0.14014
  50   37848.1    264.2   0.040010285   0.34802   0.17023   0.43618   0.35887
  51   38110.7    262.4   0.121826216   1.05237   0.96618  -0.33946   0.06023
  52   38287.8    261.2   0.010113464   0.08696  -0.17677  -0.12275  -0.20160
  53   38442.4    260.1   0.034389819   0.29451   0.10600   0.52331   0.09703
  54   38765.4    258.0   0.001020593   0.00867   0.06634   0.02071  -0.06194
  55   39027.0    256.2   0.055823106   0.47090  -0.45994   0.02729  -0.50854
  56   39166.3    255.3   0.006138686   0.05160   0.02537  -0.20666  -0.09080
  57   39274.8    254.6   0.003055017   0.02561  -0.09778  -0.02922  -0.12326
  58   39566.9    252.7   0.014808573   0.12321   0.20394  -0.03352   0.28372
  59   39654.0    252.2   0.041969458   0.34844   0.22519  -0.29059   0.46183
  60   39814.8    251.2   0.033901312   0.28032   0.04747  -0.48346   0.21054
  61   39993.9    250.0   0.202161125   1.66410  -0.12338   1.28317   0.04849
  62   40117.8    249.3   0.029949727   0.24577   0.02905  -0.49298  -0.04362

FINAL SINGLE POINT ENERGY    -10804.391152476870

DIPOLE MOMENT
-------------
                                X             Y             Z
Electronic contribution:     66.36391      10.15025      99.37616
Nuclear contribution   :    -65.53100      -7.98465     -99.04678
                        -----------------------------------------
Total Dipole Moment    :      0.83291       2.16560       0.32938
                        -----------------------------------------
Magnitude (a.u.)       :      2.34351
Magnitude (Debye)      :      5.95673

Rotational constants in cm-1:     0.001112     0.000196     0.000173
Rotational constants in MHz :    33.322750     5.888232     5.183949

                             ****ORCA TERMINATED NORMALLY****
TOTAL RUN TIME: 0 days 0 hours 11 minutes 2 seconds 344 msec
