                         Program Version 4.2.0 -  RELEASE  -
|  1> # ORCA input file
|  2> # SCF done       -200.153356962205          0.000554610650
|  3> ! CAM-B3LYP def2-SVP def2/J RIJCOSX Grid4 TightSCF
|  4> %maxcore 5000
|  5> %tddft
|  6>     Mode sTDDFT
|  7>     Ethresh 5.0
|  8>     maxcore 5000
|  9> end
| 10>
| 11> %pal
| 12>   nprocs 6
| 13>   end
| 14> * xyz 0 1
| 15>    C        6.59790        -4.57092       -10.96080
| 16>    C        6.60801        -4.70421       -12.31383
| 17>    S        8.00546        -5.57428       -12.83658
| 18>    C        8.60219        -5.77020       -11.20810
| 19>    C        9.86187        -6.48675       -10.91172
| 20>    C        7.73693        -5.17928       -10.33818
| 21>    C        7.65567        -4.99132        -8.89443
| 22>    O        8.45442        -5.36533        -8.05123
| 23>    C        6.39812        -4.25438        -8.65827
| 24>    C        5.75638        -3.98467        -9.93684
| 25>    C        4.59003        -3.31006       -10.18695
| 26>    C        4.11591        -3.14265       -11.50516
| 27>    N        3.71758        -2.99998       -12.57167
| 28>    C        3.74796        -2.71759        -9.22623
| 29>    N        3.02066        -2.21235        -8.49489
| 30>    C        5.89447        -3.91185        -7.43195
| 31>    C        6.40915        -4.12846        -6.14175
| 32>    C        5.69882        -3.74771        -4.99629
| 33>    C        6.36978        -4.06133        -3.83023
| 34>    C        7.62115        -4.67642        -4.08085
| 35>    S        7.95078        -4.88189        -5.73937
| 36>    C        8.22298        -4.97805        -2.83675
| 37>    C        7.35283        -4.56615        -1.80193
| 38>    C        6.16831        -3.96577        -2.39343
| 39>    C        5.10176        -3.42883        -1.73474
| 40>    C        3.99925        -2.86660        -2.41292
| 41>    N        3.09882        -2.40940        -2.95498
| 42>    C        5.03377        -3.40073        -0.32576
| 43>    N        4.98027        -3.37955         0.81945
| 44>    C        7.84597        -4.85459        -0.53721
| 45>    C        9.08943        -5.47261        -0.60574
| 46>    S        9.66121        -5.69285        -2.25322
| 47>    C        9.88603        -5.93738         0.45330
| 48>    C       11.16280        -6.49392         0.31345
| 49>    C       11.73890        -6.92971         1.55431
| 50>    N       12.92764        -7.53715         1.57368
| 51>    C       13.54515        -7.68074         0.42150
| 52>    C       14.84024        -8.41032         0.44084
| 53>    O       15.24377        -8.99586         1.42100
| 54>    C       15.58005        -8.39211        -0.83429
| 55>    C       15.08298        -7.89449        -1.97124
| 56>    C       13.74106        -7.29664        -2.08402
| 57>    O       13.28421        -6.91511        -3.14057
| 58>    C       12.99562        -7.18839        -0.80472
| 59>    N       11.81081        -6.61753        -0.84376
| 60>    C       10.89637        -6.69540         2.65134
| 61>    S        9.41661        -5.94652         2.12264
| 62>    C       11.14585        -7.04757         3.99036
| 63>    C       12.34947        -7.52048         4.50449
| 64>    C       12.24136        -7.83184         5.85246
| 65>    C       10.94654        -7.61308         6.37209
| 66>    S        9.87489        -6.97941         5.20458
| 67>    C       10.92163        -8.03073         7.72122
| 68>    C       12.20217        -8.51802         8.06020
| 69>    C       13.08267        -8.36256         6.91563
| 70>    C       14.42681        -8.58535         6.88860
| 71>    C       15.23575        -8.28039         5.77171
| 72>    N       15.91593        -8.00320         4.89233
| 73>    C       15.10306        -9.09222         8.01967
| 74>    N       15.63357        -9.51494         8.94404
| 75>    C       12.28130        -8.96137         9.37296
| 76>    C       11.07844        -8.81737        10.05053
| 77>    S        9.82426        -8.13859         9.01867
| 78>    C       10.75081        -9.20043        11.36950
| 79>    C       11.57572        -9.47104        12.41838
| 80>    C       11.02248       -10.27948        13.55432
| 81>    O        9.85628       -10.54387        13.74095
| 82>    C       12.19776       -10.69971        14.31445
| 83>    C       12.44295       -11.50767        15.38259
| 84>    S       14.15664       -11.52323        15.71477
| 85>    C       14.50704       -10.43406        14.42151
| 86>    C       13.37089       -10.08402        13.76344
| 87>    C       12.98346        -9.21825        12.66646
| 88>    C       13.77068        -8.21142        12.16874
| 89>    C       15.09986        -8.03664        12.60836
| 90>    N       16.17911        -7.88323        12.96483
| 91>    C       13.33655        -7.22151        11.27054
| 92>    N       13.01067        -6.38402        10.55514
| 93>    C       11.47773       -12.28525        16.19032
| 94>    H        5.90261        -4.35993       -13.04328
| 95>    H       10.70122        -6.01735       -11.42397
| 96>    H        9.80342        -7.52102       -11.25040
| 97>    H       10.04066        -6.47053        -9.83889
| 98>    H        4.93827        -3.40151        -7.42387
| 99>    H        4.73541        -3.27208        -5.05135
|100>    H        7.35372        -4.64164         0.39488
|101>    H       16.56341        -8.84103        -0.79804
|102>    H       15.64916        -7.92173        -2.89254
|103>    H       13.22520        -7.63518         3.89100
|104>    H       13.14841        -9.42045         9.81117
|105>    H        9.69718        -9.37500        11.56788
|106>    H       15.52249       -10.14602        14.23661
|107>    H       10.47376       -12.11901        15.80640
|108>    H       11.51759       -11.98044        17.23562
|109>    H       11.70850       -13.34934        16.14575
|110> *
|111>
|112>                          ****END OF INPUT****

CARTESIAN COORDINATES (ANGSTROEM)
---------------------------------
  C      6.597900   -4.570920  -10.960800
  C      6.608010   -4.704210  -12.313830
  S      8.005460   -5.574280  -12.836580
  C      8.602190   -5.770200  -11.208100
  C      9.861870   -6.486750  -10.911720
  C      7.736930   -5.179280  -10.338180
  C      7.655670   -4.991320   -8.894430
  O      8.454420   -5.365330   -8.051230
  C      6.398120   -4.254380   -8.658270
  C      5.756380   -3.984670   -9.936840
  C      4.590030   -3.310060  -10.186950
  C      4.115910   -3.142650  -11.505160
  N      3.717580   -2.999980  -12.571670
  C      3.747960   -2.717590   -9.226230
  N      3.020660   -2.212350   -8.494890
  C      5.894470   -3.911850   -7.431950
  C      6.409150   -4.128460   -6.141750
  C      5.698820   -3.747710   -4.996290
  C      6.369780   -4.061330   -3.830230
  C      7.621150   -4.676420   -4.080850
  S      7.950780   -4.881890   -5.739370
  C      8.222980   -4.978050   -2.836750
  C      7.352830   -4.566150   -1.801930
  C      6.168310   -3.965770   -2.393430
  C      5.101760   -3.428830   -1.734740
  C      3.999250   -2.866600   -2.412920
  N      3.098820   -2.409400   -2.954980
  C      5.033770   -3.400730   -0.325760
  N      4.980270   -3.379550    0.819450
  C      7.845970   -4.854590   -0.537210
  C      9.089430   -5.472610   -0.605740
  S      9.661210   -5.692850   -2.253220
  C      9.886030   -5.937380    0.453300
  C     11.162800   -6.493920    0.313450
  C     11.738900   -6.929710    1.554310
  N     12.927640   -7.537150    1.573680
  C     13.545150   -7.680740    0.421500
  C     14.840240   -8.410320    0.440840
  O     15.243770   -8.995860    1.421000
  C     15.580050   -8.392110   -0.834290
  C     15.082980   -7.894490   -1.971240
  C     13.741060   -7.296640   -2.084020
  O     13.284210   -6.915110   -3.140570
  C     12.995620   -7.188390   -0.804720
  N     11.810810   -6.617530   -0.843760
  C     10.896370   -6.695400    2.651340
  S      9.416610   -5.946520    2.122640
  C     11.145850   -7.047570    3.990360
  C     12.349470   -7.520480    4.504490
  C     12.241360   -7.831840    5.852460
  C     10.946540   -7.613080    6.372090
  S      9.874890   -6.979410    5.204580
  C     10.921630   -8.030730    7.721220
  C     12.202170   -8.518020    8.060200
  C     13.082670   -8.362560    6.915630
  C     14.426810   -8.585350    6.888600
  C     15.235750   -8.280390    5.771710
  N     15.915930   -8.003200    4.892330
  C     15.103060   -9.092220    8.019670
  N     15.633570   -9.514940    8.944040
  C     12.281300   -8.961370    9.372960
  C     11.078440   -8.817370   10.050530
  S      9.824260   -8.138590    9.018670
  C     10.750810   -9.200430   11.369500
  C     11.575720   -9.471040   12.418380
  C     11.022480  -10.279480   13.554320
  O      9.856280  -10.543870   13.740950
  C     12.197760  -10.699710   14.314450
  C     12.442950  -11.507670   15.382590
  S     14.156640  -11.523230   15.714770
  C     14.507040  -10.434060   14.421510
  C     13.370890  -10.084020   13.763440
  C     12.983460   -9.218250   12.666460
  C     13.770680   -8.211420   12.168740
  C     15.099860   -8.036640   12.608360
  N     16.179110   -7.883230   12.964830
  C     13.336550   -7.221510   11.270540
  N     13.010670   -6.384020   10.555140
  C     11.477730  -12.285250   16.190320
  H      5.902610   -4.359930  -13.043280
  H     10.701220   -6.017350  -11.423970
  H      9.803420   -7.521020  -11.250400
  H     10.040660   -6.470530   -9.838890
  H      4.938270   -3.401510   -7.423870
  H      4.735410   -3.272080   -5.051350
  H      7.353720   -4.641640    0.394880
  H     16.563410   -8.841030   -0.798040
  H     15.649160   -7.921730   -2.892540
  H     13.225200   -7.635180    3.891000
  H     13.148410   -9.420450    9.811170
  H      9.697180   -9.375000   11.567880
  H     15.522490  -10.146020   14.236610
  H     10.473760  -12.119010   15.806400
  H     11.517590  -11.980440   17.235620
  H     11.708500  -13.349340   16.145750

 Total Charge           Charge          ....    0
 Multiplicity           Mult            ....    1
 Number of Electrons    NEL             ....  578
 Basis Dimension        Dim             .... 1214

ORBITAL ENERGIES
----------------

  NO   OCC          E(Eh)            E(eV)
   0   2.0000     -89.013312     -2422.1754
   1   2.0000     -89.002848     -2421.8906
   2   2.0000     -88.999351     -2421.7955
   3   2.0000     -88.994947     -2421.6756
   4   2.0000     -88.992157     -2421.5997
   5   2.0000     -88.980090     -2421.2714
   6   2.0000     -88.977895     -2421.2116
   7   2.0000     -19.237666      -523.4835
   8   2.0000     -19.235516      -523.4250
   9   2.0000     -19.227695      -523.2122
  10   2.0000     -19.217352      -522.9307
  11   2.0000     -14.465081      -393.6149
  12   2.0000     -14.461913      -393.5287
  13   2.0000     -14.435591      -392.8124
  14   2.0000     -14.435423      -392.8078
  15   2.0000     -14.432737      -392.7347
  16   2.0000     -14.430891      -392.6845
  17   2.0000     -14.419342      -392.3703
  18   2.0000     -14.417694      -392.3254
  19   2.0000     -14.414054      -392.2264
  20   2.0000     -14.413320      -392.2064
  21   2.0000     -10.387390      -282.6553
  22   2.0000     -10.384254      -282.5699
  23   2.0000     -10.378768      -282.4206
  24   2.0000     -10.371574      -282.2249
  25   2.0000     -10.371218      -282.2152
  26   2.0000     -10.369084      -282.1571
  27   2.0000     -10.357700      -281.8473
  28   2.0000     -10.356851      -281.8242
  29   2.0000     -10.355654      -281.7917
  30   2.0000     -10.353413      -281.7307
  31   2.0000     -10.350610      -281.6544
  32   2.0000     -10.348311      -281.5919
  33   2.0000     -10.348056      -281.5849
  34   2.0000     -10.347055      -281.5577
  35   2.0000     -10.346507      -281.5428
  36   2.0000     -10.345743      -281.5220
  37   2.0000     -10.344546      -281.4894
  38   2.0000     -10.343866      -281.4709
  39   2.0000     -10.343682      -281.4659
  40   2.0000     -10.343448      -281.4595
  41   2.0000     -10.342308      -281.4285
  42   2.0000     -10.341474      -281.4058
  43   2.0000     -10.336343      -281.2662
  44   2.0000     -10.336116      -281.2600
  45   2.0000     -10.335224      -281.2358
  46   2.0000     -10.334355      -281.2121
  47   2.0000     -10.332701      -281.1671
  48   2.0000     -10.332521      -281.1622
  49   2.0000     -10.331839      -281.1436
  50   2.0000     -10.329855      -281.0896
  51   2.0000     -10.329798      -281.0881
  52   2.0000     -10.329724      -281.0861
  53   2.0000     -10.329165      -281.0709
  54   2.0000     -10.327062      -281.0136
  55   2.0000     -10.321183      -280.8537
  56   2.0000     -10.320649      -280.8391
  57   2.0000     -10.320155      -280.8257
  58   2.0000     -10.318644      -280.7846
  59   2.0000     -10.317797      -280.7615
  60   2.0000     -10.317025      -280.7405
  61   2.0000     -10.316751      -280.7331
  62   2.0000     -10.315757      -280.7060
  63   2.0000     -10.315677      -280.7038
  64   2.0000     -10.315613      -280.7021
  65   2.0000     -10.315453      -280.6977
  66   2.0000     -10.314614      -280.6749
  67   2.0000     -10.314089      -280.6606
  68   2.0000     -10.311975      -280.6031
  69   2.0000     -10.308944      -280.5206
  70   2.0000     -10.308775      -280.5160
  71   2.0000     -10.304663      -280.4041
  72   2.0000     -10.303900      -280.3834
  73   2.0000     -10.303063      -280.3606
  74   2.0000     -10.301733      -280.3244
  75   2.0000     -10.288623      -279.9677
  76   2.0000     -10.288066      -279.9525
  77   2.0000     -10.285934      -279.8945
  78   2.0000     -10.285844      -279.8920
  79   2.0000      -8.107676      -220.6211
  80   2.0000      -8.097631      -220.3477
  81   2.0000      -8.094054      -220.2504
  82   2.0000      -8.088208      -220.0913
  83   2.0000      -8.084429      -219.9885
  84   2.0000      -8.076074      -219.7612
  85   2.0000      -8.073844      -219.7005
  86   2.0000      -6.076773      -165.3574
  87   2.0000      -6.072652      -165.2453
  88   2.0000      -6.070313      -165.1816
  89   2.0000      -6.066932      -165.0896
  90   2.0000      -6.063221      -164.9886
  91   2.0000      -6.062756      -164.9760
  92   2.0000      -6.059860      -164.8972
  93   2.0000      -6.059092      -164.8763
  94   2.0000      -6.057578      -164.8351
  95   2.0000      -6.056510      -164.8060
  96   2.0000      -6.053823      -164.7329
  97   2.0000      -6.053117      -164.7137
  98   2.0000      -6.050544      -164.6437
  99   2.0000      -6.049086      -164.6040
 100   2.0000      -6.047013      -164.5476
 101   2.0000      -6.045344      -164.5022
 102   2.0000      -6.043078      -164.4405
 103   2.0000      -6.040725      -164.3765
 104   2.0000      -6.038600      -164.3186
 105   2.0000      -6.038495      -164.3158
 106   2.0000      -6.036413      -164.2592
 107   2.0000      -1.154648       -31.4196
 108   2.0000      -1.149329       -31.2748
 109   2.0000      -1.143509       -31.1165
 110   2.0000      -1.133074       -30.8325
 111   2.0000      -1.114844       -30.3364
 112   2.0000      -1.054896       -28.7052
 113   2.0000      -1.051008       -28.5994
 114   2.0000      -1.042167       -28.3588
 115   2.0000      -1.028378       -27.9836
 116   2.0000      -1.026006       -27.9191
 117   2.0000      -1.024830       -27.8870
 118   2.0000      -1.024439       -27.8764
 119   2.0000      -1.022280       -27.8176
 120   2.0000      -1.011791       -27.5322
 121   2.0000      -1.010248       -27.4903
 122   2.0000      -1.008148       -27.4331
 123   2.0000      -1.007926       -27.4271
 124   2.0000      -1.005807       -27.3694
 125   2.0000      -0.998242       -27.1636
 126   2.0000      -0.994443       -27.0602
 127   2.0000      -0.993746       -27.0412
 128   2.0000      -0.970755       -26.4156
 129   2.0000      -0.967773       -26.3344
 130   2.0000      -0.961901       -26.1747
 131   2.0000      -0.960613       -26.1396
 132   2.0000      -0.949357       -25.8333
 133   2.0000      -0.929477       -25.2923
 134   2.0000      -0.922943       -25.1145
 135   2.0000      -0.905874       -24.6501
 136   2.0000      -0.902839       -24.5675
 137   2.0000      -0.893163       -24.3042
 138   2.0000      -0.889348       -24.2004
 139   2.0000      -0.885605       -24.0985
 140   2.0000      -0.882592       -24.0166
 141   2.0000      -0.875591       -23.8260
 142   2.0000      -0.873928       -23.7808
 143   2.0000      -0.871272       -23.7085
 144   2.0000      -0.866090       -23.5675
 145   2.0000      -0.862070       -23.4581
 146   2.0000      -0.859441       -23.3866
 147   2.0000      -0.823855       -22.4182
 148   2.0000      -0.815350       -22.1868
 149   2.0000      -0.805141       -21.9090
 150   2.0000      -0.801585       -21.8122
 151   2.0000      -0.798680       -21.7332
 152   2.0000      -0.796715       -21.6797
 153   2.0000      -0.792990       -21.5784
 154   2.0000      -0.783102       -21.3093
 155   2.0000      -0.780174       -21.2296
 156   2.0000      -0.769145       -20.9295
 157   2.0000      -0.751873       -20.4595
 158   2.0000      -0.746536       -20.3143
 159   2.0000      -0.741061       -20.1653
 160   2.0000      -0.731852       -19.9147
 161   2.0000      -0.709979       -19.3195
 162   2.0000      -0.709465       -19.3055
 163   2.0000      -0.702533       -19.1169
 164   2.0000      -0.698461       -19.0061
 165   2.0000      -0.692371       -18.8404
 166   2.0000      -0.691121       -18.8064
 167   2.0000      -0.686997       -18.6941
 168   2.0000      -0.683383       -18.5958
 169   2.0000      -0.678859       -18.4727
 170   2.0000      -0.672305       -18.2943
 171   2.0000      -0.670966       -18.2579
 172   2.0000      -0.666718       -18.1423
 173   2.0000      -0.663843       -18.0641
 174   2.0000      -0.644328       -17.5331
 175   2.0000      -0.641636       -17.4598
 176   2.0000      -0.635925       -17.3044
 177   2.0000      -0.635884       -17.3033
 178   2.0000      -0.625837       -17.0299
 179   2.0000      -0.624289       -16.9878
 180   2.0000      -0.620320       -16.8798
 181   2.0000      -0.612816       -16.6756
 182   2.0000      -0.609994       -16.5988
 183   2.0000      -0.606002       -16.4902
 184   2.0000      -0.605578       -16.4786
 185   2.0000      -0.599690       -16.3184
 186   2.0000      -0.597223       -16.2513
 187   2.0000      -0.583610       -15.8808
 188   2.0000      -0.582170       -15.8417
 189   2.0000      -0.579457       -15.7678
 190   2.0000      -0.570726       -15.5302
 191   2.0000      -0.569143       -15.4872
 192   2.0000      -0.562083       -15.2951
 193   2.0000      -0.558511       -15.1979
 194   2.0000      -0.555161       -15.1067
 195   2.0000      -0.554417       -15.0864
 196   2.0000      -0.549620       -14.9559
 197   2.0000      -0.548876       -14.9357
 198   2.0000      -0.545372       -14.8403
 199   2.0000      -0.544481       -14.8161
 200   2.0000      -0.536702       -14.6044
 201   2.0000      -0.535373       -14.5682
 202   2.0000      -0.534044       -14.5321
 203   2.0000      -0.528892       -14.3919
 204   2.0000      -0.527804       -14.3623
 205   2.0000      -0.525505       -14.2997
 206   2.0000      -0.521280       -14.1847
 207   2.0000      -0.519708       -14.1420
 208   2.0000      -0.518949       -14.1213
 209   2.0000      -0.517567       -14.0837
 210   2.0000      -0.516157       -14.0454
 211   2.0000      -0.514726       -14.0064
 212   2.0000      -0.512516       -13.9463
 213   2.0000      -0.510373       -13.8880
 214   2.0000      -0.509016       -13.8510
 215   2.0000      -0.507469       -13.8089
 216   2.0000      -0.505845       -13.7647
 217   2.0000      -0.503587       -13.7033
 218   2.0000      -0.501334       -13.6420
 219   2.0000      -0.499212       -13.5843
 220   2.0000      -0.497800       -13.5458
 221   2.0000      -0.496835       -13.5196
 222   2.0000      -0.492145       -13.3919
 223   2.0000      -0.490568       -13.3490
 224   2.0000      -0.488491       -13.2925
 225   2.0000      -0.483376       -13.1533
 226   2.0000      -0.482579       -13.1316
 227   2.0000      -0.481051       -13.0901
 228   2.0000      -0.478641       -13.0245
 229   2.0000      -0.474333       -12.9073
 230   2.0000      -0.467879       -12.7316
 231   2.0000      -0.465686       -12.6720
 232   2.0000      -0.464716       -12.6456
 233   2.0000      -0.464139       -12.6299
 234   2.0000      -0.462136       -12.5753
 235   2.0000      -0.461798       -12.5662
 236   2.0000      -0.460929       -12.5425
 237   2.0000      -0.460249       -12.5240
 238   2.0000      -0.457464       -12.4482
 239   2.0000      -0.456872       -12.4321
 240   2.0000      -0.455714       -12.4006
 241   2.0000      -0.453967       -12.3531
 242   2.0000      -0.451704       -12.2915
 243   2.0000      -0.449544       -12.2327
 244   2.0000      -0.448434       -12.2025
 245   2.0000      -0.445953       -12.1350
 246   2.0000      -0.444420       -12.0933
 247   2.0000      -0.444359       -12.0916
 248   2.0000      -0.443050       -12.0560
 249   2.0000      -0.442349       -12.0369
 250   2.0000      -0.441449       -12.0124
 251   2.0000      -0.440968       -11.9994
 252   2.0000      -0.436897       -11.8886
 253   2.0000      -0.434718       -11.8293
 254   2.0000      -0.433085       -11.7849
 255   2.0000      -0.431235       -11.7345
 256   2.0000      -0.429416       -11.6850
 257   2.0000      -0.428960       -11.6726
 258   2.0000      -0.428311       -11.6549
 259   2.0000      -0.427132       -11.6229
 260   2.0000      -0.424518       -11.5517
 261   2.0000      -0.420965       -11.4550
 262   2.0000      -0.413748       -11.2587
 263   2.0000      -0.412925       -11.2363
 264   2.0000      -0.412104       -11.2139
 265   2.0000      -0.410354       -11.1663
 266   2.0000      -0.409956       -11.1555
 267   2.0000      -0.396020       -10.7762
 268   2.0000      -0.386544       -10.5184
 269   2.0000      -0.382071       -10.3967
 270   2.0000      -0.374881       -10.2010
 271   2.0000      -0.368857       -10.0371
 272   2.0000      -0.363386        -9.8882
 273   2.0000      -0.357177        -9.7193
 274   2.0000      -0.356257        -9.6942
 275   2.0000      -0.353677        -9.6240
 276   2.0000      -0.347762        -9.4631
 277   2.0000      -0.347290        -9.4502
 278   2.0000      -0.342898        -9.3307
 279   2.0000      -0.340185        -9.2569
 280   2.0000      -0.335058        -9.1174
 281   2.0000      -0.330477        -8.9927
 282   2.0000      -0.328646        -8.9429
 283   2.0000      -0.325923        -8.8688
 284   2.0000      -0.317814        -8.6482
 285   2.0000      -0.309908        -8.4330
 286   2.0000      -0.302439        -8.2298
 287   2.0000      -0.279615        -7.6087
 288   2.0000      -0.245801        -6.6886
 289   0.0000      -0.129419        -3.5217
 290   0.0000      -0.112814        -3.0698
 291   0.0000      -0.099606        -2.7104
 292   0.0000      -0.095894        -2.6094
 293   0.0000      -0.087907        -2.3921

MULLIKEN ATOMIC CHARGES
-----------------------
   0 C :    0.036085
   1 C :   -0.138311
   2 S :    0.154755
   3 C :   -0.313348
   4 C :    0.113723
   5 C :    0.052078
   6 C :    0.171441
   7 O :   -0.197797
   8 C :   -0.104219
   9 C :    0.308297
  10 C :   -0.340200
  11 C :   -0.192144
  12 N :    0.150696
  13 C :   -0.188230
  14 N :    0.154196
  15 C :   -0.031180
  16 C :   -0.055470
  17 C :   -0.056857
  18 C :    0.047068
  19 C :   -0.072236
  20 S :    0.248873
  21 C :   -0.091265
  22 C :    0.035065
  23 C :    0.302193
  24 C :   -0.295476
  25 C :   -0.196022
  26 N :    0.188628
  27 C :   -0.189904
  28 N :    0.168284
  29 C :   -0.084038
  30 C :   -0.068052
  31 S :    0.250399
  32 C :   -0.118835
  33 C :    0.017358
  34 C :    0.040158
  35 N :    0.064237
  36 C :   -0.113064
  37 C :    0.137665
  38 O :   -0.093180
  39 C :   -0.007746
  40 C :   -0.020944
  41 C :    0.140505
  42 O :   -0.105572
  43 C :   -0.109718
  44 N :    0.029529
  45 C :   -0.123252
  46 S :    0.225813
  47 C :   -0.089485
  48 C :   -0.055089
  49 C :    0.033000
  50 C :   -0.097593
  51 S :    0.191627
  52 C :   -0.072887
  53 C :   -0.002346
  54 C :    0.304547
  55 C :   -0.283090
  56 C :   -0.193649
  57 N :    0.196152
  58 C :   -0.184519
  59 N :    0.173831
  60 C :   -0.003234
  61 C :   -0.104457
  62 S :    0.213294
  63 C :    0.073759
  64 C :   -0.145357
  65 C :    0.130117
  66 O :   -0.151514
  67 C :    0.062153
  68 C :   -0.311097
  69 S :    0.153734
  70 C :   -0.135370
  71 C :    0.022600
  72 C :    0.268155
  73 C :   -0.321565
  74 C :   -0.174719
  75 N :    0.160105
  76 C :   -0.199577
  77 N :    0.164704
  78 C :    0.111792
  79 H :    0.050050
  80 H :    0.038735
  81 H :    0.039654
  82 H :    0.048907
  83 H :    0.015773
  84 H :    0.027600
  85 H :    0.009527
  86 H :    0.024187
  87 H :    0.021160
  88 H :    0.030801
  89 H :    0.026506
  90 H :    0.023353
  91 H :    0.051625
  92 H :    0.048327
  93 H :    0.040201
  94 H :    0.039580
Sum of atomic charges:   -0.0000000

LOEWDIN ATOMIC CHARGES
----------------------
   0 C :   -0.061649
   1 C :   -0.148673
   2 S :    0.465872
   3 C :   -0.127906
   4 C :   -0.058221
   5 C :   -0.104443
   6 C :    0.087344
   7 O :   -0.178962
   8 C :   -0.105569
   9 C :    0.076797
  10 C :   -0.144019
  11 C :   -0.014595
  12 N :   -0.056335
  13 C :   -0.025165
  14 N :   -0.048857
  15 C :    0.053664
  16 C :   -0.183183
  17 C :    0.011075
  18 C :   -0.076986
  19 C :   -0.166965
  20 S :    0.551475
  21 C :   -0.186807
  22 C :   -0.057472
  23 C :    0.078227
  24 C :   -0.102398
  25 C :   -0.021040
  26 N :   -0.023129
  27 C :   -0.015325
  28 N :   -0.035646
  29 C :   -0.031637
  30 C :   -0.173985
  31 S :    0.535747
  32 C :   -0.192659
  33 C :   -0.052405
  34 C :   -0.041526
  35 N :    0.010844
  36 C :   -0.036996
  37 C :    0.055152
  38 O :   -0.087639
  39 C :   -0.007478
  40 C :   -0.014742
  41 C :    0.056170
  42 O :   -0.101648
  43 C :   -0.035590
  44 N :   -0.011453
  45 C :   -0.188719
  46 S :    0.510443
  47 C :   -0.180449
  48 C :   -0.006071
  49 C :   -0.054472
  50 C :   -0.179495
  51 S :    0.469951
  52 C :   -0.162340
  53 C :   -0.062122
  54 C :    0.077242
  55 C :   -0.087742
  56 C :   -0.022593
  57 N :   -0.012439
  58 C :   -0.011599
  59 N :   -0.029207
  60 C :    0.009542
  61 C :   -0.178669
  62 S :    0.496542
  63 C :    0.039235
  64 C :   -0.086168
  65 C :    0.083797
  66 O :   -0.150314
  67 C :   -0.106433
  68 C :   -0.128587
  69 S :    0.466454
  70 C :   -0.150637
  71 C :   -0.060553
  72 C :    0.066041
  73 C :   -0.138461
  74 C :   -0.015014
  75 N :   -0.047757
  76 C :   -0.016542
  77 N :   -0.048026
  78 C :   -0.058035
  79 H :    0.035482
  80 H :    0.043610
  81 H :    0.043975
  82 H :    0.048001
  83 H :    0.053991
  84 H :    0.047996
  85 H :    0.037521
  86 H :    0.048166
  87 H :    0.046749
  88 H :    0.045260
  89 H :    0.043257
  90 H :    0.045780
  91 H :    0.036167
  92 H :    0.048455
  93 H :    0.043921
  94 H :    0.043598

  Mayer bond orders larger than 0.100000
B(  0-C ,  1-C ) :   1.5535 B(  0-C ,  5-C ) :   1.2019 B(  0-C ,  9-C ) :   0.9889
B(  1-C ,  2-S ) :   1.1554 B(  1-C , 79-H ) :   0.9555 B(  2-S ,  3-C ) :   1.1673
B(  3-C ,  4-C ) :   1.0876 B(  3-C ,  5-C ) :   1.5394 B(  4-C , 80-H ) :   0.9422
B(  4-C , 81-H ) :   0.9427 B(  4-C , 82-H ) :   0.9460 B(  5-C ,  6-C ) :   0.9920
B(  6-C ,  7-O ) :   2.0679 B(  6-C ,  8-C ) :   0.9899 B(  8-C ,  9-C ) :   1.0867
B(  8-C , 15-C ) :   1.5094 B(  9-C , 10-C ) :   1.6341 B( 10-C , 11-C ) :   1.1521
B( 10-C , 13-C ) :   1.1390 B( 11-C , 12-N ) :   2.9890 B( 13-C , 14-N ) :   2.9630
B( 15-C , 16-C ) :   1.2588 B( 15-C , 83-H ) :   0.9398 B( 16-C , 17-C ) :   1.3306
B( 16-C , 20-S ) :   1.0728 B( 17-C , 18-C ) :   1.3324 B( 17-C , 84-H ) :   1.0081
B( 18-C , 19-C ) :   1.3491 B( 18-C , 23-C ) :   0.9868 B( 19-C , 20-S ) :   1.1265
B( 19-C , 21-C ) :   1.2117 B( 21-C , 22-C ) :   1.3989 B( 21-C , 31-S ) :   1.0965
B( 22-C , 23-C ) :   0.9935 B( 22-C , 29-C ) :   1.3249 B( 23-C , 24-C ) :   1.7159
B( 24-C , 25-C ) :   1.1351 B( 24-C , 27-C ) :   1.1331 B( 25-C , 26-N ) :   2.9974
B( 27-C , 28-N ) :   2.9908 B( 29-C , 30-C ) :   1.3828 B( 29-C , 85-H ) :   0.9949
B( 30-C , 31-S ) :   1.1230 B( 30-C , 32-C ) :   1.2392 B( 32-C , 33-C ) :   1.3183
B( 32-C , 45-C ) :   0.1337 B( 32-C , 46-S ) :   1.1564 B( 33-C , 34-C ) :   1.1881
B( 33-C , 44-N ) :   1.4157 B( 34-C , 35-N ) :   1.4384 B( 34-C , 45-C ) :   1.3631
B( 35-N , 36-C ) :   1.7157 B( 36-C , 37-C ) :   0.8905 B( 36-C , 43-C ) :   1.0996
B( 37-C , 38-O ) :   2.2446 B( 37-C , 39-C ) :   1.0207 B( 39-C , 40-C ) :   1.6854
B( 39-C , 86-H ) :   0.9952 B( 40-C , 41-C ) :   1.0254 B( 40-C , 87-H ) :   0.9965
B( 41-C , 42-O ) :   2.2492 B( 41-C , 43-C ) :   0.8926 B( 43-C , 44-N ) :   1.6984
B( 45-C , 46-S ) :   1.1563 B( 45-C , 47-C ) :   1.1905 B( 47-C , 48-C ) :   1.4438
B( 47-C , 51-S ) :   1.0898 B( 48-C , 49-C ) :   1.2812 B( 48-C , 88-H ) :   0.9886
B( 49-C , 50-C ) :   1.4161 B( 49-C , 54-C ) :   0.9852 B( 50-C , 51-S ) :   1.1190
B( 50-C , 52-C ) :   1.2110 B( 52-C , 53-C ) :   1.4057 B( 52-C , 62-S ) :   1.1476
B( 53-C , 54-C ) :   1.0008 B( 53-C , 60-C ) :   1.3585 B( 54-C , 55-C ) :   1.7235
B( 55-C , 56-C ) :   1.1321 B( 55-C , 58-C ) :   1.1366 B( 56-C , 57-N ) :   3.0015
B( 58-C , 59-N ) :   2.9827 B( 60-C , 61-C ) :   1.3946 B( 60-C , 89-H ) :   0.9795
B( 61-C , 62-S ) :   1.0894 B( 61-C , 63-C ) :   1.1327 B( 63-C , 64-C ) :   1.6802
B( 63-C , 90-H ) :   0.9259 B( 64-C , 65-C ) :   0.9511 B( 64-C , 72-C ) :   1.0406
B( 65-C , 66-O ) :   2.2211 B( 65-C , 67-C ) :   0.9501 B( 67-C , 68-C ) :   1.5512
B( 67-C , 71-C ) :   1.2000 B( 68-C , 69-S ) :   1.1681 B( 68-C , 78-C ) :   1.0860
B( 69-S , 70-C ) :   1.1552 B( 70-C , 71-C ) :   1.5554 B( 70-C , 91-H ) :   0.9580
B( 71-C , 72-C ) :   1.0062 B( 72-C , 73-C ) :   1.6526 B( 73-C , 74-C ) :   1.1306
B( 73-C , 76-C ) :   1.1675 B( 74-C , 75-N ) :   3.0021 B( 76-C , 77-N ) :   2.9908
B( 78-C , 92-H ) :   0.9462 B( 78-C , 93-H ) :   0.9434 B( 78-C , 94-H ) :   0.9432

-----------------------------------------------------------------------------
         ABSORPTION SPECTRUM VIA TRANSITION ELECTRIC DIPOLE MOMENTS
-----------------------------------------------------------------------------
State   Energy  Wavelength   fosc         T2         TX        TY        TZ
        (cm-1)    (nm)                  (au**2)     (au)      (au)      (au)
-----------------------------------------------------------------------------
   0   10263.1    974.4   1.144839854  36.72344   1.96616  -1.49907   5.53267
   1   12969.7    771.0   0.021439104   0.54419   0.72901  -0.11096  -0.02071
   2   14637.2    683.2   0.077334764   1.73938  -0.58608   0.39824  -1.11234
   3   17465.6    572.6   0.108399622   2.04324   1.00063  -0.27554  -0.98288
   4   19280.2    518.7   0.030048530   0.51308  -0.59408   0.15093  -0.37064
   5   20045.1    498.9   0.886383101  14.55760  -0.94104   0.57996  -3.65181
   6   21027.5    475.6   0.298275979   4.66989  -0.52268   0.21767  -2.08550
   7   22442.1    445.6   0.164482970   2.41286   0.45802  -0.02182   1.48412
   8   24547.7    407.4   0.002921749   0.03918  -0.02455  -0.14790  -0.12925
   9   25060.4    399.0   0.045278347   0.59481   0.42599   0.09651  -0.63563
  10   25613.8    390.4   0.018220886   0.23419   0.31445   0.07087   0.36096
  11   25737.5    388.5   0.000774901   0.00991   0.08944   0.00115   0.04371
  12   26513.5    377.2   0.052427792   0.65098  -0.14997   0.49939  -0.61571
  13   26629.8    375.5   0.003182355   0.03934  -0.14441   0.00327  -0.13593
  14   27260.7    366.8   0.020670824   0.24963  -0.30476  -0.00458  -0.39589
  15   27743.4    360.4   0.116617150   1.38381   0.21910  -0.38653   1.08922
  16   28088.3    356.0   0.026945403   0.31582   0.21915  -0.08030  -0.51121
  17   28336.4    352.9   0.053414448   0.62057   0.19833   0.58827  -0.48495
  18   28425.6    351.8   0.013504662   0.15640  -0.29620   0.14815   0.21614
  19   28612.7    349.5   0.156880621   1.80504   1.27194  -0.43219   0.02074
  20   28734.7    348.0   0.005294450   0.06066   0.08997  -0.22611   0.03789
  21   28951.5    345.4   0.034305044   0.39009  -0.15999   0.49497  -0.34568
  22   29293.2    341.4   0.010608903   0.11923  -0.17245   0.25965  -0.14857
  23   29831.7    335.2   0.254373021   2.80717   0.79814  -0.30231  -1.44179
  24   30411.3    328.8   0.258574312   2.79915  -1.09773   0.84029  -0.94237
  25   30524.1    327.6   0.001197712   0.01292  -0.07543  -0.00181  -0.08499
  26   30638.1    326.4   0.108575408   1.16666   0.10426  -0.00955  -1.07504
  27   31021.2    322.4   0.196240286   2.08259   0.28241  -0.12227   1.40992
  28   31223.8    320.3   0.287614577   3.03250  -1.40130   0.71705  -0.74479
  29   31626.1    316.2   0.089392519   0.93053   0.34154   0.19961  -0.87979
  30   32196.1    310.6   0.094377975   0.96503  -0.46112  -0.12275   0.85868
  31   32368.3    308.9   0.160685018   1.63430   0.90276   0.59596  -0.68128
  32   32524.3    307.5   0.251050488   2.54114   0.95520  -0.55533  -1.14906
  33   32845.1    304.5   0.278896716   2.79543   1.37436  -0.50780  -0.80542
  34   33089.4    302.2   0.031648880   0.31488   0.33449   0.40720  -0.19283
  35   33482.7    298.7   0.018286272   0.17980   0.33258  -0.11652  -0.23581
  36   33559.3    298.0   0.141004490   1.38323   0.90882  -0.50141  -0.55305
  37   33773.0    296.1   0.009019580   0.08792   0.16406   0.11152   0.22038
  38   33923.3    294.8   0.147820830   1.43454  -0.56263   0.43416  -0.96410
  39   34224.1    292.2   0.015352325   0.14768   0.04740   0.00114  -0.38135
  40   34367.0    291.0   0.009234876   0.08846   0.02110  -0.04120  -0.29380
  41   34530.9    289.6   0.007883883   0.07516  -0.19891   0.15762  -0.10371
  42   34642.5    288.7   0.016526865   0.15706  -0.05139  -0.24039   0.31085
  43   34826.8    287.1   0.033499962   0.31667   0.48961   0.00751  -0.27731
  44   34970.8    286.0   0.060137091   0.56613  -0.20179  -0.03785  -0.72386
  45   35043.8    285.4   0.019473765   0.18294   0.40114  -0.14832  -0.00530
  46   35226.0    283.9   0.051318899   0.47961  -0.63637   0.08673   0.25908
  47   35529.8    281.5   0.526141835   4.87513  -1.84226   0.63605   1.03761
  48   35653.5    280.5   0.066143476   0.61075  -0.35012  -0.54642   0.43541
  49   35729.0    279.9   0.033844450   0.31185  -0.29421   0.36855   0.29910
  50   36094.2    277.1   0.099071761   0.90363   0.90692  -0.26495  -0.10446
  51   36218.4    276.1   0.059928970   0.54473   0.40724   0.00882  -0.61548
  52   36326.8    275.3   0.035826258   0.32468  -0.04775   0.21116   0.52707
  53   36448.9    274.4   0.005843087   0.05278   0.19379  -0.11810  -0.03570
  54   36501.3    274.0   0.203846480   1.83853  -1.24010   0.32506   0.44160
  55   36725.3    272.3   0.075402565   0.67592   0.49053  -0.33617  -0.56771
  56   36772.6    271.9   0.166348682   1.48926  -0.98728   0.71232   0.08448
  57   36932.5    270.8   0.006967473   0.06211   0.21018   0.01965  -0.13245
  58   36999.6    270.3   0.011675112   0.10388  -0.18128   0.17437   0.20152
  59   37297.6    268.1   0.059738582   0.52729  -0.27180  -0.52700   0.41915
  60   37403.9    267.4   0.008895725   0.07830   0.07651  -0.00755   0.26904
  61   37489.0    266.7   0.045928161   0.40332  -0.33875  -0.00332   0.53717
  62   37561.8    266.2   0.012150856   0.10650   0.21528   0.19276  -0.15163
  63   37720.7    265.1   0.022762991   0.19867   0.23313  -0.18142   0.33377
  64   38043.6    262.9   0.017829935   0.15429   0.08911  -0.29403   0.24474
  65   38249.8    261.4   0.375267332   3.22988   1.00729  -1.34485   0.63768
  66   38354.8    260.7   0.440957747   3.78489   1.13910   0.50017  -1.49572
  67   38664.4    258.6   0.042386077   0.36090  -0.37474   0.42596   0.19755
  68   38714.1    258.3   0.015196944   0.12923  -0.04245   0.31593  -0.16619
  69   38763.1    258.0   0.020662037   0.17548   0.21828  -0.33396  -0.12769
  70   38815.0    257.6   0.048198239   0.40880   0.29012  -0.55855   0.11245
  71   38875.6    257.2   0.000964036   0.00816  -0.00214   0.07928  -0.04328
  72   38960.1    256.7   0.047196449   0.39881  -0.05239  -0.36147   0.51517
  73   39206.2    255.1   0.017862454   0.14999   0.15153   0.24801  -0.25597
  74   39322.8    254.3   0.003823379   0.03201  -0.00550  -0.00254  -0.17881
  75   39592.3    252.6   0.000457040   0.00380  -0.00236  -0.05930   0.01669
  76   39618.9    252.4   0.014931438   0.12407  -0.31268   0.16216  -0.00216
  77   39788.6    251.3   0.030341348   0.25105  -0.13647   0.48123   0.02891
  78   39909.1    250.6   0.028750522   0.23716  -0.36177   0.27809   0.17015
  79   40024.9    249.8   0.103201030   0.84885   0.71222  -0.23841   0.53362
  80   40285.7    248.2   0.040993480   0.33500  -0.08721   0.11346  -0.56082

FINAL SINGLE POINT ENERGY     -5850.608693191184

DIPOLE MOMENT
-------------
                                X             Y             Z
Electronic contribution:     -6.32234      14.27558      -2.62288
Nuclear contribution   :      7.78123     -17.37466       2.64916
                        -----------------------------------------
Total Dipole Moment    :      1.45889      -3.09908       0.02628
                        -----------------------------------------
Magnitude (a.u.)       :      3.42540
Magnitude (Debye)      :      8.70668

Rotational constants in cm-1:     0.001902     0.000181     0.000169
Rotational constants in MHz :    57.023712     5.430660     5.057118

                             ****ORCA TERMINATED NORMALLY****
TOTAL RUN TIME: 0 days 0 hours 12 minutes 26 seconds 988 msec
