                         Program Version 4.2.0 -  RELEASE  -
|  1> # ORCA input file
|  2> # SCF done       -193.404459988123          0.000236617216
|  3> ! CAM-B3LYP def2-SVP def2/J RIJCOSX Grid4 TightSCF
|  4> %maxcore 5000
|  5> %tddft
|  6>     Mode sTDDFT
|  7>     Ethresh 5.0
|  8>     maxcore 5000
|  9> end
| 10>
| 11> %pal
| 12>   nprocs 6
| 13>   end
| 14> * xyz 0 1
| 15>    C        0.46273         0.09416         4.06315
| 16>    O       -0.19650         0.50627         3.13159
| 17>    N        0.10152         0.36497         5.37074
| 18>    C       -1.09003         1.16332         5.61254
| 19>    C        0.77549        -0.05597         6.49646
| 20>    O        0.39168         0.22621         7.60547
| 21>    N        1.91336        -0.81884         6.28428
| 22>    C        2.64726        -1.28569         7.44915
| 23>    C        2.41167        -1.17447         5.05414
| 24>    O        3.42933        -1.85383         4.99346
| 25>    C        1.68080        -0.70981         3.89352
| 26>    C        2.05279        -0.96685         2.59731
| 27>    C        3.13379        -1.66536         2.04124
| 28>    C        3.30759        -1.76546         0.65390
| 29>    C        4.44064        -2.47593         0.31357
| 30>    C        5.14759        -2.93415         1.45510
| 31>    S        4.41444        -2.48707         2.92727
| 32>    C        6.29477        -3.63096         1.00989
| 33>    C        6.31707        -3.61253        -0.40313
| 34>    C        5.15065        -2.89259        -0.88515
| 35>    C        4.80386        -2.65873        -2.18324
| 36>    C        5.58760        -3.11660        -3.26385
| 37>    N        6.22073        -3.48470        -4.14606
| 38>    C        3.63826        -1.94370        -2.53143
| 39>    N        2.69255        -1.36290        -2.81890
| 40>    C        7.42358        -4.25696        -0.93389
| 41>    C        8.25008        -4.77178         0.06018
| 42>    S        7.63494        -4.45745         1.67569
| 43>    C        9.47573        -5.45863        -0.13078
| 44>    C       10.22070        -5.94618         0.96787
| 45>    C       11.48774        -6.60990         0.80564
| 46>    N       12.14558        -7.04908         1.88401
| 47>    C       11.63762        -6.87376         3.07965
| 48>    C       10.37855        -6.20921         3.24134
| 49>    N        9.71977        -5.77265         2.19544
| 50>    C        9.83170        -6.01747         4.53460
| 51>    N        9.41643        -5.87718         5.59242
| 52>    C       12.34925        -7.34961         4.20898
| 53>    N       12.90351        -7.72465         5.13811
| 54>    C       12.08185        -6.81005        -0.46122
| 55>    C       11.32761        -6.34734        -1.56528
| 56>    C       10.05004        -5.68925        -1.40365
| 57>    N        9.53090        -5.34175        -2.58216
| 58>    S       10.52091        -5.78726        -3.75924
| 59>    N       11.66603        -6.44269        -2.85182
| 60>    C       13.35744        -7.41700        -0.58394
| 61>    C       14.07373        -7.61468        -1.76050
| 62>    C       15.30425        -8.20754        -1.52431
| 63>    C       15.52792        -8.47562        -0.15587
| 64>    S       14.22184        -7.98429         0.83480
| 65>    C       16.80416        -9.06601        -0.02377
| 66>    C       17.39821        -9.16269        -1.30610
| 67>    C       16.46457        -8.63937        -2.28953
| 68>    C       16.62330        -8.57280        -3.64173
| 69>    C       17.77088        -9.05322        -4.31063
| 70>    N       18.67826        -9.44968        -4.88746
| 71>    C       15.62823        -8.02733        -4.48221
| 72>    N       14.82612        -7.58249        -5.17019
| 73>    C       18.67855        -9.69490        -1.27650
| 74>    C       19.08083       -10.02698         0.01226
| 75>    S       17.81756        -9.66324         1.20071
| 76>    C       20.25055       -10.61259         0.53555
| 77>    C       21.47300       -10.92820         0.00537
| 78>    C       21.95105       -10.60266        -1.33747
| 79>    O       21.33171        -9.95963        -2.16150
| 80>    N       23.21923       -11.05505        -1.65578
| 81>    C       24.07513       -11.75007        -0.82492
| 82>    O       25.16705       -12.11699        -1.18939
| 83>    N       23.60955       -11.99374         0.45214
| 84>    C       22.37654       -11.62104         0.94338
| 85>    O       22.07494       -11.87890         2.09101
| 86>    C       24.48500       -12.70191         1.37247
| 87>    C       23.68824       -10.73856        -2.99617
| 88>    H       -1.51932         1.41681         4.64655
| 89>    H       -0.82232         2.06668         6.15935
| 90>    H       -1.80090         0.59148         6.20767
| 91>    H        2.13004        -0.93270         8.33720
| 92>    H        3.66444        -0.89588         7.42028
| 93>    H        2.69093        -2.37441         7.44001
| 94>    H        1.37771        -0.53527         1.86192
| 95>    H        2.61892        -1.32202        -0.04318
| 96>    H        7.65421        -4.36383        -1.97780
| 97>    H       13.68448        -7.32210        -2.71818
| 98>    H       19.31768        -9.83369        -2.12938
| 99>    H       20.17289       -10.88283         1.58741
|100>    H       25.40348       -12.94675         0.84635
|101>    H       23.98939       -13.60814         1.71915
|102>    H       24.69566       -12.06900         2.23409
|103>    H       22.98322       -11.13064        -3.72834
|104>    H       24.66794       -11.18889        -3.12834
|105>    H       23.74706        -9.65697        -3.11661
|106> *
|107>
|108>                          ****END OF INPUT****

CARTESIAN COORDINATES (ANGSTROEM)
---------------------------------
  C      0.462730    0.094160    4.063150
  O     -0.196500    0.506270    3.131590
  N      0.101520    0.364970    5.370740
  C     -1.090030    1.163320    5.612540
  C      0.775490   -0.055970    6.496460
  O      0.391680    0.226210    7.605470
  N      1.913360   -0.818840    6.284280
  C      2.647260   -1.285690    7.449150
  C      2.411670   -1.174470    5.054140
  O      3.429330   -1.853830    4.993460
  C      1.680800   -0.709810    3.893520
  C      2.052790   -0.966850    2.597310
  C      3.133790   -1.665360    2.041240
  C      3.307590   -1.765460    0.653900
  C      4.440640   -2.475930    0.313570
  C      5.147590   -2.934150    1.455100
  S      4.414440   -2.487070    2.927270
  C      6.294770   -3.630960    1.009890
  C      6.317070   -3.612530   -0.403130
  C      5.150650   -2.892590   -0.885150
  C      4.803860   -2.658730   -2.183240
  C      5.587600   -3.116600   -3.263850
  N      6.220730   -3.484700   -4.146060
  C      3.638260   -1.943700   -2.531430
  N      2.692550   -1.362900   -2.818900
  C      7.423580   -4.256960   -0.933890
  C      8.250080   -4.771780    0.060180
  S      7.634940   -4.457450    1.675690
  C      9.475730   -5.458630   -0.130780
  C     10.220700   -5.946180    0.967870
  C     11.487740   -6.609900    0.805640
  N     12.145580   -7.049080    1.884010
  C     11.637620   -6.873760    3.079650
  C     10.378550   -6.209210    3.241340
  N      9.719770   -5.772650    2.195440
  C      9.831700   -6.017470    4.534600
  N      9.416430   -5.877180    5.592420
  C     12.349250   -7.349610    4.208980
  N     12.903510   -7.724650    5.138110
  C     12.081850   -6.810050   -0.461220
  C     11.327610   -6.347340   -1.565280
  C     10.050040   -5.689250   -1.403650
  N      9.530900   -5.341750   -2.582160
  S     10.520910   -5.787260   -3.759240
  N     11.666030   -6.442690   -2.851820
  C     13.357440   -7.417000   -0.583940
  C     14.073730   -7.614680   -1.760500
  C     15.304250   -8.207540   -1.524310
  C     15.527920   -8.475620   -0.155870
  S     14.221840   -7.984290    0.834800
  C     16.804160   -9.066010   -0.023770
  C     17.398210   -9.162690   -1.306100
  C     16.464570   -8.639370   -2.289530
  C     16.623300   -8.572800   -3.641730
  C     17.770880   -9.053220   -4.310630
  N     18.678260   -9.449680   -4.887460
  C     15.628230   -8.027330   -4.482210
  N     14.826120   -7.582490   -5.170190
  C     18.678550   -9.694900   -1.276500
  C     19.080830  -10.026980    0.012260
  S     17.817560   -9.663240    1.200710
  C     20.250550  -10.612590    0.535550
  C     21.473000  -10.928200    0.005370
  C     21.951050  -10.602660   -1.337470
  O     21.331710   -9.959630   -2.161500
  N     23.219230  -11.055050   -1.655780
  C     24.075130  -11.750070   -0.824920
  O     25.167050  -12.116990   -1.189390
  N     23.609550  -11.993740    0.452140
  C     22.376540  -11.621040    0.943380
  O     22.074940  -11.878900    2.091010
  C     24.485000  -12.701910    1.372470
  C     23.688240  -10.738560   -2.996170
  H     -1.519320    1.416810    4.646550
  H     -0.822320    2.066680    6.159350
  H     -1.800900    0.591480    6.207670
  H      2.130040   -0.932700    8.337200
  H      3.664440   -0.895880    7.420280
  H      2.690930   -2.374410    7.440010
  H      1.377710   -0.535270    1.861920
  H      2.618920   -1.322020   -0.043180
  H      7.654210   -4.363830   -1.977800
  H     13.684480   -7.322100   -2.718180
  H     19.317680   -9.833690   -2.129380
  H     20.172890  -10.882830    1.587410
  H     25.403480  -12.946750    0.846350
  H     23.989390  -13.608140    1.719150
  H     24.695660  -12.069000    2.234090
  H     22.983220  -11.130640   -3.728340
  H     24.667940  -11.188890   -3.128340
  H     23.747060   -9.656970   -3.116610

 Total Charge           Charge          ....    0
 Multiplicity           Mult            ....    1
 Number of Electrons    NEL             ....  532
 Basis Dimension        Dim             .... 1132

ORBITAL ENERGIES
----------------

  NO   OCC          E(Eh)            E(eV)
   0   2.0000     -89.064451     -2423.5669
   1   2.0000     -88.998549     -2421.7736
   2   2.0000     -88.996842     -2421.7272
   3   2.0000     -88.996063     -2421.7060
   4   2.0000     -88.994184     -2421.6548
   5   2.0000     -19.215932      -522.8921
   6   2.0000     -19.205349      -522.6041
   7   2.0000     -19.204577      -522.5831
   8   2.0000     -19.202439      -522.5249
   9   2.0000     -19.200177      -522.4634
  10   2.0000     -19.199734      -522.4513
  11   2.0000     -14.489147      -394.2697
  12   2.0000     -14.488872      -394.2622
  13   2.0000     -14.472290      -393.8110
  14   2.0000     -14.472162      -393.8076
  15   2.0000     -14.472044      -393.8043
  16   2.0000     -14.469051      -393.7229
  17   2.0000     -14.465581      -393.6285
  18   2.0000     -14.465403      -393.6236
  19   2.0000     -14.449530      -393.1917
  20   2.0000     -14.448879      -393.1740
  21   2.0000     -14.435509      -392.8102
  22   2.0000     -14.435247      -392.8030
  23   2.0000     -14.434938      -392.7946
  24   2.0000     -14.431657      -392.7053
  25   2.0000     -10.423625      -283.6413
  26   2.0000     -10.420679      -283.5611
  27   2.0000     -10.406803      -283.1835
  28   2.0000     -10.406402      -283.1726
  29   2.0000     -10.402574      -283.0684
  30   2.0000     -10.396056      -282.8911
  31   2.0000     -10.395782      -282.8836
  32   2.0000     -10.391065      -282.7553
  33   2.0000     -10.370801      -282.2039
  34   2.0000     -10.370188      -282.1872
  35   2.0000     -10.369935      -282.1803
  36   2.0000     -10.369582      -282.1707
  37   2.0000     -10.364943      -282.0444
  38   2.0000     -10.364699      -282.0378
  39   2.0000     -10.358178      -281.8603
  40   2.0000     -10.357367      -281.8383
  41   2.0000     -10.347950      -281.5820
  42   2.0000     -10.342742      -281.4403
  43   2.0000     -10.342489      -281.4334
  44   2.0000     -10.342304      -281.4284
  45   2.0000     -10.341809      -281.4149
  46   2.0000     -10.339028      -281.3392
  47   2.0000     -10.338586      -281.3272
  48   2.0000     -10.336447      -281.2690
  49   2.0000     -10.335984      -281.2564
  50   2.0000     -10.335672      -281.2479
  51   2.0000     -10.335639      -281.2470
  52   2.0000     -10.335637      -281.2470
  53   2.0000     -10.335105      -281.2325
  54   2.0000     -10.331710      -281.1401
  55   2.0000     -10.330839      -281.1164
  56   2.0000     -10.330808      -281.1156
  57   2.0000     -10.329274      -281.0738
  58   2.0000     -10.326507      -280.9985
  59   2.0000     -10.317333      -280.7489
  60   2.0000     -10.312988      -280.6307
  61   2.0000     -10.312869      -280.6274
  62   2.0000     -10.312192      -280.6090
  63   2.0000     -10.311127      -280.5800
  64   2.0000     -10.309456      -280.5346
  65   2.0000     -10.309326      -280.5310
  66   2.0000     -10.308033      -280.4958
  67   2.0000     -10.302952      -280.3576
  68   2.0000     -10.300346      -280.2867
  69   2.0000     -10.300003      -280.2773
  70   2.0000     -10.299444      -280.2621
  71   2.0000     -10.296965      -280.1947
  72   2.0000     -10.295194      -280.1465
  73   2.0000      -8.155438      -221.9207
  74   2.0000      -8.093455      -220.2341
  75   2.0000      -8.089519      -220.1270
  76   2.0000      -8.088737      -220.1057
  77   2.0000      -8.086050      -220.0326
  78   2.0000      -6.126494      -166.7104
  79   2.0000      -6.118518      -166.4933
  80   2.0000      -6.118417      -166.4906
  81   2.0000      -6.062477      -164.9684
  82   2.0000      -6.059061      -164.8754
  83   2.0000      -6.058380      -164.8569
  84   2.0000      -6.058231      -164.8529
  85   2.0000      -6.056075      -164.7942
  86   2.0000      -6.055402      -164.7759
  87   2.0000      -6.054274      -164.7452
  88   2.0000      -6.053462      -164.7231
  89   2.0000      -6.051935      -164.6815
  90   2.0000      -6.051232      -164.6624
  91   2.0000      -6.050630      -164.6460
  92   2.0000      -6.048825      -164.5969
  93   2.0000      -1.179700       -32.1013
  94   2.0000      -1.174532       -31.9606
  95   2.0000      -1.162367       -31.6296
  96   2.0000      -1.149388       -31.2764
  97   2.0000      -1.148045       -31.2399
  98   2.0000      -1.142335       -31.0845
  99   2.0000      -1.139375       -31.0040
 100   2.0000      -1.136049       -30.9135
 101   2.0000      -1.076806       -29.3014
 102   2.0000      -1.052721       -28.6460
 103   2.0000      -1.052486       -28.6396
 104   2.0000      -1.050293       -28.5799
 105   2.0000      -1.046595       -28.4793
 106   2.0000      -1.034681       -28.1551
 107   2.0000      -1.028064       -27.9751
 108   2.0000      -1.027054       -27.9476
 109   2.0000      -1.026254       -27.9258
 110   2.0000      -1.024158       -27.8687
 111   2.0000      -1.021469       -27.7956
 112   2.0000      -1.017975       -27.7005
 113   2.0000      -1.013173       -27.5698
 114   2.0000      -1.011979       -27.5373
 115   2.0000      -1.010045       -27.4847
 116   2.0000      -1.001805       -27.2605
 117   2.0000      -0.992305       -27.0020
 118   2.0000      -0.967383       -26.3238
 119   2.0000      -0.962988       -26.2042
 120   2.0000      -0.934790       -25.4369
 121   2.0000      -0.932418       -25.3724
 122   2.0000      -0.929704       -25.2985
 123   2.0000      -0.920512       -25.0484
 124   2.0000      -0.906737       -24.6736
 125   2.0000      -0.895015       -24.3546
 126   2.0000      -0.876610       -23.8538
 127   2.0000      -0.875260       -23.8170
 128   2.0000      -0.864329       -23.5196
 129   2.0000      -0.862832       -23.4789
 130   2.0000      -0.857968       -23.3465
 131   2.0000      -0.846215       -23.0267
 132   2.0000      -0.843003       -22.9393
 133   2.0000      -0.826267       -22.4839
 134   2.0000      -0.820340       -22.3226
 135   2.0000      -0.806539       -21.9470
 136   2.0000      -0.799453       -21.7542
 137   2.0000      -0.796372       -21.6704
 138   2.0000      -0.789192       -21.4750
 139   2.0000      -0.785556       -21.3761
 140   2.0000      -0.782059       -21.2809
 141   2.0000      -0.768472       -20.9112
 142   2.0000      -0.761213       -20.7137
 143   2.0000      -0.749478       -20.3943
 144   2.0000      -0.733621       -19.9628
 145   2.0000      -0.726971       -19.7819
 146   2.0000      -0.725239       -19.7347
 147   2.0000      -0.724378       -19.7113
 148   2.0000      -0.720112       -19.5952
 149   2.0000      -0.709717       -19.3124
 150   2.0000      -0.706755       -19.2318
 151   2.0000      -0.697808       -18.9883
 152   2.0000      -0.693664       -18.8756
 153   2.0000      -0.686613       -18.6837
 154   2.0000      -0.684677       -18.6310
 155   2.0000      -0.675767       -18.3886
 156   2.0000      -0.672250       -18.2929
 157   2.0000      -0.665937       -18.1211
 158   2.0000      -0.649595       -17.6764
 159   2.0000      -0.646830       -17.6011
 160   2.0000      -0.639625       -17.4051
 161   2.0000      -0.638355       -17.3705
 162   2.0000      -0.634580       -17.2678
 163   2.0000      -0.631005       -17.1705
 164   2.0000      -0.624532       -16.9944
 165   2.0000      -0.620732       -16.8910
 166   2.0000      -0.611920       -16.6512
 167   2.0000      -0.604541       -16.4504
 168   2.0000      -0.601053       -16.3555
 169   2.0000      -0.600659       -16.3448
 170   2.0000      -0.595468       -16.2035
 171   2.0000      -0.589084       -16.0298
 172   2.0000      -0.580663       -15.8006
 173   2.0000      -0.578097       -15.7308
 174   2.0000      -0.570566       -15.5259
 175   2.0000      -0.566077       -15.4037
 176   2.0000      -0.556528       -15.1439
 177   2.0000      -0.555220       -15.1083
 178   2.0000      -0.553623       -15.0648
 179   2.0000      -0.552542       -15.0354
 180   2.0000      -0.548123       -14.9152
 181   2.0000      -0.546995       -14.8845
 182   2.0000      -0.544094       -14.8055
 183   2.0000      -0.544019       -14.8035
 184   2.0000      -0.539847       -14.6900
 185   2.0000      -0.535932       -14.5835
 186   2.0000      -0.535057       -14.5596
 187   2.0000      -0.531223       -14.4553
 188   2.0000      -0.528838       -14.3904
 189   2.0000      -0.525326       -14.2948
 190   2.0000      -0.522780       -14.2256
 191   2.0000      -0.520597       -14.1662
 192   2.0000      -0.519125       -14.1261
 193   2.0000      -0.513941       -13.9850
 194   2.0000      -0.512876       -13.9561
 195   2.0000      -0.510239       -13.8843
 196   2.0000      -0.509599       -13.8669
 197   2.0000      -0.508170       -13.8280
 198   2.0000      -0.503097       -13.6900
 199   2.0000      -0.502212       -13.6659
 200   2.0000      -0.500544       -13.6205
 201   2.0000      -0.499575       -13.5941
 202   2.0000      -0.497044       -13.5252
 203   2.0000      -0.495064       -13.4714
 204   2.0000      -0.489184       -13.3114
 205   2.0000      -0.487709       -13.2712
 206   2.0000      -0.486174       -13.2295
 207   2.0000      -0.481544       -13.1035
 208   2.0000      -0.480902       -13.0860
 209   2.0000      -0.476958       -12.9787
 210   2.0000      -0.476379       -12.9629
 211   2.0000      -0.476105       -12.9555
 212   2.0000      -0.474018       -12.8987
 213   2.0000      -0.473783       -12.8923
 214   2.0000      -0.472243       -12.8504
 215   2.0000      -0.471735       -12.8366
 216   2.0000      -0.470326       -12.7982
 217   2.0000      -0.469677       -12.7806
 218   2.0000      -0.467526       -12.7220
 219   2.0000      -0.466258       -12.6875
 220   2.0000      -0.466008       -12.6807
 221   2.0000      -0.464875       -12.6499
 222   2.0000      -0.464648       -12.6437
 223   2.0000      -0.462467       -12.5844
 224   2.0000      -0.461172       -12.5491
 225   2.0000      -0.460613       -12.5339
 226   2.0000      -0.456746       -12.4287
 227   2.0000      -0.450753       -12.2656
 228   2.0000      -0.446413       -12.1475
 229   2.0000      -0.445337       -12.1182
 230   2.0000      -0.444302       -12.0901
 231   2.0000      -0.443151       -12.0588
 232   2.0000      -0.442758       -12.0481
 233   2.0000      -0.442053       -12.0289
 234   2.0000      -0.437662       -11.9094
 235   2.0000      -0.435464       -11.8496
 236   2.0000      -0.430311       -11.7094
 237   2.0000      -0.427849       -11.6423
 238   2.0000      -0.426592       -11.6082
 239   2.0000      -0.421719       -11.4755
 240   2.0000      -0.419456       -11.4140
 241   2.0000      -0.406355       -11.0575
 242   2.0000      -0.401632       -10.9290
 243   2.0000      -0.399992       -10.8843
 244   2.0000      -0.396903       -10.8003
 245   2.0000      -0.382563       -10.4101
 246   2.0000      -0.377894       -10.2830
 247   2.0000      -0.373814       -10.1720
 248   2.0000      -0.372970       -10.1490
 249   2.0000      -0.370104       -10.0710
 250   2.0000      -0.369341       -10.0503
 251   2.0000      -0.368630       -10.0309
 252   2.0000      -0.362487        -9.8638
 253   2.0000      -0.356401        -9.6982
 254   2.0000      -0.355057        -9.6616
 255   2.0000      -0.352800        -9.6002
 256   2.0000      -0.351762        -9.5719
 257   2.0000      -0.346748        -9.4355
 258   2.0000      -0.343825        -9.3560
 259   2.0000      -0.339233        -9.2310
 260   2.0000      -0.334865        -9.1121
 261   2.0000      -0.328965        -8.9516
 262   2.0000      -0.326996        -8.8980
 263   2.0000      -0.318089        -8.6556
 264   2.0000      -0.288180        -7.8418
 265   2.0000      -0.254050        -6.9131
 266   0.0000      -0.150648        -4.0993
 267   0.0000      -0.112189        -3.0528
 268   0.0000      -0.107210        -2.9173
 269   0.0000      -0.077903        -2.1198
 270   0.0000      -0.076114        -2.0712

MULLIKEN ATOMIC CHARGES
-----------------------
   0 C :    0.195034
   1 O :   -0.206165
   2 N :   -0.285890
   3 C :    0.141223
   4 C :    0.228819
   5 O :   -0.215525
   6 N :   -0.284277
   7 C :    0.147676
   8 C :    0.222128
   9 O :   -0.259199
  10 C :   -0.164788
  11 C :    0.008064
  12 C :   -0.033344
  13 C :   -0.049924
  14 C :    0.039193
  15 C :   -0.075977
  16 S :    0.260121
  17 C :   -0.064197
  18 C :    0.041805
  19 C :    0.311890
  20 C :   -0.300592
  21 C :   -0.186242
  22 N :    0.170820
  23 C :   -0.194026
  24 N :    0.177094
  25 C :   -0.066223
  26 C :   -0.176609
  27 S :    0.215128
  28 C :    0.194455
  29 C :   -0.063407
  30 C :   -0.062027
  31 N :   -0.002310
  32 C :   -0.099639
  33 C :   -0.101640
  34 N :    0.000985
  35 C :   -0.238332
  36 N :    0.256575
  37 C :   -0.240208
  38 N :    0.257342
  39 C :    0.194468
  40 C :   -0.011482
  41 C :   -0.009369
  42 N :   -0.284442
  43 S :    0.597199
  44 N :   -0.283622
  45 C :   -0.171077
  46 C :   -0.068510
  47 C :    0.044884
  48 C :   -0.061578
  49 S :    0.211016
  50 C :   -0.090986
  51 C :   -0.004844
  52 C :    0.315718
  53 C :   -0.301221
  54 C :   -0.191450
  55 N :    0.194344
  56 C :   -0.189223
  57 N :    0.170150
  58 C :    0.002190
  59 C :   -0.096450
  60 S :    0.208254
  61 C :    0.070889
  62 C :   -0.148791
  63 C :    0.198753
  64 O :   -0.210580
  65 N :   -0.292443
  66 C :    0.233389
  67 O :   -0.216201
  68 N :   -0.284259
  69 C :    0.184390
  70 O :   -0.217700
  71 C :    0.143666
  72 C :    0.146769
  73 H :    0.058168
  74 H :    0.039276
  75 H :    0.039822
  76 H :    0.059765
  77 H :    0.036644
  78 H :    0.038842
  79 H :    0.039751
  80 H :    0.019286
  81 H :    0.024358
  82 H :    0.023522
  83 H :    0.040764
  84 H :    0.032328
  85 H :    0.057225
  86 H :    0.037595
  87 H :    0.037629
  88 H :    0.040930
  89 H :    0.057206
  90 H :    0.037233
Sum of atomic charges:   -0.0000000

LOEWDIN ATOMIC CHARGES
----------------------
   0 C :    0.085267
   1 O :   -0.190320
   2 N :   -0.038056
   3 C :    0.042843
   4 C :    0.098076
   5 O :   -0.188537
   6 N :   -0.034103
   7 C :    0.042541
   8 C :    0.089443
   9 O :   -0.219243
  10 C :   -0.154161
  11 C :    0.077342
  12 C :   -0.184319
  13 C :    0.009665
  14 C :   -0.073467
  15 C :   -0.173813
  16 S :    0.561871
  17 C :   -0.177345
  18 C :   -0.064930
  19 C :    0.078535
  20 C :   -0.103561
  21 C :   -0.016493
  22 N :   -0.033396
  23 C :   -0.018612
  24 N :   -0.030042
  25 C :   -0.007151
  26 C :   -0.163160
  27 S :    0.516110
  28 C :   -0.035020
  29 C :   -0.014166
  30 C :   -0.013897
  31 N :   -0.016195
  32 C :   -0.018960
  33 C :   -0.019659
  34 N :   -0.015090
  35 C :   -0.040134
  36 N :    0.006747
  37 C :   -0.040105
  38 N :    0.006196
  39 C :   -0.036555
  40 C :   -0.035993
  41 C :   -0.036165
  42 N :   -0.269954
  43 S :    0.714419
  44 N :   -0.269868
  45 C :   -0.162104
  46 C :   -0.007542
  47 C :   -0.062577
  48 C :   -0.182275
  49 S :    0.512490
  50 C :   -0.164645
  51 C :   -0.069572
  52 C :    0.075221
  53 C :   -0.094648
  54 C :   -0.022764
  55 N :   -0.016172
  56 C :   -0.014903
  57 N :   -0.032411
  58 C :    0.017872
  59 C :   -0.174920
  60 S :    0.497260
  61 C :    0.060553
  62 C :   -0.139699
  63 C :    0.088319
  64 O :   -0.177228
  65 N :   -0.038501
  66 C :    0.098642
  67 O :   -0.192116
  68 N :   -0.037570
  69 C :    0.083230
  70 O :   -0.192679
  71 C :    0.042430
  72 C :    0.042022
  73 H :    0.035156
  74 H :    0.031731
  75 H :    0.031875
  76 H :    0.036518
  77 H :    0.031590
  78 H :    0.032077
  79 H :    0.057560
  80 H :    0.045491
  81 H :    0.038916
  82 H :    0.038880
  83 H :    0.044616
  84 H :    0.046132
  85 H :    0.034950
  86 H :    0.031397
  87 H :    0.031465
  88 H :    0.033063
  89 H :    0.034847
  90 H :    0.031439

  Mayer bond orders larger than 0.100000
B(  0-C ,  1-O ) :   2.1204 B(  0-C ,  2-N ) :   1.0737 B(  0-C , 10-C ) :   0.9448
B(  2-N ,  3-C ) :   0.9326 B(  2-N ,  4-C ) :   1.0675 B(  3-C , 73-H ) :   0.9547
B(  3-C , 74-H ) :   0.9764 B(  3-C , 75-H ) :   0.9762 B(  4-C ,  5-O ) :   2.0913
B(  4-C ,  6-N ) :   1.0460 B(  6-N ,  7-C ) :   0.9336 B(  6-N ,  8-C ) :   1.1176
B(  7-C , 76-H ) :   0.9553 B(  7-C , 77-H ) :   0.9757 B(  7-C , 78-H ) :   0.9750
B(  8-C ,  9-O ) :   1.9623 B(  8-C , 10-C ) :   0.9990 B(  9-O , 16-S ) :   0.1043
B( 10-C , 11-C ) :   1.6160 B( 11-C , 12-C ) :   1.2034 B( 11-C , 79-H ) :   0.9485
B( 12-C , 13-C ) :   1.3285 B( 12-C , 16-S ) :   1.0812 B( 13-C , 14-C ) :   1.3386
B( 13-C , 80-H ) :   1.0081 B( 14-C , 15-C ) :   1.3480 B( 14-C , 19-C ) :   0.9826
B( 15-C , 16-S ) :   1.1212 B( 15-C , 17-C ) :   1.2103 B( 17-C , 18-C ) :   1.3916
B( 17-C , 27-S ) :   1.0911 B( 18-C , 19-C ) :   0.9933 B( 18-C , 25-C ) :   1.2811
B( 19-C , 20-C ) :   1.7120 B( 20-C , 21-C ) :   1.1377 B( 20-C , 23-C ) :   1.1348
B( 21-C , 22-N ) :   2.9839 B( 23-C , 24-N ) :   2.9939 B( 25-C , 26-C ) :   1.4015
B( 25-C , 81-H ) :   0.9829 B( 26-C , 27-S ) :   1.0921 B( 26-C , 28-C ) :   1.2120
B( 28-C , 29-C ) :   1.2503 B( 28-C , 39-C ) :   0.1239 B( 28-C , 41-C ) :   1.1972
B( 29-C , 30-C ) :   1.1089 B( 29-C , 34-N ) :   1.4072 B( 30-C , 31-N ) :   1.4032
B( 30-C , 39-C ) :   1.2532 B( 31-N , 32-C ) :   1.6952 B( 32-C , 33-C ) :   1.2191
B( 32-C , 37-C ) :   1.1652 B( 33-C , 34-N ) :   1.6963 B( 33-C , 35-C ) :   1.1663
B( 35-C , 36-N ) :   3.0391 B( 37-C , 38-N ) :   3.0407 B( 39-C , 40-C ) :   1.1962
B( 39-C , 45-C ) :   1.2089 B( 40-C , 41-C ) :   1.0968 B( 40-C , 44-N ) :   1.5144
B( 41-C , 42-N ) :   1.5135 B( 42-N , 43-S ) :   1.2882 B( 42-N , 44-N ) :   0.1462
B( 43-S , 44-N ) :   1.2880 B( 45-C , 46-C ) :   1.4021 B( 45-C , 49-S ) :   1.0932
B( 46-C , 47-C ) :   1.2838 B( 46-C , 82-H ) :   0.9824 B( 47-C , 48-C ) :   1.3969
B( 47-C , 52-C ) :   0.9873 B( 48-C , 49-S ) :   1.0818 B( 48-C , 50-C ) :   1.2092
B( 50-C , 51-C ) :   1.3764 B( 50-C , 60-S ) :   1.1625 B( 51-C , 52-C ) :   0.9933
B( 51-C , 58-C ) :   1.3068 B( 52-C , 53-C ) :   1.7156 B( 53-C , 54-C ) :   1.1334
B( 53-C , 56-C ) :   1.1414 B( 54-C , 55-N ) :   2.9971 B( 56-C , 57-N ) :   2.9817
B( 58-C , 59-C ) :   1.4051 B( 58-C , 83-H ) :   0.9732 B( 59-C , 60-S ) :   1.0821
B( 59-C , 61-C ) :   1.1444 B( 61-C , 62-C ) :   1.7111 B( 61-C , 84-H ) :   0.9171
B( 62-C , 63-C ) :   0.9557 B( 62-C , 69-C ) :   0.9439 B( 63-C , 64-O ) :   2.0542
B( 63-C , 65-N ) :   1.0853 B( 65-N , 66-C ) :   1.0586 B( 65-N , 72-C ) :   0.9349
B( 66-C , 67-O ) :   2.0838 B( 66-C , 68-N ) :   1.0585 B( 68-N , 69-C ) :   1.0828
B( 68-N , 71-C ) :   0.9368 B( 69-C , 70-O ) :   2.1052 B( 71-C , 85-H ) :   0.9561
B( 71-C , 86-H ) :   0.9755 B( 71-C , 87-H ) :   0.9759 B( 72-C , 88-H ) :   0.9742
B( 72-C , 89-H ) :   0.9554 B( 72-C , 90-H ) :   0.9761

-----------------------------------------------------------------------------
         ABSORPTION SPECTRUM VIA TRANSITION ELECTRIC DIPOLE MOMENTS
-----------------------------------------------------------------------------
State   Energy  Wavelength   fosc         T2         TX        TY        TZ
        (cm-1)    (nm)                  (au**2)     (au)      (au)      (au)
-----------------------------------------------------------------------------
   0    7563.9   1322.1   0.661146201  28.77577  -4.71157   2.43283   0.81131
   1   14452.0    691.9   0.009690104   0.22074  -0.41638   0.00971  -0.21742
   2   15035.3    665.1   0.065525185   1.43474  -1.00530   0.56659   0.32107
   3   16383.5    610.4   0.003412774   0.06858  -0.13133  -0.16469  -0.15558
   4   22298.4    448.5   0.287188427   4.24002   1.78124  -0.94701  -0.41279
   5   22563.4    443.2   0.004807005   0.07014  -0.00154   0.23995  -0.11206
   6   22926.2    436.2   1.068565547  15.34423   3.42928  -1.73612  -0.75511
   7   23262.0    429.9   0.026474664   0.37468  -0.09938  -0.07605   0.59918
   8   23337.1    428.5   0.225587552   3.18232   1.54424  -0.79873  -0.39959
   9   25130.1    397.9   0.009981959   0.13077   0.02938  -0.06818   0.35391
  10   25170.1    397.3   0.026324886   0.34432   0.08644   0.10897   0.57006
  11   25358.7    394.3   0.039149599   0.50825   0.54593  -0.30295  -0.34414
  12   26162.6    382.2   0.429289811   5.40189  -1.97327   0.99806   0.71553
  13   26455.9    378.0   0.183915761   2.28861  -0.87223   0.15112  -1.22678
  14   27610.7    362.2   0.002684137   0.03200   0.02156  -0.04438   0.17196
  15   28286.4    353.5   0.001919621   0.02234   0.04222  -0.10944  -0.09263
  16   28508.8    350.8   0.116397446   1.34413  -0.59605   0.34673   0.93200
  17   29115.2    343.5   0.097290010   1.10008   0.81029  -0.43013   0.50843
  18   30046.0    332.8   0.267967330   2.93610   0.30798  -0.12582   1.68090
  19   30478.9    328.1   0.000992650   0.01072   0.00927   0.01149   0.10249
  20   31020.4    322.4   0.364984690   3.87349  -0.17690   0.21462  -1.94837
  21   31404.5    318.4   0.011375802   0.11925   0.27219  -0.12978  -0.16829
  22   31822.1    314.2   0.156027643   1.61417   1.17419  -0.48509  -0.01180
  23   31918.2    313.3   0.043011959   0.44364  -0.12188   0.01491  -0.65464
  24   32190.0    310.7   0.205933997   2.10612   0.46805  -0.16719  -1.36349
  25   32344.9    309.2   0.152929379   1.55654   1.09800  -0.55356  -0.21095
  26   32423.9    308.4   0.701663796   7.12426   0.09062  -0.29442   2.65130
  27   32655.3    306.2   0.499047325   5.03111   0.24915  -0.31405   2.20690
  28   33300.2    300.3   0.180498100   1.78444   0.31410  -0.02254   1.29818
  29   33424.1    299.2   0.005474558   0.05392   0.08952  -0.09637  -0.19137
  30   33546.3    298.1   0.014877799   0.14601  -0.22418   0.03867   0.30701
  31   33930.3    294.7   0.118156225   1.14642   0.75270  -0.31417  -0.69366
  32   34186.0    292.5   0.034510547   0.33234   0.52559  -0.17217  -0.16262
  33   34239.7    292.1   0.068857650   0.66206  -0.21541   0.14547   0.77104
  34   34434.8    290.4   0.241150169   2.30550  -1.25483   0.80055   0.30003
  35   34549.6    289.4   0.014897215   0.14195   0.35201  -0.02333   0.13227
  36   34622.4    288.8   0.078286075   0.74439  -0.77126   0.38262   0.05617
  37   34778.3    287.5   0.124007017   1.17385  -0.93691   0.45341  -0.30079
  38   35141.1    284.6   0.001657479   0.01553   0.11358  -0.04940  -0.01370
  39   35271.5    283.5   0.024189849   0.22578  -0.24024   0.15081  -0.38121
  40   35468.6    281.9   0.009065151   0.08414  -0.13605   0.17927   0.18301
  41   35565.7    281.2   0.003807933   0.03525  -0.07030   0.01219  -0.17366
  42   35888.4    278.6   0.081568147   0.74824  -0.77358   0.35160   0.16184
  43   37120.2    269.4   0.103944050   0.92186  -0.15063   0.15682  -0.93519
  44   37214.3    268.7   0.000186991   0.00165   0.01960   0.01492   0.03236
  45   37468.8    266.9   0.052056536   0.45738  -0.00012  -0.02428   0.67587
  46   37678.2    265.4   0.019646276   0.17166   0.17997  -0.04314  -0.37069
  47   37884.4    264.0   0.003030615   0.02634   0.11524  -0.00353  -0.11420
  48   37945.6    263.5   0.087493461   0.75908   0.04154  -0.10352   0.86408
  49   38531.7    259.5   0.024765175   0.21159   0.20659  -0.12701   0.39087
  50   38688.2    258.5   0.023467832   0.19970   0.33194  -0.20026  -0.22228
  51   38754.5    258.0   0.005677138   0.04823  -0.20208   0.08552  -0.00882
  52   39346.1    254.2   0.014720225   0.12317   0.28633  -0.16851  -0.11306
  53   39698.1    251.9   0.009064063   0.07517  -0.16100  -0.17906  -0.13108
  54   39772.4    251.4   0.017976328   0.14880  -0.10530  -0.11170   0.35388
  55   39970.3    250.2   0.252105355   2.07644   0.19149  -0.21304   1.41223
  56   40080.4    249.5   0.000783861   0.00644   0.02237   0.00120  -0.07705
  57   40105.7    249.3   0.001715095   0.01408  -0.00167   0.01081   0.11815

FINAL SINGLE POINT ENERGY     -5044.354992953397

DIPOLE MOMENT
-------------
                                X             Y             Z
Electronic contribution:    -12.20786      -2.05952     -18.92503
Nuclear contribution   :     11.86738       2.06450      19.52651
                        -----------------------------------------
Total Dipole Moment    :     -0.34048       0.00498       0.60148
                        -----------------------------------------
Magnitude (a.u.)       :      0.69118
Magnitude (Debye)      :      1.75684

Rotational constants in cm-1:     0.002158     0.000230     0.000209
Rotational constants in MHz :    64.696504     6.892999     6.261495

                             ****ORCA TERMINATED NORMALLY****
TOTAL RUN TIME: 0 days 0 hours 9 minutes 15 seconds 342 msec
