                         Program Version 4.2.0 -  RELEASE  -
|  1> # ORCA input file
|  2> # SCF done       -189.788951362246          0.000459761062
|  3> ! CAM-B3LYP def2-SVP def2/J RIJCOSX Grid4 TightSCF
|  4> %maxcore 5000
|  5> %tddft
|  6>     Mode sTDDFT
|  7>     Ethresh 5.0
|  8>     maxcore 5000
|  9> end
| 10>
| 11> %pal
| 12>   nprocs 6
| 13>   end
| 14> * xyz 0 1
| 15>    C       -9.69085        -2.86142        -0.81217
| 16>    C       -8.94025        -3.48559        -1.77828
| 17>    C       -9.05231        -4.85257        -2.10656
| 18>    N       -9.08917        -5.95652        -2.42020
| 19>    C       -7.96499        -2.87327        -2.59076
| 20>    N       -7.16129        -2.45030        -3.29586
| 21>    C      -10.71798        -3.50827        -0.00061
| 22>    C      -11.29692        -2.53954         0.85541
| 23>    C      -12.30270        -2.83619         1.74166
| 24>    C      -12.76272        -4.15675         1.78676
| 25>    C      -12.17868        -5.11903         0.92966
| 26>    C      -11.16015        -4.81740         0.03344
| 27>    S      -12.89552        -6.68700         1.14691
| 28>    C      -13.95611        -6.03691         2.36845
| 29>    C      -13.78354        -4.71443         2.60396
| 30>   Br      -15.19121        -7.16462         3.21746
| 31>    C      -10.64824        -1.23662         0.61802
| 32>    O      -10.90839        -0.19097         1.18662
| 33>    C       -9.64203        -1.46635        -0.42288
| 34>    C       -8.78236        -0.52929        -0.94254
| 35>    C       -8.65059         0.83890        -0.68229
| 36>    S       -9.60235         1.76992         0.44346
| 37>    C       -8.74895         3.21963         0.02914
| 38>    C       -7.75353         2.98970        -0.92223
| 39>    C       -7.70283         1.65693        -1.32457
| 40>    C       -6.70659         1.14986        -2.31942
| 41>    C       -6.02109         2.29627        -3.05749
| 42>    C       -5.56147         3.37267        -2.06506
| 43>    N       -4.73823         4.41985        -2.64432
| 44>    C       -6.79725         4.01923        -1.43344
| 45>    C       -9.14109         4.41101         0.70615
| 46>    C       -8.88465         5.68898         0.35240
| 47>    C       -9.33295         6.79578         1.14408
| 48>    C       -9.20183         8.09855         0.84464
| 49>    C       -8.59923         8.64209        -0.41106
| 50>    C       -9.69003         9.15254         1.80768
| 51>    N      -10.86339         9.83093         1.29216
| 52>    C      -11.96173         9.17456         0.87847
| 53>    C      -13.14307         9.77478         0.56338
| 54>    C      -14.26585         9.06192         0.11715
| 55>    C      -15.48582         9.62244        -0.16633
| 56>    C      -16.65788         8.95554        -0.58986
| 57>    C      -17.73303         9.77297        -0.77355
| 58>    C      -17.46875        11.13443        -0.50780
| 59>    S      -15.80977        11.34891        -0.02105
| 60>    C      -18.35239        12.19954        -0.59024
| 61>    C      -19.71277        12.16784        -0.94755
| 62>    C      -20.31803        13.39296        -0.91634
| 63>    C      -19.46333        14.44889        -0.54122
| 64>    S      -17.86173        13.83963        -0.21552
| 65>    C      -19.81196        15.78398        -0.41415
| 66>    C      -18.91565        16.78946        -0.09314
| 67>    C      -19.18640        18.13396         0.09498
| 68>    C      -18.10327        19.12263        -0.05849
| 69>    O      -16.91183        18.90061        -0.14803
| 70>    C      -18.77824        20.43739        -0.13033
| 71>    C      -18.24411        21.66948        -0.36467
| 72>    C      -19.10132        22.79280        -0.42862
| 73>    C      -20.50203        22.61008        -0.24786
| 74>    C      -21.35181        23.73048        -0.31955
| 75>    C      -20.81618        24.96530        -0.55824
| 76>    C      -19.44216        25.16627        -0.73805
| 77>    C      -18.60309        24.08808        -0.67203
| 78>    F      -21.62891        26.03957        -0.62676
| 79>    C      -21.02638        21.31897         0.00287
| 80>    C      -20.17640        20.25011         0.06436
| 81>    C      -20.41765        18.82859         0.32423
| 82>    C      -21.57088        18.32068         0.88444
| 83>    C      -21.69141        17.02321         1.41538
| 84>    N      -21.83998        15.99612         1.90954
| 85>    C      -22.73720        19.07586         1.10153
| 86>    N      -23.72719        19.63228         1.28040
| 87>    H      -12.72243        -2.07414         2.37940
| 88>    H      -10.74958        -5.58809        -0.59688
| 89>    H      -14.35198        -4.15396         3.32347
| 90>    H       -8.08127        -0.89338        -1.68077
| 91>    H       -7.18427         0.48547        -3.04303
| 92>    H       -5.95322         0.55787        -1.78888
| 93>    H       -6.71571         2.74427        -3.77328
| 94>    H       -5.16657         1.90722        -3.61538
| 95>    H       -4.96600         2.89773        -1.27631
| 96>    H       -5.21409         4.84462        -3.43429
| 97>    H       -3.86229         4.03820        -2.98311
| 98>    H       -7.29024         4.63469        -2.19377
| 99>    H       -6.48272         4.67851        -0.62285
|100>    H       -9.74928         4.23709         1.58653
|101>    H       -8.34062         5.90663        -0.55047
|102>    H       -9.80881         6.52978         2.08088
|103>    H       -8.60900         7.91577        -1.21692
|104>    H       -7.56542         8.93960        -0.22997
|105>    H       -9.14824         9.52516        -0.73342
|106>    H       -8.90933         9.90466         1.94781
|107>    H       -9.90978         8.69803         2.78302
|108>    H      -10.95344        10.81977         1.47001
|109>    H      -11.84570         8.10372         0.77874
|110>    H      -13.24010        10.84697         0.67119
|111>    H      -14.17426         7.98983        -0.00062
|112>    H      -16.67146         7.89043        -0.74170
|113>    H      -18.70318         9.43482        -1.08943
|114>    H      -20.21373        11.25465        -1.21444
|115>    H      -21.35409        13.56644        -1.14594
|116>    H      -20.84575        16.02703        -0.61320
|117>    H      -17.86054        16.53169        -0.07520
|118>    H      -17.17980        21.78961        -0.50216
|119>    H      -22.41562        23.61313        -0.18320
|120>    H      -19.07629        26.16368        -0.92410
|121>    H      -17.53959        24.21742        -0.80762
|122>    H      -22.09172        21.21113         0.13092
|123> *
|124>
|125>                          ****END OF INPUT****

CARTESIAN COORDINATES (ANGSTROEM)
---------------------------------
  C     -9.690850   -2.861420   -0.812170
  C     -8.940250   -3.485590   -1.778280
  C     -9.052310   -4.852570   -2.106560
  N     -9.089170   -5.956520   -2.420200
  C     -7.964990   -2.873270   -2.590760
  N     -7.161290   -2.450300   -3.295860
  C    -10.717980   -3.508270   -0.000610
  C    -11.296920   -2.539540    0.855410
  C    -12.302700   -2.836190    1.741660
  C    -12.762720   -4.156750    1.786760
  C    -12.178680   -5.119030    0.929660
  C    -11.160150   -4.817400    0.033440
  S    -12.895520   -6.687000    1.146910
  C    -13.956110   -6.036910    2.368450
  C    -13.783540   -4.714430    2.603960
  Br   -15.191210   -7.164620    3.217460
  C    -10.648240   -1.236620    0.618020
  O    -10.908390   -0.190970    1.186620
  C     -9.642030   -1.466350   -0.422880
  C     -8.782360   -0.529290   -0.942540
  C     -8.650590    0.838900   -0.682290
  S     -9.602350    1.769920    0.443460
  C     -8.748950    3.219630    0.029140
  C     -7.753530    2.989700   -0.922230
  C     -7.702830    1.656930   -1.324570
  C     -6.706590    1.149860   -2.319420
  C     -6.021090    2.296270   -3.057490
  C     -5.561470    3.372670   -2.065060
  N     -4.738230    4.419850   -2.644320
  C     -6.797250    4.019230   -1.433440
  C     -9.141090    4.411010    0.706150
  C     -8.884650    5.688980    0.352400
  C     -9.332950    6.795780    1.144080
  C     -9.201830    8.098550    0.844640
  C     -8.599230    8.642090   -0.411060
  C     -9.690030    9.152540    1.807680
  N    -10.863390    9.830930    1.292160
  C    -11.961730    9.174560    0.878470
  C    -13.143070    9.774780    0.563380
  C    -14.265850    9.061920    0.117150
  C    -15.485820    9.622440   -0.166330
  C    -16.657880    8.955540   -0.589860
  C    -17.733030    9.772970   -0.773550
  C    -17.468750   11.134430   -0.507800
  S    -15.809770   11.348910   -0.021050
  C    -18.352390   12.199540   -0.590240
  C    -19.712770   12.167840   -0.947550
  C    -20.318030   13.392960   -0.916340
  C    -19.463330   14.448890   -0.541220
  S    -17.861730   13.839630   -0.215520
  C    -19.811960   15.783980   -0.414150
  C    -18.915650   16.789460   -0.093140
  C    -19.186400   18.133960    0.094980
  C    -18.103270   19.122630   -0.058490
  O    -16.911830   18.900610   -0.148030
  C    -18.778240   20.437390   -0.130330
  C    -18.244110   21.669480   -0.364670
  C    -19.101320   22.792800   -0.428620
  C    -20.502030   22.610080   -0.247860
  C    -21.351810   23.730480   -0.319550
  C    -20.816180   24.965300   -0.558240
  C    -19.442160   25.166270   -0.738050
  C    -18.603090   24.088080   -0.672030
  F    -21.628910   26.039570   -0.626760
  C    -21.026380   21.318970    0.002870
  C    -20.176400   20.250110    0.064360
  C    -20.417650   18.828590    0.324230
  C    -21.570880   18.320680    0.884440
  C    -21.691410   17.023210    1.415380
  N    -21.839980   15.996120    1.909540
  C    -22.737200   19.075860    1.101530
  N    -23.727190   19.632280    1.280400
  H    -12.722430   -2.074140    2.379400
  H    -10.749580   -5.588090   -0.596880
  H    -14.351980   -4.153960    3.323470
  H     -8.081270   -0.893380   -1.680770
  H     -7.184270    0.485470   -3.043030
  H     -5.953220    0.557870   -1.788880
  H     -6.715710    2.744270   -3.773280
  H     -5.166570    1.907220   -3.615380
  H     -4.966000    2.897730   -1.276310
  H     -5.214090    4.844620   -3.434290
  H     -3.862290    4.038200   -2.983110
  H     -7.290240    4.634690   -2.193770
  H     -6.482720    4.678510   -0.622850
  H     -9.749280    4.237090    1.586530
  H     -8.340620    5.906630   -0.550470
  H     -9.808810    6.529780    2.080880
  H     -8.609000    7.915770   -1.216920
  H     -7.565420    8.939600   -0.229970
  H     -9.148240    9.525160   -0.733420
  H     -8.909330    9.904660    1.947810
  H     -9.909780    8.698030    2.783020
  H    -10.953440   10.819770    1.470010
  H    -11.845700    8.103720    0.778740
  H    -13.240100   10.846970    0.671190
  H    -14.174260    7.989830   -0.000620
  H    -16.671460    7.890430   -0.741700
  H    -18.703180    9.434820   -1.089430
  H    -20.213730   11.254650   -1.214440
  H    -21.354090   13.566440   -1.145940
  H    -20.845750   16.027030   -0.613200
  H    -17.860540   16.531690   -0.075200
  H    -17.179800   21.789610   -0.502160
  H    -22.415620   23.613130   -0.183200
  H    -19.076290   26.163680   -0.924100
  H    -17.539590   24.217420   -0.807620
  H    -22.091720   21.211130    0.130920

 Total Charge           Charge          ....    0
 Multiplicity           Mult            ....    1
 Number of Electrons    NEL             ....  550
 Basis Dimension        Dim             .... 1222

ORBITAL ENERGIES
----------------

  NO   OCC          E(Eh)            E(eV)
   0   2.0000    -482.888557    -13140.0657
   1   2.0000     -88.978451     -2421.2267
   2   2.0000     -88.965473     -2420.8736
   3   2.0000     -88.957953     -2420.6690
   4   2.0000     -88.949258     -2420.4324
   5   2.0000     -62.566261     -1702.5145
   6   2.0000     -56.400212     -1534.7278
   7   2.0000     -56.397495     -1534.6539
   8   2.0000     -56.397461     -1534.6529
   9   2.0000     -24.765829      -673.9125
  10   2.0000     -19.223277      -523.0919
  11   2.0000     -19.179316      -521.8957
  12   2.0000     -14.469794      -393.7431
  13   2.0000     -14.422180      -392.4475
  14   2.0000     -14.416206      -392.2849
  15   2.0000     -14.392770      -391.6472
  16   2.0000     -14.384010      -391.4088
  17   2.0000     -14.381612      -391.3436
  18   2.0000     -10.371574      -282.2249
  19   2.0000     -10.361970      -281.9636
  20   2.0000     -10.347904      -281.5808
  21   2.0000     -10.347484      -281.5693
  22   2.0000     -10.344637      -281.4919
  23   2.0000     -10.342936      -281.4456
  24   2.0000     -10.339409      -281.3496
  25   2.0000     -10.331099      -281.1235
  26   2.0000     -10.330300      -281.1017
  27   2.0000     -10.328264      -281.0464
  28   2.0000     -10.325716      -280.9770
  29   2.0000     -10.324177      -280.9351
  30   2.0000     -10.319817      -280.8165
  31   2.0000     -10.315843      -280.7084
  32   2.0000     -10.314684      -280.6768
  33   2.0000     -10.314006      -280.6584
  34   2.0000     -10.310740      -280.5695
  35   2.0000     -10.310672      -280.5676
  36   2.0000     -10.310381      -280.5597
  37   2.0000     -10.309813      -280.5443
  38   2.0000     -10.308424      -280.5065
  39   2.0000     -10.307691      -280.4865
  40   2.0000     -10.307090      -280.4702
  41   2.0000     -10.306373      -280.4507
  42   2.0000     -10.305211      -280.4190
  43   2.0000     -10.304462      -280.3987
  44   2.0000     -10.304024      -280.3868
  45   2.0000     -10.302282      -280.3393
  46   2.0000     -10.301827      -280.3270
  47   2.0000     -10.301452      -280.3168
  48   2.0000     -10.299851      -280.2732
  49   2.0000     -10.299535      -280.2646
  50   2.0000     -10.298227      -280.2290
  51   2.0000     -10.295407      -280.1523
  52   2.0000     -10.295222      -280.1472
  53   2.0000     -10.292882      -280.0836
  54   2.0000     -10.291183      -280.0373
  55   2.0000     -10.291173      -280.0371
  56   2.0000     -10.288723      -279.9704
  57   2.0000     -10.288613      -279.9674
  58   2.0000     -10.285862      -279.8925
  59   2.0000     -10.283942      -279.8403
  60   2.0000     -10.283287      -279.8225
  61   2.0000     -10.282573      -279.8030
  62   2.0000     -10.281780      -279.7815
  63   2.0000     -10.281369      -279.7703
  64   2.0000     -10.277510      -279.6653
  65   2.0000     -10.276610      -279.6408
  66   2.0000     -10.276240      -279.6307
  67   2.0000     -10.276163      -279.6286
  68   2.0000     -10.273349      -279.5520
  69   2.0000     -10.273170      -279.5472
  70   2.0000     -10.272883      -279.5394
  71   2.0000     -10.270299      -279.4690
  72   2.0000     -10.267416      -279.3906
  73   2.0000     -10.262728      -279.2630
  74   2.0000     -10.261660      -279.2340
  75   2.0000     -10.256026      -279.0807
  76   2.0000      -8.795684      -239.3427
  77   2.0000      -8.074499      -219.7183
  78   2.0000      -8.059240      -219.3031
  79   2.0000      -8.054163      -219.1649
  80   2.0000      -8.045330      -218.9246
  81   2.0000      -6.631987      -180.4655
  82   2.0000      -6.617416      -180.0690
  83   2.0000      -6.617221      -180.0637
  84   2.0000      -6.044177      -164.4704
  85   2.0000      -6.039910      -164.3543
  86   2.0000      -6.035714      -164.2401
  87   2.0000      -6.028540      -164.0449
  88   2.0000      -6.024098      -163.9241
  89   2.0000      -6.023732      -163.9141
  90   2.0000      -6.021560      -163.8550
  91   2.0000      -6.019816      -163.8075
  92   2.0000      -6.015299      -163.6846
  93   2.0000      -6.014859      -163.6726
  94   2.0000      -6.010912      -163.5652
  95   2.0000      -6.006626      -163.4486
  96   2.0000      -2.747864       -74.7732
  97   2.0000      -2.743766       -74.6617
  98   2.0000      -2.743616       -74.6576
  99   2.0000      -2.732038       -74.3425
 100   2.0000      -2.732019       -74.3420
 101   2.0000      -1.279701       -34.8224
 102   2.0000      -1.138374       -30.9767
 103   2.0000      -1.093052       -29.7435
 104   2.0000      -1.068230       -29.0680
 105   2.0000      -1.026226       -27.9250
 106   2.0000      -1.017337       -27.6831
 107   2.0000      -1.006531       -27.3891
 108   2.0000      -1.002779       -27.2870
 109   2.0000      -0.998207       -27.1626
 110   2.0000      -0.992538       -27.0083
 111   2.0000      -0.986995       -26.8575
 112   2.0000      -0.982372       -26.7317
 113   2.0000      -0.978655       -26.6306
 114   2.0000      -0.972450       -26.4617
 115   2.0000      -0.961944       -26.1758
 116   2.0000      -0.948405       -25.8074
 117   2.0000      -0.947287       -25.7770
 118   2.0000      -0.943820       -25.6827
 119   2.0000      -0.922335       -25.0980
 120   2.0000      -0.913201       -24.8495
 121   2.0000      -0.911613       -24.8062
 122   2.0000      -0.908950       -24.7338
 123   2.0000      -0.902699       -24.5637
 124   2.0000      -0.891518       -24.2594
 125   2.0000      -0.888921       -24.1888
 126   2.0000      -0.886228       -24.1155
 127   2.0000      -0.873274       -23.7630
 128   2.0000      -0.867752       -23.6127
 129   2.0000      -0.861548       -23.4439
 130   2.0000      -0.855118       -23.2689
 131   2.0000      -0.849343       -23.1118
 132   2.0000      -0.846365       -23.0308
 133   2.0000      -0.833073       -22.6691
 134   2.0000      -0.830856       -22.6087
 135   2.0000      -0.827845       -22.5268
 136   2.0000      -0.823712       -22.4143
 137   2.0000      -0.810041       -22.0423
 138   2.0000      -0.809384       -22.0244
 139   2.0000      -0.804317       -21.8866
 140   2.0000      -0.794186       -21.6109
 141   2.0000      -0.783443       -21.3186
 142   2.0000      -0.765682       -20.8353
 143   2.0000      -0.762199       -20.7405
 144   2.0000      -0.750596       -20.4248
 145   2.0000      -0.736788       -20.0490
 146   2.0000      -0.730238       -19.8708
 147   2.0000      -0.725243       -19.7349
 148   2.0000      -0.716252       -19.4902
 149   2.0000      -0.710858       -19.3434
 150   2.0000      -0.702771       -19.1234
 151   2.0000      -0.695582       -18.9277
 152   2.0000      -0.695094       -18.9145
 153   2.0000      -0.687490       -18.7076
 154   2.0000      -0.685468       -18.6525
 155   2.0000      -0.683131       -18.5889
 156   2.0000      -0.664971       -18.0948
 157   2.0000      -0.662414       -18.0252
 158   2.0000      -0.660532       -17.9740
 159   2.0000      -0.651760       -17.7353
 160   2.0000      -0.649836       -17.6829
 161   2.0000      -0.645215       -17.5572
 162   2.0000      -0.638203       -17.3664
 163   2.0000      -0.634104       -17.2549
 164   2.0000      -0.626145       -17.0383
 165   2.0000      -0.625726       -17.0269
 166   2.0000      -0.621718       -16.9178
 167   2.0000      -0.613901       -16.7051
 168   2.0000      -0.607982       -16.5440
 169   2.0000      -0.606705       -16.5093
 170   2.0000      -0.604521       -16.4499
 171   2.0000      -0.604201       -16.4412
 172   2.0000      -0.603403       -16.4194
 173   2.0000      -0.595385       -16.2012
 174   2.0000      -0.593982       -16.1631
 175   2.0000      -0.589087       -16.0299
 176   2.0000      -0.581588       -15.8258
 177   2.0000      -0.572088       -15.5673
 178   2.0000      -0.566730       -15.4215
 179   2.0000      -0.560138       -15.2421
 180   2.0000      -0.557940       -15.1823
 181   2.0000      -0.554909       -15.0998
 182   2.0000      -0.551830       -15.0161
 183   2.0000      -0.549059       -14.9406
 184   2.0000      -0.546353       -14.8670
 185   2.0000      -0.543839       -14.7986
 186   2.0000      -0.539861       -14.6904
 187   2.0000      -0.538483       -14.6529
 188   2.0000      -0.537749       -14.6329
 189   2.0000      -0.533756       -14.5242
 190   2.0000      -0.532380       -14.4868
 191   2.0000      -0.527405       -14.3514
 192   2.0000      -0.526768       -14.3341
 193   2.0000      -0.523765       -14.2524
 194   2.0000      -0.521028       -14.1779
 195   2.0000      -0.517817       -14.0905
 196   2.0000      -0.512908       -13.9569
 197   2.0000      -0.509732       -13.8705
 198   2.0000      -0.509432       -13.8624
 199   2.0000      -0.507678       -13.8146
 200   2.0000      -0.505736       -13.7618
 201   2.0000      -0.504565       -13.7299
 202   2.0000      -0.503066       -13.6891
 203   2.0000      -0.501419       -13.6443
 204   2.0000      -0.500197       -13.6110
 205   2.0000      -0.499699       -13.5975
 206   2.0000      -0.497913       -13.5489
 207   2.0000      -0.496083       -13.4991
 208   2.0000      -0.494438       -13.4543
 209   2.0000      -0.490060       -13.3352
 210   2.0000      -0.487694       -13.2708
 211   2.0000      -0.484463       -13.1829
 212   2.0000      -0.483925       -13.1683
 213   2.0000      -0.476942       -12.9783
 214   2.0000      -0.476474       -12.9655
 215   2.0000      -0.474326       -12.9071
 216   2.0000      -0.473305       -12.8793
 217   2.0000      -0.471388       -12.8271
 218   2.0000      -0.470428       -12.8010
 219   2.0000      -0.467413       -12.7190
 220   2.0000      -0.462283       -12.5794
 221   2.0000      -0.461804       -12.5663
 222   2.0000      -0.458271       -12.4702
 223   2.0000      -0.456771       -12.4294
 224   2.0000      -0.454166       -12.3585
 225   2.0000      -0.453370       -12.3368
 226   2.0000      -0.452674       -12.3179
 227   2.0000      -0.448087       -12.1931
 228   2.0000      -0.447287       -12.1713
 229   2.0000      -0.443020       -12.0552
 230   2.0000      -0.442899       -12.0519
 231   2.0000      -0.439889       -11.9700
 232   2.0000      -0.438075       -11.9206
 233   2.0000      -0.437334       -11.9005
 234   2.0000      -0.432503       -11.7690
 235   2.0000      -0.432006       -11.7555
 236   2.0000      -0.430924       -11.7260
 237   2.0000      -0.429447       -11.6858
 238   2.0000      -0.426239       -11.5986
 239   2.0000      -0.424386       -11.5481
 240   2.0000      -0.420776       -11.4499
 241   2.0000      -0.416383       -11.3304
 242   2.0000      -0.415503       -11.3064
 243   2.0000      -0.413436       -11.2502
 244   2.0000      -0.412447       -11.2232
 245   2.0000      -0.409006       -11.1296
 246   2.0000      -0.408298       -11.1103
 247   2.0000      -0.404786       -11.0148
 248   2.0000      -0.402903       -10.9636
 249   2.0000      -0.400584       -10.9004
 250   2.0000      -0.394803       -10.7431
 251   2.0000      -0.392297       -10.6749
 252   2.0000      -0.390198       -10.6178
 253   2.0000      -0.385672       -10.4947
 254   2.0000      -0.383141       -10.4258
 255   2.0000      -0.377872       -10.2824
 256   2.0000      -0.373110       -10.1528
 257   2.0000      -0.358883        -9.7657
 258   2.0000      -0.358078        -9.7438
 259   2.0000      -0.350659        -9.5419
 260   2.0000      -0.343383        -9.3439
 261   2.0000      -0.337963        -9.1964
 262   2.0000      -0.326622        -8.8878
 263   2.0000      -0.324947        -8.8423
 264   2.0000      -0.324593        -8.8326
 265   2.0000      -0.317942        -8.6516
 266   2.0000      -0.317705        -8.6452
 267   2.0000      -0.314077        -8.5465
 268   2.0000      -0.304778        -8.2934
 269   2.0000      -0.297190        -8.0870
 270   2.0000      -0.288520        -7.8510
 271   2.0000      -0.277502        -7.5512
 272   2.0000      -0.268121        -7.2959
 273   2.0000      -0.267448        -7.2776
 274   2.0000      -0.211261        -5.7487
 275   0.0000      -0.099094        -2.6965
 276   0.0000      -0.093739        -2.5508
 277   0.0000      -0.066336        -1.8051
 278   0.0000      -0.042805        -1.1648
 279   0.0000      -0.035063        -0.9541

MULLIKEN ATOMIC CHARGES
-----------------------
   0 C :    0.327230
   1 C :   -0.359063
   2 C :   -0.188397
   3 N :    0.149640
   4 C :   -0.178223
   5 N :    0.132508
   6 C :    0.008478
   7 C :   -0.011520
   8 C :   -0.073238
   9 C :    0.117881
  10 C :   -0.092978
  11 C :   -0.017951
  12 S :    0.187584
  13 C :   -0.123335
  14 C :    0.037051
  15 Br:    0.024998
  16 C :    0.153022
  17 O :   -0.178070
  18 C :   -0.086806
  19 C :   -0.053070
  20 C :   -0.085750
  21 S :    0.189165
  22 C :   -0.104835
  23 C :   -0.045579
  24 C :   -0.112789
  25 C :    0.118962
  26 C :    0.089642
  27 C :   -0.076465
  28 N :   -0.163541
  29 C :    0.160412
  30 C :    0.024936
  31 C :   -0.001593
  32 C :    0.028391
  33 C :   -0.230979
  34 C :    0.101730
  35 C :    0.213844
  36 N :   -0.155621
  37 C :    0.080228
  38 C :   -0.028685
  39 C :    0.016475
  40 C :   -0.053968
  41 C :    0.056863
  42 C :    0.007692
  43 C :   -0.019822
  44 S :    0.091293
  45 C :   -0.071543
  46 C :    0.040563
  47 C :    0.027950
  48 C :   -0.014036
  49 S :    0.105103
  50 C :   -0.006743
  51 C :    0.022604
  52 C :   -0.140558
  53 C :    0.135883
  54 O :   -0.169657
  55 C :    0.006845
  56 C :   -0.091770
  57 C :    0.101958
  58 C :    0.102346
  59 C :   -0.101856
  60 C :    0.300788
  61 C :   -0.034836
  62 C :   -0.014220
  63 F :   -0.199076
  64 C :   -0.094655
  65 C :    0.042713
  66 C :    0.293379
  67 C :   -0.361004
  68 C :   -0.223076
  69 N :    0.150070
  70 C :   -0.175155
  71 N :    0.120935
  72 H :   -0.011946
  73 H :   -0.007504
  74 H :   -0.003015
  75 H :   -0.008734
  76 H :    0.043712
  77 H :    0.027910
  78 H :   -0.008839
  79 H :   -0.004334
  80 H :    0.001092
  81 H :    0.086051
  82 H :    0.091532
  83 H :    0.007269
  84 H :    0.022631
  85 H :   -0.010177
  86 H :   -0.007835
  87 H :   -0.020630
  88 H :    0.024691
  89 H :    0.036466
  90 H :    0.020853
  91 H :    0.020429
  92 H :    0.020059
  93 H :    0.131023
  94 H :    0.014891
  95 H :   -0.005088
  96 H :   -0.007604
  97 H :   -0.007727
  98 H :   -0.011520
  99 H :   -0.010194
 100 H :   -0.004704
 101 H :    0.003960
 102 H :    0.007939
 103 H :   -0.021656
 104 H :   -0.006740
 105 H :   -0.005526
 106 H :   -0.015312
 107 H :   -0.010121
Sum of atomic charges:   -0.0000000

LOEWDIN ATOMIC CHARGES
----------------------
   0 C :    0.079574
   1 C :   -0.150047
   2 C :   -0.019183
   3 N :   -0.057040
   4 C :   -0.018192
   5 N :   -0.062106
   6 C :   -0.021294
   7 C :   -0.049940
   8 C :    0.020418
   9 C :   -0.033059
  10 C :   -0.144714
  11 C :   -0.008965
  12 S :    0.433729
  13 C :   -0.271610
  14 C :   -0.070972
  15 Br:    0.137420
  16 C :    0.082281
  17 O :   -0.167787
  18 C :   -0.114299
  19 C :    0.056842
  20 C :   -0.197167
  21 S :    0.507995
  22 C :   -0.156248
  23 C :   -0.063176
  24 C :   -0.012208
  25 C :   -0.028708
  26 C :   -0.039176
  27 C :    0.012231
  28 N :   -0.102196
  29 C :   -0.028642
  30 C :   -0.038097
  31 C :   -0.015128
  32 C :   -0.044210
  33 C :   -0.034502
  34 C :   -0.049217
  35 C :    0.048753
  36 N :    0.011555
  37 C :    0.071906
  38 C :   -0.123056
  39 C :    0.001907
  40 C :   -0.187534
  41 C :   -0.005514
  42 C :   -0.057206
  43 C :   -0.136313
  44 S :    0.387529
  45 C :   -0.211531
  46 C :   -0.006182
  47 C :   -0.050789
  48 C :   -0.097404
  49 S :    0.401599
  50 C :   -0.079796
  51 C :    0.049872
  52 C :   -0.121281
  53 C :    0.074545
  54 O :   -0.172197
  55 C :   -0.053760
  56 C :    0.022475
  57 C :   -0.021888
  58 C :    0.000803
  59 C :   -0.044420
  60 C :    0.088263
  61 C :   -0.045459
  62 C :    0.000189
  63 F :   -0.072974
  64 C :    0.002101
  65 C :   -0.012418
  66 C :    0.066651
  67 C :   -0.165494
  68 C :   -0.024003
  69 N :   -0.072945
  70 C :   -0.019473
  71 N :   -0.078226
  72 H :    0.040252
  73 H :    0.041077
  74 H :    0.038700
  75 H :    0.047125
  76 H :    0.040569
  77 H :    0.040963
  78 H :    0.018929
  79 H :    0.023427
  80 H :    0.021343
  81 H :    0.050208
  82 H :    0.054918
  83 H :    0.026333
  84 H :    0.035092
  85 H :    0.029143
  86 H :    0.027885
  87 H :    0.026592
  88 H :    0.031666
  89 H :    0.042907
  90 H :    0.032928
  91 H :    0.035338
  92 H :    0.023595
  93 H :    0.085514
  94 H :    0.034378
  95 H :    0.021224
  96 H :    0.036628
  97 H :    0.035773
  98 H :    0.032524
  99 H :    0.033566
 100 H :    0.037409
 101 H :    0.036635
 102 H :    0.031772
 103 H :    0.035368
 104 H :    0.041293
 105 H :    0.038022
 106 H :    0.032727
 107 H :    0.037277

  Mayer bond orders larger than 0.100000
B(  0-C ,  1-C ) :   1.6071 B(  0-C ,  6-C ) :   0.9967 B(  0-C , 18-C ) :   1.0909
B(  1-C ,  2-C ) :   1.1453 B(  1-C ,  4-C ) :   1.1528 B(  2-C ,  3-N ) :   2.9668
B(  4-C ,  5-N ) :   2.9497 B(  6-C ,  7-C ) :   1.2762 B(  6-C , 11-C ) :   1.4156
B(  7-C ,  8-C ) :   1.4238 B(  7-C , 16-C ) :   0.9558 B(  8-C ,  9-C ) :   1.2420
B(  8-C , 72-H ) :   1.0171 B(  9-C , 10-C ) :   1.3098 B(  9-C , 14-C ) :   1.1627
B( 10-C , 11-C ) :   1.3257 B( 10-C , 12-S ) :   1.0864 B( 11-C , 73-H ) :   0.9794
B( 12-S , 13-C ) :   1.0875 B( 13-C , 14-C ) :   1.6169 B( 13-C , 15-Br) :   1.0199
B( 14-C , 74-H ) :   1.0005 B( 16-C , 17-O ) :   2.1452 B( 16-C , 18-C ) :   0.9716
B( 18-C , 19-C ) :   1.4894 B( 19-C , 20-C ) :   1.2845 B( 19-C , 75-H ) :   0.9285
B( 20-C , 21-S ) :   1.0865 B( 20-C , 24-C ) :   1.3594 B( 21-S , 22-C ) :   1.1351
B( 22-C , 23-C ) :   1.4145 B( 22-C , 30-C ) :   1.0984 B( 23-C , 24-C ) :   1.4038
B( 23-C , 29-C ) :   1.0304 B( 24-C , 25-C ) :   1.0540 B( 25-C , 26-C ) :   1.0724
B( 25-C , 76-H ) :   0.9009 B( 25-C , 77-H ) :   0.9022 B( 26-C , 27-C ) :   1.0247
B( 26-C , 78-H ) :   0.9272 B( 26-C , 79-H ) :   0.9269 B( 27-C , 28-N ) :   1.1121
B( 27-C , 29-C ) :   1.0385 B( 27-C , 80-H ) :   0.9277 B( 28-N , 81-H ) :   0.9687
B( 28-N , 82-H ) :   0.9690 B( 29-C , 83-H ) :   0.8926 B( 29-C , 84-H ) :   0.9118
B( 30-C , 31-C ) :   1.7058 B( 30-C , 85-H ) :   0.9577 B( 31-C , 32-C ) :   1.1070
B( 31-C , 86-H ) :   0.9673 B( 32-C , 33-C ) :   1.7485 B( 32-C , 87-H ) :   0.9728
B( 33-C , 34-C ) :   1.0756 B( 33-C , 35-C ) :   1.0382 B( 34-C , 88-H ) :   0.9521
B( 34-C , 89-H ) :   0.9455 B( 34-C , 90-H ) :   0.9457 B( 35-C , 36-N ) :   0.9851
B( 35-C , 91-H ) :   0.9352 B( 35-C , 92-H ) :   0.9422 B( 36-N , 37-C ) :   1.2631
B( 36-N , 93-H ) :   0.9364 B( 37-C , 38-C ) :   1.5474 B( 37-C , 94-H ) :   0.9656
B( 38-C , 39-C ) :   1.2125 B( 38-C , 95-H ) :   0.9661 B( 39-C , 40-C ) :   1.5392
B( 39-C , 96-H ) :   0.9790 B( 40-C , 41-C ) :   1.1740 B( 40-C , 44-S ) :   1.0108
B( 41-C , 42-C ) :   1.5522 B( 41-C , 97-H ) :   0.9984 B( 42-C , 43-C ) :   1.2208
B( 42-C , 98-H ) :   0.9946 B( 43-C , 44-S ) :   1.0994 B( 43-C , 45-C ) :   1.4284
B( 45-C , 46-C ) :   1.2508 B( 45-C , 49-S ) :   1.0373 B( 46-C , 47-C ) :   1.5078
B( 46-C , 99-H ) :   0.9939 B( 47-C , 48-C ) :   1.2165 B( 47-C ,100-H ) :   1.0001
B( 48-C , 49-S ) :   1.1012 B( 48-C , 50-C ) :   1.4403 B( 50-C , 51-C ) :   1.2847
B( 50-C ,101-H ) :   0.9625 B( 51-C , 52-C ) :   1.4535 B( 51-C ,102-H ) :   0.9425
B( 52-C , 53-C ) :   0.9808 B( 52-C , 66-C ) :   1.1255 B( 53-C , 54-O ) :   2.2391
B( 53-C , 55-C ) :   0.9140 B( 55-C , 56-C ) :   1.4870 B( 55-C , 65-C ) :   1.2174
B( 56-C , 57-C ) :   1.1770 B( 56-C ,103-H ) :   1.0146 B( 57-C , 58-C ) :   1.2630
B( 57-C , 62-C ) :   1.2416 B( 58-C , 59-C ) :   1.2057 B( 58-C , 64-C ) :   1.1917
B( 59-C , 60-C ) :   1.4384 B( 59-C ,104-H ) :   1.0066 B( 60-C , 61-C ) :   1.2614
B( 60-C , 63-F ) :   1.0792 B( 61-C , 62-C ) :   1.4515 B( 61-C ,105-H ) :   0.9933
B( 62-C ,106-H ) :   0.9964 B( 64-C , 65-C ) :   1.4760 B( 64-C ,107-H ) :   0.9923
B( 65-C , 66-C ) :   0.9841 B( 66-C , 67-C ) :   1.5692 B( 67-C , 68-C ) :   1.1721
B( 67-C , 70-C ) :   1.1411 B( 68-C , 69-N ) :   3.0106 B( 70-C , 71-N ) :   2.9643

-----------------------------------------------------------------------------
         ABSORPTION SPECTRUM VIA TRANSITION ELECTRIC DIPOLE MOMENTS
-----------------------------------------------------------------------------
State   Energy  Wavelength   fosc         T2         TX        TY        TZ
        (cm-1)    (nm)                  (au**2)     (au)      (au)      (au)
-----------------------------------------------------------------------------
   0   11931.3    838.1   1.611342481  44.46070  -3.58902   5.61951   0.02604
   1   16823.7    594.4   0.000402558   0.00788   0.01071  -0.08785  -0.00672
   2   21135.8    473.1   1.194950625  18.61262  -0.50855  -4.28024  -0.18316
   3   22039.9    453.7   0.034067455   0.50887   0.36598   0.34689   0.50457
   4   23922.0    418.0   0.066343593   0.91301  -0.56189  -0.09555  -0.76692
   5   24691.3    405.0   0.000148604   0.00198  -0.01695  -0.02972  -0.02848
   6   25412.9    393.5   0.161252883   2.08895   1.26643   0.25495   0.64815
   7   26362.0    379.3   0.026338700   0.32892   0.10368  -0.55067  -0.12221
   8   27072.0    369.4   0.205038018   2.49338  -1.10778  -1.03210  -0.44831
   9   27358.8    365.5   0.126687898   1.52445   0.94661   0.73989   0.28449
  10   28005.2    357.1   0.535568581   6.29582   1.65741   1.50169  -1.13743
  11   28279.8    353.6   0.004047692   0.04712  -0.20034  -0.08264   0.01247
  12   28525.4    350.6   0.015939809   0.18396  -0.32792  -0.26048   0.09264
  13   28625.2    349.3   0.004647879   0.05345  -0.18283  -0.09624   0.10376
  14   28775.7    347.5   0.068322863   0.78166  -0.43528  -0.74095   0.20781
  15   29745.5    336.2   0.009911993   0.10970  -0.17398  -0.27497   0.06186
  16   30093.8    332.3   0.000203844   0.00223   0.02534   0.03850  -0.01026
  17   30635.3    326.4   0.024745952   0.26592   0.37737   0.10533  -0.33529
  18   30910.6    323.5   0.045122205   0.48057  -0.51181  -0.45404  -0.11167
  19   31528.7    317.2   0.000054784   0.00057   0.00523  -0.00105  -0.02331
  20   31964.1    312.9   0.118579269   1.22130   0.66504   0.83321   0.29117
  21   32136.0    311.2   0.001588973   0.01628  -0.11065  -0.03235   0.05466
  22   32292.3    309.7   0.163847896   1.67039   0.76170   1.02719  -0.18730
  23   32934.5    303.6   0.561195515   5.60968  -1.72498  -0.47178   1.55292
  24   33061.6    302.5   0.000821083   0.00818  -0.06757   0.05816  -0.01507
  25   33630.6    297.3   0.048013604   0.47001  -0.02096  -0.68200   0.06667
  26   33703.9    296.7   0.001298969   0.01269   0.03561   0.07100  -0.07987
  27   33959.5    294.5   0.036187284   0.35081  -0.22872   0.34600   0.42283
  28   34109.0    293.2   0.420773649   4.06121   0.25640   1.96987  -0.33925
  29   35163.3    284.4   0.224497002   2.10183   1.39968   0.28510  -0.24787
  30   36037.1    277.5   0.457820400   4.18236  -0.67730   1.75208   0.80860
  31   36230.0    276.0   0.006055112   0.05502   0.07023  -0.20736  -0.08421
  32   36656.0    272.8   0.032495649   0.29185   0.07831   0.30596   0.43830
  33   36959.0    270.6   0.000629251   0.00561  -0.04098   0.03502   0.05196
  34   37482.1    266.8   0.059898753   0.52610  -0.30114  -0.65731  -0.05795
  35   37533.0    266.4   0.004735505   0.04154  -0.03096  -0.19890   0.03188
  36   37738.1    265.0   0.142868755   1.24633   0.26358   0.95372  -0.51698
  37   38078.2    262.6   0.102134005   0.88302  -0.81248  -0.47210   0.00305
  38   38125.7    262.3   0.014454940   0.12482  -0.30799  -0.17304  -0.00434
  39   38540.0    259.5   0.064626390   0.55204   0.27604  -0.57219  -0.38529
  40   38557.4    259.4   0.198604158   1.69573   0.85767   0.92414  -0.32571
  41   39494.1    253.2   0.000064749   0.00054  -0.01558   0.01462   0.00912
  42   39922.2    250.5   0.005336741   0.04401   0.19711  -0.05674   0.04402
  43   40200.3    248.8   0.147844081   1.21074  -1.08930  -0.15446   0.01775
  44   40305.4    248.1   0.000792000   0.00647   0.00861  -0.05226  -0.06053

FINAL SINGLE POINT ENERGY     -6973.209074497852

DIPOLE MOMENT
-------------
                                X             Y             Z
Electronic contribution:    -81.74079    -162.75099      48.79775
Nuclear contribution   :     87.01012     158.69786     -48.93243
                        -----------------------------------------
Total Dipole Moment    :      5.26933      -4.05313      -0.13468
                        -----------------------------------------
Magnitude (a.u.)       :      6.64920
Magnitude (Debye)      :     16.90092

Rotational constants in cm-1:     0.001156     0.000133     0.000121
Rotational constants in MHz :    34.660654     3.985176     3.641108

                             ****ORCA TERMINATED NORMALLY****
TOTAL RUN TIME: 0 days 0 hours 16 minutes 9 seconds 850 msec
