                         Program Version 4.2.0 -  RELEASE  -
|  1> # ORCA input file
|  2> # SCF done       -193.498831770837          0.000215307681
|  3> ! CAM-B3LYP def2-SVP def2/J RIJCOSX Grid4 TightSCF
|  4> %maxcore 5000
|  5> %tddft
|  6>     Mode sTDDFT
|  7>     Ethresh 5.0
|  8>     maxcore 5000
|  9> end
| 10>
| 11> %pal
| 12>   nprocs 6
| 13>   end
| 14> * xyz 0 1
| 15>    C       -6.28774         4.27278         0.89443
| 16>    C       -5.00135         4.72722         0.96404
| 17>    C       -4.38041         5.16300         2.15540
| 18>    N       -3.82688         5.52666         3.09196
| 19>    C       -4.10904         4.78165        -0.12897
| 20>    N       -3.33222         4.83309        -0.97205
| 21>    C       -7.21082         4.12943         2.00954
| 22>    C       -8.37658         3.45501         1.56185
| 23>    C       -9.43379         3.16209         2.39143
| 24>    C       -9.34088         3.56492         3.72628
| 25>    C       -8.17625         4.24365         4.16615
| 26>    C       -7.10565         4.53152         3.32958
| 27>    S       -8.27623         4.65208         5.85044
| 28>    C       -9.85617         3.91693         5.94089
| 29>    C      -10.28919         3.39146         4.76977
| 30>   Br      -10.77814         3.91384         7.57148
| 31>    C       -8.24634         3.15306         0.13354
| 32>    O       -9.01259         2.49763        -0.54349
| 33>    C       -6.97217         3.78898        -0.30544
| 34>    C       -6.59743         3.94953        -1.58904
| 35>    C       -7.42832         3.54178        -2.74263
| 36>    S       -7.63354         5.00853        -3.85169
| 37>    C       -6.89338         4.16913        -5.29449
| 38>    C       -7.11085         2.67591        -5.08191
| 39>    C       -6.80373         2.43185        -3.58919
| 40>    C       -6.17110         1.76443        -5.90710
| 41>    O       -6.09384         0.58446        -5.62734
| 42>    N       -5.47826         2.34544        -6.88751
| 43>    N       -8.45468         2.28704        -5.52626
| 44>    N       -9.53235         2.70059        -4.75421
| 45>    C      -10.11702         2.12599        -3.67986
| 46>    S      -11.11432         3.18269        -2.72139
| 47>    C      -11.48047         1.86635        -1.64572
| 48>    N      -12.17354         2.17185        -0.47925
| 49>    O      -12.36634         1.27823         0.32845
| 50>    O      -12.52335         3.33404        -0.33355
| 51>    C      -10.91706         0.68748        -2.03232
| 52>    C      -10.13761         0.79006        -3.20806
| 53>    C       -9.48996        -0.31470        -3.82880
| 54>    C       -9.64303        -1.62886        -3.48830
| 55>    C       -9.07180        -2.72313        -4.16556
| 56>    C       -8.41896        -2.75048        -5.37868
| 57>    C       -7.84708        -3.89668        -5.98625
| 58>    C       -7.24979        -3.66490        -7.19198
| 59>    C       -7.31875        -2.31825        -7.60232
| 60>    S       -8.18525        -1.37444        -6.43517
| 61>    C       -6.77122        -1.68096        -8.70835
| 62>    C       -5.99470        -2.17867        -9.76571
| 63>    C       -5.55514        -1.20645       -10.62890
| 64>    C       -5.95278         0.09614       -10.27684
| 65>    S       -6.96490         0.04893        -8.85871
| 66>    C       -5.59459         1.30433       -10.87070
| 67>    C       -5.93699         2.50630       -10.28505
| 68>    C       -5.64081         3.81889       -10.63005
| 69>    C       -5.22032         4.43475       -11.85484
| 70>    C       -5.32405         3.92335       -13.12895
| 71>    C       -4.88580         4.59462       -14.28610
| 72>    N       -4.52732         5.08093       -15.26340
| 73>    C       -5.96654         2.71527       -13.45807
| 74>    N       -6.51791         1.76792       -13.80247
| 75>    C       -4.83297         5.81260       -11.54113
| 76>    C       -5.14388         6.06875       -10.18170
| 77>    C       -5.66466         4.83296        -9.57644
| 78>    O       -5.98525         4.67437        -8.40024
| 79>    C       -4.94016         7.29250        -9.59345
| 80>    C       -4.39673         8.31301       -10.38237
| 81>    C       -4.07810         8.04422       -11.73283
| 82>    C       -4.28976         6.80503       -12.32993
| 83>    S       -3.41012         9.43996       -12.52221
| 84>    C       -3.57091        10.35574       -11.04704
| 85>    C       -4.09502         9.65334       -10.01516
| 86>   Br       -3.03056        12.15215       -11.00881
| 87>    H      -10.30617         2.64344         2.02598
| 88>    H       -6.24345         5.05316         3.71056
| 89>    H      -11.23810         2.90356         4.64138
| 90>    H       -5.67624         4.46194        -1.83221
| 91>    H       -8.42107         3.26463        -2.39698
| 92>    H       -5.83205         4.41377        -5.31445
| 93>    H       -7.37189         4.54443        -6.19585
| 94>    H       -5.71804         2.44337        -3.46655
| 95>    H       -7.16591         1.45575        -3.26667
| 96>    H       -5.69665         3.26204        -7.27408
| 97>    H       -4.88783         1.74129        -7.43928
| 98>    H       -8.49917         1.29625        -5.73714
| 99>    H       -9.69316         3.69956        -4.84270
|100>    H      -11.03649        -0.21146        -1.45714
|101>    H       -8.80967        -0.09211        -4.63175
|102>    H      -10.24898        -1.88146        -2.63012
|103>    H       -9.18184        -3.68802        -3.68562
|104>    H       -7.88364        -4.85930        -5.50683
|105>    H       -6.76014        -4.41771        -7.78307
|106>    H       -5.76512        -3.22460        -9.86540
|107>    H       -4.94198        -1.39408       -11.49209
|108>    H       -4.98707         1.25932       -11.76047
|109>    H       -6.44309         2.42942        -9.32530
|110>    H       -5.19448         7.46264        -8.55893
|111>    H       -4.02749         6.65037       -13.36312
|112>    H       -4.26277        10.06141        -9.03517
|113> *
|114>
|115>                          ****END OF INPUT****

CARTESIAN COORDINATES (ANGSTROEM)
---------------------------------
  C     -6.287740    4.272780    0.894430
  C     -5.001350    4.727220    0.964040
  C     -4.380410    5.163000    2.155400
  N     -3.826880    5.526660    3.091960
  C     -4.109040    4.781650   -0.128970
  N     -3.332220    4.833090   -0.972050
  C     -7.210820    4.129430    2.009540
  C     -8.376580    3.455010    1.561850
  C     -9.433790    3.162090    2.391430
  C     -9.340880    3.564920    3.726280
  C     -8.176250    4.243650    4.166150
  C     -7.105650    4.531520    3.329580
  S     -8.276230    4.652080    5.850440
  C     -9.856170    3.916930    5.940890
  C    -10.289190    3.391460    4.769770
  Br   -10.778140    3.913840    7.571480
  C     -8.246340    3.153060    0.133540
  O     -9.012590    2.497630   -0.543490
  C     -6.972170    3.788980   -0.305440
  C     -6.597430    3.949530   -1.589040
  C     -7.428320    3.541780   -2.742630
  S     -7.633540    5.008530   -3.851690
  C     -6.893380    4.169130   -5.294490
  C     -7.110850    2.675910   -5.081910
  C     -6.803730    2.431850   -3.589190
  C     -6.171100    1.764430   -5.907100
  O     -6.093840    0.584460   -5.627340
  N     -5.478260    2.345440   -6.887510
  N     -8.454680    2.287040   -5.526260
  N     -9.532350    2.700590   -4.754210
  C    -10.117020    2.125990   -3.679860
  S    -11.114320    3.182690   -2.721390
  C    -11.480470    1.866350   -1.645720
  N    -12.173540    2.171850   -0.479250
  O    -12.366340    1.278230    0.328450
  O    -12.523350    3.334040   -0.333550
  C    -10.917060    0.687480   -2.032320
  C    -10.137610    0.790060   -3.208060
  C     -9.489960   -0.314700   -3.828800
  C     -9.643030   -1.628860   -3.488300
  C     -9.071800   -2.723130   -4.165560
  C     -8.418960   -2.750480   -5.378680
  C     -7.847080   -3.896680   -5.986250
  C     -7.249790   -3.664900   -7.191980
  C     -7.318750   -2.318250   -7.602320
  S     -8.185250   -1.374440   -6.435170
  C     -6.771220   -1.680960   -8.708350
  C     -5.994700   -2.178670   -9.765710
  C     -5.555140   -1.206450  -10.628900
  C     -5.952780    0.096140  -10.276840
  S     -6.964900    0.048930   -8.858710
  C     -5.594590    1.304330  -10.870700
  C     -5.936990    2.506300  -10.285050
  C     -5.640810    3.818890  -10.630050
  C     -5.220320    4.434750  -11.854840
  C     -5.324050    3.923350  -13.128950
  C     -4.885800    4.594620  -14.286100
  N     -4.527320    5.080930  -15.263400
  C     -5.966540    2.715270  -13.458070
  N     -6.517910    1.767920  -13.802470
  C     -4.832970    5.812600  -11.541130
  C     -5.143880    6.068750  -10.181700
  C     -5.664660    4.832960   -9.576440
  O     -5.985250    4.674370   -8.400240
  C     -4.940160    7.292500   -9.593450
  C     -4.396730    8.313010  -10.382370
  C     -4.078100    8.044220  -11.732830
  C     -4.289760    6.805030  -12.329930
  S     -3.410120    9.439960  -12.522210
  C     -3.570910   10.355740  -11.047040
  C     -4.095020    9.653340  -10.015160
  Br    -3.030560   12.152150  -11.008810
  H    -10.306170    2.643440    2.025980
  H     -6.243450    5.053160    3.710560
  H    -11.238100    2.903560    4.641380
  H     -5.676240    4.461940   -1.832210
  H     -8.421070    3.264630   -2.396980
  H     -5.832050    4.413770   -5.314450
  H     -7.371890    4.544430   -6.195850
  H     -5.718040    2.443370   -3.466550
  H     -7.165910    1.455750   -3.266670
  H     -5.696650    3.262040   -7.274080
  H     -4.887830    1.741290   -7.439280
  H     -8.499170    1.296250   -5.737140
  H     -9.693160    3.699560   -4.842700
  H    -11.036490   -0.211460   -1.457140
  H     -8.809670   -0.092110   -4.631750
  H    -10.248980   -1.881460   -2.630120
  H     -9.181840   -3.688020   -3.685620
  H     -7.883640   -4.859300   -5.506830
  H     -6.760140   -4.417710   -7.783070
  H     -5.765120   -3.224600   -9.865400
  H     -4.941980   -1.394080  -11.492090
  H     -4.987070    1.259320  -11.760470
  H     -6.443090    2.429420   -9.325300
  H     -5.194480    7.462640   -8.558930
  H     -4.027490    6.650370  -13.363120
  H     -4.262770   10.061410   -9.035170

 Total Charge           Charge          ....    0
 Multiplicity           Mult            ....    1
 Number of Electrons    NEL             ....  594
 Basis Dimension        Dim             .... 1198

ORBITAL ENERGIES
----------------

  NO   OCC          E(Eh)            E(eV)
   0   2.0000    -482.889708    -13140.0970
   1   2.0000    -482.878507    -13139.7922
   2   2.0000     -88.983739     -2421.3706
   3   2.0000     -88.981841     -2421.3190
   4   2.0000     -88.973471     -2421.0912
   5   2.0000     -88.967384     -2420.9256
   6   2.0000     -88.966337     -2420.8971
   7   2.0000     -88.933879     -2420.0139
   8   2.0000     -62.567450     -1702.5469
   9   2.0000     -62.556229     -1702.2415
  10   2.0000     -56.401408     -1534.7603
  11   2.0000     -56.398672     -1534.6859
  12   2.0000     -56.398649     -1534.6853
  13   2.0000     -56.390172     -1534.4546
  14   2.0000     -56.387472     -1534.3811
  15   2.0000     -56.387432     -1534.3800
  16   2.0000     -19.239104      -523.5226
  17   2.0000     -19.238302      -523.5008
  18   2.0000     -19.233608      -523.3731
  19   2.0000     -19.211161      -522.7623
  20   2.0000     -19.191581      -522.2295
  21   2.0000     -14.649621      -398.6365
  22   2.0000     -14.498519      -394.5248
  23   2.0000     -14.464754      -393.6060
  24   2.0000     -14.429311      -392.6415
  25   2.0000     -14.425761      -392.5449
  26   2.0000     -14.425213      -392.5300
  27   2.0000     -14.399169      -391.8213
  28   2.0000     -14.397350      -391.7718
  29   2.0000     -10.383578      -282.5515
  30   2.0000     -10.382871      -282.5323
  31   2.0000     -10.380804      -282.4760
  32   2.0000     -10.364560      -282.0340
  33   2.0000     -10.359984      -281.9095
  34   2.0000     -10.354795      -281.7683
  35   2.0000     -10.352607      -281.7088
  36   2.0000     -10.350039      -281.6389
  37   2.0000     -10.346149      -281.5330
  38   2.0000     -10.340839      -281.3885
  39   2.0000     -10.338164      -281.3158
  40   2.0000     -10.334027      -281.2032
  41   2.0000     -10.333284      -281.1830
  42   2.0000     -10.327896      -281.0363
  43   2.0000     -10.327230      -281.0182
  44   2.0000     -10.326450      -280.9970
  45   2.0000     -10.325815      -280.9797
  46   2.0000     -10.324812      -280.9524
  47   2.0000     -10.323087      -280.9055
  48   2.0000     -10.322508      -280.8897
  49   2.0000     -10.319067      -280.7961
  50   2.0000     -10.318460      -280.7796
  51   2.0000     -10.316571      -280.7282
  52   2.0000     -10.315802      -280.7072
  53   2.0000     -10.315507      -280.6992
  54   2.0000     -10.315260      -280.6925
  55   2.0000     -10.314992      -280.6852
  56   2.0000     -10.314672      -280.6765
  57   2.0000     -10.312456      -280.6162
  58   2.0000     -10.311266      -280.5838
  59   2.0000     -10.310787      -280.5708
  60   2.0000     -10.308975      -280.5215
  61   2.0000     -10.306673      -280.4588
  62   2.0000     -10.305374      -280.4235
  63   2.0000     -10.305256      -280.4203
  64   2.0000     -10.303328      -280.3678
  65   2.0000     -10.302157      -280.3359
  66   2.0000     -10.301324      -280.3133
  67   2.0000     -10.301296      -280.3125
  68   2.0000     -10.301092      -280.3070
  69   2.0000     -10.297191      -280.2008
  70   2.0000     -10.296823      -280.1908
  71   2.0000     -10.295752      -280.1617
  72   2.0000     -10.294817      -280.1362
  73   2.0000     -10.293953      -280.1127
  74   2.0000     -10.293218      -280.0927
  75   2.0000     -10.293055      -280.0883
  76   2.0000     -10.288965      -279.9770
  77   2.0000     -10.282615      -279.8042
  78   2.0000     -10.280783      -279.7543
  79   2.0000     -10.274462      -279.5823
  80   2.0000      -8.796914      -239.3762
  81   2.0000      -8.785656      -239.0699
  82   2.0000      -8.079033      -219.8417
  83   2.0000      -8.077894      -219.8107
  84   2.0000      -8.069083      -219.5709
  85   2.0000      -8.063331      -219.4144
  86   2.0000      -8.062198      -219.3836
  87   2.0000      -8.029232      -218.4865
  88   2.0000      -6.633273      -180.5005
  89   2.0000      -6.621934      -180.1920
  90   2.0000      -6.618642      -180.1024
  91   2.0000      -6.618388      -180.0955
  92   2.0000      -6.607386      -179.7961
  93   2.0000      -6.607223      -179.7917
  94   2.0000      -6.049037      -164.6027
  95   2.0000      -6.047586      -164.5632
  96   2.0000      -6.044505      -164.4793
  97   2.0000      -6.043284      -164.4461
  98   2.0000      -6.039918      -164.3545
  99   2.0000      -6.039105      -164.3324
 100   2.0000      -6.038720      -164.3219
 101   2.0000      -6.034495      -164.2070
 102   2.0000      -6.033031      -164.1671
 103   2.0000      -6.031734      -164.1318
 104   2.0000      -6.030416      -164.0960
 105   2.0000      -6.028724      -164.0499
 106   2.0000      -6.027620      -164.0199
 107   2.0000      -6.024586      -163.9373
 108   2.0000      -6.023622      -163.9111
 109   2.0000      -5.999805      -163.2630
 110   2.0000      -5.995648      -163.1499
 111   2.0000      -5.988711      -162.9611
 112   2.0000      -2.749097       -74.8067
 113   2.0000      -2.745046       -74.6965
 114   2.0000      -2.744879       -74.6920
 115   2.0000      -2.737784       -74.4989
 116   2.0000      -2.733706       -74.3879
 117   2.0000      -2.733637       -74.3860
 118   2.0000      -2.733225       -74.3748
 119   2.0000      -2.733219       -74.3747
 120   2.0000      -2.722047       -74.0707
 121   2.0000      -2.722032       -74.0703
 122   2.0000      -1.318094       -35.8672
 123   2.0000      -1.148491       -31.2520
 124   2.0000      -1.138313       -30.9751
 125   2.0000      -1.136207       -30.9178
 126   2.0000      -1.122932       -30.5565
 127   2.0000      -1.121056       -30.5055
 128   2.0000      -1.031968       -28.0813
 129   2.0000      -1.021827       -27.8053
 130   2.0000      -1.021601       -27.7992
 131   2.0000      -1.020305       -27.7639
 132   2.0000      -1.011912       -27.5355
 133   2.0000      -1.004043       -27.3214
 134   2.0000      -0.999501       -27.1978
 135   2.0000      -0.999133       -27.1878
 136   2.0000      -0.996436       -27.1144
 137   2.0000      -0.994815       -27.0703
 138   2.0000      -0.977555       -26.6006
 139   2.0000      -0.976780       -26.5795
 140   2.0000      -0.975298       -26.5392
 141   2.0000      -0.953361       -25.9423
 142   2.0000      -0.941964       -25.6321
 143   2.0000      -0.939134       -25.5551
 144   2.0000      -0.932178       -25.3659
 145   2.0000      -0.917308       -24.9612
 146   2.0000      -0.913479       -24.8570
 147   2.0000      -0.904211       -24.6048
 148   2.0000      -0.898550       -24.4508
 149   2.0000      -0.896398       -24.3922
 150   2.0000      -0.893871       -24.3235
 151   2.0000      -0.880510       -23.9599
 152   2.0000      -0.875569       -23.8254
 153   2.0000      -0.873375       -23.7657
 154   2.0000      -0.868993       -23.6465
 155   2.0000      -0.862826       -23.4787
 156   2.0000      -0.847585       -23.0640
 157   2.0000      -0.841688       -22.9035
 158   2.0000      -0.837384       -22.7864
 159   2.0000      -0.833193       -22.6723
 160   2.0000      -0.828167       -22.5356
 161   2.0000      -0.820783       -22.3346
 162   2.0000      -0.819271       -22.2935
 163   2.0000      -0.802652       -21.8413
 164   2.0000      -0.783395       -21.3173
 165   2.0000      -0.775645       -21.1064
 166   2.0000      -0.766725       -20.8636
 167   2.0000      -0.763446       -20.7744
 168   2.0000      -0.750392       -20.4192
 169   2.0000      -0.735866       -20.0239
 170   2.0000      -0.727905       -19.8073
 171   2.0000      -0.714670       -19.4472
 172   2.0000      -0.710929       -19.3454
 173   2.0000      -0.701788       -19.0966
 174   2.0000      -0.696657       -18.9570
 175   2.0000      -0.691917       -18.8280
 176   2.0000      -0.688737       -18.7415
 177   2.0000      -0.687643       -18.7117
 178   2.0000      -0.680624       -18.5207
 179   2.0000      -0.676728       -18.4147
 180   2.0000      -0.670371       -18.2417
 181   2.0000      -0.664641       -18.0858
 182   2.0000      -0.660587       -17.9755
 183   2.0000      -0.657294       -17.8859
 184   2.0000      -0.650438       -17.6993
 185   2.0000      -0.646567       -17.5940
 186   2.0000      -0.642128       -17.4732
 187   2.0000      -0.639775       -17.4092
 188   2.0000      -0.637166       -17.3382
 189   2.0000      -0.633389       -17.2354
 190   2.0000      -0.629804       -17.1378
 191   2.0000      -0.622659       -16.9434
 192   2.0000      -0.619663       -16.8619
 193   2.0000      -0.618564       -16.8320
 194   2.0000      -0.613969       -16.7069
 195   2.0000      -0.612301       -16.6615
 196   2.0000      -0.604161       -16.4401
 197   2.0000      -0.594573       -16.1792
 198   2.0000      -0.591544       -16.0967
 199   2.0000      -0.590271       -16.0621
 200   2.0000      -0.584338       -15.9007
 201   2.0000      -0.579710       -15.7747
 202   2.0000      -0.577406       -15.7120
 203   2.0000      -0.575715       -15.6660
 204   2.0000      -0.572154       -15.5691
 205   2.0000      -0.561817       -15.2878
 206   2.0000      -0.556835       -15.1522
 207   2.0000      -0.555849       -15.1254
 208   2.0000      -0.550499       -14.9799
 209   2.0000      -0.544513       -14.8170
 210   2.0000      -0.543473       -14.7886
 211   2.0000      -0.542442       -14.7606
 212   2.0000      -0.537363       -14.6224
 213   2.0000      -0.534394       -14.5416
 214   2.0000      -0.531935       -14.4747
 215   2.0000      -0.529863       -14.4183
 216   2.0000      -0.528451       -14.3799
 217   2.0000      -0.526727       -14.3330
 218   2.0000      -0.523428       -14.2432
 219   2.0000      -0.520569       -14.1654
 220   2.0000      -0.517381       -14.0786
 221   2.0000      -0.516237       -14.0475
 222   2.0000      -0.512642       -13.9497
 223   2.0000      -0.510747       -13.8981
 224   2.0000      -0.510070       -13.8797
 225   2.0000      -0.506041       -13.7701
 226   2.0000      -0.504308       -13.7229
 227   2.0000      -0.502685       -13.6787
 228   2.0000      -0.501102       -13.6357
 229   2.0000      -0.498002       -13.5513
 230   2.0000      -0.493833       -13.4379
 231   2.0000      -0.491316       -13.3694
 232   2.0000      -0.489289       -13.3142
 233   2.0000      -0.487476       -13.2649
 234   2.0000      -0.486169       -13.2293
 235   2.0000      -0.484736       -13.1903
 236   2.0000      -0.482339       -13.1251
 237   2.0000      -0.477440       -12.9918
 238   2.0000      -0.472325       -12.8526
 239   2.0000      -0.470095       -12.7919
 240   2.0000      -0.466282       -12.6882
 241   2.0000      -0.463840       -12.6217
 242   2.0000      -0.461300       -12.5526
 243   2.0000      -0.458918       -12.4878
 244   2.0000      -0.457677       -12.4540
 245   2.0000      -0.456611       -12.4250
 246   2.0000      -0.454528       -12.3683
 247   2.0000      -0.453116       -12.3299
 248   2.0000      -0.451083       -12.2746
 249   2.0000      -0.449228       -12.2241
 250   2.0000      -0.447880       -12.1874
 251   2.0000      -0.444465       -12.0945
 252   2.0000      -0.440737       -11.9931
 253   2.0000      -0.438533       -11.9331
 254   2.0000      -0.436785       -11.8855
 255   2.0000      -0.435594       -11.8531
 256   2.0000      -0.434022       -11.8103
 257   2.0000      -0.433092       -11.7850
 258   2.0000      -0.430613       -11.7176
 259   2.0000      -0.427146       -11.6232
 260   2.0000      -0.423881       -11.5344
 261   2.0000      -0.422051       -11.4846
 262   2.0000      -0.418019       -11.3749
 263   2.0000      -0.415718       -11.3123
 264   2.0000      -0.414233       -11.2719
 265   2.0000      -0.408458       -11.1147
 266   2.0000      -0.407571       -11.0906
 267   2.0000      -0.406525       -11.0621
 268   2.0000      -0.396265       -10.7829
 269   2.0000      -0.394688       -10.7400
 270   2.0000      -0.391641       -10.6571
 271   2.0000      -0.388086       -10.5604
 272   2.0000      -0.380919       -10.3653
 273   2.0000      -0.379011       -10.3134
 274   2.0000      -0.378885       -10.3100
 275   2.0000      -0.378138       -10.2896
 276   2.0000      -0.371383       -10.1058
 277   2.0000      -0.368279       -10.0214
 278   2.0000      -0.367603       -10.0030
 279   2.0000      -0.362053        -9.8520
 280   2.0000      -0.355378        -9.6703
 281   2.0000      -0.352990        -9.6053
 282   2.0000      -0.351579        -9.5670
 283   2.0000      -0.349644        -9.5143
 284   2.0000      -0.340512        -9.2658
 285   2.0000      -0.338100        -9.2002
 286   2.0000      -0.335740        -9.1360
 287   2.0000      -0.331823        -9.0294
 288   2.0000      -0.327183        -8.9031
 289   2.0000      -0.322755        -8.7826
 290   2.0000      -0.308130        -8.3846
 291   2.0000      -0.307432        -8.3656
 292   2.0000      -0.301679        -8.2091
 293   2.0000      -0.300090        -8.1659
 294   2.0000      -0.284208        -7.7337
 295   2.0000      -0.272158        -7.4058
 296   2.0000      -0.229864        -6.2549
 297   0.0000      -0.117628        -3.2008
 298   0.0000      -0.092172        -2.5081
 299   0.0000      -0.066048        -1.7973
 300   0.0000      -0.062867        -1.7107
 301   0.0000      -0.055475        -1.5095

MULLIKEN ATOMIC CHARGES
-----------------------
   0 C :    0.313160
   1 C :   -0.336964
   2 C :   -0.185085
   3 N :    0.160262
   4 C :   -0.197446
   5 N :    0.162334
   6 C :    0.013172
   7 C :   -0.000316
   8 C :   -0.058061
   9 C :    0.107904
  10 C :   -0.088233
  11 C :   -0.021073
  12 S :    0.191418
  13 C :   -0.125023
  14 C :    0.046789
  15 Br:    0.031818
  16 C :    0.153477
  17 O :   -0.162622
  18 C :   -0.065994
  19 C :    0.024501
  20 C :   -0.190623
  21 S :   -0.065744
  22 C :    0.038833
  23 C :   -0.221061
  24 C :    0.178705
  25 C :    0.074117
  26 O :   -0.238861
  27 N :   -0.060177
  28 N :   -0.103005
  29 N :   -0.007320
  30 C :   -0.134035
  31 S :    0.156098
  32 C :    0.034057
  33 N :    0.282941
  34 O :   -0.265755
  35 O :   -0.275141
  36 C :   -0.001856
  37 C :    0.137464
  38 C :   -0.018144
  39 C :   -0.012299
  40 C :    0.041776
  41 C :   -0.034437
  42 C :    0.057143
  43 C :    0.014530
  44 C :    0.016391
  45 S :    0.078222
  46 C :   -0.058431
  47 C :    0.048890
  48 C :    0.023305
  49 C :   -0.025724
  50 S :    0.087626
  51 C :    0.015177
  52 C :   -0.038098
  53 C :   -0.105137
  54 C :    0.308739
  55 C :   -0.362054
  56 C :   -0.178683
  57 N :    0.132831
  58 C :   -0.222177
  59 N :    0.155203
  60 C :    0.000579
  61 C :    0.004765
  62 C :    0.167820
  63 O :   -0.242941
  64 C :   -0.078781
  65 C :    0.114433
  66 C :   -0.091732
  67 C :   -0.024739
  68 S :    0.182119
  69 C :   -0.126368
  70 C :    0.039303
  71 Br:    0.015246
  72 H :   -0.009043
  73 H :   -0.002397
  74 H :    0.006905
  75 H :    0.029037
  76 H :    0.094422
  77 H :    0.065950
  78 H :    0.072755
  79 H :    0.027528
  80 H :    0.032818
  81 H :    0.153288
  82 H :    0.133529
  83 H :    0.130119
  84 H :    0.142741
  85 H :    0.006697
  86 H :   -0.022609
  87 H :   -0.012510
  88 H :    0.001156
  89 H :    0.000192
  90 H :   -0.005350
  91 H :   -0.003497
  92 H :    0.001550
  93 H :    0.005699
  94 H :   -0.000458
  95 H :   -0.020220
  96 H :   -0.008521
  97 H :   -0.006788
Sum of atomic charges:   -0.0000000

LOEWDIN ATOMIC CHARGES
----------------------
   0 C :    0.076900
   1 C :   -0.129982
   2 C :   -0.018356
   3 N :   -0.044163
   4 C :   -0.020270
   5 N :   -0.044142
   6 C :   -0.021228
   7 C :   -0.054378
   8 C :    0.032279
   9 C :   -0.028767
  10 C :   -0.140845
  11 C :   -0.007989
  12 S :    0.436469
  13 C :   -0.269068
  14 C :   -0.065424
  15 Br:    0.143493
  16 C :    0.095361
  17 O :   -0.145674
  18 C :   -0.086261
  19 C :    0.063580
  20 C :   -0.128655
  21 S :    0.241281
  22 C :   -0.128706
  23 C :   -0.043470
  24 C :   -0.020199
  25 C :    0.051404
  26 O :   -0.232254
  27 N :    0.022431
  28 N :   -0.019815
  29 N :    0.049112
  30 C :   -0.077103
  31 S :    0.455793
  32 C :   -0.202787
  33 N :    0.278224
  34 O :   -0.231633
  35 O :   -0.238106
  36 C :    0.020792
  37 C :   -0.122937
  38 C :    0.017244
  39 C :   -0.063776
  40 C :    0.004689
  41 C :   -0.169713
  42 C :    0.005493
  43 C :   -0.054122
  44 C :   -0.125934
  45 S :    0.449294
  46 C :   -0.205458
  47 C :    0.000814
  48 C :   -0.053902
  49 C :   -0.095963
  50 S :    0.424763
  51 C :   -0.080484
  52 C :    0.035321
  53 C :   -0.133940
  54 C :    0.068807
  55 C :   -0.158522
  56 C :   -0.020156
  57 N :   -0.069139
  58 C :   -0.022826
  59 N :   -0.065609
  60 C :   -0.012882
  61 C :   -0.052690
  62 C :    0.098376
  63 O :   -0.206139
  64 C :    0.016949
  65 C :   -0.039252
  66 C :   -0.144892
  67 C :   -0.015416
  68 S :    0.430318
  69 C :   -0.275774
  70 C :   -0.070940
  71 Br:    0.130337
  72 H :    0.042594
  73 H :    0.041913
  74 H :    0.043504
  75 H :    0.037827
  76 H :    0.014846
  77 H :    0.027617
  78 H :    0.032107
  79 H :    0.040244
  80 H :    0.039177
  81 H :    0.061556
  82 H :    0.077614
  83 H :    0.045525
  84 H :    0.063800
  85 H :    0.042998
  86 H :    0.002653
  87 H :    0.030855
  88 H :    0.042594
  89 H :    0.039004
  90 H :    0.035713
  91 H :    0.036932
  92 H :    0.039411
  93 H :    0.037395
  94 H :    0.019836
  95 H :    0.036965
  96 H :    0.040250
  97 H :    0.037281

  Mayer bond orders larger than 0.100000
B(  0-C ,  1-C ) :   1.6723 B(  0-C ,  6-C ) :   1.0197 B(  0-C , 18-C ) :   1.0099
B(  1-C ,  2-C ) :   1.1342 B(  1-C ,  4-C ) :   1.1423 B(  2-C ,  3-N ) :   2.9796
B(  4-C ,  5-N ) :   2.9875 B(  6-C ,  7-C ) :   1.2678 B(  6-C , 11-C ) :   1.4021
B(  7-C ,  8-C ) :   1.4016 B(  7-C , 16-C ) :   0.9590 B(  8-C ,  9-C ) :   1.2615
B(  8-C , 72-H ) :   1.0128 B(  9-C , 10-C ) :   1.2923 B(  9-C , 14-C ) :   1.1679
B( 10-C , 11-C ) :   1.3391 B( 10-C , 12-S ) :   1.0907 B( 11-C , 73-H ) :   0.9805
B( 12-S , 13-C ) :   1.0852 B( 13-C , 14-C ) :   1.6135 B( 13-C , 15-Br) :   1.0241
B( 14-C , 74-H ) :   1.0005 B( 16-C , 17-O ) :   2.1349 B( 16-C , 18-C ) :   0.9363
B( 18-C , 19-C ) :   1.7715 B( 19-C , 20-C ) :   0.9626 B( 19-C , 75-H ) :   0.9321
B( 20-C , 21-S ) :   0.9818 B( 20-C , 24-C ) :   0.9952 B( 20-C , 76-H ) :   0.8874
B( 21-S , 22-C ) :   0.9803 B( 22-C , 23-C ) :   1.0088 B( 22-C , 77-H ) :   0.9398
B( 22-C , 78-H ) :   0.9252 B( 23-C , 24-C ) :   1.0057 B( 23-C , 25-C ) :   0.8471
B( 23-C , 28-N ) :   0.9950 B( 24-C , 79-H ) :   0.9375 B( 24-C , 80-H ) :   0.9192
B( 25-C , 26-O ) :   2.0765 B( 25-C , 27-N ) :   1.3668 B( 27-N , 81-H ) :   0.8704
B( 27-N , 82-H ) :   0.9331 B( 28-N , 29-N ) :   1.0171 B( 28-N , 83-H ) :   0.9605
B( 29-N , 30-C ) :   1.2881 B( 29-N , 84-H ) :   0.9018 B( 30-C , 31-S ) :   1.1515
B( 30-C , 37-C ) :   1.2782 B( 31-S , 32-C ) :   1.0415 B( 32-C , 33-N ) :   0.9860
B( 32-C , 36-C ) :   1.5215 B( 33-N , 34-O ) :   1.5027 B( 33-N , 35-O ) :   1.5015
B( 34-O , 35-O ) :   0.2472 B( 36-C , 37-C ) :   1.1994 B( 36-C , 85-H ) :   0.9951
B( 37-C , 38-C ) :   1.1551 B( 38-C , 39-C ) :   1.5908 B( 38-C , 86-H ) :   0.9390
B( 39-C , 40-C ) :   1.2321 B( 39-C , 87-H ) :   0.9659 B( 40-C , 41-C ) :   1.5219
B( 40-C , 88-H ) :   0.9615 B( 41-C , 42-C ) :   1.1823 B( 41-C , 45-S ) :   1.0415
B( 42-C , 43-C ) :   1.5419 B( 42-C , 89-H ) :   0.9975 B( 43-C , 44-C ) :   1.2300
B( 43-C , 90-H ) :   0.9943 B( 44-C , 45-S ) :   1.1358 B( 44-C , 46-C ) :   1.3875
B( 46-C , 47-C ) :   1.2773 B( 46-C , 50-S ) :   1.0453 B( 47-C , 48-C ) :   1.4769
B( 47-C , 91-H ) :   0.9951 B( 48-C , 49-C ) :   1.2379 B( 48-C , 92-H ) :   1.0006
B( 49-C , 50-S ) :   1.1235 B( 49-C , 51-C ) :   1.3804 B( 51-C , 52-C ) :   1.3466
B( 51-C , 93-H ) :   0.9698 B( 52-C , 53-C ) :   1.3844 B( 52-C , 94-H ) :   0.9275
B( 53-C , 54-C ) :   1.1144 B( 53-C , 62-C ) :   1.0472 B( 54-C , 55-C ) :   1.5869
B( 54-C , 60-C ) :   0.9897 B( 55-C , 56-C ) :   1.1344 B( 55-C , 58-C ) :   1.1767
B( 56-C , 57-N ) :   2.9682 B( 58-C , 59-N ) :   2.9974 B( 60-C , 61-C ) :   1.2760
B( 60-C , 67-C ) :   1.4383 B( 61-C , 62-C ) :   0.9542 B( 61-C , 64-C ) :   1.4259
B( 62-C , 63-O ) :   1.9947 B( 63-O , 81-H ) :   0.1211 B( 64-C , 65-C ) :   1.2391
B( 64-C , 95-H ) :   1.0159 B( 65-C , 66-C ) :   1.3253 B( 65-C , 70-C ) :   1.1599
B( 66-C , 67-C ) :   1.3053 B( 66-C , 68-S ) :   1.0863 B( 67-C , 96-H ) :   0.9805
B( 68-S , 69-C ) :   1.0872 B( 69-C , 70-C ) :   1.6203 B( 69-C , 71-Br) :   1.0137
B( 70-C , 97-H ) :   0.9998

-----------------------------------------------------------------------------
         ABSORPTION SPECTRUM VIA TRANSITION ELECTRIC DIPOLE MOMENTS
-----------------------------------------------------------------------------
State   Energy  Wavelength   fosc         T2         TX        TY        TZ
        (cm-1)    (nm)                  (au**2)     (au)      (au)      (au)
-----------------------------------------------------------------------------
   0    9958.7   1004.1   0.836592808  27.65579   2.35257   2.07472  -4.22099
   1   18840.2    530.8   0.450930376   7.87953  -0.26520   2.79440   0.02313
   2   19231.9    520.0   0.000801089   0.01371  -0.07855  -0.04348  -0.07518
   3   20712.4    482.8   0.063409220   1.00786   0.15487  -0.87238   0.47203
   4   22896.4    436.7   0.370915525   5.33315   0.26431  -2.15325  -0.79172
   5   23625.1    423.3   0.045094077   0.62838  -0.13222   0.77983  -0.05260
   6   23920.5    418.1   0.026500732   0.36472   0.53011   0.26739  -0.11047
   7   25067.3    398.9   0.062856547   0.82550   0.49100   0.41785  -0.64018
   8   25741.4    388.5   0.354029384   4.52776   0.15075  -2.04893  -0.55401
   9   26085.6    383.4   0.029697440   0.37479  -0.12389  -0.04308  -0.59799
  10   26712.2    374.4   0.078476071   0.96717   0.13191  -0.77798  -0.58696
  11   27818.9    359.5   0.106221165   1.25703  -0.43754   0.92900   0.45006
  12   28218.3    354.4   0.057387769   0.66952  -0.81189   0.09323  -0.04073
  13   28289.1    353.5   0.009870942   0.11487   0.10939   0.22322   0.23039
  14   28542.3    350.4   0.436316118   5.03255  -1.28751  -0.21574   1.82437
  15   28770.1    347.6   0.006825152   0.07810   0.00468   0.22816   0.16131
  16   29697.0    336.7   0.024715187   0.27398   0.12116  -0.12340  -0.49404
  17   29786.3    335.7   0.004772038   0.05274   0.07412   0.11676  -0.18335
  18   30115.7    332.1   0.003679602   0.04022  -0.16779  -0.10145  -0.04218
  19   30513.9    327.7   0.023203270   0.25034  -0.18167   0.43382   0.17068
  20   30691.1    325.8   0.133644267   1.43355  -0.10763  -1.11938  -0.41104
  21   30936.7    323.2   0.107609506   1.14512  -0.69571   0.15862   0.79746
  22   31207.5    320.4   0.481955247   5.08421   0.47120   2.06075   0.78453
  23   31366.5    318.8   0.041986703   0.44068  -0.60916  -0.05774   0.25743
  24   31892.9    313.5   0.021549197   0.22244  -0.01662   0.46570  -0.07271
  25   32176.9    310.8   0.118856721   1.21606  -0.46711  -0.96370   0.26296
  26   32934.2    303.6   0.014392358   0.14387   0.27330  -0.18304  -0.18887
  27   32998.1    303.0   0.092564083   0.92348   0.29177   0.56617   0.71959
  28   33380.6    299.6   0.014181242   0.13986  -0.14078  -0.18676  -0.29182
  29   33643.5    297.2   0.433375886   4.24072  -1.71201  -0.39772   1.07312
  30   33903.9    295.0   0.148903252   1.44587   0.80138   0.14527  -0.88462
  31   33977.8    294.3   0.053499441   0.51836  -0.02051  -0.35468   0.62621
  32   34141.4    292.9   0.056747123   0.54719  -0.48728  -0.33717   0.44279
  33   34309.9    291.5   0.011527372   0.11061  -0.12822  -0.13806   0.27406
  34   34483.8    290.0   0.054701463   0.52223  -0.24852  -0.55106   0.39598
  35   35021.5    285.5   0.002816439   0.02648   0.09505   0.13206  -0.00109
  36   35143.2    284.6   0.045421763   0.42550  -0.47425  -0.16384   0.41682
  37   35283.1    283.4   0.095116974   0.88750  -0.79230  -0.33272  -0.38607
  38   35568.5    281.1   0.173239537   1.60346  -0.08976   0.74622   1.01909
  39   36275.6    275.7   0.121552183   1.10312   0.45620   0.15654   0.93301
  40   36314.5    275.4   0.008225282   0.07457   0.14356  -0.23109   0.02354
  41   36595.3    273.3   0.094475384   0.84990   0.29740   0.84951  -0.19947
  42   36821.8    271.6   0.011998265   0.10727  -0.06237  -0.09746  -0.30641
  43   37182.0    268.9   0.007545822   0.06681  -0.16779   0.05936   0.18744
  44   37252.0    268.4   0.012966453   0.11459  -0.15562   0.29998   0.01958
  45   37545.6    266.3   0.116065153   1.01770   0.05504   0.42885   0.91146
  46   37618.2    265.8   0.029180709   0.25537  -0.06134   0.01798  -0.50128
  47   37769.3    264.8   0.010990047   0.09579  -0.09172  -0.04514   0.29214
  48   38159.5    262.1   0.000577365   0.00498  -0.00490  -0.02901  -0.06415
  49   38295.9    261.1   0.082500852   0.70922   0.19680  -0.68371  -0.45059
  50   38394.2    260.5   0.002570024   0.02204  -0.04612  -0.02711  -0.13847
  51   38494.6    259.8   0.001484898   0.01270  -0.07337  -0.08517   0.00782
  52   38684.6    258.5   0.176997570   1.50628   0.30504  -0.17892  -1.17525
  53   38895.1    257.1   0.002104126   0.01781  -0.02572  -0.12776  -0.02873
  54   39378.9    253.9   0.007357703   0.06151  -0.12353  -0.00404   0.21502
  55   39490.9    253.2   0.169776078   1.41532   0.20040   0.00847  -1.17264
  56   39562.2    252.8   0.366789369   3.05219  -0.34891  -0.56555  -1.61574
  57   39693.1    251.9   0.149594356   1.24073   0.35291   0.07221  -1.05403
  58   39977.8    250.1   0.010710287   0.08820  -0.15624  -0.24566   0.05863

FINAL SINGLE POINT ENERGY    -10305.864210657959

DIPOLE MOMENT
-------------
                                X             Y             Z
Electronic contribution:      4.08451     121.65068      72.29378
Nuclear contribution   :     -4.96566    -124.47705     -69.82509
                        -----------------------------------------
Total Dipole Moment    :     -0.88115      -2.82637       2.46869
                        -----------------------------------------
Magnitude (a.u.)       :      3.85476
Magnitude (Debye)      :      9.79803

Rotational constants in cm-1:     0.000888     0.000310     0.000247
Rotational constants in MHz :    26.606994     9.291354     7.407645

                             ****ORCA TERMINATED NORMALLY****
TOTAL RUN TIME: 0 days 0 hours 12 minutes 22 seconds 546 msec
