                         Program Version 4.2.0 -  RELEASE  -
|  1> # ORCA input file
|  2> # SCF done       -163.600999626549          0.000970581369
|  3> ! CAM-B3LYP def2-SVP def2/J RIJCOSX Grid4 TightSCF
|  4> %maxcore 5000
|  5> %tddft
|  6>     Mode sTDDFT
|  7>     Ethresh 5.0
|  8>     maxcore 5000
|  9> end
| 10>
| 11> %pal
| 12>   nprocs 6
| 13>   end
| 14> * xyz 0 1
| 15>    C       -4.21467        -1.79262        -3.58377
| 16>    C       -3.59226        -2.93633        -3.16134
| 17>    C       -3.81164        -4.20576        -3.73476
| 18>    N       -3.94187        -5.26248        -4.16493
| 19>    C       -2.60408        -3.01155        -2.15471
| 20>    N       -1.77358        -3.17529        -1.37954
| 21>    C       -5.12603        -1.69051        -4.70890
| 22>    C       -5.34231        -0.32032        -4.99403
| 23>    C       -6.13689         0.10322        -6.03174
| 24>    C       -6.77413        -0.87278        -6.80536
| 25>    C       -6.57908        -2.24074        -6.49238
| 26>    C       -5.75024        -2.66950        -5.46545
| 27>    S       -7.48442        -3.27551        -7.55702
| 28>    C       -8.08151        -1.87775        -8.41197
| 29>    C       -7.64431        -0.69616        -7.91409
| 30>   Br       -9.23143        -2.10994        -9.87057
| 31>    C       -4.61205         0.51823        -4.01791
| 32>    O       -4.55362         1.72174        -4.03235
| 33>    C       -4.01338        -0.44685        -3.04251
| 34>    C       -3.53485        -0.20800        -1.80171
| 35>    C       -3.35113         1.04194        -1.08419
| 36>    N       -3.18958         0.87896         0.23714
| 37>    C       -3.01189         1.97452         0.95391
| 38>    C       -3.00350         3.23864         0.39235
| 39>    C       -3.18573         3.31730        -0.99906
| 40>    N       -3.33934         2.19929        -1.71510
| 41>    C       -3.23849         4.57906        -1.69547
| 42>    C       -3.49317         4.59402        -3.02242
| 43>    C       -3.68300         5.67937        -3.91308
| 44>    S       -4.23994         5.23307        -5.49862
| 45>    C       -4.35296         6.89865        -5.99546
| 46>    C       -3.95076         7.74409        -4.96123
| 47>    C       -3.56354         7.06143        -3.80116
| 48>    C       -3.07348         7.77533        -2.58069
| 49>    C       -2.69881         9.22030        -2.90139
| 50>    C       -3.81851         9.90041        -3.70308
| 51>    N       -3.64482        11.33014        -3.89057
| 52>    C       -3.91981         9.23450        -5.07701
| 53>    C       -4.83310         7.22102        -7.28301
| 54>    C       -5.15512         6.23957        -8.17827
| 55>    C       -5.72244         6.37130        -9.44757
| 56>    C       -6.01680         5.26051       -10.21068
| 57>    C       -6.67002         5.18090       -11.45961
| 58>    C       -6.84789         3.90714       -11.92273
| 59>    C       -6.32166         2.91420       -11.07235
| 60>    S       -5.60810         3.64345        -9.65609
| 61>    C       -6.30615         1.53756       -11.22306
| 62>    C       -6.92049         0.73436       -12.20265
| 63>    C       -6.72113        -0.60308       -12.02008
| 64>    C       -5.92465        -0.92571       -10.89593
| 65>    S       -5.43909         0.53961       -10.06987
| 66>    C       -5.59878        -2.19612       -10.48075
| 67>    C       -4.79167        -2.56027        -9.39873
| 68>    S       -3.91662        -1.39050        -8.44027
| 69>    C       -3.23261        -2.59690        -7.44899
| 70>    C       -3.63338        -3.87042        -7.80680
| 71>    C       -4.53790        -3.86183        -8.91772
| 72>    C       -5.06778        -5.09971        -9.35932
| 73>    C       -5.99843        -5.21007       -10.41454
| 74>    N       -6.77031        -5.36633       -11.25005
| 75>    C       -4.68717        -6.27034        -8.72821
| 76>    C       -3.77806        -6.26130        -7.66078
| 77>    C       -3.25155        -5.08807        -7.20071
| 78>    H       -6.26423         1.15351        -6.24125
| 79>    H       -5.62600        -3.72171        -5.27045
| 80>    H       -7.91998         0.26234        -8.31362
| 81>    H       -3.29318        -1.05565        -1.17127
| 82>    H       -2.87620         1.82275         2.01769
| 83>    H       -2.86412         4.12466         0.99079
| 84>    H       -3.11235         5.46893        -1.09864
| 85>    H       -3.62940         3.61838        -3.47285
| 86>    H       -2.20848         7.24924        -2.17016
| 87>    H       -3.86253         7.76235        -1.82116
| 88>    H       -1.77662         9.24115        -3.48864
| 89>    H       -2.51934         9.76656        -1.97172
| 90>    H       -4.76710         9.76277        -3.16958
| 91>    H       -2.75821        11.51997        -4.34728
| 92>    H       -3.64112        11.81020        -2.99749
| 93>    H       -3.05488         9.53409        -5.67940
| 94>    H       -4.81131         9.59957        -5.58914
| 95>    H       -4.95538         8.26426        -7.53727
| 96>    H       -4.97202         5.21943        -7.85794
| 97>    H       -5.96834         7.34929        -9.83726
| 98>    H       -6.99994         6.06455       -11.97740
| 99>    H       -7.33035         3.66187       -12.85206
|100>    H       -7.50521         1.15642       -12.99996
|101>    H       -7.12492        -1.37276       -12.65329
|102>    H       -6.01798        -3.00468       -11.06327
|103>    H       -2.55818        -2.32175        -6.66296
|104>    H       -5.10211        -7.20702        -9.07000
|105>    H       -3.50320        -7.19641        -7.19905
|106>    H       -2.55677        -5.07209        -6.37656
|107> *
|108>
|109>                          ****END OF INPUT****

CARTESIAN COORDINATES (ANGSTROEM)
---------------------------------
  C     -4.214670   -1.792620   -3.583770
  C     -3.592260   -2.936330   -3.161340
  C     -3.811640   -4.205760   -3.734760
  N     -3.941870   -5.262480   -4.164930
  C     -2.604080   -3.011550   -2.154710
  N     -1.773580   -3.175290   -1.379540
  C     -5.126030   -1.690510   -4.708900
  C     -5.342310   -0.320320   -4.994030
  C     -6.136890    0.103220   -6.031740
  C     -6.774130   -0.872780   -6.805360
  C     -6.579080   -2.240740   -6.492380
  C     -5.750240   -2.669500   -5.465450
  S     -7.484420   -3.275510   -7.557020
  C     -8.081510   -1.877750   -8.411970
  C     -7.644310   -0.696160   -7.914090
  Br    -9.231430   -2.109940   -9.870570
  C     -4.612050    0.518230   -4.017910
  O     -4.553620    1.721740   -4.032350
  C     -4.013380   -0.446850   -3.042510
  C     -3.534850   -0.208000   -1.801710
  C     -3.351130    1.041940   -1.084190
  N     -3.189580    0.878960    0.237140
  C     -3.011890    1.974520    0.953910
  C     -3.003500    3.238640    0.392350
  C     -3.185730    3.317300   -0.999060
  N     -3.339340    2.199290   -1.715100
  C     -3.238490    4.579060   -1.695470
  C     -3.493170    4.594020   -3.022420
  C     -3.683000    5.679370   -3.913080
  S     -4.239940    5.233070   -5.498620
  C     -4.352960    6.898650   -5.995460
  C     -3.950760    7.744090   -4.961230
  C     -3.563540    7.061430   -3.801160
  C     -3.073480    7.775330   -2.580690
  C     -2.698810    9.220300   -2.901390
  C     -3.818510    9.900410   -3.703080
  N     -3.644820   11.330140   -3.890570
  C     -3.919810    9.234500   -5.077010
  C     -4.833100    7.221020   -7.283010
  C     -5.155120    6.239570   -8.178270
  C     -5.722440    6.371300   -9.447570
  C     -6.016800    5.260510  -10.210680
  C     -6.670020    5.180900  -11.459610
  C     -6.847890    3.907140  -11.922730
  C     -6.321660    2.914200  -11.072350
  S     -5.608100    3.643450   -9.656090
  C     -6.306150    1.537560  -11.223060
  C     -6.920490    0.734360  -12.202650
  C     -6.721130   -0.603080  -12.020080
  C     -5.924650   -0.925710  -10.895930
  S     -5.439090    0.539610  -10.069870
  C     -5.598780   -2.196120  -10.480750
  C     -4.791670   -2.560270   -9.398730
  S     -3.916620   -1.390500   -8.440270
  C     -3.232610   -2.596900   -7.448990
  C     -3.633380   -3.870420   -7.806800
  C     -4.537900   -3.861830   -8.917720
  C     -5.067780   -5.099710   -9.359320
  C     -5.998430   -5.210070  -10.414540
  N     -6.770310   -5.366330  -11.250050
  C     -4.687170   -6.270340   -8.728210
  C     -3.778060   -6.261300   -7.660780
  C     -3.251550   -5.088070   -7.200710
  H     -6.264230    1.153510   -6.241250
  H     -5.626000   -3.721710   -5.270450
  H     -7.919980    0.262340   -8.313620
  H     -3.293180   -1.055650   -1.171270
  H     -2.876200    1.822750    2.017690
  H     -2.864120    4.124660    0.990790
  H     -3.112350    5.468930   -1.098640
  H     -3.629400    3.618380   -3.472850
  H     -2.208480    7.249240   -2.170160
  H     -3.862530    7.762350   -1.821160
  H     -1.776620    9.241150   -3.488640
  H     -2.519340    9.766560   -1.971720
  H     -4.767100    9.762770   -3.169580
  H     -2.758210   11.519970   -4.347280
  H     -3.641120   11.810200   -2.997490
  H     -3.054880    9.534090   -5.679400
  H     -4.811310    9.599570   -5.589140
  H     -4.955380    8.264260   -7.537270
  H     -4.972020    5.219430   -7.857940
  H     -5.968340    7.349290   -9.837260
  H     -6.999940    6.064550  -11.977400
  H     -7.330350    3.661870  -12.852060
  H     -7.505210    1.156420  -12.999960
  H     -7.124920   -1.372760  -12.653290
  H     -6.017980   -3.004680  -11.063270
  H     -2.558180   -2.321750   -6.662960
  H     -5.102110   -7.207020   -9.070000
  H     -3.503200   -7.196410   -7.199050
  H     -2.556770   -5.072090   -6.376560

 Total Charge           Charge          ....    0
 Multiplicity           Mult            ....    1
 Number of Electrons    NEL             ....  494
 Basis Dimension        Dim             .... 1065

ORBITAL ENERGIES
----------------

  NO   OCC          E(Eh)            E(eV)
   0   2.0000    -482.878495    -13139.7919
   1   2.0000     -88.972054     -2421.0527
   2   2.0000     -88.970210     -2421.0025
   3   2.0000     -88.949330     -2420.4343
   4   2.0000     -88.944633     -2420.3065
   5   2.0000     -88.942600     -2420.2512
   6   2.0000     -62.555848     -1702.2312
   7   2.0000     -56.389787     -1534.4441
   8   2.0000     -56.387111     -1534.3713
   9   2.0000     -56.387063     -1534.3700
  10   2.0000     -19.213875      -522.8361
  11   2.0000     -14.419952      -392.3868
  12   2.0000     -14.413629      -392.2148
  13   2.0000     -14.405709      -391.9993
  14   2.0000     -14.401720      -391.8907
  15   2.0000     -14.401061      -391.8728
  16   2.0000     -14.382054      -391.3556
  17   2.0000     -10.367976      -282.1270
  18   2.0000     -10.352478      -281.7053
  19   2.0000     -10.344451      -281.4868
  20   2.0000     -10.343754      -281.4679
  21   2.0000     -10.342505      -281.4339
  22   2.0000     -10.323610      -280.9197
  23   2.0000     -10.322949      -280.9017
  24   2.0000     -10.321133      -280.8523
  25   2.0000     -10.316920      -280.7377
  26   2.0000     -10.316102      -280.7154
  27   2.0000     -10.311413      -280.5878
  28   2.0000     -10.309853      -280.5454
  29   2.0000     -10.308031      -280.4958
  30   2.0000     -10.307872      -280.4915
  31   2.0000     -10.307835      -280.4905
  32   2.0000     -10.307359      -280.4775
  33   2.0000     -10.305290      -280.4212
  34   2.0000     -10.305088      -280.4157
  35   2.0000     -10.305020      -280.4138
  36   2.0000     -10.304170      -280.3907
  37   2.0000     -10.303604      -280.3753
  38   2.0000     -10.302101      -280.3344
  39   2.0000     -10.298168      -280.2274
  40   2.0000     -10.295651      -280.1589
  41   2.0000     -10.294223      -280.1200
  42   2.0000     -10.292591      -280.0756
  43   2.0000     -10.291605      -280.0488
  44   2.0000     -10.290755      -280.0257
  45   2.0000     -10.290113      -280.0082
  46   2.0000     -10.289706      -279.9971
  47   2.0000     -10.289417      -279.9893
  48   2.0000     -10.288354      -279.9603
  49   2.0000     -10.286645      -279.9138
  50   2.0000     -10.285415      -279.8804
  51   2.0000     -10.283891      -279.8389
  52   2.0000     -10.283819      -279.8370
  53   2.0000     -10.282490      -279.8008
  54   2.0000     -10.282360      -279.7972
  55   2.0000     -10.282206      -279.7931
  56   2.0000     -10.281261      -279.7673
  57   2.0000     -10.280983      -279.7598
  58   2.0000     -10.275724      -279.6167
  59   2.0000     -10.275702      -279.6161
  60   2.0000     -10.275651      -279.6147
  61   2.0000     -10.274930      -279.5951
  62   2.0000     -10.273348      -279.5520
  63   2.0000     -10.272563      -279.5307
  64   2.0000     -10.267084      -279.3816
  65   2.0000     -10.265568      -279.3403
  66   2.0000     -10.263088      -279.2728
  67   2.0000      -8.785185      -239.0570
  68   2.0000      -8.065814      -219.4820
  69   2.0000      -8.065053      -219.4613
  70   2.0000      -8.044678      -218.9068
  71   2.0000      -8.040880      -218.8035
  72   2.0000      -8.038238      -218.7316
  73   2.0000      -6.621461      -180.1791
  74   2.0000      -6.606959      -179.7845
  75   2.0000      -6.606705      -179.7776
  76   2.0000      -6.034844      -164.2165
  77   2.0000      -6.034835      -164.2162
  78   2.0000      -6.030541      -164.0994
  79   2.0000      -6.030439      -164.0966
  80   2.0000      -6.029047      -164.0587
  81   2.0000      -6.026306      -163.9841
  82   2.0000      -6.014425      -163.6608
  83   2.0000      -6.010564      -163.5558
  84   2.0000      -6.010266      -163.5476
  85   2.0000      -6.007311      -163.4672
  86   2.0000      -6.006609      -163.4481
  87   2.0000      -6.005827      -163.4269
  88   2.0000      -6.003481      -163.3630
  89   2.0000      -6.001827      -163.3180
  90   2.0000      -6.000423      -163.2798
  91   2.0000      -2.737359       -74.4873
  92   2.0000      -2.733288       -74.3766
  93   2.0000      -2.733092       -74.3712
  94   2.0000      -2.721563       -74.0575
  95   2.0000      -2.721551       -74.0572
  96   2.0000      -1.131809       -30.7981
  97   2.0000      -1.079899       -29.3855
  98   2.0000      -1.022029       -27.8108
  99   2.0000      -1.012147       -27.5419
 100   2.0000      -1.003610       -27.3096
 101   2.0000      -0.995685       -27.0940
 102   2.0000      -0.995317       -27.0840
 103   2.0000      -0.987813       -26.8798
 104   2.0000      -0.987606       -26.8741
 105   2.0000      -0.984603       -26.7924
 106   2.0000      -0.977396       -26.5963
 107   2.0000      -0.973295       -26.4847
 108   2.0000      -0.968914       -26.3655
 109   2.0000      -0.940151       -25.5828
 110   2.0000      -0.937203       -25.5026
 111   2.0000      -0.915396       -24.9092
 112   2.0000      -0.911603       -24.8060
 113   2.0000      -0.905380       -24.6366
 114   2.0000      -0.895220       -24.3602
 115   2.0000      -0.891463       -24.2579
 116   2.0000      -0.884064       -24.0566
 117   2.0000      -0.881762       -23.9940
 118   2.0000      -0.877706       -23.8836
 119   2.0000      -0.865510       -23.5517
 120   2.0000      -0.850068       -23.1315
 121   2.0000      -0.846900       -23.0453
 122   2.0000      -0.839379       -22.8407
 123   2.0000      -0.835434       -22.7333
 124   2.0000      -0.834073       -22.6963
 125   2.0000      -0.824546       -22.4370
 126   2.0000      -0.821051       -22.3419
 127   2.0000      -0.811803       -22.0903
 128   2.0000      -0.800423       -21.7806
 129   2.0000      -0.787360       -21.4252
 130   2.0000      -0.780030       -21.2257
 131   2.0000      -0.767692       -20.8900
 132   2.0000      -0.758316       -20.6348
 133   2.0000      -0.746186       -20.3047
 134   2.0000      -0.734668       -19.9913
 135   2.0000      -0.731371       -19.9016
 136   2.0000      -0.721381       -19.6298
 137   2.0000      -0.709053       -19.2943
 138   2.0000      -0.700629       -19.0651
 139   2.0000      -0.693611       -18.8741
 140   2.0000      -0.689683       -18.7672
 141   2.0000      -0.683086       -18.5877
 142   2.0000      -0.681964       -18.5572
 143   2.0000      -0.668648       -18.1948
 144   2.0000      -0.666900       -18.1473
 145   2.0000      -0.664789       -18.0898
 146   2.0000      -0.653746       -17.7893
 147   2.0000      -0.647145       -17.6097
 148   2.0000      -0.642985       -17.4965
 149   2.0000      -0.630589       -17.1592
 150   2.0000      -0.624914       -17.0048
 151   2.0000      -0.623326       -16.9616
 152   2.0000      -0.617102       -16.7922
 153   2.0000      -0.615306       -16.7433
 154   2.0000      -0.608379       -16.5548
 155   2.0000      -0.604934       -16.4611
 156   2.0000      -0.595092       -16.1933
 157   2.0000      -0.590683       -16.0733
 158   2.0000      -0.583289       -15.8721
 159   2.0000      -0.579548       -15.7703
 160   2.0000      -0.574261       -15.6264
 161   2.0000      -0.568371       -15.4662
 162   2.0000      -0.564899       -15.3717
 163   2.0000      -0.563431       -15.3317
 164   2.0000      -0.555145       -15.1063
 165   2.0000      -0.547012       -14.8850
 166   2.0000      -0.544302       -14.8112
 167   2.0000      -0.542801       -14.7704
 168   2.0000      -0.538988       -14.6666
 169   2.0000      -0.537681       -14.6310
 170   2.0000      -0.536082       -14.5875
 171   2.0000      -0.532413       -14.4877
 172   2.0000      -0.528249       -14.3744
 173   2.0000      -0.524235       -14.2652
 174   2.0000      -0.518504       -14.1092
 175   2.0000      -0.517943       -14.0939
 176   2.0000      -0.515538       -14.0285
 177   2.0000      -0.515218       -14.0198
 178   2.0000      -0.511442       -13.9171
 179   2.0000      -0.508836       -13.8461
 180   2.0000      -0.503170       -13.6920
 181   2.0000      -0.501313       -13.6414
 182   2.0000      -0.498042       -13.5524
 183   2.0000      -0.496288       -13.5047
 184   2.0000      -0.495202       -13.4751
 185   2.0000      -0.492547       -13.4029
 186   2.0000      -0.489379       -13.3167
 187   2.0000      -0.487310       -13.2604
 188   2.0000      -0.486323       -13.2335
 189   2.0000      -0.484540       -13.1850
 190   2.0000      -0.481594       -13.1048
 191   2.0000      -0.476105       -12.9555
 192   2.0000      -0.471350       -12.8261
 193   2.0000      -0.469285       -12.7699
 194   2.0000      -0.467657       -12.7256
 195   2.0000      -0.465881       -12.6773
 196   2.0000      -0.463707       -12.6181
 197   2.0000      -0.456840       -12.4313
 198   2.0000      -0.454993       -12.3810
 199   2.0000      -0.453103       -12.3296
 200   2.0000      -0.451636       -12.2897
 201   2.0000      -0.450416       -12.2564
 202   2.0000      -0.444779       -12.1031
 203   2.0000      -0.443594       -12.0708
 204   2.0000      -0.442733       -12.0474
 205   2.0000      -0.441989       -12.0271
 206   2.0000      -0.441006       -12.0004
 207   2.0000      -0.437204       -11.8969
 208   2.0000      -0.434264       -11.8169
 209   2.0000      -0.433333       -11.7916
 210   2.0000      -0.430333       -11.7100
 211   2.0000      -0.425653       -11.5826
 212   2.0000      -0.424001       -11.5377
 213   2.0000      -0.422649       -11.5009
 214   2.0000      -0.419209       -11.4073
 215   2.0000      -0.416288       -11.3278
 216   2.0000      -0.414620       -11.2824
 217   2.0000      -0.410333       -11.1657
 218   2.0000      -0.409683       -11.1480
 219   2.0000      -0.406527       -11.0622
 220   2.0000      -0.400579       -10.9003
 221   2.0000      -0.397694       -10.8218
 222   2.0000      -0.394801       -10.7431
 223   2.0000      -0.394008       -10.7215
 224   2.0000      -0.387815       -10.5530
 225   2.0000      -0.387366       -10.5408
 226   2.0000      -0.382276       -10.4023
 227   2.0000      -0.380194       -10.3456
 228   2.0000      -0.378210       -10.2916
 229   2.0000      -0.368801       -10.0356
 230   2.0000      -0.365640        -9.9496
 231   2.0000      -0.353255        -9.6126
 232   2.0000      -0.343101        -9.3363
 233   2.0000      -0.340314        -9.2604
 234   2.0000      -0.335902        -9.1404
 235   2.0000      -0.326516        -8.8850
 236   2.0000      -0.321862        -8.7583
 237   2.0000      -0.314408        -8.5555
 238   2.0000      -0.310151        -8.4396
 239   2.0000      -0.307050        -8.3552
 240   2.0000      -0.305925        -8.3246
 241   2.0000      -0.304638        -8.2896
 242   2.0000      -0.301396        -8.2014
 243   2.0000      -0.287172        -7.8143
 244   2.0000      -0.276831        -7.5330
 245   2.0000      -0.246352        -6.7036
 246   2.0000      -0.200730        -5.4621
 247   0.0000      -0.093012        -2.5310
 248   0.0000      -0.085916        -2.3379
 249   0.0000      -0.055718        -1.5162
 250   0.0000      -0.049749        -1.3538
 251   0.0000      -0.030622        -0.8333

MULLIKEN ATOMIC CHARGES
-----------------------
   0 C :    0.283694
   1 C :   -0.349770
   2 C :   -0.181955
   3 N :    0.143900
   4 C :   -0.203792
   5 N :    0.173757
   6 C :    0.002875
   7 C :   -0.010498
   8 C :   -0.083569
   9 C :    0.140438
  10 C :   -0.118892
  11 C :    0.013849
  12 S :    0.190500
  13 C :   -0.133005
  14 C :    0.060163
  15 Br:    0.032268
  16 C :    0.153341
  17 O :   -0.099545
  18 C :   -0.031079
  19 C :    0.025411
  20 C :   -0.116476
  21 N :   -0.075021
  22 C :    0.080361
  23 C :   -0.039895
  24 C :    0.054566
  25 N :   -0.014658
  26 C :   -0.060354
  27 C :    0.088102
  28 C :   -0.112968
  29 S :    0.108589
  30 C :   -0.096220
  31 C :   -0.060461
  32 C :   -0.090870
  33 C :    0.116631
  34 C :    0.077074
  35 C :   -0.082190
  36 N :   -0.163809
  37 C :    0.176025
  38 C :   -0.002140
  39 C :   -0.017050
  40 C :    0.009839
  41 C :   -0.027380
  42 C :    0.036520
  43 C :    0.028626
  44 C :   -0.040498
  45 S :    0.050590
  46 C :   -0.037866
  47 C :    0.021506
  48 C :    0.047137
  49 C :   -0.063459
  50 S :    0.044310
  51 C :    0.013580
  52 C :   -0.190473
  53 S :    0.152742
  54 C :   -0.103881
  55 C :    0.043819
  56 C :    0.220477
  57 C :   -0.130190
  58 C :   -0.178330
  59 N :    0.093416
  60 C :    0.023354
  61 C :    0.018966
  62 C :    0.037292
  63 H :   -0.010152
  64 H :   -0.004496
  65 H :   -0.003668
  66 H :    0.025557
  67 H :    0.007387
  68 H :   -0.007193
  69 H :   -0.034710
  70 H :    0.023428
  71 H :    0.021749
  72 H :    0.019550
  73 H :   -0.008887
  74 H :   -0.014692
  75 H :   -0.002680
  76 H :    0.085661
  77 H :    0.087375
  78 H :    0.000894
  79 H :    0.016676
  80 H :   -0.013000
  81 H :    0.022897
  82 H :   -0.016823
  83 H :   -0.012485
  84 H :   -0.012557
  85 H :   -0.017181
  86 H :   -0.003889
  87 H :    0.001645
  88 H :    0.019515
  89 H :   -0.006830
  90 H :   -0.001206
  91 H :   -0.009308
Sum of atomic charges:   -0.0000000

LOEWDIN ATOMIC CHARGES
----------------------
   0 C :    0.076363
   1 C :   -0.139743
   2 C :   -0.012649
   3 N :   -0.053861
   4 C :   -0.028906
   5 N :   -0.041214
   6 C :   -0.030969
   7 C :   -0.052519
   8 C :    0.019683
   9 C :   -0.031678
  10 C :   -0.145962
  11 C :   -0.003730
  12 S :    0.449357
  13 C :   -0.268934
  14 C :   -0.073905
  15 Br:    0.150786
  16 C :    0.085759
  17 O :   -0.107602
  18 C :   -0.061859
  19 C :    0.063212
  20 C :    0.009084
  21 N :   -0.091132
  22 C :    0.045040
  23 C :   -0.056250
  24 C :    0.042672
  25 N :   -0.059828
  26 C :   -0.072900
  27 C :    0.009587
  28 C :   -0.176571
  29 S :    0.452954
  30 C :   -0.165633
  31 C :   -0.056695
  32 C :   -0.045884
  33 C :   -0.027573
  34 C :   -0.042136
  35 C :    0.012159
  36 N :   -0.102795
  37 C :   -0.024254
  38 C :   -0.037450
  39 C :   -0.041009
  40 C :   -0.051985
  41 C :   -0.142743
  42 C :   -0.034110
  43 C :   -0.032576
  44 C :   -0.178333
  45 S :    0.372389
  46 C :   -0.181235
  47 C :   -0.043415
  48 C :   -0.027350
  49 C :   -0.158888
  50 S :    0.373863
  51 C :   -0.069925
  52 C :   -0.187218
  53 S :    0.502084
  54 C :   -0.196172
  55 C :   -0.057020
  56 C :   -0.039675
  57 C :   -0.076633
  58 C :   -0.025455
  59 N :   -0.072423
  60 C :    0.016869
  61 C :   -0.027703
  62 C :    0.019597
  63 H :    0.040777
  64 H :    0.040026
  65 H :    0.035338
  66 H :    0.050289
  67 H :    0.027224
  68 H :    0.032652
  69 H :    0.020332
  70 H :    0.036358
  71 H :    0.032986
  72 H :    0.032654
  73 H :    0.018929
  74 H :    0.017978
  75 H :    0.019753
  76 H :    0.050057
  77 H :    0.052509
  78 H :    0.029112
  79 H :    0.033109
  80 H :    0.031365
  81 H :    0.008605
  82 H :    0.032512
  83 H :    0.033714
  84 H :    0.032434
  85 H :    0.031703
  86 H :    0.036068
  87 H :    0.045246
  88 H :    0.023792
  89 H :    0.039423
  90 H :    0.036486
  91 H :    0.033612

  Mayer bond orders larger than 0.100000
B(  0-C ,  1-C ) :   1.6482 B(  0-C ,  6-C ) :   1.0194 B(  0-C , 18-C ) :   1.0334
B(  1-C ,  2-C ) :   1.1542 B(  1-C ,  4-C ) :   1.1297 B(  2-C ,  3-N ) :   2.9283
B(  4-C ,  5-N ) :   3.0088 B(  6-C ,  7-C ) :   1.2711 B(  6-C , 11-C ) :   1.3865
B(  7-C ,  8-C ) :   1.4146 B(  7-C , 16-C ) :   0.9429 B(  8-C ,  9-C ) :   1.2368
B(  8-C , 63-H ) :   1.0185 B(  9-C , 10-C ) :   1.2842 B(  9-C , 14-C ) :   1.1742
B( 10-C , 11-C ) :   1.3474 B( 10-C , 12-S ) :   1.0920 B( 11-C , 64-H ) :   0.9817
B( 12-S , 13-C ) :   1.0866 B( 13-C , 14-C ) :   1.5954 B( 13-C , 15-Br) :   1.0288
B( 14-C , 65-H ) :   0.9970 B( 16-C , 17-O ) :   2.2206 B( 16-C , 18-C ) :   0.9023
B( 18-C , 19-C ) :   1.6672 B( 19-C , 20-C ) :   1.0225 B( 19-C , 66-H ) :   0.9411
B( 20-C , 21-N ) :   1.5323 B( 20-C , 25-N ) :   1.5856 B( 21-N , 22-C ) :   1.5386
B( 22-C , 23-C ) :   1.3852 B( 22-C , 67-H ) :   0.9793 B( 23-C , 24-C ) :   1.3065
B( 23-C , 68-H ) :   0.9744 B( 24-C , 25-N ) :   1.4955 B( 24-C , 26-C ) :   1.0929
B( 26-C , 27-C ) :   1.6688 B( 26-C , 69-H ) :   0.9742 B( 27-C , 28-C ) :   1.1301
B( 27-C , 70-H ) :   0.9269 B( 28-C , 29-S ) :   1.1293 B( 28-C , 32-C ) :   1.4634
B( 29-S , 30-C ) :   1.1167 B( 30-C , 31-C ) :   1.4312 B( 30-C , 38-C ) :   1.1781
B( 31-C , 32-C ) :   1.3516 B( 31-C , 37-C ) :   1.0313 B( 32-C , 33-C ) :   1.0571
B( 33-C , 34-C ) :   1.0721 B( 33-C , 71-H ) :   0.9118 B( 33-C , 72-H ) :   0.9027
B( 34-C , 35-C ) :   1.0252 B( 34-C , 73-H ) :   0.9263 B( 34-C , 74-H ) :   0.9285
B( 35-C , 36-N ) :   1.1065 B( 35-C , 37-C ) :   1.0491 B( 35-C , 75-H ) :   0.9291
B( 36-N , 76-H ) :   0.9693 B( 36-N , 77-H ) :   0.9695 B( 37-C , 78-H ) :   0.9004
B( 37-C , 79-H ) :   0.9102 B( 38-C , 39-C ) :   1.5810 B( 38-C , 80-H ) :   0.9822
B( 39-C , 40-C ) :   1.1833 B( 39-C , 81-H ) :   0.9573 B( 40-C , 41-C ) :   1.5273
B( 40-C , 82-H ) :   0.9888 B( 41-C , 42-C ) :   1.1609 B( 41-C , 45-S ) :   1.0367
B( 42-C , 43-C ) :   1.5627 B( 42-C , 83-H ) :   0.9991 B( 43-C , 44-C ) :   1.2093
B( 43-C , 84-H ) :   0.9950 B( 44-C , 45-S ) :   1.0515 B( 44-C , 46-C ) :   1.4751
B( 46-C , 47-C ) :   1.2014 B( 46-C , 50-S ) :   1.0390 B( 47-C , 48-C ) :   1.5599
B( 47-C , 85-H ) :   0.9946 B( 48-C , 49-C ) :   1.1619 B( 48-C , 86-H ) :   1.0019
B( 49-C , 50-S ) :   1.0361 B( 49-C , 51-C ) :   1.5339 B( 51-C , 52-C ) :   1.2199
B( 51-C , 87-H ) :   0.9505 B( 52-C , 53-S ) :   1.1373 B( 52-C , 56-C ) :   1.3006
B( 53-S , 54-C ) :   1.2055 B( 54-C , 55-C ) :   1.3767 B( 54-C , 88-H ) :   0.9687
B( 55-C , 56-C ) :   1.2093 B( 55-C , 62-C ) :   1.1840 B( 56-C , 57-C ) :   1.2270
B( 57-C , 58-C ) :   1.0899 B( 57-C , 60-C ) :   1.5358 B( 58-C , 59-N ) :   2.9666
B( 60-C , 61-C ) :   1.2063 B( 60-C , 89-H ) :   0.9936 B( 61-C , 62-C ) :   1.5267
B( 61-C , 90-H ) :   0.9878 B( 62-C , 91-H ) :   0.9983

-----------------------------------------------------------------------------
         ABSORPTION SPECTRUM VIA TRANSITION ELECTRIC DIPOLE MOMENTS
-----------------------------------------------------------------------------
State   Energy  Wavelength   fosc         T2         TX        TY        TZ
        (cm-1)    (nm)                  (au**2)     (au)      (au)      (au)
-----------------------------------------------------------------------------
   0    9711.4   1029.7   0.197665949   6.70075   0.08375  -2.58713   0.02207
   1   12106.8    826.0   0.568511125  15.45916   0.08736   3.31613   2.11064
   2   16529.8    605.0   0.006295278   0.12538  -0.04756  -0.22318  -0.27076
   3   17879.8    559.3   0.026923852   0.49573   0.25559  -0.54569   0.36418
   4   19773.3    505.7   0.219639419   3.65684  -0.61747   0.56374  -1.71982
   5   21488.6    465.4   0.723849401  11.08961  -1.27826   1.14730  -2.85296
   6   22727.2    440.0   0.492135817   7.12876  -0.53829   2.05191  -1.62132
   7   22992.1    434.9   0.001291478   0.01849   0.04822  -0.01618  -0.12611
   8   24993.5    400.1   0.143016045   1.88379   0.19834   1.34875   0.15919
   9   25882.7    386.4   0.111695325   1.42070  -0.75953  -0.14089  -0.90772
  10   26435.7    378.3   0.110998602   1.38230   0.26878  -0.79439   0.82402
  11   26953.1    371.0   0.212887275   2.60026  -0.35730   1.56806  -0.11742
  12   27101.4    369.0   0.189482557   2.30173   0.65669  -0.93059   1.00225
  13   27927.5    358.1   0.028884891   0.34050   0.14990   0.18939  -0.53119
  14   28407.7    352.0   0.074497212   0.86334  -0.72131  -0.46565  -0.35529
  15   28843.3    346.7   0.022687388   0.25895   0.24390   0.00236   0.44660
  16   29160.7    342.9   0.195218666   2.20393  -0.14127  -1.46080   0.22367
  17   29184.1    342.7   0.118048135   1.33164  -0.74315  -0.37877  -0.79743
  18   30069.9    332.6   0.050867521   0.55691  -0.15253  -0.26761  -0.67973
  19   30097.5    332.3   0.023982947   0.26233  -0.09449  -0.12512  -0.48759
  20   30829.1    324.4   0.099224423   1.05958  -0.44417  -0.50669  -0.77817
  21   31136.6    321.2   0.024095555   0.25477   0.07765  -0.39652   0.30250
  22   31511.7    317.3   0.074159332   0.77476  -0.50190  -0.35841  -0.62801
  23   31636.7    316.1   0.004402476   0.04581   0.08803   0.19284   0.02959
  24   32101.2    311.5   0.138198542   1.41729   0.03006   1.09748   0.46034
  25   32213.1    310.4   0.281730141   2.87923  -0.91047  -0.33093  -1.39311
  26   32656.8    306.2   0.072069339   0.72653   0.13281  -0.82222   0.18123
  27   32933.8    303.6   0.027508915   0.27498  -0.11056   0.19314  -0.47483
  28   33048.5    302.6   0.037780191   0.37635   0.04705   0.14231   0.59488
  29   33478.6    298.7   0.215433363   2.11847   1.03048  -0.76520   0.68633
  30   33689.2    296.8   0.057731872   0.56416  -0.34610   0.43270  -0.50709
  31   34311.7    291.4   0.002191213   0.02102  -0.00553  -0.02951   0.14185
  32   34427.6    290.5   0.011734321   0.11221   0.06528  -0.15249   0.29102
  33   34736.9    287.9   0.012621731   0.11962   0.15518   0.30907  -0.00394
  34   34868.1    286.8   0.036116632   0.34100   0.15444  -0.56118  -0.04710
  35   34998.8    285.7   0.046781052   0.44004   0.02661   0.60249   0.27630
  36   35714.4    280.0   0.030132374   0.27776   0.07576   0.51118   0.10351
  37   36018.1    277.6   0.009572102   0.08749   0.03644  -0.11871  -0.26846
  38   36169.4    276.5   0.053100048   0.48331  -0.39424  -0.45172  -0.35191
  39   36283.4    275.6   0.086737687   0.78700  -0.08359   0.84942  -0.24188
  40   36552.9    273.6   0.011453327   0.10315  -0.12650  -0.07778  -0.28478
  41   36596.4    273.3   0.338923030   3.04887   0.94323   0.66222   1.31174
  42   36896.5    271.0   0.016590540   0.14803  -0.15621   0.11062  -0.33376
  43   36991.9    270.3   0.095336409   0.84845   0.27868   0.56645   0.67076
  44   37830.0    264.3   0.027977811   0.24347  -0.14148  -0.39010  -0.26698
  45   38059.6    262.7   0.222631839   1.92574  -0.38346  -1.04251  -0.83179
  46   38095.4    262.5   0.065660696   0.56742  -0.10959   0.00367  -0.74525
  47   38290.4    261.2   0.041106053   0.35342  -0.21398   0.43827  -0.33993
  48   38779.8    257.9   0.024682264   0.20953   0.24705  -0.31081   0.22781
  49   39075.3    255.9   0.033643389   0.28345  -0.24327   0.14216  -0.45173
  50   39134.6    255.5   0.038608560   0.32479   0.22573   0.20056   0.48333
  51   39233.1    254.9   0.004362975   0.03661   0.15640   0.08181   0.07387
  52   39416.7    253.7   0.018440332   0.15402  -0.20461   0.25665  -0.21513
  53   39617.0    252.4   0.048675321   0.40449   0.18020  -0.60965  -0.01846
  54   39934.9    250.4   0.051799045   0.42702   0.13194   0.59362   0.23922
  55   40144.1    249.1   0.001008124   0.00827  -0.01687  -0.01691   0.08773
  56   40322.6    248.0   0.014365202   0.11728   0.01247  -0.00324   0.34222

FINAL SINGLE POINT ENERGY     -6887.744757637708

DIPOLE MOMENT
-------------
                                X             Y             Z
Electronic contribution:    -56.49524     -98.70681     -51.52281
Nuclear contribution   :     56.14394     102.18654      51.40951
                        -----------------------------------------
Total Dipole Moment    :     -0.35130       3.47972      -0.11330
                        -----------------------------------------
Magnitude (a.u.)       :      3.49924
Magnitude (Debye)      :      8.89437

Rotational constants in cm-1:     0.001353     0.000755     0.000527
Rotational constants in MHz :    40.570326    22.643286    15.791136

                             ****ORCA TERMINATED NORMALLY****
TOTAL RUN TIME: 0 days 0 hours 10 minutes 21 seconds 331 msec
