                         Program Version 4.2.0 -  RELEASE  -
|  1> # ORCA input file
|  2> # SCF done       -204.827992730205          0.000539590756
|  3> ! CAM-B3LYP def2-SVP def2/J RIJCOSX Grid4 TightSCF
|  4> %maxcore 5000
|  5> %tddft
|  6>     Mode sTDDFT
|  7>     Ethresh 5.0
|  8>     maxcore 5000
|  9> end
| 10>
| 11> %pal
| 12>   nprocs 6
| 13>   end
| 14> * xyz 0 1
| 15>    C       -7.43289         7.04931         2.97000
| 16>    C       -7.59050         6.47180         4.20258
| 17>    C       -6.88839         6.86689         5.35976
| 18>    N       -6.34791         7.14934         6.33210
| 19>    C       -8.47809         5.40852         4.46710
| 20>    N       -9.19290         4.54768         4.72337
| 21>    C       -6.52492         8.14784         2.64856
| 22>    C       -6.63658         8.44993         1.26629
| 23>    C       -5.90696         9.44632         0.66372
| 24>    C       -5.02826        10.18516         1.46242
| 25>    C       -4.92455         9.87888         2.84044
| 26>    C       -5.65940         8.86755         3.44906
| 27>    S       -3.78698        10.91727         3.64198
| 28>    C       -3.47068        11.73968         2.13748
| 29>    C       -4.17851        11.26085         1.08651
| 30>   Br       -2.23726        13.15147         2.09405
| 31>    C       -7.62903         7.55359         0.66323
| 32>    O       -7.99297         7.52117        -0.50861
| 33>    C       -8.12140         6.69853         1.74842
| 34>    C       -9.10978         5.76910         1.53822
| 35>    N       -9.62757         5.60505         0.31504
| 36>    C      -10.67606         4.81667        -0.03198
| 37>    S      -11.61985         3.97379         1.15801
| 38>    C      -12.70227         3.46099        -0.09516
| 39>    N      -13.79661         2.66029         0.26542
| 40>    O      -14.55773         2.31878        -0.61930
| 41>    O      -13.90023         2.37227         1.44318
| 42>    C      -12.35723         3.91458        -1.33946
| 43>    C      -11.17669         4.68200        -1.33242
| 44>    C      -10.60351         5.25290        -2.52573
| 45>    C       -9.28393         5.45657        -2.72556
| 46>    C       -8.65250         6.05509        -3.85390
| 47>    S       -6.96669         5.68568        -4.06943
| 48>    C       -9.10285         6.95099        -4.81939
| 49>    C      -10.49066         7.50520        -4.86865
| 50>    C      -11.39254         6.70291        -5.81919
| 51>    N      -12.67805         7.36558        -5.93010
| 52>    C       -8.10453         7.30843        -5.73724
| 53>    C       -8.29499         8.30360        -6.83556
| 54>    C       -7.80197         9.69446        -6.40202
| 55>    N       -8.16420        10.66683        -7.41403
| 56>    C       -6.87096         6.69452        -5.48323
| 57>    C       -5.69662         6.82480        -6.23885
| 58>    C       -4.47928         6.22847        -6.01785
| 59>    C       -3.33119         6.37757        -6.83634
| 60>    C       -2.24765         5.66631        -6.41890
| 61>    C       -2.48038         4.91687        -5.24465
| 62>    S       -4.11721         5.15090        -4.68250
| 63>    C       -1.60089         4.08143        -4.57605
| 64>    C       -0.26110         3.78574        -4.89916
| 65>    C        0.32876         2.90519        -4.03847
| 66>    C       -0.51503         2.46579        -2.99509
| 67>    S       -2.08994         3.20482        -3.14306
| 68>    C       -0.19549         1.56133        -1.99833
| 69>    C       -1.08386         1.18999        -0.99802
| 70>    C       -0.91418         0.26090         0.00831
| 71>    C       -1.79139         0.33260         1.19655
| 72>    O       -2.78511         1.01636         1.32923
| 73>    C       -1.17305        -0.56197         2.19790
| 74>    C       -1.54427        -0.79280         3.48979
| 75>    C       -0.77328        -1.67692         4.27872
| 76>    C        0.37490        -2.29818         3.70918
| 77>    C        1.14482        -3.17172         4.50221
| 78>    C        0.78875        -3.42031         5.79825
| 79>    C       -0.34848        -2.80787         6.35925
| 80>    C       -1.11437        -1.95339         5.61650
| 81>    F       -0.67469        -3.07008         7.63370
| 82>    F        1.52295        -4.25335         6.55041
| 83>    C        0.72975        -2.04426         2.36309
| 84>    C       -0.03827        -1.19424         1.61524
| 85>    C        0.05499        -0.77767         0.21328
| 86>    C        0.79899        -1.42892        -0.74490
| 87>    C        0.66510        -1.23433        -2.13296
| 88>    N        0.57098        -1.15965        -3.27574
| 89>    C        1.71501        -2.45973        -0.46046
| 90>    N        2.49226        -3.28863        -0.29063
| 91>    H       -6.01324         9.65190        -0.38990
| 92>    H       -5.54496         8.67354         4.50234
| 93>    H       -4.10622        11.65051         0.08759
| 94>    H       -9.50328         5.14780         2.33239
| 95>    H       -9.21836         6.22710        -0.40691
| 96>    H      -12.92710         3.67872        -2.22004
| 97>    H      -11.31333         5.45090        -3.31267
| 98>    H       -8.58195         5.07188        -1.99616
| 99>    H      -10.46873         8.53543        -5.22380
|100>    H      -10.92302         7.50917        -3.86688
|101>    H      -11.45717         5.65575        -5.47352
|102>    H      -10.94262         6.68491        -6.81559
|103>    H      -13.16561         7.35841        -5.04039
|104>    H      -13.26621         6.90224        -6.61273
|105>    H       -9.34706         8.39038        -7.09955
|106>    H       -7.75313         7.99396        -7.73134
|107>    H       -6.71844         9.64608        -6.19396
|108>    H       -8.30418         9.97810        -5.47284
|109>    H       -7.66635        10.48850        -8.27963
|110>    H       -7.94097        11.60725        -7.11078
|111>    H       -5.75479         7.46135        -7.11169
|112>    H       -3.34612         7.00235        -7.71209
|113>    H       -1.29813         5.65741        -6.92243
|114>    H        0.23182         4.22238        -5.74899
|115>    H        1.33983         2.55021        -4.12675
|116>    H        0.80611         1.15837        -2.01433
|117>    H       -2.01296         1.75029        -0.93240
|118>    H       -2.41466        -0.30864         3.90589
|119>    H        2.01703        -3.65209         4.08702
|120>    H       -1.98241        -1.49173         6.06048
|121>    H        1.60644        -2.52683         1.96197
|122> *
|123>
|124>                          ****END OF INPUT****

CARTESIAN COORDINATES (ANGSTROEM)
---------------------------------
  C     -7.432890    7.049310    2.970000
  C     -7.590500    6.471800    4.202580
  C     -6.888390    6.866890    5.359760
  N     -6.347910    7.149340    6.332100
  C     -8.478090    5.408520    4.467100
  N     -9.192900    4.547680    4.723370
  C     -6.524920    8.147840    2.648560
  C     -6.636580    8.449930    1.266290
  C     -5.906960    9.446320    0.663720
  C     -5.028260   10.185160    1.462420
  C     -4.924550    9.878880    2.840440
  C     -5.659400    8.867550    3.449060
  S     -3.786980   10.917270    3.641980
  C     -3.470680   11.739680    2.137480
  C     -4.178510   11.260850    1.086510
  Br    -2.237260   13.151470    2.094050
  C     -7.629030    7.553590    0.663230
  O     -7.992970    7.521170   -0.508610
  C     -8.121400    6.698530    1.748420
  C     -9.109780    5.769100    1.538220
  N     -9.627570    5.605050    0.315040
  C    -10.676060    4.816670   -0.031980
  S    -11.619850    3.973790    1.158010
  C    -12.702270    3.460990   -0.095160
  N    -13.796610    2.660290    0.265420
  O    -14.557730    2.318780   -0.619300
  O    -13.900230    2.372270    1.443180
  C    -12.357230    3.914580   -1.339460
  C    -11.176690    4.682000   -1.332420
  C    -10.603510    5.252900   -2.525730
  C     -9.283930    5.456570   -2.725560
  C     -8.652500    6.055090   -3.853900
  S     -6.966690    5.685680   -4.069430
  C     -9.102850    6.950990   -4.819390
  C    -10.490660    7.505200   -4.868650
  C    -11.392540    6.702910   -5.819190
  N    -12.678050    7.365580   -5.930100
  C     -8.104530    7.308430   -5.737240
  C     -8.294990    8.303600   -6.835560
  C     -7.801970    9.694460   -6.402020
  N     -8.164200   10.666830   -7.414030
  C     -6.870960    6.694520   -5.483230
  C     -5.696620    6.824800   -6.238850
  C     -4.479280    6.228470   -6.017850
  C     -3.331190    6.377570   -6.836340
  C     -2.247650    5.666310   -6.418900
  C     -2.480380    4.916870   -5.244650
  S     -4.117210    5.150900   -4.682500
  C     -1.600890    4.081430   -4.576050
  C     -0.261100    3.785740   -4.899160
  C      0.328760    2.905190   -4.038470
  C     -0.515030    2.465790   -2.995090
  S     -2.089940    3.204820   -3.143060
  C     -0.195490    1.561330   -1.998330
  C     -1.083860    1.189990   -0.998020
  C     -0.914180    0.260900    0.008310
  C     -1.791390    0.332600    1.196550
  O     -2.785110    1.016360    1.329230
  C     -1.173050   -0.561970    2.197900
  C     -1.544270   -0.792800    3.489790
  C     -0.773280   -1.676920    4.278720
  C      0.374900   -2.298180    3.709180
  C      1.144820   -3.171720    4.502210
  C      0.788750   -3.420310    5.798250
  C     -0.348480   -2.807870    6.359250
  C     -1.114370   -1.953390    5.616500
  F     -0.674690   -3.070080    7.633700
  F      1.522950   -4.253350    6.550410
  C      0.729750   -2.044260    2.363090
  C     -0.038270   -1.194240    1.615240
  C      0.054990   -0.777670    0.213280
  C      0.798990   -1.428920   -0.744900
  C      0.665100   -1.234330   -2.132960
  N      0.570980   -1.159650   -3.275740
  C      1.715010   -2.459730   -0.460460
  N      2.492260   -3.288630   -0.290630
  H     -6.013240    9.651900   -0.389900
  H     -5.544960    8.673540    4.502340
  H     -4.106220   11.650510    0.087590
  H     -9.503280    5.147800    2.332390
  H     -9.218360    6.227100   -0.406910
  H    -12.927100    3.678720   -2.220040
  H    -11.313330    5.450900   -3.312670
  H     -8.581950    5.071880   -1.996160
  H    -10.468730    8.535430   -5.223800
  H    -10.923020    7.509170   -3.866880
  H    -11.457170    5.655750   -5.473520
  H    -10.942620    6.684910   -6.815590
  H    -13.165610    7.358410   -5.040390
  H    -13.266210    6.902240   -6.612730
  H     -9.347060    8.390380   -7.099550
  H     -7.753130    7.993960   -7.731340
  H     -6.718440    9.646080   -6.193960
  H     -8.304180    9.978100   -5.472840
  H     -7.666350   10.488500   -8.279630
  H     -7.940970   11.607250   -7.110780
  H     -5.754790    7.461350   -7.111690
  H     -3.346120    7.002350   -7.712090
  H     -1.298130    5.657410   -6.922430
  H      0.231820    4.222380   -5.748990
  H      1.339830    2.550210   -4.126750
  H      0.806110    1.158370   -2.014330
  H     -2.012960    1.750290   -0.932400
  H     -2.414660   -0.308640    3.905890
  H      2.017030   -3.652090    4.087020
  H     -1.982410   -1.491730    6.060480
  H      1.606440   -2.526830    1.961970

 Total Charge           Charge          ....    0
 Multiplicity           Mult            ....    1
 Number of Electrons    NEL             ....  588
 Basis Dimension        Dim             .... 1257

ORBITAL ENERGIES
----------------

  NO   OCC          E(Eh)            E(eV)
   0   2.0000    -482.892630    -13140.1765
   1   2.0000     -88.996407     -2421.7153
   2   2.0000     -88.983469     -2421.3633
   3   2.0000     -88.969706     -2420.9888
   4   2.0000     -88.967937     -2420.9406
   5   2.0000     -88.962908     -2420.8038
   6   2.0000     -62.570315     -1702.6248
   7   2.0000     -56.404270     -1534.8382
   8   2.0000     -56.401547     -1534.7641
   9   2.0000     -56.401515     -1534.7633
  10   2.0000     -24.786176      -674.4661
  11   2.0000     -24.785642      -674.4516
  12   2.0000     -19.244109      -523.6588
  13   2.0000     -19.242980      -523.6281
  14   2.0000     -19.237921      -523.4904
  15   2.0000     -19.197039      -522.3780
  16   2.0000     -14.655617      -398.7996
  17   2.0000     -14.500746      -394.5854
  18   2.0000     -14.423888      -392.4939
  19   2.0000     -14.419521      -392.3751
  20   2.0000     -14.400147      -391.8479
  21   2.0000     -14.398586      -391.8055
  22   2.0000     -14.394103      -391.6834
  23   2.0000     -14.391756      -391.6196
  24   2.0000     -10.385019      -282.5907
  25   2.0000     -10.378746      -282.4200
  26   2.0000     -10.374791      -282.3124
  27   2.0000     -10.368251      -282.1344
  28   2.0000     -10.367787      -282.1218
  29   2.0000     -10.366480      -282.0863
  30   2.0000     -10.352923      -281.7174
  31   2.0000     -10.351409      -281.6762
  32   2.0000     -10.348171      -281.5880
  33   2.0000     -10.347583      -281.5721
  34   2.0000     -10.338904      -281.3359
  35   2.0000     -10.333886      -281.1993
  36   2.0000     -10.330264      -281.1008
  37   2.0000     -10.327742      -281.0322
  38   2.0000     -10.326118      -280.9879
  39   2.0000     -10.325295      -280.9656
  40   2.0000     -10.325088      -280.9599
  41   2.0000     -10.324235      -280.9367
  42   2.0000     -10.322596      -280.8921
  43   2.0000     -10.317930      -280.7651
  44   2.0000     -10.317333      -280.7489
  45   2.0000     -10.317295      -280.7479
  46   2.0000     -10.317093      -280.7424
  47   2.0000     -10.315866      -280.7090
  48   2.0000     -10.315212      -280.6912
  49   2.0000     -10.313992      -280.6580
  50   2.0000     -10.313896      -280.6554
  51   2.0000     -10.311899      -280.6010
  52   2.0000     -10.311013      -280.5769
  53   2.0000     -10.307864      -280.4912
  54   2.0000     -10.306776      -280.4616
  55   2.0000     -10.305484      -280.4265
  56   2.0000     -10.305109      -280.4163
  57   2.0000     -10.304759      -280.4067
  58   2.0000     -10.304640      -280.4035
  59   2.0000     -10.304022      -280.3867
  60   2.0000     -10.303640      -280.3763
  61   2.0000     -10.303504      -280.3726
  62   2.0000     -10.302225      -280.3378
  63   2.0000     -10.301642      -280.3219
  64   2.0000     -10.300143      -280.2811
  65   2.0000     -10.297181      -280.2005
  66   2.0000     -10.296322      -280.1772
  67   2.0000     -10.296014      -280.1688
  68   2.0000     -10.294823      -280.1364
  69   2.0000     -10.293530      -280.1012
  70   2.0000     -10.292320      -280.0683
  71   2.0000     -10.288340      -279.9600
  72   2.0000     -10.287589      -279.9395
  73   2.0000     -10.287374      -279.9337
  74   2.0000     -10.286538      -279.9109
  75   2.0000     -10.283556      -279.8298
  76   2.0000     -10.282312      -279.7959
  77   2.0000     -10.279551      -279.7208
  78   2.0000     -10.277898      -279.6758
  79   2.0000     -10.276595      -279.6404
  80   2.0000      -8.799737      -239.4530
  81   2.0000      -8.091601      -220.1837
  82   2.0000      -8.079476      -219.8537
  83   2.0000      -8.065734      -219.4798
  84   2.0000      -8.063549      -219.4203
  85   2.0000      -8.059250      -219.3033
  86   2.0000      -6.636033      -180.5756
  87   2.0000      -6.621468      -180.1793
  88   2.0000      -6.621264      -180.1737
  89   2.0000      -6.061222      -164.9342
  90   2.0000      -6.056822      -164.8145
  91   2.0000      -6.053150      -164.7146
  92   2.0000      -6.049127      -164.6051
  93   2.0000      -6.044878      -164.4895
  94   2.0000      -6.040731      -164.3766
  95   2.0000      -6.035477      -164.2337
  96   2.0000      -6.032781      -164.1603
  97   2.0000      -6.031276      -164.1194
  98   2.0000      -6.028841      -164.0531
  99   2.0000      -6.028717      -164.0497
 100   2.0000      -6.026746      -163.9961
 101   2.0000      -6.025627      -163.9656
 102   2.0000      -6.024830      -163.9440
 103   2.0000      -6.020370      -163.8226
 104   2.0000      -2.751946       -74.8842
 105   2.0000      -2.747801       -74.7715
 106   2.0000      -2.747651       -74.7674
 107   2.0000      -2.736066       -74.4522
 108   2.0000      -2.736056       -74.4519
 109   2.0000      -1.325727       -36.0749
 110   2.0000      -1.308310       -35.6009
 111   2.0000      -1.293528       -35.1987
 112   2.0000      -1.152724       -31.3672
 113   2.0000      -1.144977       -31.1564
 114   2.0000      -1.111235       -30.2382
 115   2.0000      -1.109056       -30.1789
 116   2.0000      -1.031355       -28.0646
 117   2.0000      -1.020946       -27.7814
 118   2.0000      -1.017955       -27.7000
 119   2.0000      -1.016350       -27.6563
 120   2.0000      -1.005511       -27.3613
 121   2.0000      -1.003377       -27.3033
 122   2.0000      -1.001172       -27.2433
 123   2.0000      -0.997441       -27.1418
 124   2.0000      -0.991908       -26.9912
 125   2.0000      -0.989240       -26.9186
 126   2.0000      -0.978292       -26.6207
 127   2.0000      -0.976012       -26.5586
 128   2.0000      -0.973440       -26.4886
 129   2.0000      -0.965978       -26.2856
 130   2.0000      -0.950381       -25.8612
 131   2.0000      -0.935990       -25.4696
 132   2.0000      -0.922670       -25.1071
 133   2.0000      -0.917040       -24.9539
 134   2.0000      -0.916041       -24.9267
 135   2.0000      -0.907807       -24.7027
 136   2.0000      -0.899813       -24.4852
 137   2.0000      -0.894540       -24.3417
 138   2.0000      -0.893470       -24.3126
 139   2.0000      -0.885798       -24.1038
 140   2.0000      -0.882513       -24.0144
 141   2.0000      -0.877623       -23.8813
 142   2.0000      -0.871952       -23.7270
 143   2.0000      -0.863065       -23.4852
 144   2.0000      -0.858022       -23.3480
 145   2.0000      -0.850620       -23.1465
 146   2.0000      -0.845226       -22.9998
 147   2.0000      -0.839859       -22.8537
 148   2.0000      -0.838084       -22.8054
 149   2.0000      -0.826213       -22.4824
 150   2.0000      -0.817652       -22.2494
 151   2.0000      -0.802857       -21.8468
 152   2.0000      -0.794584       -21.6217
 153   2.0000      -0.791389       -21.5348
 154   2.0000      -0.777031       -21.1441
 155   2.0000      -0.770346       -20.9622
 156   2.0000      -0.758091       -20.6287
 157   2.0000      -0.750886       -20.4326
 158   2.0000      -0.743671       -20.2363
 159   2.0000      -0.734709       -19.9925
 160   2.0000      -0.729401       -19.8480
 161   2.0000      -0.720420       -19.6036
 162   2.0000      -0.711171       -19.3519
 163   2.0000      -0.706496       -19.2247
 164   2.0000      -0.702640       -19.1198
 165   2.0000      -0.702326       -19.1113
 166   2.0000      -0.698557       -19.0087
 167   2.0000      -0.692199       -18.8357
 168   2.0000      -0.683481       -18.5985
 169   2.0000      -0.678438       -18.4612
 170   2.0000      -0.670236       -18.2380
 171   2.0000      -0.667259       -18.1570
 172   2.0000      -0.665597       -18.1118
 173   2.0000      -0.652840       -17.7647
 174   2.0000      -0.647277       -17.6133
 175   2.0000      -0.646890       -17.6028
 176   2.0000      -0.642018       -17.4702
 177   2.0000      -0.640428       -17.4269
 178   2.0000      -0.638127       -17.3643
 179   2.0000      -0.636988       -17.3333
 180   2.0000      -0.629591       -17.1320
 181   2.0000      -0.627606       -17.0780
 182   2.0000      -0.625837       -17.0299
 183   2.0000      -0.616717       -16.7817
 184   2.0000      -0.613211       -16.6863
 185   2.0000      -0.612553       -16.6684
 186   2.0000      -0.610411       -16.6101
 187   2.0000      -0.601385       -16.3645
 188   2.0000      -0.600030       -16.3276
 189   2.0000      -0.598558       -16.2876
 190   2.0000      -0.588351       -16.0098
 191   2.0000      -0.580140       -15.7864
 192   2.0000      -0.577610       -15.7176
 193   2.0000      -0.575808       -15.6685
 194   2.0000      -0.573139       -15.5959
 195   2.0000      -0.571686       -15.5564
 196   2.0000      -0.568681       -15.4746
 197   2.0000      -0.566584       -15.4175
 198   2.0000      -0.565213       -15.3802
 199   2.0000      -0.563058       -15.3216
 200   2.0000      -0.559327       -15.2201
 201   2.0000      -0.554858       -15.0985
 202   2.0000      -0.552951       -15.0466
 203   2.0000      -0.548684       -14.9305
 204   2.0000      -0.545644       -14.8477
 205   2.0000      -0.541444       -14.7335
 206   2.0000      -0.540456       -14.7066
 207   2.0000      -0.539116       -14.6701
 208   2.0000      -0.535045       -14.5593
 209   2.0000      -0.533579       -14.5194
 210   2.0000      -0.530415       -14.4333
 211   2.0000      -0.528380       -14.3780
 212   2.0000      -0.526770       -14.3341
 213   2.0000      -0.522416       -14.2157
 214   2.0000      -0.521441       -14.1891
 215   2.0000      -0.519812       -14.1448
 216   2.0000      -0.518035       -14.0965
 217   2.0000      -0.517097       -14.0709
 218   2.0000      -0.516534       -14.0556
 219   2.0000      -0.514150       -13.9907
 220   2.0000      -0.510962       -13.9040
 221   2.0000      -0.507450       -13.8084
 222   2.0000      -0.505341       -13.7510
 223   2.0000      -0.505105       -13.7446
 224   2.0000      -0.502245       -13.6668
 225   2.0000      -0.501017       -13.6334
 226   2.0000      -0.495578       -13.4854
 227   2.0000      -0.492946       -13.4137
 228   2.0000      -0.490724       -13.3533
 229   2.0000      -0.486955       -13.2507
 230   2.0000      -0.484750       -13.1907
 231   2.0000      -0.482773       -13.1369
 232   2.0000      -0.480884       -13.0855
 233   2.0000      -0.478007       -13.0072
 234   2.0000      -0.476009       -12.9529
 235   2.0000      -0.472314       -12.8523
 236   2.0000      -0.471698       -12.8356
 237   2.0000      -0.467527       -12.7221
 238   2.0000      -0.467401       -12.7186
 239   2.0000      -0.460138       -12.5210
 240   2.0000      -0.456864       -12.4319
 241   2.0000      -0.456591       -12.4245
 242   2.0000      -0.456004       -12.4085
 243   2.0000      -0.454836       -12.3767
 244   2.0000      -0.452956       -12.3256
 245   2.0000      -0.450585       -12.2610
 246   2.0000      -0.449774       -12.2390
 247   2.0000      -0.449476       -12.2309
 248   2.0000      -0.447046       -12.1647
 249   2.0000      -0.446441       -12.1483
 250   2.0000      -0.439001       -11.9458
 251   2.0000      -0.436241       -11.8707
 252   2.0000      -0.434294       -11.8177
 253   2.0000      -0.433618       -11.7993
 254   2.0000      -0.433363       -11.7924
 255   2.0000      -0.432849       -11.7784
 256   2.0000      -0.429656       -11.6915
 257   2.0000      -0.429151       -11.6778
 258   2.0000      -0.424799       -11.5594
 259   2.0000      -0.423112       -11.5135
 260   2.0000      -0.419556       -11.4167
 261   2.0000      -0.416532       -11.3344
 262   2.0000      -0.413597       -11.2546
 263   2.0000      -0.412763       -11.2319
 264   2.0000      -0.409787       -11.1509
 265   2.0000      -0.404188       -10.9985
 266   2.0000      -0.402931       -10.9643
 267   2.0000      -0.396553       -10.7908
 268   2.0000      -0.394042       -10.7224
 269   2.0000      -0.390735       -10.6324
 270   2.0000      -0.386786       -10.5250
 271   2.0000      -0.382830       -10.4173
 272   2.0000      -0.381924       -10.3927
 273   2.0000      -0.379016       -10.3135
 274   2.0000      -0.373624       -10.1668
 275   2.0000      -0.372549       -10.1376
 276   2.0000      -0.363120        -9.8810
 277   2.0000      -0.361088        -9.8257
 278   2.0000      -0.357065        -9.7162
 279   2.0000      -0.349288        -9.5046
 280   2.0000      -0.344695        -9.3796
 281   2.0000      -0.339779        -9.2458
 282   2.0000      -0.326692        -8.8897
 283   2.0000      -0.325843        -8.8666
 284   2.0000      -0.324422        -8.8280
 285   2.0000      -0.318928        -8.6785
 286   2.0000      -0.316440        -8.6108
 287   2.0000      -0.312459        -8.5024
 288   2.0000      -0.303620        -8.2619
 289   2.0000      -0.302148        -8.2219
 290   2.0000      -0.293588        -7.9889
 291   2.0000      -0.286177        -7.7873
 292   2.0000      -0.270818        -7.3693
 293   2.0000      -0.226553        -6.1648
 294   0.0000      -0.114469        -3.1148
 295   0.0000      -0.093433        -2.5425
 296   0.0000      -0.075306        -2.0492
 297   0.0000      -0.062847        -1.7102
 298   0.0000      -0.046507        -1.2655

MULLIKEN ATOMIC CHARGES
-----------------------
   0 C :    0.326739
   1 C :   -0.338377
   2 C :   -0.186589
   3 N :    0.156120
   4 C :   -0.195128
   5 N :    0.144936
   6 C :    0.009261
   7 C :   -0.007871
   8 C :   -0.065666
   9 C :    0.115138
  10 C :   -0.092522
  11 C :   -0.017032
  12 S :    0.193830
  13 C :   -0.122538
  14 C :    0.038249
  15 Br:    0.027416
  16 C :    0.167029
  17 O :   -0.216282
  18 C :   -0.129178
  19 C :    0.027338
  20 N :   -0.014377
  21 C :   -0.121000
  22 S :    0.184351
  23 C :    0.006898
  24 N :    0.273890
  25 O :   -0.247852
  26 O :   -0.253015
  27 C :    0.007280
  28 C :    0.112459
  29 C :   -0.032809
  30 C :    0.053638
  31 C :   -0.118588
  32 S :    0.110467
  33 C :   -0.043986
  34 C :    0.084282
  35 C :    0.096211
  36 N :   -0.214311
  37 C :   -0.050802
  38 C :    0.079071
  39 C :    0.099306
  40 N :   -0.215217
  41 C :   -0.111164
  42 C :    0.009404
  43 C :   -0.047572
  44 C :    0.043146
  45 C :    0.025575
  46 C :   -0.016950
  47 S :    0.091160
  48 C :   -0.061562
  49 C :    0.040005
  50 C :    0.037042
  51 C :   -0.018404
  52 S :    0.107345
  53 C :    0.000315
  54 C :    0.018820
  55 C :   -0.129077
  56 C :    0.139864
  57 O :   -0.158991
  58 C :    0.006793
  59 C :   -0.088293
  60 C :    0.114746
  61 C :    0.113366
  62 C :   -0.111084
  63 C :    0.240728
  64 C :    0.236822
  65 C :   -0.106991
  66 F :   -0.176162
  67 F :   -0.175790
  68 C :   -0.087784
  69 C :    0.037856
  70 C :    0.296770
  71 C :   -0.350255
  72 C :   -0.219668
  73 N :    0.153830
  74 C :   -0.176026
  75 N :    0.132289
  76 H :   -0.010918
  77 H :   -0.003357
  78 H :   -0.004817
  79 H :    0.046633
  80 H :    0.178951
  81 H :    0.010163
  82 H :   -0.011682
  83 H :   -0.000855
  84 H :    0.011801
  85 H :    0.000291
  86 H :   -0.009803
  87 H :   -0.001115
  88 H :    0.089974
  89 H :    0.096313
  90 H :    0.015543
  91 H :    0.002029
  92 H :   -0.013557
  93 H :    0.003390
  94 H :    0.090281
  95 H :    0.095216
  96 H :   -0.011718
  97 H :   -0.004928
  98 H :   -0.007269
  99 H :   -0.004700
 100 H :    0.002862
 101 H :    0.009042
 102 H :    0.013567
 103 H :   -0.014295
 104 H :    0.003105
 105 H :   -0.003246
 106 H :   -0.007771
Sum of atomic charges:   -0.0000000

LOEWDIN ATOMIC CHARGES
----------------------
   0 C :    0.078653
   1 C :   -0.145504
   2 C :   -0.019828
   3 N :   -0.051338
   4 C :   -0.020067
   5 N :   -0.051188
   6 C :   -0.017328
   7 C :   -0.051454
   8 C :    0.024030
   9 C :   -0.033905
  10 C :   -0.143234
  11 C :   -0.006541
  12 S :    0.439294
  13 C :   -0.271126
  14 C :   -0.070740
  15 Br:    0.139539
  16 C :    0.095516
  17 O :   -0.174828
  18 C :   -0.143893
  19 C :    0.110308
  20 N :    0.078185
  21 C :   -0.111345
  22 S :    0.477822
  23 C :   -0.202295
  24 N :    0.273013
  25 O :   -0.213193
  26 O :   -0.219881
  27 C :   -0.000098
  28 C :   -0.087263
  29 C :   -0.029710
  30 C :   -0.036909
  31 C :   -0.161092
  32 S :    0.439037
  33 C :   -0.044403
  34 C :   -0.033056
  35 C :    0.022392
  36 N :   -0.118599
  37 C :   -0.030872
  38 C :   -0.033621
  39 C :    0.024429
  40 N :   -0.118248
  41 C :   -0.185088
  42 C :   -0.040565
  43 C :   -0.166336
  44 C :   -0.011637
  45 C :   -0.044051
  46 C :   -0.148347
  47 S :    0.389717
  48 C :   -0.193062
  49 C :   -0.007241
  50 C :   -0.036656
  51 C :   -0.099476
  52 S :    0.404180
  53 C :   -0.068916
  54 C :    0.051260
  55 C :   -0.109181
  56 C :    0.077243
  57 O :   -0.160749
  58 C :   -0.050907
  59 C :    0.024554
  60 C :   -0.011212
  61 C :   -0.007574
  62 C :   -0.031559
  63 C :    0.063965
  64 C :    0.064069
  65 C :   -0.034233
  66 F :   -0.053538
  67 F :   -0.053192
  68 C :    0.008842
  69 C :   -0.017515
  70 C :    0.067893
  71 C :   -0.154758
  72 C :   -0.023768
  73 N :   -0.065011
  74 C :   -0.019010
  75 N :   -0.067075
  76 H :    0.041023
  77 H :    0.042536
  78 H :    0.038261
  79 H :    0.036613
  80 H :    0.086517
  81 H :    0.046469
  82 H :    0.031533
  83 H :    0.027876
  84 H :    0.033696
  85 H :    0.025781
  86 H :   -0.003334
  87 H :    0.019294
  88 H :    0.051741
  89 H :    0.057265
  90 H :    0.034840
  91 H :    0.024869
  92 H :   -0.001729
  93 H :    0.021219
  94 H :    0.051857
  95 H :    0.056875
  96 H :    0.039457
  97 H :    0.036462
  98 H :    0.034643
  99 H :    0.035734
 100 H :    0.040585
 101 H :    0.038301
 102 H :    0.033120
 103 H :    0.038621
 104 H :    0.046056
 105 H :    0.043702
 106 H :    0.038391

  Mayer bond orders larger than 0.100000
B(  0-C ,  1-C ) :   1.6331 B(  0-C ,  6-C ) :   1.0031 B(  0-C , 18-C ) :   1.0976
B(  1-C ,  2-C ) :   1.1427 B(  1-C ,  4-C ) :   1.1450 B(  2-C ,  3-N ) :   2.9696
B(  4-C ,  5-N ) :   2.9545 B(  6-C ,  7-C ) :   1.2712 B(  6-C , 11-C ) :   1.4267
B(  7-C ,  8-C ) :   1.4254 B(  7-C , 16-C ) :   0.9805 B(  8-C ,  9-C ) :   1.2442
B(  8-C , 76-H ) :   1.0166 B(  9-C , 10-C ) :   1.3070 B(  9-C , 14-C ) :   1.1644
B( 10-C , 11-C ) :   1.3210 B( 10-C , 12-S ) :   1.0913 B( 11-C , 77-H ) :   0.9786
B( 12-S , 13-C ) :   1.0882 B( 13-C , 14-C ) :   1.6169 B( 13-C , 15-Br) :   1.0213
B( 14-C , 78-H ) :   0.9998 B( 16-C , 17-O ) :   2.0432 B( 16-C , 18-C ) :   0.9997
B( 17-O , 80-H ) :   0.1427 B( 18-C , 19-C ) :   1.4584 B( 19-C , 20-N ) :   1.3343
B( 19-C , 79-H ) :   0.9303 B( 20-N , 21-C ) :   1.1819 B( 20-N , 80-H ) :   0.8225
B( 21-C , 22-S ) :   1.1428 B( 21-C , 28-C ) :   1.3895 B( 22-S , 23-C ) :   1.0860
B( 23-C , 24-N ) :   0.9620 B( 23-C , 27-C ) :   1.4952 B( 24-N , 25-O ) :   1.5374
B( 24-N , 26-O ) :   1.5206 B( 25-O , 26-O ) :   0.2631 B( 27-C , 28-C ) :   1.2164
B( 27-C , 81-H ) :   1.0076 B( 28-C , 29-C ) :   1.0779 B( 29-C , 30-C ) :   1.6956
B( 29-C , 82-H ) :   0.9628 B( 30-C , 31-C ) :   1.1443 B( 30-C , 83-H ) :   0.9371
B( 31-C , 32-S ) :   1.1237 B( 31-C , 33-C ) :   1.4644 B( 32-S , 41-C ) :   1.0961
B( 33-C , 34-C ) :   1.0628 B( 33-C , 37-C ) :   1.3660 B( 34-C , 35-C ) :   1.0912
B( 34-C , 84-H ) :   0.8977 B( 34-C , 85-H ) :   0.9043 B( 35-C , 36-N ) :   1.0958
B( 35-C , 86-H ) :   0.9332 B( 35-C , 87-H ) :   0.9356 B( 36-N , 88-H ) :   0.9720
B( 36-N , 89-H ) :   0.9684 B( 37-C , 38-C ) :   1.0718 B( 37-C , 41-C ) :   1.4109
B( 38-C , 39-C ) :   1.0907 B( 38-C , 90-H ) :   0.9008 B( 38-C , 91-H ) :   0.9019
B( 39-C , 40-N ) :   1.0962 B( 39-C , 92-H ) :   0.9408 B( 39-C , 93-H ) :   0.9382
B( 40-N , 94-H ) :   0.9716 B( 40-N , 95-H ) :   0.9697 B( 41-C , 42-C ) :   1.2066
B( 42-C , 43-C ) :   1.5550 B( 42-C , 96-H ) :   0.9575 B( 43-C , 44-C ) :   1.1535
B( 43-C , 47-S ) :   1.0281 B( 44-C , 45-C ) :   1.5742 B( 44-C , 97-H ) :   0.9997
B( 45-C , 46-C ) :   1.1988 B( 45-C , 98-H ) :   0.9938 B( 46-C , 47-S ) :   1.0741
B( 46-C , 48-C ) :   1.4655 B( 48-C , 49-C ) :   1.2213 B( 48-C , 52-S ) :   1.0433
B( 49-C , 50-C ) :   1.5377 B( 49-C , 99-H ) :   0.9951 B( 50-C , 51-C ) :   1.1888
B( 50-C ,100-H ) :   1.0001 B( 51-C , 52-S ) :   1.0880 B( 51-C , 53-C ) :   1.4827
B( 53-C , 54-C ) :   1.2369 B( 53-C ,101-H ) :   0.9633 B( 54-C , 55-C ) :   1.5091
B( 54-C ,102-H ) :   0.9366 B( 55-C , 56-C ) :   0.9695 B( 55-C , 70-C ) :   1.0949
B( 56-C , 57-O ) :   2.2428 B( 56-C , 58-C ) :   0.9174 B( 58-C , 59-C ) :   1.4817
B( 58-C , 69-C ) :   1.2214 B( 59-C , 60-C ) :   1.1831 B( 59-C ,103-H ) :   1.0172
B( 60-C , 61-C ) :   1.2642 B( 60-C , 65-C ) :   1.1928 B( 61-C , 62-C ) :   1.1917
B( 61-C , 68-C ) :   1.2041 B( 62-C , 63-C ) :   1.4366 B( 62-C , 65-C ) :   0.1096
B( 62-C ,104-H ) :   1.0079 B( 63-C , 64-C ) :   1.1974 B( 63-C , 67-F ) :   1.1291
B( 64-C , 65-C ) :   1.4390 B( 64-C , 66-F ) :   1.1285 B( 65-C ,105-H ) :   1.0082
B( 68-C , 69-C ) :   1.4652 B( 68-C ,106-H ) :   0.9918 B( 69-C , 70-C ) :   0.9871
B( 70-C , 71-C ) :   1.5906 B( 71-C , 72-C ) :   1.1700 B( 71-C , 74-C ) :   1.1379
B( 72-C , 73-N ) :   3.0062 B( 74-C , 75-N ) :   2.9674

-----------------------------------------------------------------------------
         ABSORPTION SPECTRUM VIA TRANSITION ELECTRIC DIPOLE MOMENTS
-----------------------------------------------------------------------------
State   Energy  Wavelength   fosc         T2         TX        TY        TZ
        (cm-1)    (nm)                  (au**2)     (au)      (au)      (au)
-----------------------------------------------------------------------------
   0   10857.6    921.0   1.108700503  33.61681   3.93707  -3.75594   2.00231
   1   17302.9    577.9   0.218385269   4.15509   0.69373  -0.22316   1.90369
   2   20397.3    490.3   0.212971204   3.43736   0.21199  -0.46888   1.78117
   3   20585.6    485.8   0.157261350   2.51498  -0.02552   0.21547  -1.57096
   4   21738.9    460.0   0.240429787   3.64105  -1.08748  -0.67443   1.41548
   5   23777.4    420.6   0.704023587   9.74762   2.43345   1.58515   1.14597
   6   24213.3    413.0   0.055662882   0.75681   0.85132   0.11753  -0.13509
   7   25154.8    397.5   0.173108951   2.26555   0.74961   0.40762  -1.23995
   8   26297.4    380.3   0.253685226   3.17584   1.28829   0.78601  -0.94781
   9   26488.7    377.5   0.071857831   0.89308  -0.72078  -0.57898   0.19579
  10   26888.1    371.9   0.154806661   1.89542   0.95909   0.16151  -0.97441
  11   27589.6    362.5   0.004761115   0.05681  -0.13965   0.14696  -0.12536
  12   27966.6    357.6   0.061464412   0.72354  -0.13952  -0.16147   0.82341
  13   28551.9    350.2   0.013414903   0.15468   0.36436  -0.14747  -0.01309
  14   29100.3    343.6   0.169316449   1.91548   0.80415   1.05353  -0.39862
  15   29620.1    337.6   0.358933031   3.98936   1.45429   1.36885  -0.02547
  16   29765.5    336.0   0.108615401   1.20131  -0.15301  -0.58784   0.91232
  17   30207.8    331.0   0.209678961   2.28513   0.84978   1.13957  -0.51418
  18   30632.8    326.4   0.105881131   1.13791   0.41676   0.51993  -0.83300
  19   30986.8    322.7   0.022978797   0.24413  -0.15339  -0.34529   0.31841
  20   31274.6    319.7   0.071435994   0.75197   0.59046   0.58630  -0.24408
  21   31543.2    317.0   0.003726140   0.03889   0.00121  -0.17746   0.08600
  22   31816.6    314.3   0.002410945   0.02495  -0.06188   0.10432   0.10117
  23   32155.6    311.0   0.485978823   4.97549  -1.20672  -0.66955   1.75243
  24   32469.0    308.0   0.025902962   0.26264  -0.06036  -0.16492   0.48145
  25   32693.7    305.9   0.154961925   1.56040   0.72484   0.96922  -0.30922
  26   32833.8    304.6   0.097513345   0.97773  -0.62294  -0.36588  -0.67513
  27   33170.3    301.5   0.045498434   0.45157  -0.07342  -0.09319  -0.66143
  28   33369.1    299.7   0.077859500   0.76814  -0.17152  -0.11494   0.85177
  29   33461.5    298.9   0.010625512   0.10454   0.18057   0.19762  -0.18133
  30   33796.5    295.9   0.375681872   3.65951  -0.80069  -1.22785   1.22914
  31   33834.0    295.6   0.088895079   0.86497  -0.00152  -0.56177   0.74120
  32   34324.4    291.3   0.017022866   0.16327  -0.25918   0.08098   0.29923
  33   34975.1    285.9   0.034290249   0.32277   0.03333   0.43315  -0.36611
  34   35142.8    284.6   0.053791884   0.50391  -0.09046  -0.45221   0.53966
  35   35481.2    281.8   0.136415022   1.26573   0.07531   0.03074  -1.12210
  36   35584.2    281.0   0.043743454   0.40470   0.13768   0.49672  -0.37284
  37   35735.2    279.8   0.030603067   0.28193   0.10701   0.07664   0.51440
  38   35954.0    278.1   0.005174136   0.04738  -0.10211  -0.00840  -0.19204
  39   36409.4    274.7   0.006636287   0.06000   0.20381   0.11726  -0.06870
  40   36595.3    273.3   0.036233853   0.32596  -0.02201   0.45224  -0.34778
  41   36638.7    272.9   0.007550722   0.06785  -0.08608  -0.13251   0.20707
  42   36689.1    272.6   0.007964828   0.07147  -0.17837  -0.04267   0.19450
  43   36918.7    270.9   0.017096184   0.15245  -0.00909  -0.29071   0.26049
  44   37273.9    268.3   0.030005387   0.26501  -0.30260  -0.05013   0.41344
  45   37497.0    266.7   0.064055927   0.56239  -0.43919  -0.38301   0.47202
  46   37728.2    265.1   0.113871404   0.99363   0.34981   0.03068  -0.93291
  47   38026.0    263.0   0.027563025   0.23863   0.11561   0.07378  -0.46885
  48   38281.9    261.2   0.155045603   1.33334  -0.63764  -0.68085  -0.68058
  49   38557.7    259.4   0.130504645   1.11427   0.87735  -0.13629  -0.57091
  50   38797.7    257.7   0.078835669   0.66895  -0.39982   0.17485   0.69175
  51   39033.6    256.2   0.007824740   0.06599   0.17479   0.00480  -0.18820
  52   39359.1    254.1   0.106172517   0.88806   0.05051  -0.59828  -0.72634
  53   39462.0    253.4   0.033843152   0.28234  -0.32927   0.06225  -0.41236
  54   39670.2    252.1   0.054681736   0.45379  -0.64582   0.17818   0.07042
  55   39778.3    251.4   0.012297188   0.10177  -0.22323  -0.07684  -0.21456
  56   39979.0    250.1   0.091691023   0.75504  -0.19202  -0.31278   0.78761
  57   40140.7    249.1   0.023007557   0.18870  -0.40005  -0.07761   0.15043

FINAL SINGLE POINT ENERGY     -7651.479498269955

DIPOLE MOMENT
-------------
                                X             Y             Z
Electronic contribution:     74.14948      39.46637     112.65276
Nuclear contribution   :    -74.28577     -33.37712    -117.29058
                        -----------------------------------------
Total Dipole Moment    :     -0.13629       6.08925      -4.63782
                        -----------------------------------------
Magnitude (a.u.)       :      7.65551
Magnitude (Debye)      :     19.45877

Rotational constants in cm-1:     0.000565     0.000337     0.000331
Rotational constants in MHz :    16.936705    10.115866     9.921638

                             ****ORCA TERMINATED NORMALLY****
TOTAL RUN TIME: 0 days 0 hours 13 minutes 43 seconds 740 msec
