                         Program Version 4.2.0 -  RELEASE  -
|  1> # ORCA input file
|  2> # SCF done       -208.246674362816          0.000728709476
|  3> ! CAM-B3LYP def2-SVP def2/J RIJCOSX Grid4 TightSCF
|  4> %maxcore 5000
|  5> %tddft
|  6>     Mode sTDDFT
|  7>     Ethresh 5.0
|  8>     maxcore 5000
|  9> end
| 10>
| 11> %pal
| 12>   nprocs 6
| 13>   end
| 14> * xyz 0 1
| 15>    C       -3.15205        -9.52239       -17.19391
| 16>    C       -2.38521       -10.13885       -18.14236
| 17>    F       -2.18022        -9.55142       -19.32933
| 18>    C       -1.80113       -11.39530       -17.88655
| 19>    F       -1.05264       -11.97676       -18.83480
| 20>    C       -1.99200       -12.01839       -16.68520
| 21>    C       -2.77666       -11.40858       -15.68733
| 22>    C       -3.36851       -10.13843       -15.94497
| 23>    C       -4.16141        -9.50720       -14.95903
| 24>    C       -4.35333       -10.12672       -13.75262
| 25>    C       -3.75250       -11.38967       -13.50165
| 26>    C       -2.98636       -12.02649       -14.43428
| 27>    C       -4.08674       -11.83245       -12.13219
| 28>    O       -3.74891       -12.88949       -11.63632
| 29>    C       -4.86966       -10.73121       -11.53606
| 30>    C       -5.10502        -9.73375       -12.56387
| 31>    C       -5.93830        -8.64618       -12.48963
| 32>    C       -6.75987        -8.30275       -11.39528
| 33>    N       -7.47645        -7.96065       -10.56460
| 34>    C       -6.12505        -7.72521       -13.54152
| 35>    N       -6.31802        -6.93697       -14.35379
| 36>    C       -5.23043       -10.55138       -10.22166
| 37>    C       -5.12128       -11.38700        -9.10274
| 38>    S       -5.55640       -10.65605        -7.54944
| 39>    C       -5.21699       -12.12414        -6.75253
| 40>    C       -4.80580       -13.13783        -7.63467
| 41>    C       -4.75188       -12.72418        -8.94798
| 42>    C       -4.52331       -14.41703        -6.88153
| 43>    C       -5.47469       -15.53560        -7.31690
| 44>    C       -3.06528       -14.85147        -7.05288
| 45>    C       -4.80780       -13.97288        -5.46602
| 46>    C       -5.21200       -12.63599        -5.43978
| 47>    S       -5.53385       -12.08103        -3.84863
| 48>    C       -5.11693       -13.65530        -3.20359
| 49>    C       -4.75715       -14.54705        -4.20359
| 50>    C       -5.16371       -13.83855        -1.79446
| 51>    C       -4.84980       -14.98075        -1.14852
| 52>    N       -4.86427       -15.08065         0.21346
| 53>    C       -4.61655       -16.20089         0.93329
| 54>    S       -4.49136       -17.74918         0.15866
| 55>    C       -4.32455       -18.50063         1.71600
| 56>    N       -4.15382       -19.88399         1.74011
| 57>    O       -4.03599       -20.42672         2.82399
| 58>    O       -4.13616       -20.44923         0.65675
| 59>    C       -4.37166       -17.60862         2.75371
| 60>    C       -4.51487       -16.27518         2.32900
| 61>    C       -4.51686       -15.17061         3.25822
| 62>    C       -4.15611       -13.89848         3.01024
| 63>    C       -4.16354       -12.88209         4.02547
| 64>    C       -3.84070       -11.59362         3.84105
| 65>    C       -3.42502       -11.00531         2.52458
| 66>    C       -3.88903       -10.62221         4.98795
| 67>    N       -2.58309       -10.03447         5.19742
| 68>    C       -2.39291        -8.91597         5.90133
| 69>    C       -1.16366        -8.46520         6.29603
| 70>    C       -0.90734        -7.29207         7.01548
| 71>    C       -1.71794        -6.45166         7.74620
| 72>    C       -1.19269        -5.09205         8.02219
| 73>    O       -0.07333        -4.68592         7.79478
| 74>    C       -2.32430        -4.33065         8.59023
| 75>    C       -2.39324        -3.00979         8.92217
| 76>    C       -3.60841        -2.49135         9.42520
| 77>    C       -4.72983        -3.35797         9.56599
| 78>    C       -5.94164        -2.83536        10.05965
| 79>    C       -6.03451        -1.51508        10.40038
| 80>    C       -4.92439        -0.65934        10.26210
| 81>    C       -3.73551        -1.13597         9.78493
| 82>    F       -5.04422         0.63231        10.60241
| 83>    F       -7.18892        -1.02067        10.87032
| 84>    C       -4.62306        -4.72532         9.21903
| 85>    C       -3.43301        -5.20734         8.74549
| 86>    C       -3.02310        -6.55524         8.33785
| 87>    C       -3.71359        -7.69399         8.69364
| 88>    C       -3.26241        -9.00598         8.49191
| 89>    N       -2.96042       -10.10372         8.32578
| 90>    C       -4.95899        -7.69384         9.35177
| 91>    N       -5.98464        -7.77745         9.86273
| 92>    H       -3.59322        -8.56103       -17.40619
| 93>    H       -1.53754       -12.98001       -16.50492
| 94>    H       -4.59084        -8.54465       -15.18402
| 95>    H       -2.54406       -12.98712       -14.21799
| 96>    H       -5.65275        -9.58179        -9.98313
| 97>    H       -4.45470       -13.32975        -9.78390
| 98>    H       -5.30662       -15.77698        -8.36302
| 99>    H       -6.50931       -15.22402        -7.19224
|100>    H       -5.30366       -16.42636        -6.71768
|101>    H       -2.86776       -15.07599        -8.09755
|102>    H       -2.86624       -15.73881        -6.45718
|103>    H       -2.39311       -14.05793        -6.73427
|104>    H       -4.47034       -15.56301        -4.00566
|105>    H       -5.46661       -12.97499        -1.21624
|106>    H       -4.54751       -15.87452        -1.67164
|107>    H       -5.14439       -14.26096         0.74025
|108>    H       -4.27956       -17.91300         3.78064
|109>    H       -4.79428       -15.43901         4.26931
|110>    H       -3.79085       -13.60690         2.03643
|111>    H       -4.46456       -13.20748         5.01260
|112>    H       -4.28978       -10.89057         1.87003
|113>    H       -2.69903       -11.63546         2.01547
|114>    H       -2.98321       -10.02323         2.67191
|115>    H       -4.22338       -11.12321         5.90644
|116>    H       -4.59354        -9.81313         4.76467
|117>    H       -1.80385       -10.67692         5.13905
|118>    H       -3.27524        -8.30857         6.05338
|119>    H       -0.29926        -9.04075         5.99134
|120>    H        0.11694        -6.93180         6.96046
|121>    H       -1.53374        -2.36791         8.80307
|122>    H       -6.80043        -3.47796        10.17588
|123>    H       -2.89436        -0.46797         9.68500
|124>    H       -5.49264        -5.35246         9.33191
|125> *
|126>
|127>                          ****END OF INPUT****

CARTESIAN COORDINATES (ANGSTROEM)
---------------------------------
  C     -3.152050   -9.522390  -17.193910
  C     -2.385210  -10.138850  -18.142360
  F     -2.180220   -9.551420  -19.329330
  C     -1.801130  -11.395300  -17.886550
  F     -1.052640  -11.976760  -18.834800
  C     -1.992000  -12.018390  -16.685200
  C     -2.776660  -11.408580  -15.687330
  C     -3.368510  -10.138430  -15.944970
  C     -4.161410   -9.507200  -14.959030
  C     -4.353330  -10.126720  -13.752620
  C     -3.752500  -11.389670  -13.501650
  C     -2.986360  -12.026490  -14.434280
  C     -4.086740  -11.832450  -12.132190
  O     -3.748910  -12.889490  -11.636320
  C     -4.869660  -10.731210  -11.536060
  C     -5.105020   -9.733750  -12.563870
  C     -5.938300   -8.646180  -12.489630
  C     -6.759870   -8.302750  -11.395280
  N     -7.476450   -7.960650  -10.564600
  C     -6.125050   -7.725210  -13.541520
  N     -6.318020   -6.936970  -14.353790
  C     -5.230430  -10.551380  -10.221660
  C     -5.121280  -11.387000   -9.102740
  S     -5.556400  -10.656050   -7.549440
  C     -5.216990  -12.124140   -6.752530
  C     -4.805800  -13.137830   -7.634670
  C     -4.751880  -12.724180   -8.947980
  C     -4.523310  -14.417030   -6.881530
  C     -5.474690  -15.535600   -7.316900
  C     -3.065280  -14.851470   -7.052880
  C     -4.807800  -13.972880   -5.466020
  C     -5.212000  -12.635990   -5.439780
  S     -5.533850  -12.081030   -3.848630
  C     -5.116930  -13.655300   -3.203590
  C     -4.757150  -14.547050   -4.203590
  C     -5.163710  -13.838550   -1.794460
  C     -4.849800  -14.980750   -1.148520
  N     -4.864270  -15.080650    0.213460
  C     -4.616550  -16.200890    0.933290
  S     -4.491360  -17.749180    0.158660
  C     -4.324550  -18.500630    1.716000
  N     -4.153820  -19.883990    1.740110
  O     -4.035990  -20.426720    2.823990
  O     -4.136160  -20.449230    0.656750
  C     -4.371660  -17.608620    2.753710
  C     -4.514870  -16.275180    2.329000
  C     -4.516860  -15.170610    3.258220
  C     -4.156110  -13.898480    3.010240
  C     -4.163540  -12.882090    4.025470
  C     -3.840700  -11.593620    3.841050
  C     -3.425020  -11.005310    2.524580
  C     -3.889030  -10.622210    4.987950
  N     -2.583090  -10.034470    5.197420
  C     -2.392910   -8.915970    5.901330
  C     -1.163660   -8.465200    6.296030
  C     -0.907340   -7.292070    7.015480
  C     -1.717940   -6.451660    7.746200
  C     -1.192690   -5.092050    8.022190
  O     -0.073330   -4.685920    7.794780
  C     -2.324300   -4.330650    8.590230
  C     -2.393240   -3.009790    8.922170
  C     -3.608410   -2.491350    9.425200
  C     -4.729830   -3.357970    9.565990
  C     -5.941640   -2.835360   10.059650
  C     -6.034510   -1.515080   10.400380
  C     -4.924390   -0.659340   10.262100
  C     -3.735510   -1.135970    9.784930
  F     -5.044220    0.632310   10.602410
  F     -7.188920   -1.020670   10.870320
  C     -4.623060   -4.725320    9.219030
  C     -3.433010   -5.207340    8.745490
  C     -3.023100   -6.555240    8.337850
  C     -3.713590   -7.693990    8.693640
  C     -3.262410   -9.005980    8.491910
  N     -2.960420  -10.103720    8.325780
  C     -4.958990   -7.693840    9.351770
  N     -5.984640   -7.777450    9.862730
  H     -3.593220   -8.561030  -17.406190
  H     -1.537540  -12.980010  -16.504920
  H     -4.590840   -8.544650  -15.184020
  H     -2.544060  -12.987120  -14.217990
  H     -5.652750   -9.581790   -9.983130
  H     -4.454700  -13.329750   -9.783900
  H     -5.306620  -15.776980   -8.363020
  H     -6.509310  -15.224020   -7.192240
  H     -5.303660  -16.426360   -6.717680
  H     -2.867760  -15.075990   -8.097550
  H     -2.866240  -15.738810   -6.457180
  H     -2.393110  -14.057930   -6.734270
  H     -4.470340  -15.563010   -4.005660
  H     -5.466610  -12.974990   -1.216240
  H     -4.547510  -15.874520   -1.671640
  H     -5.144390  -14.260960    0.740250
  H     -4.279560  -17.913000    3.780640
  H     -4.794280  -15.439010    4.269310
  H     -3.790850  -13.606900    2.036430
  H     -4.464560  -13.207480    5.012600
  H     -4.289780  -10.890570    1.870030
  H     -2.699030  -11.635460    2.015470
  H     -2.983210  -10.023230    2.671910
  H     -4.223380  -11.123210    5.906440
  H     -4.593540   -9.813130    4.764670
  H     -1.803850  -10.676920    5.139050
  H     -3.275240   -8.308570    6.053380
  H     -0.299260   -9.040750    5.991340
  H      0.116940   -6.931800    6.960460
  H     -1.533740   -2.367910    8.803070
  H     -6.800430   -3.477960   10.175880
  H     -2.894360   -0.467970    9.685000
  H     -5.492640   -5.352460    9.331910

 Total Charge           Charge          ....    0
 Multiplicity           Mult            ....    1
 Number of Electrons    NEL             ....  552
 Basis Dimension        Dim             .... 1255

ORBITAL ENERGIES
----------------

  NO   OCC          E(Eh)            E(eV)
   0   2.0000     -88.994707     -2421.6691
   1   2.0000     -88.981954     -2421.3221
   2   2.0000     -88.978134     -2421.2181
   3   2.0000     -24.795714      -674.7257
   4   2.0000     -24.794565      -674.6944
   5   2.0000     -24.793437      -674.6637
   6   2.0000     -24.792670      -674.6428
   7   2.0000     -19.239892      -523.5441
   8   2.0000     -19.239579      -523.5356
   9   2.0000     -19.215377      -522.8770
  10   2.0000     -19.203304      -522.5485
  11   2.0000     -14.652054      -398.7027
  12   2.0000     -14.499456      -394.5502
  13   2.0000     -14.474641      -393.8750
  14   2.0000     -14.418417      -392.3451
  15   2.0000     -14.411731      -392.1631
  16   2.0000     -14.409263      -392.0960
  17   2.0000     -14.409097      -392.0915
  18   2.0000     -10.382288      -282.5164
  19   2.0000     -10.378371      -282.4098
  20   2.0000     -10.377430      -282.3842
  21   2.0000     -10.375870      -282.3418
  22   2.0000     -10.375223      -282.3242
  23   2.0000     -10.366877      -282.0971
  24   2.0000     -10.358232      -281.8618
  25   2.0000     -10.354778      -281.7678
  26   2.0000     -10.353325      -281.7283
  27   2.0000     -10.347421      -281.5676
  28   2.0000     -10.337948      -281.3099
  29   2.0000     -10.336553      -281.2719
  30   2.0000     -10.335051      -281.2310
  31   2.0000     -10.334896      -281.2268
  32   2.0000     -10.331965      -281.1471
  33   2.0000     -10.331233      -281.1271
  34   2.0000     -10.330241      -281.1001
  35   2.0000     -10.321981      -280.8754
  36   2.0000     -10.321473      -280.8616
  37   2.0000     -10.318099      -280.7697
  38   2.0000     -10.318037      -280.7681
  39   2.0000     -10.316813      -280.7348
  40   2.0000     -10.315183      -280.6904
  41   2.0000     -10.314027      -280.6589
  42   2.0000     -10.313011      -280.6313
  43   2.0000     -10.312543      -280.6186
  44   2.0000     -10.309926      -280.5474
  45   2.0000     -10.309428      -280.5338
  46   2.0000     -10.308963      -280.5211
  47   2.0000     -10.307928      -280.4930
  48   2.0000     -10.306823      -280.4629
  49   2.0000     -10.306367      -280.4505
  50   2.0000     -10.304601      -280.4024
  51   2.0000     -10.304148      -280.3901
  52   2.0000     -10.303858      -280.3822
  53   2.0000     -10.302465      -280.3443
  54   2.0000     -10.301097      -280.3071
  55   2.0000     -10.300371      -280.2874
  56   2.0000     -10.298307      -280.2312
  57   2.0000     -10.298209      -280.2285
  58   2.0000     -10.297778      -280.2168
  59   2.0000     -10.297720      -280.2152
  60   2.0000     -10.297147      -280.1996
  61   2.0000     -10.295876      -280.1650
  62   2.0000     -10.295704      -280.1603
  63   2.0000     -10.295442      -280.1532
  64   2.0000     -10.295349      -280.1507
  65   2.0000     -10.295184      -280.1462
  66   2.0000     -10.294106      -280.1169
  67   2.0000     -10.293390      -280.0974
  68   2.0000     -10.292122      -280.0629
  69   2.0000     -10.291349      -280.0419
  70   2.0000     -10.288835      -279.9734
  71   2.0000     -10.288533      -279.9652
  72   2.0000     -10.285178      -279.8739
  73   2.0000     -10.280839      -279.7559
  74   2.0000     -10.280680      -279.7515
  75   2.0000     -10.276492      -279.6376
  76   2.0000     -10.276482      -279.6373
  77   2.0000      -8.090190      -220.1453
  78   2.0000      -8.077064      -219.7881
  79   2.0000      -8.073258      -219.6845
  80   2.0000      -6.059909      -164.8985
  81   2.0000      -6.055464      -164.7776
  82   2.0000      -6.051569      -164.6716
  83   2.0000      -6.046378      -164.5303
  84   2.0000      -6.042457      -164.4236
  85   2.0000      -6.042384      -164.4216
  86   2.0000      -6.039100      -164.3323
  87   2.0000      -6.038473      -164.3152
  88   2.0000      -6.035427      -164.2323
  89   2.0000      -1.320354       -35.9287
  90   2.0000      -1.317811       -35.8595
  91   2.0000      -1.315544       -35.7978
  92   2.0000      -1.302965       -35.4555
  93   2.0000      -1.300766       -35.3956
  94   2.0000      -1.139525       -31.0081
  95   2.0000      -1.129839       -30.7445
  96   2.0000      -1.118621       -30.4392
  97   2.0000      -1.106578       -30.1115
  98   2.0000      -1.074575       -29.2407
  99   2.0000      -1.030727       -28.0475
 100   2.0000      -1.016289       -27.6546
 101   2.0000      -1.015276       -27.6271
 102   2.0000      -1.013800       -27.5869
 103   2.0000      -1.000375       -27.2216
 104   2.0000      -1.000344       -27.2207
 105   2.0000      -0.993453       -27.0332
 106   2.0000      -0.991909       -26.9912
 107   2.0000      -0.989272       -26.9195
 108   2.0000      -0.977124       -26.5889
 109   2.0000      -0.974547       -26.5188
 110   2.0000      -0.949220       -25.8296
 111   2.0000      -0.946537       -25.7566
 112   2.0000      -0.929585       -25.2953
 113   2.0000      -0.926981       -25.2244
 114   2.0000      -0.923852       -25.1393
 115   2.0000      -0.911115       -24.7927
 116   2.0000      -0.903680       -24.5904
 117   2.0000      -0.900103       -24.4931
 118   2.0000      -0.890847       -24.2412
 119   2.0000      -0.888830       -24.1863
 120   2.0000      -0.886715       -24.1288
 121   2.0000      -0.882826       -24.0229
 122   2.0000      -0.879083       -23.9211
 123   2.0000      -0.864650       -23.5283
 124   2.0000      -0.855933       -23.2911
 125   2.0000      -0.847934       -23.0735
 126   2.0000      -0.840184       -22.8626
 127   2.0000      -0.838739       -22.8232
 128   2.0000      -0.836658       -22.7666
 129   2.0000      -0.834429       -22.7060
 130   2.0000      -0.818209       -22.2646
 131   2.0000      -0.809778       -22.0352
 132   2.0000      -0.804846       -21.9010
 133   2.0000      -0.793630       -21.5958
 134   2.0000      -0.788360       -21.4524
 135   2.0000      -0.775070       -21.0907
 136   2.0000      -0.763352       -20.7719
 137   2.0000      -0.759840       -20.6763
 138   2.0000      -0.758193       -20.6315
 139   2.0000      -0.748260       -20.3612
 140   2.0000      -0.742541       -20.2056
 141   2.0000      -0.733631       -19.9631
 142   2.0000      -0.724929       -19.7263
 143   2.0000      -0.721356       -19.6291
 144   2.0000      -0.718322       -19.5465
 145   2.0000      -0.713051       -19.4031
 146   2.0000      -0.710714       -19.3395
 147   2.0000      -0.705031       -19.1849
 148   2.0000      -0.696893       -18.9634
 149   2.0000      -0.683138       -18.5891
 150   2.0000      -0.680814       -18.5259
 151   2.0000      -0.677259       -18.4292
 152   2.0000      -0.662955       -18.0399
 153   2.0000      -0.656528       -17.8650
 154   2.0000      -0.654753       -17.8167
 155   2.0000      -0.650658       -17.7053
 156   2.0000      -0.646974       -17.6051
 157   2.0000      -0.645419       -17.5627
 158   2.0000      -0.642496       -17.4832
 159   2.0000      -0.640226       -17.4214
 160   2.0000      -0.639522       -17.4023
 161   2.0000      -0.636973       -17.3329
 162   2.0000      -0.635831       -17.3018
 163   2.0000      -0.633366       -17.2348
 164   2.0000      -0.626009       -17.0346
 165   2.0000      -0.625623       -17.0241
 166   2.0000      -0.622109       -16.9284
 167   2.0000      -0.614068       -16.7096
 168   2.0000      -0.607148       -16.5213
 169   2.0000      -0.603742       -16.4287
 170   2.0000      -0.599480       -16.3127
 171   2.0000      -0.595912       -16.2156
 172   2.0000      -0.592553       -16.1242
 173   2.0000      -0.587064       -15.9748
 174   2.0000      -0.582424       -15.8486
 175   2.0000      -0.580325       -15.7914
 176   2.0000      -0.578516       -15.7422
 177   2.0000      -0.577125       -15.7044
 178   2.0000      -0.576462       -15.6863
 179   2.0000      -0.572934       -15.5903
 180   2.0000      -0.570124       -15.5139
 181   2.0000      -0.564895       -15.3716
 182   2.0000      -0.562486       -15.3060
 183   2.0000      -0.556638       -15.1469
 184   2.0000      -0.551835       -15.0162
 185   2.0000      -0.549870       -14.9627
 186   2.0000      -0.548727       -14.9316
 187   2.0000      -0.546267       -14.8647
 188   2.0000      -0.544129       -14.8065
 189   2.0000      -0.542796       -14.7702
 190   2.0000      -0.542092       -14.7511
 191   2.0000      -0.540929       -14.7194
 192   2.0000      -0.536010       -14.5856
 193   2.0000      -0.534821       -14.5532
 194   2.0000      -0.532425       -14.4880
 195   2.0000      -0.531176       -14.4540
 196   2.0000      -0.529971       -14.4212
 197   2.0000      -0.527008       -14.3406
 198   2.0000      -0.524655       -14.2766
 199   2.0000      -0.523713       -14.2510
 200   2.0000      -0.522744       -14.2246
 201   2.0000      -0.520280       -14.1575
 202   2.0000      -0.518363       -14.1054
 203   2.0000      -0.515027       -14.0146
 204   2.0000      -0.510917       -13.9028
 205   2.0000      -0.509227       -13.8568
 206   2.0000      -0.506667       -13.7871
 207   2.0000      -0.503900       -13.7118
 208   2.0000      -0.502290       -13.6680
 209   2.0000      -0.500160       -13.6100
 210   2.0000      -0.498518       -13.5654
 211   2.0000      -0.496387       -13.5074
 212   2.0000      -0.493534       -13.4297
 213   2.0000      -0.492065       -13.3898
 214   2.0000      -0.490935       -13.3590
 215   2.0000      -0.489081       -13.3086
 216   2.0000      -0.485553       -13.2126
 217   2.0000      -0.484693       -13.1892
 218   2.0000      -0.481276       -13.0962
 219   2.0000      -0.478980       -13.0337
 220   2.0000      -0.476375       -12.9628
 221   2.0000      -0.473804       -12.8929
 222   2.0000      -0.472008       -12.8440
 223   2.0000      -0.467256       -12.7147
 224   2.0000      -0.465866       -12.6769
 225   2.0000      -0.465503       -12.6670
 226   2.0000      -0.464305       -12.6344
 227   2.0000      -0.460476       -12.5302
 228   2.0000      -0.458895       -12.4872
 229   2.0000      -0.455863       -12.4047
 230   2.0000      -0.454643       -12.3715
 231   2.0000      -0.452233       -12.3059
 232   2.0000      -0.451178       -12.2772
 233   2.0000      -0.446964       -12.1625
 234   2.0000      -0.443615       -12.0714
 235   2.0000      -0.442318       -12.0361
 236   2.0000      -0.441597       -12.0165
 237   2.0000      -0.439185       -11.9508
 238   2.0000      -0.438867       -11.9422
 239   2.0000      -0.438503       -11.9323
 240   2.0000      -0.437581       -11.9072
 241   2.0000      -0.431583       -11.7440
 242   2.0000      -0.427431       -11.6310
 243   2.0000      -0.427143       -11.6231
 244   2.0000      -0.423056       -11.5119
 245   2.0000      -0.420602       -11.4452
 246   2.0000      -0.420153       -11.4330
 247   2.0000      -0.418697       -11.3933
 248   2.0000      -0.416889       -11.3441
 249   2.0000      -0.416585       -11.3359
 250   2.0000      -0.413732       -11.2582
 251   2.0000      -0.404805       -11.0153
 252   2.0000      -0.402998       -10.9661
 253   2.0000      -0.394727       -10.7411
 254   2.0000      -0.392106       -10.6697
 255   2.0000      -0.388265       -10.5652
 256   2.0000      -0.382279       -10.4023
 257   2.0000      -0.381741       -10.3877
 258   2.0000      -0.379208       -10.3188
 259   2.0000      -0.369014       -10.0414
 260   2.0000      -0.368319       -10.0225
 261   2.0000      -0.361722        -9.8430
 262   2.0000      -0.354775        -9.6539
 263   2.0000      -0.344177        -9.3655
 264   2.0000      -0.339788        -9.2461
 265   2.0000      -0.335336        -9.1249
 266   2.0000      -0.332713        -9.0536
 267   2.0000      -0.327685        -8.9168
 268   2.0000      -0.315293        -8.5796
 269   2.0000      -0.312113        -8.4930
 270   2.0000      -0.311573        -8.4783
 271   2.0000      -0.297335        -8.0909
 272   2.0000      -0.297148        -8.0858
 273   2.0000      -0.281108        -7.6493
 274   2.0000      -0.270631        -7.3643
 275   2.0000      -0.245743        -6.6870
 276   0.0000      -0.097690        -2.6583
 277   0.0000      -0.080090        -2.1794
 278   0.0000      -0.066591        -1.8120
 279   0.0000      -0.056435        -1.5357
 280   0.0000      -0.049436        -1.3452

MULLIKEN ATOMIC CHARGES
-----------------------
   0 C :   -0.109150
   1 C :    0.242515
   2 F :   -0.172674
   3 C :    0.236561
   4 F :   -0.174360
   5 C :   -0.106392
   6 C :    0.119332
   7 C :    0.114655
   8 C :   -0.084695
   9 C :    0.047637
  10 C :    0.003096
  11 C :   -0.088694
  12 C :    0.157403
  13 O :   -0.166782
  14 C :   -0.105625
  15 C :    0.312597
  16 C :   -0.361670
  17 C :   -0.199162
  18 N :    0.149535
  19 C :   -0.180837
  20 N :    0.140621
  21 C :    0.038467
  22 C :   -0.118572
  23 S :    0.168826
  24 C :   -0.058275
  25 C :   -0.007724
  26 C :   -0.002849
  27 C :   -0.112044
  28 C :    0.105846
  29 C :    0.100649
  30 C :    0.019951
  31 C :   -0.103106
  32 S :    0.156383
  33 C :   -0.083186
  34 C :   -0.041122
  35 C :    0.029279
  36 C :    0.060944
  37 N :   -0.030076
  38 C :   -0.106831
  39 S :    0.148107
  40 C :   -0.005359
  41 N :    0.280653
  42 O :   -0.253318
  43 O :   -0.271570
  44 C :    0.013995
  45 C :    0.102751
  46 C :   -0.012665
  47 C :   -0.031617
  48 C :    0.018468
  49 C :   -0.246937
  50 C :    0.088904
  51 C :    0.223795
  52 N :   -0.134675
  53 C :    0.081673
  54 C :   -0.020912
  55 C :    0.040278
  56 C :   -0.161348
  57 C :    0.132184
  58 O :   -0.157008
  59 C :    0.023012
  60 C :   -0.092600
  61 C :    0.116315
  62 C :    0.113518
  63 C :   -0.111688
  64 C :    0.240416
  65 C :    0.239602
  66 C :   -0.108636
  67 F :   -0.174959
  68 F :   -0.174749
  69 C :   -0.089269
  70 C :    0.026261
  71 C :    0.306027
  72 C :   -0.381125
  73 C :   -0.191124
  74 N :    0.132351
  75 C :   -0.175121
  76 N :    0.139400
  77 H :    0.006186
  78 H :   -0.003784
  79 H :   -0.007757
  80 H :   -0.015353
  81 H :    0.009751
  82 H :    0.009593
  83 H :    0.021766
  84 H :    0.023183
  85 H :    0.011491
  86 H :    0.025766
  87 H :    0.011210
  88 H :    0.021712
  89 H :   -0.025946
  90 H :   -0.018883
  91 H :    0.031084
  92 H :    0.137156
  93 H :    0.011928
  94 H :    0.000309
  95 H :   -0.017303
  96 H :   -0.013231
  97 H :    0.028896
  98 H :    0.036974
  99 H :    0.019716
 100 H :    0.033059
 101 H :    0.028474
 102 H :    0.135499
 103 H :    0.039817
 104 H :   -0.012720
 105 H :    0.026486
 106 H :   -0.012895
 107 H :    0.004467
 108 H :   -0.002308
 109 H :   -0.007849
Sum of atomic charges:   -0.0000000

LOEWDIN ATOMIC CHARGES
----------------------
   0 C :   -0.029477
   1 C :    0.065018
   2 F :   -0.050515
   3 C :    0.066263
   4 F :   -0.051451
   5 C :   -0.034549
   6 C :   -0.009639
   7 C :   -0.007566
   8 C :    0.015789
   9 C :   -0.022185
  10 C :   -0.050055
  11 C :    0.025386
  12 C :    0.085969
  13 O :   -0.155231
  14 C :   -0.112885
  15 C :    0.076851
  16 C :   -0.150546
  17 C :   -0.025806
  18 N :   -0.058332
  19 C :   -0.017634
  20 N :   -0.061354
  21 C :    0.045582
  22 C :   -0.179432
  23 S :    0.458900
  24 C :   -0.162118
  25 C :   -0.046202
  26 C :   -0.000341
  27 C :   -0.035456
  28 C :   -0.022194
  29 C :   -0.023343
  30 C :   -0.013327
  31 C :   -0.213370
  32 S :    0.442561
  33 C :   -0.147293
  34 C :   -0.066548
  35 C :   -0.095024
  36 C :    0.030715
  37 N :    0.045673
  38 C :   -0.094472
  39 S :    0.453600
  40 C :   -0.216250
  41 N :    0.274252
  42 O :   -0.218664
  43 O :   -0.238030
  44 C :    0.007670
  45 C :   -0.112512
  46 C :   -0.006882
  47 C :   -0.051587
  48 C :   -0.035991
  49 C :   -0.049222
  50 C :   -0.055943
  51 C :    0.050940
  52 N :    0.039164
  53 C :    0.112915
  54 C :   -0.127206
  55 C :    0.080595
  56 C :   -0.138899
  57 C :    0.079670
  58 O :   -0.158259
  59 C :   -0.050879
  60 C :    0.025447
  61 C :   -0.010631
  62 C :   -0.008364
  63 C :   -0.031343
  64 C :    0.064378
  65 C :    0.065300
  66 C :   -0.034306
  67 F :   -0.052374
  68 F :   -0.052204
  69 C :    0.009871
  70 C :   -0.020814
  71 C :    0.070956
  72 C :   -0.175962
  73 C :   -0.007434
  74 N :   -0.074193
  75 C :   -0.023025
  76 N :   -0.070134
  77 H :    0.047304
  78 H :    0.043631
  79 H :    0.039479
  80 H :    0.038058
  81 H :    0.042644
  82 H :    0.035509
  83 H :    0.028800
  84 H :    0.030836
  85 H :    0.024050
  86 H :    0.030120
  87 H :    0.023755
  88 H :    0.030227
  89 H :    0.028337
  90 H :    0.027089
  91 H :    0.025763
  92 H :    0.093743
  93 H :    0.047340
  94 H :    0.036063
  95 H :    0.018166
  96 H :    0.031063
  97 H :    0.037722
  98 H :    0.035081
  99 H :    0.030650
 100 H :    0.030271
 101 H :    0.034545
 102 H :    0.090603
 103 H :    0.038646
 104 H :    0.030152
 105 H :    0.046859
 106 H :    0.039160
 107 H :    0.046315
 108 H :    0.043913
 109 H :    0.038092

  Mayer bond orders larger than 0.100000
B(  0-C ,  1-C ) :   1.4383 B(  0-C ,  5-C ) :   0.1092 B(  0-C ,  7-C ) :   1.1887
B(  0-C , 77-H ) :   1.0072 B(  1-C ,  2-F ) :   1.1333 B(  1-C ,  3-C ) :   1.1949
B(  3-C ,  4-F ) :   1.1306 B(  3-C ,  5-C ) :   1.4414 B(  5-C ,  6-C ) :   1.1923
B(  5-C , 78-H ) :   1.0070 B(  6-C ,  7-C ) :   1.2612 B(  6-C , 11-C ) :   1.1832
B(  7-C ,  8-C ) :   1.2116 B(  8-C ,  9-C ) :   1.4541 B(  8-C , 79-H ) :   0.9899
B(  9-C , 10-C ) :   1.2263 B(  9-C , 15-C ) :   0.9743 B( 10-C , 11-C ) :   1.4730
B( 10-C , 12-C ) :   0.9497 B( 11-C , 80-H ) :   1.0162 B( 12-C , 13-O ) :   2.1562
B( 12-C , 14-C ) :   0.9588 B( 14-C , 15-C ) :   1.0992 B( 14-C , 21-C ) :   1.5235
B( 15-C , 16-C ) :   1.6098 B( 16-C , 17-C ) :   1.1398 B( 16-C , 19-C ) :   1.1494
B( 17-C , 18-N ) :   2.9826 B( 19-C , 20-N ) :   2.9611 B( 21-C , 22-C ) :   1.2746
B( 21-C , 81-H ) :   0.9138 B( 22-C , 23-S ) :   1.0638 B( 22-C , 26-C ) :   1.3602
B( 23-S , 24-C ) :   1.1358 B( 24-C , 25-C ) :   1.4450 B( 24-C , 31-C ) :   1.1990
B( 25-C , 26-C ) :   1.3637 B( 25-C , 27-C ) :   0.9335 B( 26-C , 82-H ) :   0.9811
B( 27-C , 28-C ) :   1.0332 B( 27-C , 29-C ) :   1.0367 B( 27-C , 30-C ) :   0.9446
B( 28-C , 83-H ) :   0.9651 B( 28-C , 84-H ) :   0.9641 B( 28-C , 85-H ) :   0.9645
B( 29-C , 86-H ) :   0.9650 B( 29-C , 87-H ) :   0.9643 B( 29-C , 88-H ) :   0.9643
B( 30-C , 31-C ) :   1.5098 B( 30-C , 34-C ) :   1.3332 B( 31-C , 32-S ) :   1.0665
B( 32-S , 33-C ) :   1.1250 B( 33-C , 34-C ) :   1.4575 B( 33-C , 35-C ) :   1.1415
B( 34-C , 89-H ) :   0.9946 B( 35-C , 36-C ) :   1.6909 B( 35-C , 90-H ) :   0.9512
B( 36-C , 37-N ) :   1.1215 B( 36-C , 91-H ) :   0.9589 B( 37-N , 38-C ) :   1.2270
B( 37-N , 92-H ) :   0.9061 B( 38-C , 39-S ) :   1.1385 B( 38-C , 45-C ) :   1.3602
B( 39-S , 40-C ) :   1.0635 B( 40-C , 41-N ) :   0.9823 B( 40-C , 44-C ) :   1.4821
B( 41-N , 42-O ) :   1.5305 B( 41-N , 43-O ) :   1.5020 B( 42-O , 43-O ) :   0.2544
B( 44-C , 45-C ) :   1.2329 B( 44-C , 93-H ) :   1.0085 B( 45-C , 46-C ) :   1.0518
B( 46-C , 47-C ) :   1.7201 B( 46-C , 94-H ) :   0.9734 B( 47-C , 48-C ) :   1.1061
B( 47-C , 95-H ) :   0.9590 B( 48-C , 49-C ) :   1.7781 B( 48-C , 96-H ) :   0.9797
B( 49-C , 50-C ) :   1.0625 B( 49-C , 51-C ) :   1.0509 B( 50-C , 97-H ) :   0.9480
B( 50-C , 98-H ) :   0.9487 B( 50-C , 99-H ) :   0.9507 B( 51-C , 52-N ) :   0.9532
B( 51-C ,100-H ) :   0.9323 B( 51-C ,101-H ) :   0.9286 B( 52-N , 53-C ) :   1.3561
B( 52-N ,102-H ) :   0.9327 B( 53-C , 54-C ) :   1.4286 B( 53-C ,103-H ) :   0.9572
B( 54-C , 55-C ) :   1.3399 B( 54-C ,104-H ) :   0.9545 B( 55-C , 56-C ) :   1.4863
B( 55-C ,105-H ) :   0.9281 B( 56-C , 57-C ) :   0.9735 B( 56-C , 71-C ) :   1.1095
B( 57-C , 58-O ) :   2.2468 B( 57-C , 59-C ) :   0.9142 B( 59-C , 60-C ) :   1.4813
B( 59-C , 70-C ) :   1.2255 B( 60-C , 61-C ) :   1.1828 B( 60-C ,106-H ) :   1.0174
B( 61-C , 62-C ) :   1.2644 B( 61-C , 66-C ) :   1.1935 B( 62-C , 63-C ) :   1.1926
B( 62-C , 69-C ) :   1.2066 B( 63-C , 64-C ) :   1.4379 B( 63-C , 66-C ) :   0.1093
B( 63-C ,107-H ) :   1.0072 B( 64-C , 65-C ) :   1.1956 B( 64-C , 68-F ) :   1.1304
B( 65-C , 66-C ) :   1.4397 B( 65-C , 67-F ) :   1.1303 B( 66-C ,108-H ) :   1.0077
B( 69-C , 70-C ) :   1.4621 B( 69-C ,109-H ) :   0.9921 B( 70-C , 71-C ) :   0.9860
B( 71-C , 72-C ) :   1.5606 B( 72-C , 73-C ) :   1.1980 B( 72-C , 75-C ) :   1.1300
B( 73-C , 74-N ) :   2.9182 B( 75-C , 76-N ) :   2.9753

-----------------------------------------------------------------------------
         ABSORPTION SPECTRUM VIA TRANSITION ELECTRIC DIPOLE MOMENTS
-----------------------------------------------------------------------------
State   Energy  Wavelength   fosc         T2         TX        TY        TZ
        (cm-1)    (nm)                  (au**2)     (au)      (au)      (au)
-----------------------------------------------------------------------------
   0   17380.9    575.3   2.154036706  40.79973  -0.10977   2.50639  -5.87415
   1   22515.0    444.1   0.408823247   5.97778   0.98047  -1.42902  -1.72463
   2   24616.8    406.2   0.114933439   1.53706  -0.15223   0.70567  -1.00792
   3   26229.8    381.2   0.057389000   0.72029  -0.43033   0.69844   0.21747
   4   27318.9    366.0   0.106523584   1.28369   0.44276  -0.98893  -0.33115
   5   27922.6    358.1   0.003787990   0.04466  -0.06724  -0.19478  -0.04691
   6   28731.7    348.0   0.268129647   3.07227  -0.33769  -1.41398  -0.97924
   7   28889.7    346.1   0.146279189   1.66692  -0.61796   0.22441   1.11117
   8   28987.0    345.0   0.111027794   1.26097   0.30379  -0.65155  -0.86265
   9   29197.7    342.5   0.156679179   1.76660  -0.41024  -1.26410   0.01888
  10   29976.9    333.6   0.054467373   0.59817   0.47555  -0.27515  -0.54435
  11   30120.2    332.0   0.113624062   1.24190  -0.43633   0.93661   0.41745
  12   30622.3    326.6   0.003800419   0.04086   0.04014  -0.15753  -0.12013
  13   31013.6    322.4   0.147695538   1.56780   0.04389   1.21466   0.30080
  14   31945.4    313.0   0.194137640   2.00068   0.30538  -1.34273  -0.32327
  15   32335.3    309.3   0.239854762   2.44200   0.12696   1.54972   0.15573
  16   32452.2    308.1   0.074330575   0.75405   0.31072   0.01573  -0.81071
  17   32792.2    305.0   0.028895770   0.29009   0.28229  -0.23082   0.39639
  18   34064.6    293.6   0.049944793   0.48268  -0.41996   0.21773   0.50883
  19   34073.3    293.5   0.081924638   0.79154   0.47727  -0.34668  -0.66601
  20   34428.4    290.5   0.211976753   2.02697   0.82973  -0.17194  -1.14410
  21   34800.1    287.4   0.331074028   3.13199  -0.98361   1.06609   1.01389
  22   35291.8    283.4   0.275075390   2.56598   0.61312  -1.32076  -0.66757
  23   35421.3    282.3   0.063248009   0.58784  -0.04650   0.73522   0.21243
  24   35759.9    279.6   0.001154378   0.01063  -0.01331   0.09680   0.03286
  25   35822.3    279.2   0.898836970   8.26045  -0.00269  -2.80424  -0.62984
  26   36517.6    273.8   0.046425197   0.41853  -0.22356   0.30772   0.52332
  27   36796.9    271.8   0.010928733   0.09778   0.13604  -0.21582  -0.18081
  28   37155.9    269.1   0.012328205   0.10923  -0.03156   0.32831  -0.02123
  29   37245.6    268.5   0.024642267   0.21781  -0.40857  -0.07186   0.21381
  30   37764.7    264.8   0.000111312   0.00097  -0.01774  -0.01466  -0.02099
  31   38000.2    263.2   0.079982024   0.69292  -0.05997  -0.38955  -0.73319
  32   38080.8    262.6   0.014657697   0.12672  -0.32640   0.13506   0.04406
  33   38378.7    260.6   0.075892250   0.65100   0.38288   0.68802   0.17617
  34   39225.2    254.9   0.445005744   3.73488  -0.35327   1.89424   0.14812
  35   40133.6    249.2   0.100506857   0.82445   0.78096  -0.27956  -0.36932

FINAL SINGLE POINT ENERGY     -4541.525146135969

DIPOLE MOMENT
-------------
                                X             Y             Z
Electronic contribution:     -8.23245      47.50144     -35.24177
Nuclear contribution   :      9.47152     -48.84981      35.33795
                        -----------------------------------------
Total Dipole Moment    :      1.23907      -1.34837       0.09618
                        -----------------------------------------
Magnitude (a.u.)       :      1.83375
Magnitude (Debye)      :      4.66103

Rotational constants in cm-1:     0.000711     0.000164     0.000139
Rotational constants in MHz :    21.315848     4.925620     4.165021

                             ****ORCA TERMINATED NORMALLY****
TOTAL RUN TIME: 0 days 0 hours 10 minutes 33 seconds 982 msec
