                         Program Version 4.2.0 -  RELEASE  -
|  1> # ORCA input file
|  2> # SCF done       -186.312175599733          0.000409920832
|  3> ! CAM-B3LYP def2-SVP def2/J RIJCOSX Grid4 TightSCF
|  4> %maxcore 5000
|  5> %tddft
|  6>     Mode sTDDFT
|  7>     Ethresh 5.0
|  8>     maxcore 5000
|  9> end
| 10>
| 11> %pal
| 12>   nprocs 6
| 13>   end
| 14> * xyz 0 1
| 15>    C      -16.18019       -15.14236       -12.58393
| 16>    S      -16.41643       -15.73789       -14.17958
| 17>    C      -17.59296       -14.51213       -14.57612
| 18>    C      -18.20001       -14.42520       -15.93229
| 19>    C      -17.25107       -13.73990       -16.91828
| 20>    C      -17.76102       -13.69764       -13.50482
| 21>    C      -16.96137       -14.04766       -12.35259
| 22>    N      -17.12712       -13.24111       -11.27779
| 23>    C      -17.98100       -12.30516       -11.49899
| 24>    S      -18.72440       -12.30249       -13.14028
| 25>    C      -18.37088       -11.28729       -10.58725
| 26>    C      -17.85177       -11.19155        -9.34171
| 27>    C      -18.20127       -10.17818        -8.41449
| 28>    O      -17.60635       -10.15719        -7.19560
| 29>    C      -18.07181        -9.08866        -6.49445
| 30>    C      -19.00699        -8.41784        -7.27677
| 31>    C      -19.08908        -9.10895        -8.50220
| 32>    O      -19.87784        -8.78827        -9.54764
| 33>    O      -19.76674        -7.32297        -7.00866
| 34>    C      -17.55339        -8.88808        -5.18834
| 35>    C      -17.72980        -7.81142        -4.38355
| 36>    C      -17.15691        -7.72047        -3.08618
| 37>    C      -17.27997        -6.63441        -2.29416
| 38>    N      -16.71504        -6.54973        -1.05062
| 39>    C      -16.76662        -5.48495        -0.22336
| 40>    S      -17.63522        -4.05172        -0.66973
| 41>    C      -17.18733        -3.32634         0.84499
| 42>    N      -17.57997        -2.00640         1.06405
| 43>    O      -17.29068        -1.50037         2.13803
| 44>    O      -18.17078        -1.44976         0.15479
| 45>    C      -16.42615        -4.14005         1.63593
| 46>    C      -16.15368        -5.39237         1.04394
| 47>    C      -15.32123        -6.40590         1.60772
| 48>    C      -14.73307        -6.32206         2.83212
| 49>    C      -13.84693        -7.27189         3.36829
| 50>    C      -13.27120        -7.12600         4.60662
| 51>    C      -12.33290        -7.96848         5.25193
| 52>    C      -11.94627        -7.53724         6.48652
| 53>    C      -12.56991        -6.33610         6.88979
| 54>    S      -13.64583        -5.75879         5.64469
| 55>    C      -12.47638        -5.63712         8.08001
| 56>    C      -11.73309        -5.88461         9.25169
| 57>    C      -11.99784        -5.00282        10.25986
| 58>    C      -12.98556        -4.03467         9.95158
| 59>    S      -13.49918        -4.23728         8.30139
| 60>    C      -13.44250        -3.02617        10.78392
| 61>    C      -14.45756        -2.10055        10.54206
| 62>    C      -15.49861        -2.10905         9.62959
| 63>    C      -16.09029        -0.81684         9.19595
| 64>    O      -15.90692         0.27184         9.69411
| 65>    C      -16.89970        -1.13920         7.99701
| 66>    C      -17.54381        -0.30678         7.12896
| 67>    C      -18.20494        -0.85990         6.00547
| 68>    C      -18.16782        -2.26796         5.79791
| 69>    C      -18.79516        -2.81121         4.66118
| 70>    C      -19.44884        -1.99662         3.78126
| 71>    C      -19.51049        -0.60772         3.99727
| 72>    C      -18.89433        -0.05016         5.08344
| 73>    F      -20.18454         0.16365         3.13616
| 74>    F      -20.03544        -2.53025         2.69512
| 75>    C      -17.51067        -3.10787         6.72600
| 76>    C      -16.89889        -2.55033         7.81344
| 77>    C      -16.15455        -3.15821         8.91184
| 78>    C      -16.21366        -4.49183         9.25880
| 79>    C      -15.66403        -5.00856        10.44495
| 80>    N      -15.23647        -5.47001        11.40616
| 81>    C      -16.86490        -5.47908         8.49868
| 82>    N      -17.34110        -6.33932         7.90352
| 83>    H      -15.49107       -15.62671       -11.92416
| 84>    H      -19.12831       -13.85365       -15.85934
| 85>    H      -18.43569       -15.42818       -16.29451
| 86>    H      -17.01543       -12.73417       -16.57786
| 87>    H      -17.71212       -13.67586       -17.90042
| 88>    H      -16.32479       -14.30379       -17.00303
| 89>    H      -19.10421       -10.57488       -10.93268
| 90>    H      -17.11915       -11.91327        -9.01142
| 91>    H      -20.38578        -8.00083        -9.30839
| 92>    H      -19.68060        -7.08159        -6.08093
| 93>    H      -16.92945        -9.70083        -4.84106
| 94>    H      -18.29470        -6.94988        -4.71171
| 95>    H      -16.59043        -8.57352        -2.73622
| 96>    H      -17.83255        -5.76121        -2.60781
| 97>    H      -16.19941        -7.35992        -0.72857
| 98>    H      -16.06917        -3.81908         2.59702
| 99>    H      -15.12344        -7.28553         1.00806
|100>    H      -14.93430        -5.46158         3.45459
|101>    H      -13.58898        -8.14528         2.78438
|102>    H      -11.97248        -8.86738         4.78320
|103>    H      -11.24433        -8.05057         7.11899
|104>    H      -11.03794        -6.70152         9.32575
|105>    H      -11.54224        -5.04044        11.23310
|106>    H      -12.88589        -2.90156        11.70422
|107>    H      -14.39792        -1.18003        11.11627
|108>    H      -17.54663         0.76086         7.28813
|109>    H      -18.76264        -3.87523         4.48323
|110>    H      -18.93795         1.01808         5.22701
|111>    H      -17.49741        -4.17121         6.54742
|112> *
|113>
|114>                          ****END OF INPUT****

CARTESIAN COORDINATES (ANGSTROEM)
---------------------------------
  C    -16.180190  -15.142360  -12.583930
  S    -16.416430  -15.737890  -14.179580
  C    -17.592960  -14.512130  -14.576120
  C    -18.200010  -14.425200  -15.932290
  C    -17.251070  -13.739900  -16.918280
  C    -17.761020  -13.697640  -13.504820
  C    -16.961370  -14.047660  -12.352590
  N    -17.127120  -13.241110  -11.277790
  C    -17.981000  -12.305160  -11.498990
  S    -18.724400  -12.302490  -13.140280
  C    -18.370880  -11.287290  -10.587250
  C    -17.851770  -11.191550   -9.341710
  C    -18.201270  -10.178180   -8.414490
  O    -17.606350  -10.157190   -7.195600
  C    -18.071810   -9.088660   -6.494450
  C    -19.006990   -8.417840   -7.276770
  C    -19.089080   -9.108950   -8.502200
  O    -19.877840   -8.788270   -9.547640
  O    -19.766740   -7.322970   -7.008660
  C    -17.553390   -8.888080   -5.188340
  C    -17.729800   -7.811420   -4.383550
  C    -17.156910   -7.720470   -3.086180
  C    -17.279970   -6.634410   -2.294160
  N    -16.715040   -6.549730   -1.050620
  C    -16.766620   -5.484950   -0.223360
  S    -17.635220   -4.051720   -0.669730
  C    -17.187330   -3.326340    0.844990
  N    -17.579970   -2.006400    1.064050
  O    -17.290680   -1.500370    2.138030
  O    -18.170780   -1.449760    0.154790
  C    -16.426150   -4.140050    1.635930
  C    -16.153680   -5.392370    1.043940
  C    -15.321230   -6.405900    1.607720
  C    -14.733070   -6.322060    2.832120
  C    -13.846930   -7.271890    3.368290
  C    -13.271200   -7.126000    4.606620
  C    -12.332900   -7.968480    5.251930
  C    -11.946270   -7.537240    6.486520
  C    -12.569910   -6.336100    6.889790
  S    -13.645830   -5.758790    5.644690
  C    -12.476380   -5.637120    8.080010
  C    -11.733090   -5.884610    9.251690
  C    -11.997840   -5.002820   10.259860
  C    -12.985560   -4.034670    9.951580
  S    -13.499180   -4.237280    8.301390
  C    -13.442500   -3.026170   10.783920
  C    -14.457560   -2.100550   10.542060
  C    -15.498610   -2.109050    9.629590
  C    -16.090290   -0.816840    9.195950
  O    -15.906920    0.271840    9.694110
  C    -16.899700   -1.139200    7.997010
  C    -17.543810   -0.306780    7.128960
  C    -18.204940   -0.859900    6.005470
  C    -18.167820   -2.267960    5.797910
  C    -18.795160   -2.811210    4.661180
  C    -19.448840   -1.996620    3.781260
  C    -19.510490   -0.607720    3.997270
  C    -18.894330   -0.050160    5.083440
  F    -20.184540    0.163650    3.136160
  F    -20.035440   -2.530250    2.695120
  C    -17.510670   -3.107870    6.726000
  C    -16.898890   -2.550330    7.813440
  C    -16.154550   -3.158210    8.911840
  C    -16.213660   -4.491830    9.258800
  C    -15.664030   -5.008560   10.444950
  N    -15.236470   -5.470010   11.406160
  C    -16.864900   -5.479080    8.498680
  N    -17.341100   -6.339320    7.903520
  H    -15.491070  -15.626710  -11.924160
  H    -19.128310  -13.853650  -15.859340
  H    -18.435690  -15.428180  -16.294510
  H    -17.015430  -12.734170  -16.577860
  H    -17.712120  -13.675860  -17.900420
  H    -16.324790  -14.303790  -17.003030
  H    -19.104210  -10.574880  -10.932680
  H    -17.119150  -11.913270   -9.011420
  H    -20.385780   -8.000830   -9.308390
  H    -19.680600   -7.081590   -6.080930
  H    -16.929450   -9.700830   -4.841060
  H    -18.294700   -6.949880   -4.711710
  H    -16.590430   -8.573520   -2.736220
  H    -17.832550   -5.761210   -2.607810
  H    -16.199410   -7.359920   -0.728570
  H    -16.069170   -3.819080    2.597020
  H    -15.123440   -7.285530    1.008060
  H    -14.934300   -5.461580    3.454590
  H    -13.588980   -8.145280    2.784380
  H    -11.972480   -8.867380    4.783200
  H    -11.244330   -8.050570    7.118990
  H    -11.037940   -6.701520    9.325750
  H    -11.542240   -5.040440   11.233100
  H    -12.885890   -2.901560   11.704220
  H    -14.397920   -1.180030   11.116270
  H    -17.546630    0.760860    7.288130
  H    -18.762640   -3.875230    4.483230
  H    -18.937950    1.018080    5.227010
  H    -17.497410   -4.171210    6.547420

 Total Charge           Charge          ....    0
 Multiplicity           Mult            ....    1
 Number of Electrons    NEL             ....  510
 Basis Dimension        Dim             .... 1117

ORBITAL ENERGIES
----------------

  NO   OCC          E(Eh)            E(eV)
   0   2.0000     -88.992673     -2421.6137
   1   2.0000     -88.963835     -2420.8290
   2   2.0000     -88.962053     -2420.7805
   3   2.0000     -88.945539     -2420.3312
   4   2.0000     -88.938470     -2420.1388
   5   2.0000     -24.785845      -674.4571
   6   2.0000     -24.778722      -674.2633
   7   2.0000     -19.290985      -524.9344
   8   2.0000     -19.276532      -524.5411
   9   2.0000     -19.265707      -524.2465
  10   2.0000     -19.241267      -523.5815
  11   2.0000     -19.240480      -523.5601
  12   2.0000     -19.195618      -522.3393
  13   2.0000     -14.651599      -398.6903
  14   2.0000     -14.499084      -394.5401
  15   2.0000     -14.398595      -391.8057
  16   2.0000     -14.397349      -391.7718
  17   2.0000     -14.393256      -391.6604
  18   2.0000     -10.383017      -282.5363
  19   2.0000     -10.362215      -281.9702
  20   2.0000     -10.360544      -281.9247
  21   2.0000     -10.347034      -281.5571
  22   2.0000     -10.346914      -281.5538
  23   2.0000     -10.345679      -281.5202
  24   2.0000     -10.343839      -281.4702
  25   2.0000     -10.341346      -281.4023
  26   2.0000     -10.338281      -281.3189
  27   2.0000     -10.337380      -281.2944
  28   2.0000     -10.331669      -281.1390
  29   2.0000     -10.329596      -281.0826
  30   2.0000     -10.325354      -280.9672
  31   2.0000     -10.324106      -280.9332
  32   2.0000     -10.321123      -280.8520
  33   2.0000     -10.318963      -280.7933
  34   2.0000     -10.317217      -280.7457
  35   2.0000     -10.315480      -280.6985
  36   2.0000     -10.314452      -280.6705
  37   2.0000     -10.309623      -280.5391
  38   2.0000     -10.309237      -280.5286
  39   2.0000     -10.308967      -280.5212
  40   2.0000     -10.305774      -280.4344
  41   2.0000     -10.303092      -280.3614
  42   2.0000     -10.300572      -280.2928
  43   2.0000     -10.299779      -280.2712
  44   2.0000     -10.299288      -280.2579
  45   2.0000     -10.299128      -280.2535
  46   2.0000     -10.298950      -280.2487
  47   2.0000     -10.298520      -280.2370
  48   2.0000     -10.293134      -280.0904
  49   2.0000     -10.290723      -280.0248
  50   2.0000     -10.290317      -280.0138
  51   2.0000     -10.289786      -279.9993
  52   2.0000     -10.289782      -279.9992
  53   2.0000     -10.288839      -279.9735
  54   2.0000     -10.286504      -279.9100
  55   2.0000     -10.286340      -279.9056
  56   2.0000     -10.283361      -279.8245
  57   2.0000     -10.282184      -279.7925
  58   2.0000     -10.281687      -279.7789
  59   2.0000     -10.281674      -279.7786
  60   2.0000     -10.281026      -279.7609
  61   2.0000     -10.280754      -279.7535
  62   2.0000     -10.277550      -279.6663
  63   2.0000     -10.275991      -279.6239
  64   2.0000     -10.273561      -279.5578
  65   2.0000     -10.273403      -279.5535
  66   2.0000     -10.273263      -279.5497
  67   2.0000     -10.254388      -279.0361
  68   2.0000      -8.088197      -220.0910
  69   2.0000      -8.060169      -219.3283
  70   2.0000      -8.057207      -219.2477
  71   2.0000      -8.041033      -218.8076
  72   2.0000      -8.034524      -218.6305
  73   2.0000      -6.057949      -164.8452
  74   2.0000      -6.053548      -164.7254
  75   2.0000      -6.049436      -164.6135
  76   2.0000      -6.029863      -164.0809
  77   2.0000      -6.026684      -163.9944
  78   2.0000      -6.025819      -163.9709
  79   2.0000      -6.022451      -163.8792
  80   2.0000      -6.021109      -163.8427
  81   2.0000      -6.018900      -163.7826
  82   2.0000      -6.010399      -163.5513
  83   2.0000      -6.006040      -163.4327
  84   2.0000      -6.004070      -163.3791
  85   2.0000      -6.003327      -163.3588
  86   2.0000      -6.000387      -163.2788
  87   2.0000      -5.995530      -163.1467
  88   2.0000      -1.320437       -35.9309
  89   2.0000      -1.303888       -35.4806
  90   2.0000      -1.289101       -35.0782
  91   2.0000      -1.211844       -32.9759
  92   2.0000      -1.169746       -31.8304
  93   2.0000      -1.151697       -31.3393
  94   2.0000      -1.139744       -31.0140
  95   2.0000      -1.110025       -30.2053
  96   2.0000      -1.105024       -30.0692
  97   2.0000      -1.048921       -28.5426
  98   2.0000      -1.014528       -27.6067
  99   2.0000      -1.012061       -27.5396
 100   2.0000      -1.001761       -27.2593
 101   2.0000      -0.988595       -26.9010
 102   2.0000      -0.984802       -26.7978
 103   2.0000      -0.976320       -26.5670
 104   2.0000      -0.961380       -26.1605
 105   2.0000      -0.961256       -26.1571
 106   2.0000      -0.940679       -25.5972
 107   2.0000      -0.934529       -25.4298
 108   2.0000      -0.916142       -24.9295
 109   2.0000      -0.912029       -24.8176
 110   2.0000      -0.905599       -24.6426
 111   2.0000      -0.898148       -24.4398
 112   2.0000      -0.891685       -24.2640
 113   2.0000      -0.885398       -24.0929
 114   2.0000      -0.880549       -23.9609
 115   2.0000      -0.876554       -23.8522
 116   2.0000      -0.871886       -23.7252
 117   2.0000      -0.867960       -23.6184
 118   2.0000      -0.866504       -23.5788
 119   2.0000      -0.860032       -23.4027
 120   2.0000      -0.849415       -23.1137
 121   2.0000      -0.837447       -22.7881
 122   2.0000      -0.834660       -22.7122
 123   2.0000      -0.828029       -22.5318
 124   2.0000      -0.820900       -22.3378
 125   2.0000      -0.806065       -21.9341
 126   2.0000      -0.798530       -21.7291
 127   2.0000      -0.781939       -21.2776
 128   2.0000      -0.776196       -21.1214
 129   2.0000      -0.768734       -20.9183
 130   2.0000      -0.749447       -20.3935
 131   2.0000      -0.745430       -20.2842
 132   2.0000      -0.739133       -20.1128
 133   2.0000      -0.732632       -19.9359
 134   2.0000      -0.728979       -19.8365
 135   2.0000      -0.718129       -19.5413
 136   2.0000      -0.707450       -19.2507
 137   2.0000      -0.704252       -19.1637
 138   2.0000      -0.703496       -19.1431
 139   2.0000      -0.698428       -19.0052
 140   2.0000      -0.697412       -18.9776
 141   2.0000      -0.678125       -18.4527
 142   2.0000      -0.674978       -18.3671
 143   2.0000      -0.664950       -18.0942
 144   2.0000      -0.663672       -18.0594
 145   2.0000      -0.661063       -17.9884
 146   2.0000      -0.652081       -17.7440
 147   2.0000      -0.647072       -17.6077
 148   2.0000      -0.644662       -17.5422
 149   2.0000      -0.642175       -17.4745
 150   2.0000      -0.637272       -17.3411
 151   2.0000      -0.635327       -17.2881
 152   2.0000      -0.632965       -17.2239
 153   2.0000      -0.629090       -17.1184
 154   2.0000      -0.624229       -16.9861
 155   2.0000      -0.623260       -16.9598
 156   2.0000      -0.616555       -16.7773
 157   2.0000      -0.615144       -16.7389
 158   2.0000      -0.605393       -16.4736
 159   2.0000      -0.601217       -16.3599
 160   2.0000      -0.597217       -16.2511
 161   2.0000      -0.593646       -16.1539
 162   2.0000      -0.593000       -16.1363
 163   2.0000      -0.581531       -15.8243
 164   2.0000      -0.576587       -15.6897
 165   2.0000      -0.572575       -15.5806
 166   2.0000      -0.572322       -15.5737
 167   2.0000      -0.566820       -15.4240
 168   2.0000      -0.563957       -15.3461
 169   2.0000      -0.562496       -15.3063
 170   2.0000      -0.560804       -15.2602
 171   2.0000      -0.556660       -15.1475
 172   2.0000      -0.548577       -14.9275
 173   2.0000      -0.542976       -14.7751
 174   2.0000      -0.541744       -14.7416
 175   2.0000      -0.536959       -14.6114
 176   2.0000      -0.533114       -14.5068
 177   2.0000      -0.531893       -14.4736
 178   2.0000      -0.530432       -14.4338
 179   2.0000      -0.528240       -14.3741
 180   2.0000      -0.525663       -14.3040
 181   2.0000      -0.523276       -14.2391
 182   2.0000      -0.521429       -14.1888
 183   2.0000      -0.518397       -14.1063
 184   2.0000      -0.515062       -14.0155
 185   2.0000      -0.513443       -13.9715
 186   2.0000      -0.513240       -13.9660
 187   2.0000      -0.510021       -13.8784
 188   2.0000      -0.507745       -13.8164
 189   2.0000      -0.506284       -13.7767
 190   2.0000      -0.503943       -13.7130
 191   2.0000      -0.499837       -13.6013
 192   2.0000      -0.496668       -13.5150
 193   2.0000      -0.495626       -13.4867
 194   2.0000      -0.493845       -13.4382
 195   2.0000      -0.491707       -13.3800
 196   2.0000      -0.491491       -13.3741
 197   2.0000      -0.489105       -13.3092
 198   2.0000      -0.485992       -13.2245
 199   2.0000      -0.479451       -13.0465
 200   2.0000      -0.478789       -13.0285
 201   2.0000      -0.477795       -13.0015
 202   2.0000      -0.475580       -12.9412
 203   2.0000      -0.474335       -12.9073
 204   2.0000      -0.470575       -12.8050
 205   2.0000      -0.468359       -12.7447
 206   2.0000      -0.465134       -12.6569
 207   2.0000      -0.461944       -12.5701
 208   2.0000      -0.459566       -12.5054
 209   2.0000      -0.455690       -12.3999
 210   2.0000      -0.453542       -12.3415
 211   2.0000      -0.449246       -12.2246
 212   2.0000      -0.444829       -12.1044
 213   2.0000      -0.442179       -12.0323
 214   2.0000      -0.439354       -11.9554
 215   2.0000      -0.437329       -11.9003
 216   2.0000      -0.435380       -11.8473
 217   2.0000      -0.434441       -11.8217
 218   2.0000      -0.428849       -11.6696
 219   2.0000      -0.428258       -11.6535
 220   2.0000      -0.427161       -11.6236
 221   2.0000      -0.425649       -11.5825
 222   2.0000      -0.423000       -11.5104
 223   2.0000      -0.419776       -11.4227
 224   2.0000      -0.417366       -11.3571
 225   2.0000      -0.414128       -11.2690
 226   2.0000      -0.410032       -11.1575
 227   2.0000      -0.409194       -11.1347
 228   2.0000      -0.403665       -10.9843
 229   2.0000      -0.399921       -10.8824
 230   2.0000      -0.395656       -10.7664
 231   2.0000      -0.390086       -10.6148
 232   2.0000      -0.389430       -10.5969
 233   2.0000      -0.382076       -10.3968
 234   2.0000      -0.379318       -10.3218
 235   2.0000      -0.376464       -10.2441
 236   2.0000      -0.370373       -10.0784
 237   2.0000      -0.364888        -9.9291
 238   2.0000      -0.360511        -9.8100
 239   2.0000      -0.354651        -9.6505
 240   2.0000      -0.352990        -9.6054
 241   2.0000      -0.352027        -9.5791
 242   2.0000      -0.336977        -9.1696
 243   2.0000      -0.334953        -9.1145
 244   2.0000      -0.327377        -8.9084
 245   2.0000      -0.318567        -8.6687
 246   2.0000      -0.312333        -8.4990
 247   2.0000      -0.306766        -8.3475
 248   2.0000      -0.294759        -8.0208
 249   2.0000      -0.290967        -7.9176
 250   2.0000      -0.277855        -7.5608
 251   2.0000      -0.274042        -7.4571
 252   2.0000      -0.262271        -7.1367
 253   2.0000      -0.238691        -6.4951
 254   2.0000      -0.225919        -6.1476
 255   0.0000      -0.108289        -2.9467
 256   0.0000      -0.069408        -1.8887
 257   0.0000      -0.056686        -1.5425
 258   0.0000      -0.045804        -1.2464
 259   0.0000      -0.039221        -1.0673

MULLIKEN ATOMIC CHARGES
-----------------------
   0 C :   -0.183431
   1 S :    0.107473
   2 C :   -0.332704
   3 C :    0.087882
   4 C :    0.019315
   5 C :    0.028174
   6 C :    0.133416
   7 N :   -0.033075
   8 C :   -0.099712
   9 S :    0.066127
  10 C :    0.025715
  11 C :    0.010200
  12 C :    0.113073
  13 O :   -0.211110
  14 C :    0.101980
  15 C :    0.065031
  16 C :    0.067317
  17 O :   -0.171222
  18 O :   -0.197400
  19 C :    0.000846
  20 C :   -0.030941
  21 C :    0.003089
  22 C :    0.051185
  23 N :   -0.017532
  24 C :   -0.108434
  25 S :    0.152161
  26 C :   -0.004698
  27 N :    0.281685
  28 O :   -0.256608
  29 O :   -0.257096
  30 C :    0.007701
  31 C :    0.126655
  32 C :   -0.024053
  33 C :   -0.007583
  34 C :    0.018398
  35 C :   -0.028661
  36 C :    0.055982
  37 C :    0.023419
  38 C :   -0.008605
  39 S :    0.079550
  40 C :   -0.057766
  41 C :    0.038334
  42 C :    0.063757
  43 C :   -0.046878
  44 S :    0.108976
  45 C :    0.007242
  46 C :    0.033677
  47 C :   -0.150840
  48 C :    0.136843
  49 O :   -0.149529
  50 C :    0.025415
  51 C :   -0.097602
  52 C :    0.120041
  53 C :    0.122508
  54 C :   -0.120684
  55 C :    0.253227
  56 C :    0.256278
  57 C :   -0.114947
  58 F :   -0.172255
  59 F :   -0.189725
  60 C :   -0.109082
  61 C :    0.038422
  62 C :    0.266385
  63 C :   -0.342112
  64 C :   -0.209077
  65 N :    0.158906
  66 C :   -0.179150
  67 N :    0.136611
  68 H :    0.010195
  69 H :    0.011486
  70 H :    0.011101
  71 H :    0.018751
  72 H :    0.015278
  73 H :    0.012082
  74 H :    0.003106
  75 H :    0.008285
  76 H :    0.195205
  77 H :    0.190164
  78 H :   -0.001476
  79 H :   -0.039507
  80 H :   -0.012171
  81 H :    0.027091
  82 H :    0.136771
  83 H :    0.015552
  84 H :   -0.036278
  85 H :    0.009795
  86 H :   -0.011627
  87 H :   -0.003515
  88 H :   -0.002008
  89 H :   -0.009013
  90 H :   -0.004960
  91 H :   -0.001710
  92 H :    0.023330
  93 H :   -0.014372
  94 H :   -0.009428
  95 H :   -0.006479
  96 H :   -0.016135
Sum of atomic charges:    0.0000000

LOEWDIN ATOMIC CHARGES
----------------------
   0 C :   -0.210656
   1 S :    0.433010
   2 C :   -0.201554
   3 C :   -0.043030
   4 C :   -0.050752
   5 C :   -0.217296
   6 C :   -0.064778
   7 N :   -0.103890
   8 C :   -0.093820
   9 S :    0.332246
  10 C :   -0.066832
  11 C :    0.010968
  12 C :   -0.002899
  13 O :    0.006378
  14 C :   -0.017917
  15 C :   -0.014288
  16 C :    0.001864
  17 O :   -0.038875
  18 O :   -0.055904
  19 C :   -0.033561
  20 C :   -0.047491
  21 C :   -0.060432
  22 C :    0.007824
  23 N :    0.047564
  24 C :   -0.090020
  25 S :    0.455220
  26 C :   -0.209718
  27 N :    0.275730
  28 O :   -0.215635
  29 O :   -0.224293
  30 C :    0.009307
  31 C :   -0.115077
  32 C :   -0.008423
  33 C :   -0.039184
  34 C :   -0.024891
  35 C :   -0.151995
  36 C :   -0.009727
  37 C :   -0.034750
  38 C :   -0.141471
  39 S :    0.392098
  40 C :   -0.194527
  41 C :   -0.021080
  42 C :   -0.027736
  43 C :   -0.115970
  44 S :    0.463162
  45 C :   -0.068272
  46 C :    0.037724
  47 C :   -0.113741
  48 C :    0.082256
  49 O :   -0.151291
  50 C :   -0.053469
  51 C :    0.025383
  52 C :   -0.010893
  53 C :   -0.006856
  54 C :   -0.039664
  55 C :    0.063034
  56 C :    0.068227
  57 C :   -0.032983
  58 F :   -0.048883
  59 F :   -0.060436
  60 C :   -0.001298
  61 C :   -0.016943
  62 C :    0.034979
  63 C :   -0.166216
  64 C :   -0.021506
  65 N :   -0.060651
  66 C :   -0.019885
  67 N :   -0.073811
  68 H :    0.024552
  69 H :    0.032147
  70 H :    0.030095
  71 H :    0.026302
  72 H :    0.022994
  73 H :    0.021732
  74 H :    0.029831
  75 H :    0.044688
  76 H :    0.105236
  77 H :    0.091645
  78 H :    0.040846
  79 H :    0.015496
  80 H :    0.029026
  81 H :    0.024752
  82 H :    0.096512
  83 H :    0.045378
  84 H :    0.021985
  85 H :    0.022108
  86 H :    0.034954
  87 H :    0.037578
  88 H :    0.036828
  89 H :    0.034650
  90 H :    0.037918
  91 H :    0.040301
  92 H :    0.045359
  93 H :    0.038087
  94 H :    0.039827
  95 H :    0.042417
  96 H :    0.035052

  Mayer bond orders larger than 0.100000
B(  0-C ,  1-S ) :   1.1442 B(  0-C ,  2-C ) :   0.1001 B(  0-C ,  6-C ) :   1.4950
B(  0-C , 68-H ) :   0.9795 B(  1-S ,  2-C ) :   1.1524 B(  2-C ,  3-C ) :   1.0586
B(  2-C ,  5-C ) :   1.6067 B(  3-C ,  4-C ) :   1.1014 B(  3-C , 69-H ) :   0.9333
B(  3-C , 70-H ) :   0.9249 B(  4-C , 71-H ) :   0.9720 B(  4-C , 72-H ) :   0.9689
B(  4-C , 73-H ) :   0.9703 B(  5-C ,  6-C ) :   1.1826 B(  5-C ,  9-S ) :   1.0196
B(  6-C ,  7-N ) :   1.2684 B(  7-N ,  8-C ) :   1.7924 B(  7-N ,  9-S ) :   0.1051
B(  8-C ,  9-S ) :   1.0109 B(  8-C , 10-C ) :   1.0824 B( 10-C , 11-C ) :   1.6770
B( 10-C , 74-H ) :   0.9486 B( 11-C , 12-C ) :   1.1476 B( 11-C , 75-H ) :   0.9698
B( 12-C , 13-O ) :   1.1080 B( 12-C , 14-C ) :   0.1103 B( 12-C , 16-C ) :   1.4007
B( 13-O , 14-C ) :   1.1097 B( 14-C , 15-C ) :   1.3359 B( 14-C , 19-C ) :   1.1473
B( 15-C , 16-C ) :   1.2577 B( 15-C , 18-O ) :   1.2249 B( 16-C , 17-O ) :   1.2420
B( 17-O , 76-H ) :   0.9478 B( 18-O , 77-H ) :   0.9583 B( 19-C , 20-C ) :   1.6348
B( 19-C , 78-H ) :   0.9580 B( 20-C , 21-C ) :   1.1649 B( 20-C , 79-H ) :   0.9675
B( 21-C , 22-C ) :   1.6635 B( 21-C , 80-H ) :   0.9819 B( 22-C , 23-N ) :   1.0931
B( 22-C , 81-H ) :   0.9615 B( 23-N , 24-C ) :   1.2682 B( 23-N , 82-H ) :   0.9149
B( 24-C , 25-S ) :   1.1375 B( 24-C , 31-C ) :   1.3108 B( 25-S , 26-C ) :   1.0540
B( 26-C , 27-N ) :   0.9847 B( 26-C , 30-C ) :   1.5085 B( 27-N , 28-O ) :   1.4993
B( 27-N , 29-O ) :   1.5148 B( 28-O , 29-O ) :   0.2472 B( 30-C , 31-C ) :   1.2192
B( 30-C , 83-H ) :   0.9970 B( 31-C , 32-C ) :   1.0847 B( 32-C , 33-C ) :   1.6619
B( 32-C , 84-H ) :   0.9768 B( 33-C , 34-C ) :   1.1558 B( 33-C , 85-H ) :   0.9662
B( 34-C , 35-C ) :   1.5559 B( 34-C , 86-H ) :   0.9860 B( 35-C , 36-C ) :   1.1476
B( 35-C , 39-S ) :   1.0299 B( 36-C , 37-C ) :   1.5773 B( 36-C , 87-H ) :   0.9991
B( 37-C , 38-C ) :   1.1987 B( 37-C , 88-H ) :   0.9963 B( 38-C , 39-S ) :   1.0840
B( 38-C , 40-C ) :   1.4626 B( 40-C , 41-C ) :   1.2087 B( 40-C , 44-S ) :   1.0460
B( 41-C , 42-C ) :   1.5623 B( 41-C , 89-H ) :   0.9929 B( 42-C , 43-C ) :   1.1779
B( 42-C , 90-H ) :   0.9962 B( 43-C , 44-S ) :   1.1238 B( 43-C , 45-C ) :   1.4331
B( 45-C , 46-C ) :   1.3349 B( 45-C , 91-H ) :   0.9566 B( 46-C , 47-C ) :   1.4615
B( 46-C , 92-H ) :   0.9330 B( 47-C , 48-C ) :   0.9585 B( 47-C , 62-C ) :   1.1372
B( 48-C , 49-O ) :   2.2652 B( 48-C , 50-C ) :   0.9079 B( 50-C , 51-C ) :   1.4799
B( 50-C , 61-C ) :   1.2213 B( 51-C , 52-C ) :   1.1822 B( 51-C , 93-H ) :   1.0163
B( 52-C , 53-C ) :   1.2671 B( 52-C , 57-C ) :   1.1952 B( 53-C , 54-C ) :   1.1926
B( 53-C , 60-C ) :   1.1967 B( 54-C , 55-C ) :   1.4367 B( 54-C , 57-C ) :   0.1073
B( 54-C , 94-H ) :   1.0067 B( 55-C , 56-C ) :   1.2006 B( 55-C , 59-F ) :   1.0983
B( 56-C , 57-C ) :   1.4421 B( 56-C , 58-F ) :   1.1362 B( 57-C , 95-H ) :   1.0057
B( 60-C , 61-C ) :   1.4714 B( 60-C , 96-H ) :   0.9950 B( 61-C , 62-C ) :   0.9905
B( 62-C , 63-C ) :   1.5545 B( 63-C , 64-C ) :   1.1754 B( 63-C , 66-C ) :   1.1463
B( 64-C , 65-N ) :   2.9973 B( 66-C , 67-N ) :   2.9709

-----------------------------------------------------------------------------
         ABSORPTION SPECTRUM VIA TRANSITION ELECTRIC DIPOLE MOMENTS
-----------------------------------------------------------------------------
State   Energy  Wavelength   fosc         T2         TX        TY        TZ
        (cm-1)    (nm)                  (au**2)     (au)      (au)      (au)
-----------------------------------------------------------------------------
   0   11403.8    876.9   0.767415307  22.15420  -0.30404   1.85106   4.31687
   1   18238.5    548.3   0.441566637   7.97045  -1.63979  -0.38001  -2.26652
   2   20307.0    492.4   0.376272480   6.10002   0.38300   1.04930   2.20280
   3   20716.0    482.7   1.013655954  16.10872   0.18869  -2.71733  -2.94775
   4   21682.3    461.2   0.179317499   2.72266  -1.02275  -0.49069  -1.19827
   5   23499.2    425.5   0.416808077   5.83927   1.45359   0.41664   1.88487
   6   24123.5    414.5   0.426941938   5.82646   0.28662  -1.41788  -1.93234
   7   25037.1    399.4   0.032098310   0.42206  -0.47510   0.40838   0.17196
   8   25231.6    396.3   0.489348598   6.38482  -1.73989   1.55120  -0.97539
   9   27085.8    369.2   0.131429444   1.59745  -0.65616  -0.03934  -1.07952
  10   27434.4    364.5   0.095609600   1.14731   0.67068  -0.63895  -0.53782
  11   27842.5    359.2   0.033646893   0.39784  -0.52427   0.34797   0.04368
  12   28567.9    350.0   0.130080764   1.49903   0.98740  -0.33327   0.64265
  13   28969.9    345.2   0.056350117   0.64036  -0.24705   0.38953   0.65390
  14   29611.3    337.7   0.012048195   0.13395  -0.02204  -0.08818  -0.35452
  15   29711.7    336.6   0.035228181   0.39034  -0.17372  -0.23894  -0.55052
  16   29937.6    334.0   0.115502410   1.27014   0.31053  -1.04287  -0.29348
  17   30377.4    329.2   0.095832773   1.03858   0.17822  -0.10821   0.99755
  18   30887.4    323.8   0.037342328   0.39801  -0.30508   0.40808  -0.37204
  19   31492.8    317.5   0.101875153   1.06496  -0.07527   0.63344   0.81120
  20   31961.3    312.9   0.248504486   2.55967  -0.85495   0.37047  -1.30057
  21   32287.0    309.7   0.295373617   3.01176  -0.53593   1.42874  -0.82659
  22   32638.2    306.4   0.016801107   0.16947  -0.11327  -0.03634  -0.39410
  23   33450.4    299.0   0.003219196   0.03168  -0.10929   0.10686   0.09120
  24   33665.6    297.0   0.049331773   0.48241  -0.19538   0.62540   0.23047
  25   33698.7    296.7   0.037942265   0.37067   0.13640  -0.58818   0.07813
  26   34170.8    292.6   0.042807936   0.41242  -0.31551  -0.02683  -0.55871
  27   34284.6    291.7   0.073747420   0.70815   0.01801   0.57311   0.61593
  28   34463.7    290.2   0.018408662   0.17585  -0.27731   0.31446   0.00762
  29   34605.9    289.0   0.031331132   0.29806  -0.04051  -0.32771  -0.43477
  30   35276.7    283.5   0.015693532   0.14646   0.13393  -0.25363   0.25336
  31   35629.2    280.7   0.088705050   0.81963  -0.49008   0.75943   0.05221
  32   35814.6    279.2   0.245973982   2.26102   0.86620  -0.85958   0.87854
  33   36560.1    273.5   0.019738267   0.17774   0.31271   0.28000   0.03937
  34   36714.5    272.4   0.365962452   3.28152   0.59640  -1.52378   0.77712
  35   36923.8    270.8   0.000447542   0.00399  -0.01182   0.05130  -0.03491
  36   37513.8    266.6   0.036807744   0.32302  -0.03640  -0.46469  -0.32520
  37   37725.3    265.1   0.111034544   0.96895  -0.21513   0.89441   0.35028
  38   37958.7    263.4   0.055744724   0.48347   0.26449  -0.64298  -0.00914
  39   38191.1    261.8   0.064264896   0.55397  -0.33121   0.58446   0.32043
  40   38735.3    258.2   0.065839678   0.55957   0.55067  -0.24606   0.44249
  41   38869.3    257.3   0.027657901   0.23425  -0.33545   0.20092  -0.28524
  42   39156.1    255.4   0.067395499   0.56664  -0.40862  -0.11474  -0.62170
  43   39265.9    254.7   0.070252117   0.58900   0.37357   0.54513   0.39024
  44   39358.4    254.1   0.017100538   0.14304  -0.29385  -0.04896  -0.23300
  45   39501.0    253.2   0.023189645   0.19327  -0.22729   0.37583   0.01890
  46   40088.1    249.5   0.045737582   0.37561  -0.28614   0.52797  -0.12237
  47   40212.3    248.7   0.090907684   0.74425   0.24974   0.64116   0.52038

FINAL SINGLE POINT ENERGY     -4834.160500661718

DIPOLE MOMENT
-------------
                                X             Y             Z
Electronic contribution:    -14.35839      44.08074      58.70055
Nuclear contribution   :     16.36974     -46.14782     -61.17237
                        -----------------------------------------
Total Dipole Moment    :      2.01135      -2.06708      -2.47182
                        -----------------------------------------
Magnitude (a.u.)       :      3.79845
Magnitude (Debye)      :      9.65489

Rotational constants in cm-1:     0.001964     0.000197     0.000182
Rotational constants in MHz :    58.891942     5.892342     5.452015

                             ****ORCA TERMINATED NORMALLY****
TOTAL RUN TIME: 0 days 0 hours 9 minutes 26 seconds 674 msec
