                         Program Version 4.2.0 -  RELEASE  -
|  1> # ORCA input file
|  2> # SCF done       -189.288702978006          0.000598677916
|  3> ! CAM-B3LYP def2-SVP def2/J RIJCOSX Grid4 TightSCF
|  4> %maxcore 5000
|  5> %tddft
|  6>     Mode sTDDFT
|  7>     Ethresh 5.0
|  8>     maxcore 5000
|  9> end
| 10>
| 11> %pal
| 12>   nprocs 6
| 13>   end
| 14> * xyz 0 1
| 15>    C       -5.21061        10.63373        -3.94193
| 16>    C       -5.46574        11.70395        -3.11513
| 17>    C       -4.49364        12.63034        -2.69489
| 18>    N       -3.74363        13.41744        -2.32415
| 19>    C       -6.71993        11.93540        -2.52185
| 20>    N       -7.71572        12.11068        -1.97416
| 21>    C       -3.89978        10.19272        -4.39090
| 22>    C       -4.03962         8.92644        -5.00876
| 23>    C       -2.97093         8.24140        -5.53015
| 24>    C       -1.70338         8.82372        -5.41916
| 25>    C       -1.57072        10.07097        -4.76608
| 26>    C       -2.65367        10.77658        -4.25957
| 27>    S        0.08976        10.57754        -4.69122
| 28>    C        0.57298         9.14349        -5.55227
| 29>    C       -0.45474         8.32591        -5.87916
| 30>   Br        2.37724         8.86442        -5.96847
| 31>    C       -5.46121         8.52267        -4.98966
| 32>    O       -5.93768         7.52152        -5.48724
| 33>    C       -6.17782         9.64943        -4.36301
| 34>    C       -7.54108         9.81304        -4.33108
| 35>    N       -8.46985         8.84714        -4.42569
| 36>    C       -8.27149         7.49368        -4.14380
| 37>    C       -8.84643         6.46752        -4.83094
| 38>    S       -8.39073         4.94247        -4.20224
| 39>    C       -7.45828         5.67839        -2.96350
| 40>    C       -7.47744         7.03822        -3.03635
| 41>    N       -6.88012         7.90171        -2.11844
| 42>    C       -5.51607         7.99721        -1.92145
| 43>    C       -4.59441         7.13771        -2.37482
| 44>    C       -3.16132         7.28550        -2.23035
| 45>    C       -2.34537         6.16952        -2.47161
| 46>    C       -0.97871         6.29317        -2.42495
| 47>    C       -0.39146         7.55590        -2.22267
| 48>    C       -1.18430         8.65621        -1.93461
| 49>    C       -2.55642         8.50701        -1.91570
| 50>    C        1.03670         7.43576        -2.40892
| 51>    C        1.33885         6.08854        -2.67807
| 52>    C        0.09368         5.23492        -2.55079
| 53>    C        0.23407         4.47691        -1.20502
| 54>    C       -0.99426         3.69188        -0.76435
| 55>    C       -0.10597         4.25606        -3.71113
| 56>    C       -0.16869         4.96211        -5.05792
| 57>    C        2.62354         5.69598        -2.94748
| 58>    C        3.65451         6.65278        -2.97607
| 59>    C        3.33372         7.99272        -2.70300
| 60>    C        2.04489         8.39003        -2.41467
| 61>    C        5.01660         6.30998        -3.27393
| 62>    C        5.50764         5.05457        -3.43577
| 63>    C        6.85325         4.75671        -3.72232
| 64>    C        7.33736         3.48038        -3.84025
| 65>    C        8.66816         3.07989        -4.11796
| 66>    C        8.85570         1.73227        -4.15605
| 67>    C        7.68514         0.97983        -3.90868
| 68>    S        6.32581         2.05321        -3.63863
| 69>    C        7.54465        -0.39007        -3.85487
| 70>    C        8.54329        -1.37935        -4.01777
| 71>    C        8.08750        -2.65123        -3.88060
| 72>    C        6.69780        -2.76000        -3.59131
| 73>    S        5.99696        -1.14361        -3.53045
| 74>    C        6.01089        -3.93323        -3.47759
| 75>    C        4.63998        -4.16278        -3.16789
| 76>    C        3.75255        -3.47506        -2.33615
| 77>    C        4.09001        -2.36050        -1.41471
| 78>    C        2.45595        -4.09129        -2.37055
| 79>    C        2.55905        -5.18956        -3.20269
| 80>    C        3.92377        -5.28175        -3.70806
| 81>    C        4.24153        -6.30541        -4.55319
| 82>    C        3.22566        -7.23503        -4.87723
| 83>    C        1.97360        -7.07529        -4.36524
| 84>    O        1.62214        -6.08580        -3.55326
| 85>    C        1.28936        -3.61838        -1.66353
| 86>    C        0.10532        -4.22425        -1.63746
| 87>    H       -3.10533         7.28126        -6.00320
| 88>    H       -2.50914        11.73439        -3.78754
| 89>    H       -0.33608         7.41329        -6.43215
| 90>    H       -7.94755        10.81455        -4.24066
| 91>    H       -9.40150         9.11380        -4.71253
| 92>    H       -9.47202         6.52688        -5.69839
| 93>    H       -6.95733         5.07107        -2.23776
| 94>    H       -7.39282         8.75747        -1.95477
| 95>    H       -5.24066         8.85171        -1.31959
| 96>    H       -4.91814         6.26983        -2.93177
| 97>    H       -2.81151         5.22106        -2.69724
| 98>    H       -0.73912         9.61964        -1.73229
| 99>    H       -3.17074         9.36603        -1.69147
|100>    H        0.47563         5.21108        -0.43185
|101>    H        1.08515         3.79746        -1.29216
|102>    H       -1.84945         4.35152        -0.64142
|103>    H       -0.79297         3.21430         0.19238
|104>    H       -1.24767         2.91461        -1.48055
|105>    H       -1.03299         3.70183        -3.55887
|106>    H        0.71671         3.53789        -3.71185
|107>    H       -1.01254         5.64834        -5.07371
|108>    H       -0.29129         4.23841        -5.86115
|109>    H        0.74714         5.52306        -5.23377
|110>    H        2.84197         4.66045        -3.15633
|111>    H        4.12481         8.72878        -2.72418
|112>    H        1.82391         9.42741        -2.20735
|113>    H        5.70432         7.14244        -3.36036
|114>    H        4.85356         4.19897        -3.33207
|115>    H        7.55034         5.57381        -3.85365
|116>    H        9.44527         3.80694        -4.27765
|117>    H        9.80134         1.25828        -4.35152
|118>    H        9.56582        -1.12117        -4.22866
|119>    H        8.70394        -3.52930        -3.96776
|120>    H        6.58029        -4.82360        -3.72177
|121>    H        5.15744        -2.34219        -1.21341
|122>    H        3.55872        -2.47890        -0.47214
|123>    H        3.80798        -1.39871        -1.84446
|124>    H        5.23036        -6.42309        -4.96895
|125>    H        3.43158        -8.06602        -5.52975
|126>    H        1.15358        -7.74536        -4.57801
|127>    H        1.41804        -2.68568        -1.13129
|128>    H       -0.07596        -5.15208        -2.15072
|129>    H       -0.72474        -3.80598        -1.09433
|130> *
|131>
|132>                          ****END OF INPUT****

CARTESIAN COORDINATES (ANGSTROEM)
---------------------------------
  C     -5.210610   10.633730   -3.941930
  C     -5.465740   11.703950   -3.115130
  C     -4.493640   12.630340   -2.694890
  N     -3.743630   13.417440   -2.324150
  C     -6.719930   11.935400   -2.521850
  N     -7.715720   12.110680   -1.974160
  C     -3.899780   10.192720   -4.390900
  C     -4.039620    8.926440   -5.008760
  C     -2.970930    8.241400   -5.530150
  C     -1.703380    8.823720   -5.419160
  C     -1.570720   10.070970   -4.766080
  C     -2.653670   10.776580   -4.259570
  S      0.089760   10.577540   -4.691220
  C      0.572980    9.143490   -5.552270
  C     -0.454740    8.325910   -5.879160
  Br     2.377240    8.864420   -5.968470
  C     -5.461210    8.522670   -4.989660
  O     -5.937680    7.521520   -5.487240
  C     -6.177820    9.649430   -4.363010
  C     -7.541080    9.813040   -4.331080
  N     -8.469850    8.847140   -4.425690
  C     -8.271490    7.493680   -4.143800
  C     -8.846430    6.467520   -4.830940
  S     -8.390730    4.942470   -4.202240
  C     -7.458280    5.678390   -2.963500
  C     -7.477440    7.038220   -3.036350
  N     -6.880120    7.901710   -2.118440
  C     -5.516070    7.997210   -1.921450
  C     -4.594410    7.137710   -2.374820
  C     -3.161320    7.285500   -2.230350
  C     -2.345370    6.169520   -2.471610
  C     -0.978710    6.293170   -2.424950
  C     -0.391460    7.555900   -2.222670
  C     -1.184300    8.656210   -1.934610
  C     -2.556420    8.507010   -1.915700
  C      1.036700    7.435760   -2.408920
  C      1.338850    6.088540   -2.678070
  C      0.093680    5.234920   -2.550790
  C      0.234070    4.476910   -1.205020
  C     -0.994260    3.691880   -0.764350
  C     -0.105970    4.256060   -3.711130
  C     -0.168690    4.962110   -5.057920
  C      2.623540    5.695980   -2.947480
  C      3.654510    6.652780   -2.976070
  C      3.333720    7.992720   -2.703000
  C      2.044890    8.390030   -2.414670
  C      5.016600    6.309980   -3.273930
  C      5.507640    5.054570   -3.435770
  C      6.853250    4.756710   -3.722320
  C      7.337360    3.480380   -3.840250
  C      8.668160    3.079890   -4.117960
  C      8.855700    1.732270   -4.156050
  C      7.685140    0.979830   -3.908680
  S      6.325810    2.053210   -3.638630
  C      7.544650   -0.390070   -3.854870
  C      8.543290   -1.379350   -4.017770
  C      8.087500   -2.651230   -3.880600
  C      6.697800   -2.760000   -3.591310
  S      5.996960   -1.143610   -3.530450
  C      6.010890   -3.933230   -3.477590
  C      4.639980   -4.162780   -3.167890
  C      3.752550   -3.475060   -2.336150
  C      4.090010   -2.360500   -1.414710
  C      2.455950   -4.091290   -2.370550
  C      2.559050   -5.189560   -3.202690
  C      3.923770   -5.281750   -3.708060
  C      4.241530   -6.305410   -4.553190
  C      3.225660   -7.235030   -4.877230
  C      1.973600   -7.075290   -4.365240
  O      1.622140   -6.085800   -3.553260
  C      1.289360   -3.618380   -1.663530
  C      0.105320   -4.224250   -1.637460
  H     -3.105330    7.281260   -6.003200
  H     -2.509140   11.734390   -3.787540
  H     -0.336080    7.413290   -6.432150
  H     -7.947550   10.814550   -4.240660
  H     -9.401500    9.113800   -4.712530
  H     -9.472020    6.526880   -5.698390
  H     -6.957330    5.071070   -2.237760
  H     -7.392820    8.757470   -1.954770
  H     -5.240660    8.851710   -1.319590
  H     -4.918140    6.269830   -2.931770
  H     -2.811510    5.221060   -2.697240
  H     -0.739120    9.619640   -1.732290
  H     -3.170740    9.366030   -1.691470
  H      0.475630    5.211080   -0.431850
  H      1.085150    3.797460   -1.292160
  H     -1.849450    4.351520   -0.641420
  H     -0.792970    3.214300    0.192380
  H     -1.247670    2.914610   -1.480550
  H     -1.032990    3.701830   -3.558870
  H      0.716710    3.537890   -3.711850
  H     -1.012540    5.648340   -5.073710
  H     -0.291290    4.238410   -5.861150
  H      0.747140    5.523060   -5.233770
  H      2.841970    4.660450   -3.156330
  H      4.124810    8.728780   -2.724180
  H      1.823910    9.427410   -2.207350
  H      5.704320    7.142440   -3.360360
  H      4.853560    4.198970   -3.332070
  H      7.550340    5.573810   -3.853650
  H      9.445270    3.806940   -4.277650
  H      9.801340    1.258280   -4.351520
  H      9.565820   -1.121170   -4.228660
  H      8.703940   -3.529300   -3.967760
  H      6.580290   -4.823600   -3.721770
  H      5.157440   -2.342190   -1.213410
  H      3.558720   -2.478900   -0.472140
  H      3.807980   -1.398710   -1.844460
  H      5.230360   -6.423090   -4.968950
  H      3.431580   -8.066020   -5.529750
  H      1.153580   -7.745360   -4.578010
  H      1.418040   -2.685680   -1.131290
  H     -0.075960   -5.152080   -2.150720
  H     -0.724740   -3.805980   -1.094330

 Total Charge           Charge          ....    0
 Multiplicity           Mult            ....    1
 Number of Electrons    NEL             ....  552
 Basis Dimension        Dim             .... 1257

ORBITAL ENERGIES
----------------

  NO   OCC          E(Eh)            E(eV)
   0   2.0000    -482.872242    -13139.6217
   1   2.0000     -88.963819     -2420.8286
   2   2.0000     -88.958505     -2420.6840
   3   2.0000     -88.927365     -2419.8366
   4   2.0000     -88.926233     -2419.8058
   5   2.0000     -62.549592     -1702.0609
   6   2.0000     -56.383555     -1534.2745
   7   2.0000     -56.380875     -1534.2016
   8   2.0000     -56.380800     -1534.1996
   9   2.0000     -19.313586      -525.5494
  10   2.0000     -19.200412      -522.4698
  11   2.0000     -14.487646      -394.2289
  12   2.0000     -14.434256      -392.7761
  13   2.0000     -14.411651      -392.1610
  14   2.0000     -14.406089      -392.0096
  15   2.0000     -10.358163      -281.8599
  16   2.0000     -10.356824      -281.8235
  17   2.0000     -10.355881      -281.7979
  18   2.0000     -10.345214      -281.5076
  19   2.0000     -10.334505      -281.2162
  20   2.0000     -10.330317      -281.1022
  21   2.0000     -10.329582      -281.0822
  22   2.0000     -10.322252      -280.8828
  23   2.0000     -10.316502      -280.7263
  24   2.0000     -10.314444      -280.6703
  25   2.0000     -10.311502      -280.5902
  26   2.0000     -10.310156      -280.5536
  27   2.0000     -10.303711      -280.3782
  28   2.0000     -10.302683      -280.3503
  29   2.0000     -10.295457      -280.1536
  30   2.0000     -10.294361      -280.1238
  31   2.0000     -10.294046      -280.1152
  32   2.0000     -10.293816      -280.1090
  33   2.0000     -10.293366      -280.0967
  34   2.0000     -10.291086      -280.0347
  35   2.0000     -10.290397      -280.0159
  36   2.0000     -10.289523      -279.9922
  37   2.0000     -10.289115      -279.9810
  38   2.0000     -10.288584      -279.9666
  39   2.0000     -10.286588      -279.9123
  40   2.0000     -10.282565      -279.8028
  41   2.0000     -10.281666      -279.7784
  42   2.0000     -10.280084      -279.7353
  43   2.0000     -10.278952      -279.7045
  44   2.0000     -10.273076      -279.5446
  45   2.0000     -10.272204      -279.5209
  46   2.0000     -10.271351      -279.4977
  47   2.0000     -10.270688      -279.4796
  48   2.0000     -10.270145      -279.4649
  49   2.0000     -10.268099      -279.4092
  50   2.0000     -10.266998      -279.3792
  51   2.0000     -10.265022      -279.3254
  52   2.0000     -10.261130      -279.2195
  53   2.0000     -10.260162      -279.1932
  54   2.0000     -10.258882      -279.1584
  55   2.0000     -10.258092      -279.1369
  56   2.0000     -10.257464      -279.1198
  57   2.0000     -10.256673      -279.0983
  58   2.0000     -10.254907      -279.0502
  59   2.0000     -10.254845      -279.0485
  60   2.0000     -10.254397      -279.0363
  61   2.0000     -10.254021      -279.0261
  62   2.0000     -10.253524      -279.0126
  63   2.0000     -10.253430      -279.0100
  64   2.0000     -10.253222      -279.0044
  65   2.0000     -10.253056      -278.9998
  66   2.0000     -10.253003      -278.9984
  67   2.0000     -10.252883      -278.9951
  68   2.0000     -10.252612      -278.9877
  69   2.0000     -10.252495      -278.9846
  70   2.0000     -10.252312      -278.9796
  71   2.0000     -10.251073      -278.9459
  72   2.0000     -10.246359      -278.8176
  73   2.0000     -10.242991      -278.7260
  74   2.0000     -10.242593      -278.7151
  75   2.0000     -10.241015      -278.6722
  76   2.0000      -8.778873      -238.8853
  77   2.0000      -8.059433      -219.3083
  78   2.0000      -8.054442      -219.1725
  79   2.0000      -8.023347      -218.3264
  80   2.0000      -8.022403      -218.3007
  81   2.0000      -6.615151      -180.0074
  82   2.0000      -6.600557      -179.6103
  83   2.0000      -6.600473      -179.6080
  84   2.0000      -6.029143      -164.0613
  85   2.0000      -6.024907      -163.9461
  86   2.0000      -6.023744      -163.9144
  87   2.0000      -6.020675      -163.8309
  88   2.0000      -6.019502      -163.7990
  89   2.0000      -6.016642      -163.7212
  90   2.0000      -5.993177      -163.0826
  91   2.0000      -5.992158      -163.0549
  92   2.0000      -5.989142      -162.9728
  93   2.0000      -5.988274      -162.9492
  94   2.0000      -5.984083      -162.8352
  95   2.0000      -5.983188      -162.8108
  96   2.0000      -2.731053       -74.3157
  97   2.0000      -2.726910       -74.2030
  98   2.0000      -2.726840       -74.2011
  99   2.0000      -2.715243       -73.8855
 100   2.0000      -2.715240       -73.8854
 101   2.0000      -1.221832       -33.2477
 102   2.0000      -1.117642       -30.4126
 103   2.0000      -1.083014       -29.4703
 104   2.0000      -1.034380       -28.1469
 105   2.0000      -1.013006       -27.5653
 106   2.0000      -1.003911       -27.3178
 107   2.0000      -0.988263       -26.8920
 108   2.0000      -0.980234       -26.6735
 109   2.0000      -0.978099       -26.6154
 110   2.0000      -0.972837       -26.4722
 111   2.0000      -0.970647       -26.4127
 112   2.0000      -0.969126       -26.3713
 113   2.0000      -0.954218       -25.9656
 114   2.0000      -0.932133       -25.3646
 115   2.0000      -0.928424       -25.2637
 116   2.0000      -0.920056       -25.0360
 117   2.0000      -0.907196       -24.6861
 118   2.0000      -0.897218       -24.4146
 119   2.0000      -0.888141       -24.1675
 120   2.0000      -0.881183       -23.9782
 121   2.0000      -0.875122       -23.8133
 122   2.0000      -0.873024       -23.7562
 123   2.0000      -0.867706       -23.6115
 124   2.0000      -0.858450       -23.3596
 125   2.0000      -0.851554       -23.1720
 126   2.0000      -0.848839       -23.0981
 127   2.0000      -0.841225       -22.8909
 128   2.0000      -0.828461       -22.5436
 129   2.0000      -0.827757       -22.5244
 130   2.0000      -0.825459       -22.4619
 131   2.0000      -0.820830       -22.3359
 132   2.0000      -0.817591       -22.2478
 133   2.0000      -0.815869       -22.2009
 134   2.0000      -0.810651       -22.0589
 135   2.0000      -0.807603       -21.9760
 136   2.0000      -0.806290       -21.9403
 137   2.0000      -0.793608       -21.5952
 138   2.0000      -0.788247       -21.4493
 139   2.0000      -0.775510       -21.1027
 140   2.0000      -0.757916       -20.6239
 141   2.0000      -0.753947       -20.5159
 142   2.0000      -0.752186       -20.4680
 143   2.0000      -0.746888       -20.3239
 144   2.0000      -0.729429       -19.8488
 145   2.0000      -0.716704       -19.5025
 146   2.0000      -0.708727       -19.2855
 147   2.0000      -0.706826       -19.2337
 148   2.0000      -0.700548       -19.0629
 149   2.0000      -0.697639       -18.9837
 150   2.0000      -0.691434       -18.8149
 151   2.0000      -0.682811       -18.5802
 152   2.0000      -0.679629       -18.4936
 153   2.0000      -0.675131       -18.3713
 154   2.0000      -0.670867       -18.2552
 155   2.0000      -0.665020       -18.0961
 156   2.0000      -0.658220       -17.9111
 157   2.0000      -0.651644       -17.7321
 158   2.0000      -0.650904       -17.7120
 159   2.0000      -0.648238       -17.6394
 160   2.0000      -0.648061       -17.6346
 161   2.0000      -0.638732       -17.3808
 162   2.0000      -0.636095       -17.3090
 163   2.0000      -0.627905       -17.0862
 164   2.0000      -0.624051       -16.9813
 165   2.0000      -0.614533       -16.7223
 166   2.0000      -0.610553       -16.6140
 167   2.0000      -0.605752       -16.4833
 168   2.0000      -0.600604       -16.3433
 169   2.0000      -0.596574       -16.2336
 170   2.0000      -0.591421       -16.0934
 171   2.0000      -0.589395       -16.0383
 172   2.0000      -0.589086       -16.0298
 173   2.0000      -0.585062       -15.9203
 174   2.0000      -0.577304       -15.7092
 175   2.0000      -0.576528       -15.6881
 176   2.0000      -0.571216       -15.5436
 177   2.0000      -0.565917       -15.3994
 178   2.0000      -0.557296       -15.1648
 179   2.0000      -0.553150       -15.0520
 180   2.0000      -0.549370       -14.9491
 181   2.0000      -0.547706       -14.9038
 182   2.0000      -0.542433       -14.7604
 183   2.0000      -0.540497       -14.7077
 184   2.0000      -0.538657       -14.6576
 185   2.0000      -0.532494       -14.4899
 186   2.0000      -0.530550       -14.4370
 187   2.0000      -0.529053       -14.3963
 188   2.0000      -0.524000       -14.2588
 189   2.0000      -0.520062       -14.1516
 190   2.0000      -0.518874       -14.1193
 191   2.0000      -0.517091       -14.0708
 192   2.0000      -0.514429       -13.9983
 193   2.0000      -0.512932       -13.9576
 194   2.0000      -0.508648       -13.8410
 195   2.0000      -0.507285       -13.8039
 196   2.0000      -0.503646       -13.7049
 197   2.0000      -0.502255       -13.6670
 198   2.0000      -0.501169       -13.6375
 199   2.0000      -0.498867       -13.5749
 200   2.0000      -0.495603       -13.4860
 201   2.0000      -0.494649       -13.4601
 202   2.0000      -0.491749       -13.3812
 203   2.0000      -0.489701       -13.3254
 204   2.0000      -0.487663       -13.2700
 205   2.0000      -0.486737       -13.2448
 206   2.0000      -0.484374       -13.1805
 207   2.0000      -0.482931       -13.1412
 208   2.0000      -0.481036       -13.0897
 209   2.0000      -0.480953       -13.0874
 210   2.0000      -0.476907       -12.9773
 211   2.0000      -0.474334       -12.9073
 212   2.0000      -0.471733       -12.8365
 213   2.0000      -0.468691       -12.7537
 214   2.0000      -0.464497       -12.6396
 215   2.0000      -0.460588       -12.5332
 216   2.0000      -0.456477       -12.4214
 217   2.0000      -0.453633       -12.3440
 218   2.0000      -0.450939       -12.2707
 219   2.0000      -0.449582       -12.2337
 220   2.0000      -0.448481       -12.2038
 221   2.0000      -0.446337       -12.1455
 222   2.0000      -0.445433       -12.1208
 223   2.0000      -0.444942       -12.1075
 224   2.0000      -0.443810       -12.0767
 225   2.0000      -0.438972       -11.9450
 226   2.0000      -0.437898       -11.9158
 227   2.0000      -0.437416       -11.9027
 228   2.0000      -0.435389       -11.8475
 229   2.0000      -0.434270       -11.8171
 230   2.0000      -0.431222       -11.7342
 231   2.0000      -0.429810       -11.6957
 232   2.0000      -0.428793       -11.6681
 233   2.0000      -0.426826       -11.6145
 234   2.0000      -0.424622       -11.5546
 235   2.0000      -0.422880       -11.5071
 236   2.0000      -0.422352       -11.4928
 237   2.0000      -0.420794       -11.4504
 238   2.0000      -0.418726       -11.3941
 239   2.0000      -0.417069       -11.3490
 240   2.0000      -0.409455       -11.1418
 241   2.0000      -0.407875       -11.0988
 242   2.0000      -0.407085       -11.0774
 243   2.0000      -0.405984       -11.0474
 244   2.0000      -0.404691       -11.0122
 245   2.0000      -0.403262       -10.9733
 246   2.0000      -0.401748       -10.9321
 247   2.0000      -0.396770       -10.7967
 248   2.0000      -0.394509       -10.7351
 249   2.0000      -0.389872       -10.6089
 250   2.0000      -0.383963       -10.4482
 251   2.0000      -0.379236       -10.3195
 252   2.0000      -0.377595       -10.2749
 253   2.0000      -0.373970       -10.1763
 254   2.0000      -0.369716       -10.0605
 255   2.0000      -0.365027        -9.9329
 256   2.0000      -0.361539        -9.8380
 257   2.0000      -0.356739        -9.7074
 258   2.0000      -0.349205        -9.5024
 259   2.0000      -0.340906        -9.2765
 260   2.0000      -0.339475        -9.2376
 261   2.0000      -0.323559        -8.8045
 262   2.0000      -0.322131        -8.7656
 263   2.0000      -0.310066        -8.4373
 264   2.0000      -0.307844        -8.3769
 265   2.0000      -0.305984        -8.3263
 266   2.0000      -0.300094        -8.1660
 267   2.0000      -0.299056        -8.1377
 268   2.0000      -0.297289        -8.0896
 269   2.0000      -0.284163        -7.7325
 270   2.0000      -0.279105        -7.5948
 271   2.0000      -0.275023        -7.4838
 272   2.0000      -0.267006        -7.2656
 273   2.0000      -0.246204        -6.6995
 274   2.0000      -0.229861        -6.2548
 275   2.0000      -0.188853        -5.1390
 276   0.0000      -0.070848        -1.9279
 277   0.0000      -0.058947        -1.6040
 278   0.0000      -0.038161        -1.0384
 279   0.0000      -0.036931        -1.0049
 280   0.0000      -0.008521        -0.2319

MULLIKEN ATOMIC CHARGES
-----------------------
   0 C :    0.306177
   1 C :   -0.367496
   2 C :   -0.179964
   3 N :    0.142608
   4 C :   -0.228985
   5 N :    0.136748
   6 C :    0.002641
   7 C :    0.024821
   8 C :   -0.074139
   9 C :    0.125229
  10 C :   -0.081102
  11 C :   -0.037138
  12 S :    0.165923
  13 C :   -0.119850
  14 C :    0.047733
  15 Br:    0.028866
  16 C :    0.159735
  17 O :   -0.159466
  18 C :   -0.176528
  19 C :    0.003817
  20 N :   -0.012066
  21 C :    0.158074
  22 C :   -0.164627
  23 S :    0.130267
  24 C :   -0.145861
  25 C :    0.064226
  26 N :   -0.065314
  27 C :    0.037182
  28 C :   -0.025823
  29 C :    0.140254
  30 C :   -0.136391
  31 C :    0.032900
  32 C :    0.091998
  33 C :   -0.038861
  34 C :   -0.021214
  35 C :    0.111356
  36 C :    0.024163
  37 C :   -0.147876
  38 C :    0.092304
  39 C :    0.029861
  40 C :    0.051804
  41 C :    0.016654
  42 C :   -0.090546
  43 C :    0.131384
  44 C :   -0.016174
  45 C :   -0.066888
  46 C :   -0.023394
  47 C :    0.015017
  48 C :   -0.013608
  49 C :   -0.017885
  50 C :    0.030636
  51 C :    0.028379
  52 C :   -0.050421
  53 S :    0.044246
  54 C :   -0.052207
  55 C :    0.025205
  56 C :    0.029311
  57 C :   -0.027728
  58 S :    0.062030
  59 C :   -0.090535
  60 C :    0.061149
  61 C :   -0.166502
  62 C :    0.112911
  63 C :   -0.000643
  64 C :    0.074279
  65 C :    0.035249
  66 C :    0.017997
  67 C :   -0.043313
  68 C :    0.177369
  69 O :   -0.156269
  70 C :   -0.024238
  71 C :   -0.025019
  72 H :   -0.016838
  73 H :   -0.014197
  74 H :   -0.003462
  75 H :    0.047320
  76 H :    0.149884
  77 H :    0.007329
  78 H :    0.021683
  79 H :    0.131957
  80 H :    0.008608
  81 H :   -0.014330
  82 H :   -0.049201
  83 H :   -0.042110
  84 H :   -0.039025
  85 H :    0.003327
  86 H :   -0.004934
  87 H :    0.020558
  88 H :    0.008773
  89 H :    0.002231
  90 H :    0.002698
  91 H :    0.001332
  92 H :    0.011393
  93 H :    0.008093
  94 H :    0.023440
  95 H :   -0.049046
  96 H :   -0.035342
  97 H :   -0.041044
  98 H :   -0.033752
  99 H :   -0.000131
 100 H :   -0.025154
 101 H :   -0.019380
 102 H :   -0.020412
 103 H :   -0.021204
 104 H :   -0.019873
 105 H :   -0.025249
 106 H :    0.028290
 107 H :    0.021013
 108 H :    0.038346
 109 H :   -0.008888
 110 H :    0.008408
 111 H :    0.027821
 112 H :   -0.027332
 113 H :    0.007549
 114 H :    0.008422
Sum of atomic charges:   -0.0000000

LOEWDIN ATOMIC CHARGES
----------------------
   0 C :    0.085750
   1 C :   -0.171226
   2 C :   -0.022884
   3 N :   -0.064043
   4 C :   -0.028868
   5 N :   -0.077946
   6 C :   -0.025105
   7 C :   -0.039974
   8 C :    0.021826
   9 C :   -0.025061
  10 C :   -0.141843
  11 C :   -0.009914
  12 S :    0.429663
  13 C :   -0.267557
  14 C :   -0.065252
  15 Br:    0.150380
  16 C :    0.080675
  17 O :   -0.154768
  18 C :   -0.156667
  19 C :    0.097972
  20 N :    0.076408
  21 C :   -0.037982
  22 C :   -0.202326
  23 S :    0.459922
  24 C :   -0.194955
  25 C :   -0.029731
  26 N :    0.002709
  27 C :    0.033075
  28 C :   -0.098369
  29 C :   -0.014103
  30 C :   -0.035273
  31 C :    0.003552
  32 C :   -0.027533
  33 C :   -0.019107
  34 C :   -0.029580
  35 C :   -0.018885
  36 C :    0.004203
  37 C :   -0.033794
  38 C :   -0.006802
  39 C :   -0.060348
  40 C :   -0.017399
  41 C :   -0.059256
  42 C :   -0.020135
  43 C :   -0.028279
  44 C :   -0.023466
  45 C :   -0.029849
  46 C :   -0.022607
  47 C :   -0.034057
  48 C :   -0.063367
  49 C :   -0.144090
  50 C :   -0.043040
  51 C :   -0.033175
  52 C :   -0.189312
  53 S :    0.352234
  54 C :   -0.177349
  55 C :   -0.046413
  56 C :   -0.032051
  57 C :   -0.163641
  58 S :    0.379244
  59 C :   -0.047438
  60 C :   -0.099364
  61 C :    0.014155
  62 C :   -0.060945
  63 C :   -0.099530
  64 C :    0.055757
  65 C :   -0.017169
  66 C :    0.028488
  67 C :   -0.085734
  68 C :    0.084176
  69 O :    0.050256
  70 C :   -0.024469
  71 C :   -0.064190
  72 H :    0.037642
  73 H :    0.038039
  74 H :    0.037764
  75 H :    0.042679
  76 H :    0.101870
  77 H :    0.023030
  78 H :    0.027646
  79 H :    0.079921
  80 H :    0.026677
  81 H :    0.025791
  82 H :    0.020406
  83 H :    0.021956
  84 H :    0.018845
  85 H :    0.027025
  86 H :    0.019876
  87 H :    0.025032
  88 H :    0.026183
  89 H :    0.018495
  90 H :    0.019706
  91 H :    0.021659
  92 H :    0.019439
  93 H :    0.023396
  94 H :    0.023347
  95 H :    0.021800
  96 H :    0.022268
  97 H :    0.020562
  98 H :    0.023829
  99 H :    0.017662
 100 H :    0.029128
 101 H :    0.030570
 102 H :    0.029192
 103 H :    0.028726
 104 H :    0.029483
 105 H :    0.028064
 106 H :    0.032641
 107 H :    0.033288
 108 H :    0.035290
 109 H :    0.034516
 110 H :    0.039558
 111 H :    0.032929
 112 H :    0.025872
 113 H :    0.014396
 114 H :    0.019577

  Mayer bond orders larger than 0.100000
B(  0-C ,  1-C ) :   1.5962 B(  0-C ,  6-C ) :   1.0140 B(  0-C , 18-C ) :   1.1158
B(  1-C ,  2-C ) :   1.1411 B(  1-C ,  4-C ) :   1.1553 B(  2-C ,  3-N ) :   2.9734
B(  4-C ,  5-N ) :   2.9775 B(  6-C ,  7-C ) :   1.2851 B(  6-C , 11-C ) :   1.3995
B(  7-C ,  8-C ) :   1.4257 B(  7-C , 16-C ) :   0.9353 B(  8-C ,  9-C ) :   1.2335
B(  8-C , 72-H ) :   1.0175 B(  9-C , 10-C ) :   1.3170 B(  9-C , 14-C ) :   1.1635
B( 10-C , 11-C ) :   1.3197 B( 10-C , 12-S ) :   1.0768 B( 11-C , 73-H ) :   0.9844
B( 12-S , 13-C ) :   1.0818 B( 13-C , 14-C ) :   1.6160 B( 13-C , 15-Br) :   1.0268
B( 14-C , 74-H ) :   0.9942 B( 16-C , 17-O ) :   2.2161 B( 16-C , 18-C ) :   0.9470
B( 18-C , 19-C ) :   1.4730 B( 19-C , 20-N ) :   1.3434 B( 19-C , 75-H ) :   0.9474
B( 20-N , 21-C ) :   1.0164 B( 20-N , 76-H ) :   0.9175 B( 21-C , 22-C ) :   1.5269
B( 21-C , 25-C ) :   1.2631 B( 22-C , 23-S ) :   1.1793 B( 22-C , 77-H ) :   0.9755
B( 23-S , 24-C ) :   1.1680 B( 24-C , 25-C ) :   1.5698 B( 24-C , 78-H ) :   0.9659
B( 25-C , 26-N ) :   1.1063 B( 26-N , 27-C ) :   1.1250 B( 26-N , 79-H ) :   0.9238
B( 27-C , 28-C ) :   1.7277 B( 27-C , 80-H ) :   0.9558 B( 28-C , 29-C ) :   1.0776
B( 28-C , 81-H ) :   0.9559 B( 29-C , 30-C ) :   1.2808 B( 29-C , 34-C ) :   1.3692
B( 30-C , 31-C ) :   1.3766 B( 30-C , 82-H ) :   1.0107 B( 31-C , 32-C ) :   1.3768
B( 31-C , 37-C ) :   0.9189 B( 32-C , 33-C ) :   1.3498 B( 32-C , 35-C ) :   0.9972
B( 33-C , 34-C ) :   1.3809 B( 33-C , 83-H ) :   0.9851 B( 34-C , 84-H ) :   0.9694
B( 35-C , 36-C ) :   1.3550 B( 35-C , 45-C ) :   1.3385 B( 36-C , 37-C ) :   0.9240
B( 36-C , 42-C ) :   1.4222 B( 37-C , 38-C ) :   1.0123 B( 37-C , 40-C ) :   1.0424
B( 38-C , 39-C ) :   1.1091 B( 38-C , 85-H ) :   0.9367 B( 38-C , 86-H ) :   0.9366
B( 39-C , 87-H ) :   0.9617 B( 39-C , 88-H ) :   0.9594 B( 39-C , 89-H ) :   0.9630
B( 40-C , 41-C ) :   1.1114 B( 40-C , 90-H ) :   0.9332 B( 40-C , 91-H ) :   0.9370
B( 41-C , 92-H ) :   0.9603 B( 41-C , 93-H ) :   0.9600 B( 41-C , 94-H ) :   0.9595
B( 42-C , 43-C ) :   1.2856 B( 42-C , 95-H ) :   0.9936 B( 43-C , 44-C ) :   1.3305
B( 43-C , 46-C ) :   1.0701 B( 44-C , 45-C ) :   1.3641 B( 44-C , 96-H ) :   0.9953
B( 45-C , 97-H ) :   0.9950 B( 46-C , 47-C ) :   1.6484 B( 46-C , 98-H ) :   0.9904
B( 47-C , 48-C ) :   1.1467 B( 47-C , 99-H ) :   0.9615 B( 48-C , 49-C ) :   1.5681
B( 48-C ,100-H ) :   0.9854 B( 49-C , 50-C ) :   1.1385 B( 49-C , 53-S ) :   1.0272
B( 50-C , 51-C ) :   1.5918 B( 50-C ,101-H ) :   0.9983 B( 51-C , 52-C ) :   1.1881
B( 51-C ,102-H ) :   0.9926 B( 52-C , 53-S ) :   1.0327 B( 52-C , 54-C ) :   1.5230
B( 54-C , 55-C ) :   1.1731 B( 54-C , 58-S ) :   1.0472 B( 55-C , 56-C ) :   1.6082
B( 55-C ,103-H ) :   0.9929 B( 56-C , 57-C ) :   1.1199 B( 56-C ,104-H ) :   0.9982
B( 57-C , 58-S ) :   1.0142 B( 57-C , 59-C ) :   1.6479 B( 59-C , 60-C ) :   1.0734
B( 59-C ,105-H ) :   0.9548 B( 60-C , 61-C ) :   1.4692 B( 60-C , 65-C ) :   1.1161
B( 61-C , 62-C ) :   1.1218 B( 61-C , 63-C ) :   1.1880 B( 62-C ,106-H ) :   0.9439
B( 62-C ,107-H ) :   0.9354 B( 62-C ,108-H ) :   0.9240 B( 63-C , 64-C ) :   1.4666
B( 63-C , 70-C ) :   1.0962 B( 64-C , 65-C ) :   1.0826 B( 64-C , 69-O ) :   1.1142
B( 65-C , 66-C ) :   1.5375 B( 66-C , 67-C ) :   1.1987 B( 66-C ,109-H ) :   0.9795
B( 67-C , 68-C ) :   1.5960 B( 67-C ,110-H ) :   0.9677 B( 68-C , 69-O ) :   1.1752
B( 68-C ,111-H ) :   0.9811 B( 70-C , 71-C ) :   1.9383 B( 70-C ,112-H ) :   0.9519
B( 71-C ,113-H ) :   0.9500 B( 71-C ,114-H ) :   0.9434

-----------------------------------------------------------------------------
         ABSORPTION SPECTRUM VIA TRANSITION ELECTRIC DIPOLE MOMENTS
-----------------------------------------------------------------------------
State   Energy  Wavelength   fosc         T2         TX        TY        TZ
        (cm-1)    (nm)                  (au**2)     (au)      (au)      (au)
-----------------------------------------------------------------------------
   0   14250.6    701.7   1.007249858  23.26910   0.50685  -4.79694  -0.03916
   1   15511.3    644.7   0.024116454   0.51185  -0.67385  -0.21981  -0.09723
   2   17191.4    581.7   0.358382044   6.86296   0.95912  -2.43213  -0.16663
   3   19298.9    518.2   0.002886057   0.04923   0.05492   0.20704  -0.05790
   4   21705.2    460.7   0.040942786   0.62100   0.71243  -0.03072   0.33541
   5   23309.4    429.0   0.195184325   2.75670  -1.58600   0.47524   0.12435
   6   25354.8    394.4   0.151755407   1.97043  -1.30638  -0.49402   0.14053
   7   25512.3    392.0   0.136083688   1.75603   0.93942   0.85787   0.37093
   8   25852.9    386.8   0.133769394   1.70342   1.20788   0.47337   0.14270
   9   26270.5    380.7   1.227583393  15.38362  -3.85533  -0.13973   0.70746
  10   27475.6    364.0   0.105946513   1.26945   0.07134   1.09827   0.24116
  11   28645.2    349.1   0.177415681   2.03900   0.99469  -0.82970  -0.60099
  12   28910.3    345.9   0.163494541   1.86177  -1.26065   0.06294   0.51823
  13   30163.8    331.5   0.080774387   0.88158  -0.51609  -0.68968  -0.37361
  14   30658.3    326.2   0.066245857   0.71135  -0.66779  -0.48615  -0.17051
  15   31032.4    322.2   0.088462771   0.93847   0.57164   0.77794   0.08070
  16   31359.0    318.9   0.164781935   1.72991   1.09896   0.00693  -0.72260
  17   31601.0    316.4   0.088107373   0.91788  -0.82102   0.39455   0.29688
  18   32000.9    312.5   0.010672447   0.10979  -0.29444  -0.14847  -0.03254
  19   32220.4    310.4   0.157923625   1.61358  -1.19340   0.29167   0.32297
  20   32335.3    309.3   0.004691851   0.04777  -0.20945   0.06110   0.01285
  21   32655.3    306.2   0.024854555   0.25057   0.02273  -0.36716  -0.33948
  22   32904.4    303.9   0.106607090   1.06662  -1.01974  -0.11499   0.11627
  23   33236.1    300.9   0.035771044   0.35432   0.54580   0.23633  -0.02385
  24   33770.8    296.1   0.014119460   0.13764  -0.16877   0.08769   0.31854
  25   33900.3    295.0   0.100691630   0.97784  -0.67241   0.45084   0.56784
  26   34056.9    293.6   0.134465006   1.29981   1.06714   0.39329   0.07964
  27   34303.4    291.5   0.033820838   0.32458  -0.54777  -0.11783  -0.10315
  28   34509.7    289.8   0.021934047   0.20924  -0.18130  -0.28467  -0.30877
  29   34938.5    286.2   0.059240173   0.55820  -0.72698  -0.11866   0.12498
  30   35328.7    283.1   0.193855055   1.80644  -0.96973   0.76390   0.53153
  31   35761.2    279.6   0.196988197   1.81344   0.80332  -0.88577  -0.61930
  32   36123.4    276.8   0.008946955   0.08154  -0.10366   0.07395   0.25559
  33   36316.2    275.4   0.088784320   0.80484  -0.60007   0.54832   0.37961
  34   36689.1    272.6   0.042435552   0.38077  -0.06137   0.58305   0.19251
  35   36843.4    271.4   0.011563968   0.10333  -0.24977  -0.03902   0.19855
  36   37115.5    269.4   0.202459988   1.79581  -0.30324  -1.10741  -0.69101
  37   37722.3    265.1   0.006875567   0.06000   0.02369  -0.08844   0.22720
  38   37836.6    264.3   0.007137264   0.06210   0.15907  -0.12976  -0.14128
  39   38207.0    261.7   0.076180783   0.65641   0.64220   0.30264   0.39039
  40   38402.3    260.4   0.030558065   0.26197   0.51032  -0.03610  -0.01540
  41   38579.0    259.2   0.015158741   0.12936   0.33498  -0.08322  -0.10109
  42   38926.0    256.9   0.016194505   0.13696  -0.23373  -0.21363   0.19156
  43   39004.1    256.4   0.053200037   0.44903   0.34188   0.57460   0.04458
  44   39061.3    256.0   0.063202199   0.53267  -0.55273  -0.35746  -0.31525
  45   39440.9    253.5   0.062971411   0.52562  -0.01577   0.71760  -0.10207
  46   39858.7    250.9   0.159356729   1.31620   0.96696   0.58820  -0.18765
  47   40000.4    250.0   0.151689637   1.24844   0.95861   0.57014   0.06662
  48   40218.2    248.6   0.108985437   0.89212  -0.76531  -0.46002  -0.30788
  49   40282.0    248.2   0.052607734   0.42995  -0.43830   0.46603   0.14371

FINAL SINGLE POINT ENERGY     -6882.455025626055

DIPOLE MOMENT
-------------
                                X             Y             Z
Electronic contribution:      1.49928      93.25226     -44.30961
Nuclear contribution   :     -1.94611     -96.54448      42.43186
                        -----------------------------------------
Total Dipole Moment    :     -0.44683      -3.29222      -1.87775
                        -----------------------------------------
Magnitude (a.u.)       :      3.81632
Magnitude (Debye)      :      9.70032

Rotational constants in cm-1:     0.001184     0.000353     0.000288
Rotational constants in MHz :    35.498551    10.591631     8.636684

                             ****ORCA TERMINATED NORMALLY****
TOTAL RUN TIME: 0 days 0 hours 13 minutes 6 seconds 17 msec
