                         Program Version 4.2.0 -  RELEASE  -
|  1> # ORCA input file
|  2> # SCF done       -195.075861325422          0.000444916005
|  3> ! CAM-B3LYP def2-SVP def2/J RIJCOSX Grid4 TightSCF
|  4> %maxcore 5000
|  5> %tddft
|  6>     Mode sTDDFT
|  7>     Ethresh 5.0
|  8>     maxcore 5000
|  9> end
| 10>
| 11> %pal
| 12>   nprocs 6
| 13>   end
| 14> * xyz 0 1
| 15>    C       -5.04094        -2.15881         0.39549
| 16>    C       -4.57862        -2.90763        -0.65631
| 17>    C       -3.88398        -4.12608        -0.51344
| 18>    N       -3.32050        -5.12530        -0.46243
| 19>    C       -4.76152        -2.58789        -2.01742
| 20>    N       -4.86811        -2.39519        -3.14444
| 21>    C       -4.86392        -2.47329         1.80923
| 22>    C       -5.58778        -1.53488         2.58575
| 23>    C       -5.60039        -1.55966         3.95817
| 24>    C       -4.84287        -2.54511         4.59869
| 25>    C       -4.12111        -3.47749         3.81614
| 26>    C       -4.12171        -3.46293         2.42740
| 27>    S       -3.25580        -4.60962         4.81026
| 28>    C       -3.86572        -3.82401         6.24219
| 29>    C       -4.67599        -2.76880         5.99244
| 30>   Br       -3.38041        -4.47724         7.93002
| 31>    C       -6.28636        -0.60068         1.68258
| 32>    O       -7.21298         0.12751         1.97314
| 33>    C       -5.75494        -0.90037         0.32249
| 34>    C       -5.91178        -0.08943        -0.76123
| 35>    C       -6.23463         1.29218        -0.66153
| 36>    C       -5.84730         2.07194         0.45260
| 37>    C       -6.23700         3.45572         0.58648
| 38>    N       -5.90465         4.11942         1.70651
| 39>    C       -5.24532         3.50725         2.65743
| 40>    C       -4.76121         2.17317         2.46946
| 41>    N       -5.05618         1.51344         1.37636
| 42>    C       -3.95622         1.53960         3.44491
| 43>    N       -3.34743         1.01384         4.26179
| 44>    C       -4.96437         4.19855         3.86112
| 45>    N       -4.73315         4.72480         4.85237
| 46>    C       -6.95112         4.13385        -0.42542
| 47>    C       -7.20621         3.39293        -1.59794
| 48>    C       -6.86291         1.99213        -1.70876
| 49>    N       -7.25497         1.46852        -2.86842
| 50>    S       -7.97299         2.61036        -3.73909
| 51>    N       -7.83896         3.82247        -2.69515
| 52>    C       -7.43771         5.49276        -0.26251
| 53>    C       -7.50389         6.34439        -1.37674
| 54>    C       -7.97496         7.62282        -1.22111
| 55>    C       -8.39163         8.08904         0.03844
| 56>    C       -8.33772         7.25211         1.14388
| 57>    C       -7.86661         5.96483         0.98562
| 58>    C       -8.84107         9.45634        -0.10409
| 59>    C       -8.71393         9.83177        -1.45305
| 60>    C       -8.14211         8.69685        -2.27015
| 61>    C       -6.79026         9.08569        -2.89719
| 62>    C       -5.76959         9.54737        -1.86396
| 63>    C       -9.11307         8.24505        -3.37662
| 64>    C      -10.47347         7.82555        -2.83330
| 65>    C       -9.08532        11.08804        -1.86403
| 66>    C       -9.57475        12.01424        -0.92952
| 67>    C       -9.69453        11.62246         0.41047
| 68>    C       -9.33766        10.35670         0.82800
| 69>    C       -9.93264        13.33759        -1.39067
| 70>    C      -10.16840        14.41722        -0.62408
| 71>    C      -10.50044        15.70161        -1.17216
| 72>    C      -10.65983        16.83088        -0.46652
| 73>    C      -10.52362        16.90574         1.02717
| 74>    C      -11.02706        18.12424        -1.15267
| 75>    N      -12.35487        18.55677        -0.78001
| 76>    C      -13.43919        18.42587        -1.55825
| 77>    C      -14.71206        18.66421        -1.12762
| 78>    C      -15.88487        18.62395        -1.90278
| 79>    C      -16.06229        18.36904        -3.24052
| 80>    C      -17.31655        18.38458        -3.90212
| 81>    C      -17.26609        18.12361        -5.23576
| 82>    C      -15.96072        17.87759        -5.72340
| 83>    S      -14.80385        17.99128        -4.41355
| 84>    C      -15.57521        17.58849        -7.01257
| 85>    C      -16.40698        17.47601        -8.15843
| 86>    C      -15.74651        17.18516        -9.30256
| 87>    C      -14.32828        17.04214        -9.14900
| 88>    S      -13.90031        17.30437        -7.45102
| 89>    C      -13.42225        16.75825       -10.09570
| 90>    H       -6.16362        -0.83457         4.52417
| 91>    H       -3.55514        -4.19494         1.87619
| 92>    H       -5.13453        -2.16808         6.75636
| 93>    H       -5.73935        -0.45962        -1.76292
| 94>    H       -7.17166         5.98836        -2.33823
| 95>    H       -8.67002         7.59371         2.11256
| 96>    H       -7.85293         5.29862         1.83270
| 97>    H       -6.95796         9.88430        -3.62319
| 98>    H       -6.39567         8.22169        -3.43565
| 99>    H       -6.13081        10.42425        -1.33089
|100>    H       -4.83226         9.80374        -2.35245
|101>    H       -5.57559         8.76120        -1.13779
|102>    H       -8.66489         7.40505        -3.91065
|103>    H       -9.24159         9.06535        -4.08621
|104>    H      -10.36973         6.98326        -2.15346
|105>    H      -11.12688         7.52906        -3.65053
|106>    H      -10.94399         8.64634        -2.29606
|107>    H       -8.99284        11.38065        -2.90061
|108>    H      -10.09005        12.31987         1.13281
|109>    H       -9.44350        10.07261         1.86436
|110>    H       -9.98170        13.45278        -2.46735
|111>    H      -10.09806        14.34527         0.45031
|112>    H      -10.61247        15.73897        -2.24857
|113>    H      -11.35518        16.40050         1.51959
|114>    H      -10.50141        17.94000         1.36371
|115>    H       -9.60354        16.42626         1.35515
|116>    H      -10.99825        18.00603        -2.23696
|117>    H      -10.31474        18.90855        -0.86651
|118>    H      -12.50473        18.74656         0.20105
|119>    H      -13.23698        18.15030        -2.58156
|120>    H      -14.84638        18.92160        -0.08439
|121>    H      -16.80153        18.83661        -1.36569
|122>    H      -18.22386        18.59517        -3.36285
|123>    H      -18.12570        18.10207        -5.88087
|124>    H      -17.47135        17.61720        -8.09285
|125>    H      -16.20848        17.06350       -10.26610
|126>    H      -13.72578        16.60715       -11.11641
|127>    H      -12.37510        16.67395        -9.87044
|128> *
|129>
|130>                          ****END OF INPUT****

CARTESIAN COORDINATES (ANGSTROEM)
---------------------------------
  C     -5.040940   -2.158810    0.395490
  C     -4.578620   -2.907630   -0.656310
  C     -3.883980   -4.126080   -0.513440
  N     -3.320500   -5.125300   -0.462430
  C     -4.761520   -2.587890   -2.017420
  N     -4.868110   -2.395190   -3.144440
  C     -4.863920   -2.473290    1.809230
  C     -5.587780   -1.534880    2.585750
  C     -5.600390   -1.559660    3.958170
  C     -4.842870   -2.545110    4.598690
  C     -4.121110   -3.477490    3.816140
  C     -4.121710   -3.462930    2.427400
  S     -3.255800   -4.609620    4.810260
  C     -3.865720   -3.824010    6.242190
  C     -4.675990   -2.768800    5.992440
  Br    -3.380410   -4.477240    7.930020
  C     -6.286360   -0.600680    1.682580
  O     -7.212980    0.127510    1.973140
  C     -5.754940   -0.900370    0.322490
  C     -5.911780   -0.089430   -0.761230
  C     -6.234630    1.292180   -0.661530
  C     -5.847300    2.071940    0.452600
  C     -6.237000    3.455720    0.586480
  N     -5.904650    4.119420    1.706510
  C     -5.245320    3.507250    2.657430
  C     -4.761210    2.173170    2.469460
  N     -5.056180    1.513440    1.376360
  C     -3.956220    1.539600    3.444910
  N     -3.347430    1.013840    4.261790
  C     -4.964370    4.198550    3.861120
  N     -4.733150    4.724800    4.852370
  C     -6.951120    4.133850   -0.425420
  C     -7.206210    3.392930   -1.597940
  C     -6.862910    1.992130   -1.708760
  N     -7.254970    1.468520   -2.868420
  S     -7.972990    2.610360   -3.739090
  N     -7.838960    3.822470   -2.695150
  C     -7.437710    5.492760   -0.262510
  C     -7.503890    6.344390   -1.376740
  C     -7.974960    7.622820   -1.221110
  C     -8.391630    8.089040    0.038440
  C     -8.337720    7.252110    1.143880
  C     -7.866610    5.964830    0.985620
  C     -8.841070    9.456340   -0.104090
  C     -8.713930    9.831770   -1.453050
  C     -8.142110    8.696850   -2.270150
  C     -6.790260    9.085690   -2.897190
  C     -5.769590    9.547370   -1.863960
  C     -9.113070    8.245050   -3.376620
  C    -10.473470    7.825550   -2.833300
  C     -9.085320   11.088040   -1.864030
  C     -9.574750   12.014240   -0.929520
  C     -9.694530   11.622460    0.410470
  C     -9.337660   10.356700    0.828000
  C     -9.932640   13.337590   -1.390670
  C    -10.168400   14.417220   -0.624080
  C    -10.500440   15.701610   -1.172160
  C    -10.659830   16.830880   -0.466520
  C    -10.523620   16.905740    1.027170
  C    -11.027060   18.124240   -1.152670
  N    -12.354870   18.556770   -0.780010
  C    -13.439190   18.425870   -1.558250
  C    -14.712060   18.664210   -1.127620
  C    -15.884870   18.623950   -1.902780
  C    -16.062290   18.369040   -3.240520
  C    -17.316550   18.384580   -3.902120
  C    -17.266090   18.123610   -5.235760
  C    -15.960720   17.877590   -5.723400
  S    -14.803850   17.991280   -4.413550
  C    -15.575210   17.588490   -7.012570
  C    -16.406980   17.476010   -8.158430
  C    -15.746510   17.185160   -9.302560
  C    -14.328280   17.042140   -9.149000
  S    -13.900310   17.304370   -7.451020
  C    -13.422250   16.758250  -10.095700
  H     -6.163620   -0.834570    4.524170
  H     -3.555140   -4.194940    1.876190
  H     -5.134530   -2.168080    6.756360
  H     -5.739350   -0.459620   -1.762920
  H     -7.171660    5.988360   -2.338230
  H     -8.670020    7.593710    2.112560
  H     -7.852930    5.298620    1.832700
  H     -6.957960    9.884300   -3.623190
  H     -6.395670    8.221690   -3.435650
  H     -6.130810   10.424250   -1.330890
  H     -4.832260    9.803740   -2.352450
  H     -5.575590    8.761200   -1.137790
  H     -8.664890    7.405050   -3.910650
  H     -9.241590    9.065350   -4.086210
  H    -10.369730    6.983260   -2.153460
  H    -11.126880    7.529060   -3.650530
  H    -10.943990    8.646340   -2.296060
  H     -8.992840   11.380650   -2.900610
  H    -10.090050   12.319870    1.132810
  H     -9.443500   10.072610    1.864360
  H     -9.981700   13.452780   -2.467350
  H    -10.098060   14.345270    0.450310
  H    -10.612470   15.738970   -2.248570
  H    -11.355180   16.400500    1.519590
  H    -10.501410   17.940000    1.363710
  H     -9.603540   16.426260    1.355150
  H    -10.998250   18.006030   -2.236960
  H    -10.314740   18.908550   -0.866510
  H    -12.504730   18.746560    0.201050
  H    -13.236980   18.150300   -2.581560
  H    -14.846380   18.921600   -0.084390
  H    -16.801530   18.836610   -1.365690
  H    -18.223860   18.595170   -3.362850
  H    -18.125700   18.102070   -5.880870
  H    -17.471350   17.617200   -8.092850
  H    -16.208480   17.063500  -10.266100
  H    -13.725780   16.607150  -11.116410
  H    -12.375100   16.673950   -9.870440

 Total Charge           Charge          ....    0
 Multiplicity           Mult            ....    1
 Number of Electrons    NEL             ....  568
 Basis Dimension        Dim             .... 1274

ORBITAL ENERGIES
----------------

  NO   OCC          E(Eh)            E(eV)
   0   2.0000    -482.883579    -13139.9302
   1   2.0000     -89.055248     -2423.3165
   2   2.0000     -88.974099     -2421.1083
   3   2.0000     -88.926199     -2419.8049
   4   2.0000     -88.917893     -2419.5789
   5   2.0000     -62.561284     -1702.3791
   6   2.0000     -56.395234     -1534.5923
   7   2.0000     -56.392515     -1534.5183
   8   2.0000     -56.392490     -1534.5177
   9   2.0000     -19.216676      -522.9123
  10   2.0000     -14.469958      -393.7476
  11   2.0000     -14.468317      -393.7029
  12   2.0000     -14.463965      -393.5845
  13   2.0000     -14.460049      -393.4779
  14   2.0000     -14.439825      -392.9276
  15   2.0000     -14.436689      -392.8423
  16   2.0000     -14.434682      -392.7877
  17   2.0000     -14.417310      -392.3149
  18   2.0000     -14.416726      -392.2991
  19   2.0000     -10.390263      -282.7334
  20   2.0000     -10.386580      -282.6332
  21   2.0000     -10.372491      -282.2498
  22   2.0000     -10.358325      -281.8644
  23   2.0000     -10.357290      -281.8362
  24   2.0000     -10.355351      -281.7834
  25   2.0000     -10.351726      -281.6848
  26   2.0000     -10.351456      -281.6774
  27   2.0000     -10.345084      -281.5040
  28   2.0000     -10.344270      -281.4819
  29   2.0000     -10.333390      -281.1858
  30   2.0000     -10.332997      -281.1752
  31   2.0000     -10.328043      -281.0403
  32   2.0000     -10.325279      -280.9651
  33   2.0000     -10.319357      -280.8040
  34   2.0000     -10.319302      -280.8025
  35   2.0000     -10.319231      -280.8005
  36   2.0000     -10.317192      -280.7451
  37   2.0000     -10.314235      -280.6646
  38   2.0000     -10.310834      -280.5721
  39   2.0000     -10.309631      -280.5393
  40   2.0000     -10.306944      -280.4662
  41   2.0000     -10.306832      -280.4632
  42   2.0000     -10.305733      -280.4332
  43   2.0000     -10.301049      -280.3058
  44   2.0000     -10.295684      -280.1598
  45   2.0000     -10.294357      -280.1237
  46   2.0000     -10.292913      -280.0844
  47   2.0000     -10.290799      -280.0269
  48   2.0000     -10.287422      -279.9350
  49   2.0000     -10.283792      -279.8362
  50   2.0000     -10.283729      -279.8345
  51   2.0000     -10.283242      -279.8212
  52   2.0000     -10.282500      -279.8010
  53   2.0000     -10.281986      -279.7871
  54   2.0000     -10.281756      -279.7808
  55   2.0000     -10.279721      -279.7254
  56   2.0000     -10.278050      -279.6800
  57   2.0000     -10.277772      -279.6724
  58   2.0000     -10.277697      -279.6704
  59   2.0000     -10.276722      -279.6438
  60   2.0000     -10.276091      -279.6267
  61   2.0000     -10.275669      -279.6152
  62   2.0000     -10.274818      -279.5920
  63   2.0000     -10.274213      -279.5756
  64   2.0000     -10.274185      -279.5748
  65   2.0000     -10.274142      -279.5736
  66   2.0000     -10.273549      -279.5575
  67   2.0000     -10.270531      -279.4754
  68   2.0000     -10.269755      -279.4542
  69   2.0000     -10.267793      -279.4008
  70   2.0000     -10.267377      -279.3895
  71   2.0000     -10.266604      -279.3685
  72   2.0000     -10.266570      -279.3676
  73   2.0000     -10.262196      -279.2486
  74   2.0000     -10.261051      -279.2174
  75   2.0000     -10.250119      -278.9199
  76   2.0000     -10.249238      -278.8959
  77   2.0000     -10.247575      -278.8507
  78   2.0000     -10.247484      -278.8482
  79   2.0000      -8.790723      -239.2077
  80   2.0000      -8.146304      -221.6722
  81   2.0000      -8.070075      -219.5979
  82   2.0000      -8.021975      -218.2890
  83   2.0000      -8.014587      -218.0880
  84   2.0000      -6.627004      -180.3299
  85   2.0000      -6.612477      -179.9347
  86   2.0000      -6.612253      -179.9286
  87   2.0000      -6.117257      -166.4590
  88   2.0000      -6.109487      -166.2476
  89   2.0000      -6.109374      -166.2445
  90   2.0000      -6.039789      -164.3510
  91   2.0000      -6.035467      -164.2334
  92   2.0000      -6.031300      -164.1200
  93   2.0000      -5.991724      -163.0431
  94   2.0000      -5.987824      -162.9370
  95   2.0000      -5.984453      -162.8452
  96   2.0000      -5.982905      -162.8031
  97   2.0000      -5.980566      -162.7395
  98   2.0000      -5.975065      -162.5898
  99   2.0000      -2.742908       -74.6383
 100   2.0000      -2.738789       -74.5262
 101   2.0000      -2.738636       -74.5221
 102   2.0000      -2.727072       -74.2074
 103   2.0000      -2.727065       -74.2072
 104   2.0000      -1.150391       -31.3037
 105   2.0000      -1.137438       -30.9513
 106   2.0000      -1.125217       -30.6187
 107   2.0000      -1.054858       -28.7041
 108   2.0000      -1.038271       -28.2528
 109   2.0000      -1.023609       -27.8538
 110   2.0000      -1.021748       -27.8032
 111   2.0000      -1.013669       -27.5833
 112   2.0000      -1.011384       -27.5211
 113   2.0000      -1.005384       -27.3579
 114   2.0000      -0.995930       -27.1006
 115   2.0000      -0.995053       -27.0768
 116   2.0000      -0.991703       -26.9856
 117   2.0000      -0.985978       -26.8298
 118   2.0000      -0.970979       -26.4217
 119   2.0000      -0.952578       -25.9210
 120   2.0000      -0.948048       -25.7977
 121   2.0000      -0.943223       -25.6664
 122   2.0000      -0.929765       -25.3002
 123   2.0000      -0.917955       -24.9788
 124   2.0000      -0.916078       -24.9277
 125   2.0000      -0.911528       -24.8039
 126   2.0000      -0.908436       -24.7198
 127   2.0000      -0.892115       -24.2757
 128   2.0000      -0.885630       -24.0992
 129   2.0000      -0.883973       -24.0541
 130   2.0000      -0.877052       -23.8658
 131   2.0000      -0.863004       -23.4835
 132   2.0000      -0.850382       -23.1401
 133   2.0000      -0.844688       -22.9851
 134   2.0000      -0.841162       -22.8892
 135   2.0000      -0.840661       -22.8756
 136   2.0000      -0.836382       -22.7591
 137   2.0000      -0.835388       -22.7321
 138   2.0000      -0.828822       -22.5534
 139   2.0000      -0.824812       -22.4443
 140   2.0000      -0.819738       -22.3062
 141   2.0000      -0.810981       -22.0679
 142   2.0000      -0.804184       -21.8830
 143   2.0000      -0.799908       -21.7666
 144   2.0000      -0.785108       -21.3639
 145   2.0000      -0.778956       -21.1965
 146   2.0000      -0.767634       -20.8884
 147   2.0000      -0.765485       -20.8299
 148   2.0000      -0.759308       -20.6618
 149   2.0000      -0.748649       -20.3718
 150   2.0000      -0.744479       -20.2583
 151   2.0000      -0.732378       -19.9290
 152   2.0000      -0.723331       -19.6828
 153   2.0000      -0.712934       -19.3999
 154   2.0000      -0.710665       -19.3382
 155   2.0000      -0.705834       -19.2067
 156   2.0000      -0.701678       -19.0936
 157   2.0000      -0.695166       -18.9164
 158   2.0000      -0.689632       -18.7658
 159   2.0000      -0.681004       -18.5311
 160   2.0000      -0.677856       -18.4454
 161   2.0000      -0.677455       -18.4345
 162   2.0000      -0.670767       -18.2525
 163   2.0000      -0.666350       -18.1323
 164   2.0000      -0.658771       -17.9261
 165   2.0000      -0.656900       -17.8752
 166   2.0000      -0.655296       -17.8315
 167   2.0000      -0.650477       -17.7004
 168   2.0000      -0.636468       -17.3192
 169   2.0000      -0.628064       -17.0905
 170   2.0000      -0.624774       -17.0010
 171   2.0000      -0.623162       -16.9571
 172   2.0000      -0.617391       -16.8001
 173   2.0000      -0.616674       -16.7806
 174   2.0000      -0.604903       -16.4602
 175   2.0000      -0.601401       -16.3650
 176   2.0000      -0.600654       -16.3446
 177   2.0000      -0.598579       -16.2882
 178   2.0000      -0.593718       -16.1559
 179   2.0000      -0.588581       -16.0161
 180   2.0000      -0.585307       -15.9270
 181   2.0000      -0.579187       -15.7605
 182   2.0000      -0.576475       -15.6867
 183   2.0000      -0.573770       -15.6131
 184   2.0000      -0.569870       -15.5070
 185   2.0000      -0.566817       -15.4239
 186   2.0000      -0.557741       -15.1769
 187   2.0000      -0.552217       -15.0266
 188   2.0000      -0.549778       -14.9602
 189   2.0000      -0.547678       -14.9031
 190   2.0000      -0.546701       -14.8765
 191   2.0000      -0.545479       -14.8432
 192   2.0000      -0.540761       -14.7149
 193   2.0000      -0.539157       -14.6712
 194   2.0000      -0.535185       -14.5631
 195   2.0000      -0.531041       -14.4504
 196   2.0000      -0.526451       -14.3255
 197   2.0000      -0.523953       -14.2575
 198   2.0000      -0.522523       -14.2186
 199   2.0000      -0.521449       -14.1894
 200   2.0000      -0.518888       -14.1197
 201   2.0000      -0.515452       -14.0262
 202   2.0000      -0.510479       -13.8908
 203   2.0000      -0.509479       -13.8636
 204   2.0000      -0.507962       -13.8224
 205   2.0000      -0.507112       -13.7992
 206   2.0000      -0.502600       -13.6764
 207   2.0000      -0.502153       -13.6643
 208   2.0000      -0.497549       -13.5390
 209   2.0000      -0.494725       -13.4622
 210   2.0000      -0.492288       -13.3958
 211   2.0000      -0.491032       -13.3617
 212   2.0000      -0.487407       -13.2630
 213   2.0000      -0.484668       -13.1885
 214   2.0000      -0.483987       -13.1700
 215   2.0000      -0.483277       -13.1506
 216   2.0000      -0.481283       -13.0964
 217   2.0000      -0.475208       -12.9311
 218   2.0000      -0.474511       -12.9121
 219   2.0000      -0.473761       -12.8917
 220   2.0000      -0.471473       -12.8294
 221   2.0000      -0.470713       -12.8087
 222   2.0000      -0.464969       -12.6525
 223   2.0000      -0.464265       -12.6333
 224   2.0000      -0.462051       -12.5731
 225   2.0000      -0.459850       -12.5131
 226   2.0000      -0.459572       -12.5056
 227   2.0000      -0.457822       -12.4580
 228   2.0000      -0.456760       -12.4291
 229   2.0000      -0.452622       -12.3165
 230   2.0000      -0.452272       -12.3069
 231   2.0000      -0.449987       -12.2448
 232   2.0000      -0.449408       -12.2290
 233   2.0000      -0.447602       -12.1799
 234   2.0000      -0.445328       -12.1180
 235   2.0000      -0.444551       -12.0969
 236   2.0000      -0.443585       -12.0706
 237   2.0000      -0.443477       -12.0676
 238   2.0000      -0.441669       -12.0184
 239   2.0000      -0.438602       -11.9350
 240   2.0000      -0.435703       -11.8561
 241   2.0000      -0.432754       -11.7758
 242   2.0000      -0.428299       -11.6546
 243   2.0000      -0.428166       -11.6510
 244   2.0000      -0.426914       -11.6169
 245   2.0000      -0.425656       -11.5827
 246   2.0000      -0.425573       -11.5804
 247   2.0000      -0.424112       -11.5407
 248   2.0000      -0.421844       -11.4790
 249   2.0000      -0.417708       -11.3664
 250   2.0000      -0.411702       -11.2030
 251   2.0000      -0.411169       -11.1885
 252   2.0000      -0.410340       -11.1659
 253   2.0000      -0.409538       -11.1441
 254   2.0000      -0.409324       -11.1383
 255   2.0000      -0.407327       -11.0839
 256   2.0000      -0.404982       -11.0201
 257   2.0000      -0.401205       -10.9174
 258   2.0000      -0.396121       -10.7790
 259   2.0000      -0.395640       -10.7659
 260   2.0000      -0.390131       -10.6160
 261   2.0000      -0.385360       -10.4862
 262   2.0000      -0.385047       -10.4777
 263   2.0000      -0.377865       -10.2822
 264   2.0000      -0.374830       -10.1996
 265   2.0000      -0.372816       -10.1448
 266   2.0000      -0.371413       -10.1067
 267   2.0000      -0.367844       -10.0095
 268   2.0000      -0.364468        -9.9177
 269   2.0000      -0.354726        -9.6526
 270   2.0000      -0.343631        -9.3507
 271   2.0000      -0.338147        -9.2015
 272   2.0000      -0.327510        -8.9120
 273   2.0000      -0.325962        -8.8699
 274   2.0000      -0.319333        -8.6895
 275   2.0000      -0.318564        -8.6686
 276   2.0000      -0.315926        -8.5968
 277   2.0000      -0.314340        -8.5536
 278   2.0000      -0.303303        -8.2533
 279   2.0000      -0.293052        -7.9744
 280   2.0000      -0.283349        -7.7103
 281   2.0000      -0.262277        -7.1369
 282   2.0000      -0.254287        -6.9195
 283   2.0000      -0.191393        -5.2081
 284   0.0000      -0.133020        -3.6197
 285   0.0000      -0.084554        -2.3008
 286   0.0000      -0.060324        -1.6415
 287   0.0000      -0.056364        -1.5337
 288   0.0000      -0.041325        -1.1245

MULLIKEN ATOMIC CHARGES
-----------------------
   0 C :    0.299921
   1 C :   -0.345010
   2 C :   -0.184608
   3 N :    0.153171
   4 C :   -0.180547
   5 N :    0.151196
   6 C :    0.031203
   7 C :    0.001146
   8 C :   -0.064846
   9 C :    0.118085
  10 C :   -0.086489
  11 C :   -0.029926
  12 S :    0.187095
  13 C :   -0.124026
  14 C :    0.050406
  15 Br:    0.026134
  16 C :    0.129258
  17 O :   -0.163890
  18 C :   -0.049420
  19 C :   -0.059190
  20 C :    0.091288
  21 C :   -0.027262
  22 C :   -0.057041
  23 N :    0.055818
  24 C :   -0.126096
  25 C :   -0.101081
  26 N :    0.011612
  27 C :   -0.210667
  28 N :    0.239984
  29 C :   -0.219866
  30 N :    0.238339
  31 C :    0.115150
  32 C :    0.010520
  33 C :   -0.001943
  34 N :   -0.262616
  35 S :    0.560397
  36 N :   -0.283504
  37 C :   -0.004279
  38 C :   -0.054216
  39 C :   -0.003230
  40 C :    0.126730
  41 C :   -0.064121
  42 C :    0.036710
  43 C :    0.105251
  44 C :    0.024876
  45 C :   -0.138735
  46 C :    0.069578
  47 C :    0.024318
  48 C :    0.067764
  49 C :    0.025015
  50 C :   -0.109703
  51 C :    0.125513
  52 C :   -0.011275
  53 C :   -0.043628
  54 C :   -0.003719
  55 C :    0.012058
  56 C :    0.013515
  57 C :   -0.193205
  58 C :    0.072598
  59 C :    0.210682
  60 N :   -0.152659
  61 C :    0.064912
  62 C :   -0.047084
  63 C :    0.010039
  64 C :   -0.044073
  65 C :    0.040647
  66 C :    0.007606
  67 C :   -0.023687
  68 S :    0.015540
  69 C :   -0.074423
  70 C :    0.029267
  71 C :    0.039219
  72 C :   -0.055355
  73 S :    0.052207
  74 C :   -0.047434
  75 H :   -0.011999
  76 H :   -0.003678
  77 H :   -0.001292
  78 H :    0.036011
  79 H :   -0.024316
  80 H :   -0.030393
  81 H :   -0.015995
  82 H :    0.000001
  83 H :   -0.003285
  84 H :    0.022649
  85 H :    0.009581
  86 H :    0.020259
  87 H :   -0.001168
  88 H :   -0.000253
  89 H :    0.021846
  90 H :    0.009241
  91 H :    0.022698
  92 H :   -0.038865
  93 H :   -0.031496
  94 H :   -0.033856
  95 H :   -0.020369
  96 H :   -0.016412
  97 H :   -0.024554
  98 H :    0.040215
  99 H :    0.004930
 100 H :    0.038349
 101 H :    0.017146
 102 H :    0.017292
 103 H :    0.114916
 104 H :    0.015722
 105 H :   -0.038579
 106 H :   -0.022109
 107 H :   -0.023271
 108 H :   -0.025452
 109 H :   -0.017398
 110 H :   -0.022058
 111 H :    0.009544
 112 H :    0.010486
Sum of atomic charges:   -0.0000000

LOEWDIN ATOMIC CHARGES
----------------------
   0 C :    0.075124
   1 C :   -0.134443
   2 C :   -0.018358
   3 N :   -0.049639
   4 C :   -0.020223
   5 N :   -0.045906
   6 C :   -0.018083
   7 C :   -0.050034
   8 C :    0.026395
   9 C :   -0.025948
  10 C :   -0.139935
  11 C :   -0.009006
  12 S :    0.433776
  13 C :   -0.269222
  14 C :   -0.065736
  15 Br:    0.139590
  16 C :    0.081812
  17 O :   -0.161297
  18 C :   -0.056873
  19 C :    0.064315
  20 C :   -0.036558
  21 C :    0.020841
  22 C :   -0.010417
  23 N :    0.015530
  24 C :   -0.030502
  25 C :   -0.017436
  26 N :    0.013604
  27 C :   -0.033587
  28 N :   -0.005048
  29 C :   -0.036974
  30 N :   -0.006646
  31 C :    0.023645
  32 C :   -0.044771
  33 C :   -0.033552
  34 N :   -0.277975
  35 S :    0.694212
  36 N :   -0.272768
  37 C :   -0.030271
  38 C :    0.002204
  39 C :   -0.002318
  40 C :    0.004142
  41 C :   -0.024375
  42 C :    0.010912
  43 C :   -0.023954
  44 C :    0.008112
  45 C :   -0.035499
  46 C :   -0.011290
  47 C :   -0.057654
  48 C :   -0.011484
  49 C :   -0.057638
  50 C :   -0.021656
  51 C :   -0.017244
  52 C :   -0.015767
  53 C :   -0.011530
  54 C :   -0.015648
  55 C :   -0.022731
  56 C :   -0.042375
  57 C :   -0.042474
  58 C :   -0.056863
  59 C :    0.046503
  60 N :    0.009225
  61 C :    0.050464
  62 C :   -0.141486
  63 C :   -0.036459
  64 C :   -0.182811
  65 C :   -0.024381
  66 C :   -0.064093
  67 C :   -0.170336
  68 S :    0.351827
  69 C :   -0.199506
  70 C :   -0.025018
  71 C :   -0.049552
  72 C :   -0.136219
  73 S :    0.329858
  74 C :   -0.103430
  75 H :    0.039633
  76 H :    0.041406
  77 H :    0.040341
  78 H :    0.048831
  79 H :    0.024846
  80 H :    0.029459
  81 H :    0.028010
  82 H :    0.020668
  83 H :    0.019662
  84 H :    0.025925
  85 H :    0.024477
  86 H :    0.024841
  87 H :    0.020723
  88 H :    0.020398
  89 H :    0.025346
  90 H :    0.024401
  91 H :    0.025836
  92 H :    0.024796
  93 H :    0.025450
  94 H :    0.028028
  95 H :    0.027799
  96 H :    0.022701
  97 H :    0.026650
  98 H :    0.039633
  99 H :    0.024476
 100 H :    0.039396
 101 H :    0.033004
 102 H :    0.025610
 103 H :    0.076012
 104 H :    0.012588
 105 H :    0.019460
 106 H :    0.033092
 107 H :    0.029396
 108 H :    0.026572
 109 H :    0.029994
 110 H :    0.028831
 111 H :    0.023810
 112 H :    0.020806

  Mayer bond orders larger than 0.100000
B(  0-C ,  1-C ) :   1.6335 B(  0-C ,  6-C ) :   1.0117 B(  0-C , 18-C ) :   1.0756
B(  1-C ,  2-C ) :   1.1396 B(  1-C ,  4-C ) :   1.1443 B(  2-C ,  3-N ) :   2.9713
B(  4-C ,  5-N ) :   2.9663 B(  6-C ,  7-C ) :   1.2747 B(  6-C , 11-C ) :   1.4010
B(  7-C ,  8-C ) :   1.4135 B(  7-C , 16-C ) :   0.9378 B(  8-C ,  9-C ) :   1.2548
B(  8-C , 75-H ) :   1.0150 B(  9-C , 10-C ) :   1.3018 B(  9-C , 14-C ) :   1.1670
B( 10-C , 11-C ) :   1.3390 B( 10-C , 12-S ) :   1.0855 B( 11-C , 76-H ) :   0.9787
B( 12-S , 13-C ) :   1.0854 B( 13-C , 14-C ) :   1.6169 B( 13-C , 15-Br) :   1.0207
B( 14-C , 77-H ) :   0.9998 B( 16-C , 17-O ) :   2.2279 B( 16-C , 18-C ) :   0.9027
B( 18-C , 19-C ) :   1.6302 B( 19-C , 20-C ) :   1.1544 B( 19-C , 78-H ) :   0.9359
B( 20-C , 21-C ) :   1.2683 B( 20-C , 31-C ) :   0.1305 B( 20-C , 33-C ) :   1.1980
B( 21-C , 22-C ) :   1.1074 B( 21-C , 26-N ) :   1.3970 B( 22-C , 23-N ) :   1.4283
B( 22-C , 31-C ) :   1.2759 B( 23-N , 24-C ) :   1.7377 B( 24-C , 25-C ) :   1.1976
B( 24-C , 29-C ) :   1.1591 B( 25-C , 26-N ) :   1.6917 B( 25-C , 27-C ) :   1.1644
B( 27-C , 28-N ) :   3.0218 B( 29-C , 30-N ) :   3.0468 B( 31-C , 32-C ) :   1.2441
B( 31-C , 37-C ) :   1.0434 B( 32-C , 33-C ) :   1.1021 B( 32-C , 36-N ) :   1.4830
B( 33-C , 34-N ) :   1.5428 B( 34-N , 35-S ) :   1.2821 B( 34-N , 36-N ) :   0.1554
B( 35-S , 36-N ) :   1.3010 B( 37-C , 38-C ) :   1.2900 B( 37-C , 42-C ) :   1.3444
B( 38-C , 39-C ) :   1.4081 B( 38-C , 79-H ) :   0.9952 B( 39-C , 40-C ) :   1.3527
B( 39-C , 45-C ) :   0.9128 B( 40-C , 41-C ) :   1.3297 B( 40-C , 43-C ) :   0.9985
B( 41-C , 42-C ) :   1.3994 B( 41-C , 80-H ) :   0.9933 B( 42-C , 81-H ) :   0.9776
B( 43-C , 44-C ) :   1.3687 B( 43-C , 53-C ) :   1.3253 B( 44-C , 45-C ) :   0.9142
B( 44-C , 50-C ) :   1.3770 B( 45-C , 46-C ) :   1.0371 B( 45-C , 48-C ) :   1.0393
B( 46-C , 47-C ) :   1.1002 B( 46-C , 82-H ) :   0.9395 B( 46-C , 83-H ) :   0.9395
B( 47-C , 84-H ) :   0.9644 B( 47-C , 85-H ) :   0.9639 B( 47-C , 86-H ) :   0.9649
B( 48-C , 49-C ) :   1.1020 B( 48-C , 87-H ) :   0.9382 B( 48-C , 88-H ) :   0.9397
B( 49-C , 89-H ) :   0.9637 B( 49-C , 90-H ) :   0.9634 B( 49-C , 91-H ) :   0.9648
B( 50-C , 51-C ) :   1.2913 B( 50-C , 92-H ) :   1.0137 B( 51-C , 52-C ) :   1.3503
B( 51-C , 54-C ) :   1.0415 B( 52-C , 53-C ) :   1.4011 B( 52-C , 93-H ) :   0.9828
B( 53-C , 94-H ) :   0.9909 B( 54-C , 55-C ) :   1.7244 B( 54-C , 95-H ) :   0.9882
B( 55-C , 56-C ) :   1.1002 B( 55-C , 96-H ) :   0.9622 B( 56-C , 57-C ) :   1.7948
B( 56-C , 97-H ) :   0.9780 B( 57-C , 58-C ) :   1.0592 B( 57-C , 59-C ) :   1.0477
B( 58-C , 98-H ) :   0.9513 B( 58-C , 99-H ) :   0.9537 B( 58-C ,100-H ) :   0.9458
B( 59-C , 60-N ) :   1.0052 B( 59-C ,101-H ) :   0.9388 B( 59-C ,102-H ) :   0.9294
B( 60-N , 61-C ) :   1.2535 B( 60-N ,103-H ) :   0.9399 B( 61-C , 62-C ) :   1.5593
B( 61-C ,104-H ) :   0.9472 B( 62-C , 63-C ) :   1.2336 B( 62-C ,105-H ) :   0.9597
B( 63-C , 64-C ) :   1.5873 B( 63-C ,106-H ) :   0.9586 B( 64-C , 65-C ) :   1.1530
B( 64-C , 68-S ) :   1.0046 B( 65-C , 66-C ) :   1.5959 B( 65-C ,107-H ) :   0.9968
B( 66-C , 67-C ) :   1.1745 B( 66-C ,108-H ) :   0.9924 B( 67-C , 68-S ) :   1.0379
B( 67-C , 69-C ) :   1.5495 B( 69-C , 70-C ) :   1.1628 B( 69-C , 73-S ) :   1.0243
B( 70-C , 71-C ) :   1.6492 B( 70-C ,109-H ) :   0.9920 B( 71-C , 72-C ) :   1.0849
B( 71-C ,110-H ) :   0.9930 B( 72-C , 73-S ) :   1.0113 B( 72-C , 74-C ) :   1.8564
B( 74-C ,111-H ) :   0.9498 B( 74-C ,112-H ) :   0.9418

-----------------------------------------------------------------------------
         ABSORPTION SPECTRUM VIA TRANSITION ELECTRIC DIPOLE MOMENTS
-----------------------------------------------------------------------------
State   Energy  Wavelength   fosc         T2         TX        TY        TZ
        (cm-1)    (nm)                  (au**2)     (au)      (au)      (au)
-----------------------------------------------------------------------------
   0    6517.1   1534.4   0.005766738   0.29131   0.24110  -0.46122   0.14302
   1   12458.3    802.7   0.669659144  17.69577  -1.30836   3.98588  -0.31097
   2   18185.4    549.9   0.000587082   0.01063   0.01531  -0.10124  -0.01198
   3   18353.8    544.8   0.034170998   0.61293   0.28891  -0.01414   0.72750
   4   19295.0    518.3   0.788941345  13.46092   0.53851   0.23321   3.62168
   5   20591.6    485.6   0.057787183   0.92388   0.10595  -0.30805   0.90430
   6   21422.1    466.8   0.225810381   3.47023   0.21391  -0.65538  -1.73059
   7   21782.8    459.1   0.011580958   0.17503  -0.13747   0.10229   0.38166
   8   22329.6    447.8   0.056238936   0.82915  -0.05547   0.90843   0.02858
   9   22660.5    441.3   0.202095795   2.93605  -0.41531   1.65507   0.15591
  10   23379.0    427.7   0.095043185   1.33835  -0.29328   0.93198  -0.61948
  11   23424.1    426.9   0.006466312   0.09088   0.05552  -0.21463   0.20428
  12   24125.0    414.5   0.015019480   0.20496   0.12152  -0.32436  -0.29152
  13   24443.8    409.1   0.011955521   0.16102   0.13575  -0.16155  -0.34131
  14   25544.4    391.5   0.019312282   0.24889   0.00797  -0.16484   0.47080
  15   26659.6    375.1   0.021627818   0.26708  -0.01734  -0.49110  -0.15998
  16   27223.8    367.3   0.160093815   1.93598   0.35694  -1.33383   0.17171
  17   27418.2    364.7   0.001459601   0.01753  -0.03065   0.12875  -0.00316
  18   27521.1    363.4   0.009295124   0.11119   0.20971  -0.18093  -0.18568
  19   28561.9    350.1   0.018583856   0.21420  -0.05393  -0.03143   0.45859
  20   29022.1    344.6   0.226740060   2.57202  -0.22652   0.20158  -1.57483
  21   29614.6    337.7   0.029422673   0.32708   0.45814  -0.19848  -0.27891
  22   29856.2    334.9   0.048673867   0.53671  -0.26943   0.10263  -0.67348
  23   30084.3    332.4   0.013911123   0.15223  -0.36448   0.01499   0.13842
  24   30314.4    329.9   0.155881864   1.69286   0.75276  -0.76910   0.73123
  25   31034.0    322.2   0.010980684   0.11648   0.06489  -0.27178   0.19598
  26   31095.9    321.6   0.000107559   0.00114  -0.00908   0.01531   0.02867
  27   31481.8    317.6   0.268222878   2.80486  -1.01730   1.16238  -0.64717
  28   31677.9    315.7   0.387454995   4.02662  -1.19424   1.47616  -0.64914
  29   31859.1    313.9   0.582811100   6.02241  -0.81223   2.15197  -0.85541
  30   32584.9    306.9   0.000269676   0.00272  -0.02055  -0.02718   0.03954
  31   32707.0    305.7   0.075841357   0.76338  -0.48444   0.27554   0.67289
  32   33217.8    301.0   0.568342226   5.63268  -0.39143   1.86628   1.41297
  33   33559.6    298.0   0.033669064   0.33029   0.03957   0.00198  -0.57334
  34   33836.5    295.5   0.481831230   4.68797   0.21653  -0.53815  -2.08602
  35   33898.8    295.0   0.075419611   0.73245   0.36450  -0.59952  -0.49006
  36   34330.2    291.3   0.316229788   3.03251   1.35179   1.04438   0.33829
  37   34569.0    289.3   0.000147200   0.00140   0.03723  -0.00245   0.00316
  38   35260.2    283.6   0.236620057   2.20924   0.71206  -0.47821   1.21389
  39   35600.2    280.9   0.118124390   1.09235   0.44476   0.06104   0.94383
  40   35646.2    280.5   0.179056785   1.65369  -0.70758   0.08587  -1.07035
  41   35763.3    279.6   0.000163670   0.00151  -0.00044  -0.03020  -0.02438
  42   35954.7    278.1   0.011448058   0.10482   0.00138   0.18213   0.26767
  43   36057.4    277.3   0.011998103   0.10955  -0.19631   0.21682  -0.15492
  44   36249.9    275.9   0.006198177   0.05629  -0.04452  -0.17590  -0.15286
  45   36481.9    274.1   0.027168563   0.24517  -0.31679  -0.20816  -0.31857
  46   36670.5    272.7   0.091813155   0.82426   0.42339  -0.53060   0.60288
  47   36741.2    272.2   0.032845094   0.29430   0.47765  -0.11665  -0.22923
  48   37026.8    270.1   0.009386290   0.08346  -0.13620   0.11768   0.22595
  49   37117.5    269.4   0.030949940   0.27451  -0.25160  -0.00201  -0.45957
  50   37696.6    265.3   0.068111754   0.59483  -0.20289   0.57555   0.47160
  51   37996.9    263.2   0.102464672   0.88777  -0.55043   0.75767  -0.10360
  52   38474.6    259.9   0.069060052   0.59092  -0.15800   0.39712   0.63895
  53   38779.8    257.9   0.001302714   0.01106  -0.06864   0.05704   0.05563
  54   39139.3    255.5   0.011601976   0.09759   0.01921  -0.21745   0.22346
  55   39220.7    255.0   0.011345666   0.09523  -0.05623  -0.30319   0.01226
  56   39319.0    254.3   0.028906659   0.24203   0.30900  -0.35311   0.14786
  57   39480.6    253.3   0.017127195   0.14282   0.15801  -0.17950  -0.29263
  58   39561.9    252.8   0.019830332   0.16502  -0.04768  -0.40324  -0.01187
  59   39672.1    252.1   0.003142311   0.02608  -0.00312   0.16044   0.01805

FINAL SINGLE POINT ENERGY     -7039.650138504606

DIPOLE MOMENT
-------------
                                X             Y             Z
Electronic contribution:    116.23099    -287.91113     133.13697
Nuclear contribution   :   -117.41609     290.45998    -132.23037
                        -----------------------------------------
Total Dipole Moment    :     -1.18510       2.54885       0.90660
                        -----------------------------------------
Magnitude (a.u.)       :      2.95348
Magnitude (Debye)      :      7.50714

Rotational constants in cm-1:     0.001683     0.000162     0.000152
Rotational constants in MHz :    50.458378     4.855610     4.564049

                             ****ORCA TERMINATED NORMALLY****
TOTAL RUN TIME: 0 days 0 hours 11 minutes 20 seconds 127 msec
