                         Program Version 4.2.0 -  RELEASE  -
|  1> # ORCA input file
|  2> # SCF done       -182.613890400758          0.000628027305
|  3> ! CAM-B3LYP def2-SVP def2/J RIJCOSX Grid4 TightSCF
|  4> %maxcore 5000
|  5> %tddft
|  6>     Mode sTDDFT
|  7>     Ethresh 5.0
|  8>     maxcore 5000
|  9> end
| 10>
| 11> %pal
| 12>   nprocs 6
| 13>   end
| 14> * xyz 0 1
| 15>    C       -8.27478        -3.19917         2.38206
| 16>    C       -7.63631        -3.82947         3.41423
| 17>    C       -7.72348        -5.21480         3.67455
| 18>    N       -7.75202        -6.33074         3.94050
| 19>    C       -6.80870        -3.20358         4.37154
| 20>    N       -6.12836        -2.77404         5.19044
| 21>    C       -9.15140        -3.83322         1.40940
| 22>    C       -9.64098        -2.85042         0.51295
| 23>    C      -10.50812        -3.14661        -0.51150
| 24>    C      -10.91502        -4.47583        -0.65944
| 25>    C      -10.41849        -5.45302         0.23828
| 26>    C       -9.54135        -5.15479         1.27184
| 27>    S      -11.04763        -7.03138        -0.12412
| 28>    C      -11.95795        -6.36745        -1.45514
| 29>    C      -11.79923        -5.03267        -1.62289
| 30>   Br      -13.02987        -7.49844        -2.49691
| 31>    C       -9.08387        -1.53512         0.86786
| 32>    O       -9.25082        -0.49380         0.27471
| 33>    C       -8.23847        -1.77125         2.07559
| 34>    C       -7.60207        -0.80378         2.76168
| 35>    C       -7.78764         0.62979         2.49578
| 36>    S       -6.38775         1.73821         3.01089
| 37>    C       -7.71546         2.14131         4.06410
| 38>    C       -8.62501         1.27143         3.58486
| 39>    C       -9.96461         0.85624         3.97932
| 40>    O      -10.52703        -0.11634         3.52777
| 41>    O      -10.47733         1.67055         4.90781
| 42>    C      -11.78150         1.32743         5.41082
| 43>    C      -11.72270         0.15480         6.33080
| 44>    C      -11.60105         0.25108         7.66742
| 45>    C      -11.50242        -0.83120         8.60292
| 46>    C      -11.40106        -0.44889         9.89497
| 47>    C      -11.41115         0.95894        10.09221
| 48>    S      -11.56198         1.78367         8.54422
| 49>    C      -11.30447         1.63991        11.27552
| 50>    C      -11.13776         1.11024        12.58335
| 51>    C      -11.03116         2.04359        13.55997
| 52>    C      -11.11036         3.38619        13.09866
| 53>    S      -11.33860         3.39287        11.33817
| 54>    C      -11.01903         4.52598        13.82970
| 55>    N      -11.11460         5.76320        13.27391
| 56>    C      -10.99820         6.97508        13.91520
| 57>    C      -10.83273         7.18184        15.25612
| 58>    S      -10.73880         8.85329        15.64840
| 59>    C      -10.91063         9.30084        14.00636
| 60>    C      -11.04401         8.21703        13.18978
| 61>    N      -11.16467         8.24003        11.79736
| 62>    C      -11.82971         9.13272        11.03651
| 63>    C      -12.65423        10.13199        11.45717
| 64>    C      -13.32078        10.94042        10.52043
| 65>    C      -14.18596        11.98068        10.73336
| 66>    C      -14.53152        12.74036        11.90815
| 67>    C      -13.72759        13.00245        12.99153
| 68>    C      -14.11372        13.79802        14.08810
| 69>    N      -14.38278        14.41934        15.01556
| 70>    C      -12.38301        12.60508        13.08377
| 71>    N      -11.26790        12.34785        13.19171
| 72>    C      -15.80826        13.39987        11.64292
| 73>    C      -16.12455        13.23700        10.27132
| 74>    C      -15.08810        12.39599         9.63421
| 75>    O      -15.01345        12.07361         8.46820
| 76>    C      -17.24788        13.78573         9.70401
| 77>    C      -18.10675        14.51778        10.53189
| 78>    C      -17.79021        14.65940        11.90309
| 79>    C      -16.64748        14.11360        12.47581
| 80>    S      -18.99437        15.58765        12.74506
| 81>    C      -19.89173        15.77463        11.26193
| 82>    C      -19.32228        15.17291        10.19123
| 83>   Br      -21.49738        16.74485        11.26857
| 84>    H      -10.86400        -2.37386        -1.17461
| 85>    H       -9.19308        -5.93476         1.92799
| 86>    H      -12.28569        -4.46283        -2.39331
| 87>    H       -7.00018        -1.04227         3.62815
| 88>    H       -8.11904         0.84697         1.48165
| 89>    H       -7.72721         2.87658         4.84416
| 90>    H      -12.43341         1.10892         4.55805
| 91>    H      -12.11594         2.22673         5.93232
| 92>    H      -11.71120        -0.82213         5.87121
| 93>    H      -11.50982        -1.85097         8.26189
| 94>    H      -11.31916        -1.13002        10.72338
| 95>    H      -11.09630         0.04966        12.75335
| 96>    H      -10.89578         1.82341        14.60399
| 97>    H      -10.85219         4.47787        14.89343
| 98>    H      -11.33094         5.77826        12.28596
| 99>    H      -10.77019         6.45789        16.04109
|100>    H      -10.86826        10.33747        13.73068
|101>    H      -10.63749         7.53020        11.30744
|102>    H      -11.68223         8.99650         9.97232
|103>    H      -12.83889        10.27086        12.50923
|104>    H      -13.21865        10.65939         9.47644
|105>    H      -17.45998        13.65540         8.65444
|106>    H      -16.44990        14.24438        13.52687
|107>    H      -19.74047        15.18837         9.20135
|108> *
|109>
|110>                          ****END OF INPUT****

CARTESIAN COORDINATES (ANGSTROEM)
---------------------------------
  C     -8.274780   -3.199170    2.382060
  C     -7.636310   -3.829470    3.414230
  C     -7.723480   -5.214800    3.674550
  N     -7.752020   -6.330740    3.940500
  C     -6.808700   -3.203580    4.371540
  N     -6.128360   -2.774040    5.190440
  C     -9.151400   -3.833220    1.409400
  C     -9.640980   -2.850420    0.512950
  C    -10.508120   -3.146610   -0.511500
  C    -10.915020   -4.475830   -0.659440
  C    -10.418490   -5.453020    0.238280
  C     -9.541350   -5.154790    1.271840
  S    -11.047630   -7.031380   -0.124120
  C    -11.957950   -6.367450   -1.455140
  C    -11.799230   -5.032670   -1.622890
  Br   -13.029870   -7.498440   -2.496910
  C     -9.083870   -1.535120    0.867860
  O     -9.250820   -0.493800    0.274710
  C     -8.238470   -1.771250    2.075590
  C     -7.602070   -0.803780    2.761680
  C     -7.787640    0.629790    2.495780
  S     -6.387750    1.738210    3.010890
  C     -7.715460    2.141310    4.064100
  C     -8.625010    1.271430    3.584860
  C     -9.964610    0.856240    3.979320
  O    -10.527030   -0.116340    3.527770
  O    -10.477330    1.670550    4.907810
  C    -11.781500    1.327430    5.410820
  C    -11.722700    0.154800    6.330800
  C    -11.601050    0.251080    7.667420
  C    -11.502420   -0.831200    8.602920
  C    -11.401060   -0.448890    9.894970
  C    -11.411150    0.958940   10.092210
  S    -11.561980    1.783670    8.544220
  C    -11.304470    1.639910   11.275520
  C    -11.137760    1.110240   12.583350
  C    -11.031160    2.043590   13.559970
  C    -11.110360    3.386190   13.098660
  S    -11.338600    3.392870   11.338170
  C    -11.019030    4.525980   13.829700
  N    -11.114600    5.763200   13.273910
  C    -10.998200    6.975080   13.915200
  C    -10.832730    7.181840   15.256120
  S    -10.738800    8.853290   15.648400
  C    -10.910630    9.300840   14.006360
  C    -11.044010    8.217030   13.189780
  N    -11.164670    8.240030   11.797360
  C    -11.829710    9.132720   11.036510
  C    -12.654230   10.131990   11.457170
  C    -13.320780   10.940420   10.520430
  C    -14.185960   11.980680   10.733360
  C    -14.531520   12.740360   11.908150
  C    -13.727590   13.002450   12.991530
  C    -14.113720   13.798020   14.088100
  N    -14.382780   14.419340   15.015560
  C    -12.383010   12.605080   13.083770
  N    -11.267900   12.347850   13.191710
  C    -15.808260   13.399870   11.642920
  C    -16.124550   13.237000   10.271320
  C    -15.088100   12.395990    9.634210
  O    -15.013450   12.073610    8.468200
  C    -17.247880   13.785730    9.704010
  C    -18.106750   14.517780   10.531890
  C    -17.790210   14.659400   11.903090
  C    -16.647480   14.113600   12.475810
  S    -18.994370   15.587650   12.745060
  C    -19.891730   15.774630   11.261930
  C    -19.322280   15.172910   10.191230
  Br   -21.497380   16.744850   11.268570
  H    -10.864000   -2.373860   -1.174610
  H     -9.193080   -5.934760    1.927990
  H    -12.285690   -4.462830   -2.393310
  H     -7.000180   -1.042270    3.628150
  H     -8.119040    0.846970    1.481650
  H     -7.727210    2.876580    4.844160
  H    -12.433410    1.108920    4.558050
  H    -12.115940    2.226730    5.932320
  H    -11.711200   -0.822130    5.871210
  H    -11.509820   -1.850970    8.261890
  H    -11.319160   -1.130020   10.723380
  H    -11.096300    0.049660   12.753350
  H    -10.895780    1.823410   14.603990
  H    -10.852190    4.477870   14.893430
  H    -11.330940    5.778260   12.285960
  H    -10.770190    6.457890   16.041090
  H    -10.868260   10.337470   13.730680
  H    -10.637490    7.530200   11.307440
  H    -11.682230    8.996500    9.972320
  H    -12.838890   10.270860   12.509230
  H    -13.218650   10.659390    9.476440
  H    -17.459980   13.655400    8.654440
  H    -16.449900   14.244380   13.526870
  H    -19.740470   15.188370    9.201350

 Total Charge           Charge          ....    0
 Multiplicity           Mult            ....    1
 Number of Electrons    NEL             ....  570
 Basis Dimension        Dim             .... 1146

ORBITAL ENERGIES
----------------

  NO   OCC          E(Eh)            E(eV)
   0   2.0000    -482.888165    -13140.0550
   1   2.0000    -482.881446    -13139.8722
   2   2.0000     -88.978218     -2421.2204
   3   2.0000     -88.970278     -2421.0043
   4   2.0000     -88.961370     -2420.7619
   5   2.0000     -88.948143     -2420.4020
   6   2.0000     -88.946485     -2420.3569
   7   2.0000     -88.938031     -2420.1269
   8   2.0000     -62.565853     -1702.5034
   9   2.0000     -62.559164     -1702.3214
  10   2.0000     -56.399806     -1534.7167
  11   2.0000     -56.397084     -1534.6427
  12   2.0000     -56.397057     -1534.6419
  13   2.0000     -56.393110     -1534.5345
  14   2.0000     -56.390405     -1534.4609
  15   2.0000     -56.390368     -1534.4599
  16   2.0000     -19.256760      -524.0031
  17   2.0000     -19.221002      -523.0300
  18   2.0000     -19.204368      -522.5774
  19   2.0000     -19.203539      -522.5549
  20   2.0000     -14.487351      -394.2209
  21   2.0000     -14.470091      -393.7512
  22   2.0000     -14.418924      -392.3589
  23   2.0000     -14.418823      -392.3561
  24   2.0000     -14.413142      -392.2015
  25   2.0000     -14.408293      -392.0696
  26   2.0000     -10.402208      -283.0585
  27   2.0000     -10.370988      -282.2089
  28   2.0000     -10.361965      -281.9634
  29   2.0000     -10.355672      -281.7922
  30   2.0000     -10.354964      -281.7729
  31   2.0000     -10.353604      -281.7359
  32   2.0000     -10.346681      -281.5475
  33   2.0000     -10.344712      -281.4939
  34   2.0000     -10.335370      -281.2397
  35   2.0000     -10.333352      -281.1848
  36   2.0000     -10.333221      -281.1812
  37   2.0000     -10.332910      -281.1728
  38   2.0000     -10.328872      -281.0629
  39   2.0000     -10.328741      -281.0593
  40   2.0000     -10.327573      -281.0275
  41   2.0000     -10.323569      -280.9186
  42   2.0000     -10.321470      -280.8615
  43   2.0000     -10.321055      -280.8502
  44   2.0000     -10.319533      -280.8088
  45   2.0000     -10.319380      -280.8046
  46   2.0000     -10.319020      -280.7948
  47   2.0000     -10.318337      -280.7762
  48   2.0000     -10.313141      -280.6348
  49   2.0000     -10.311996      -280.6037
  50   2.0000     -10.311480      -280.5896
  51   2.0000     -10.311291      -280.5845
  52   2.0000     -10.310915      -280.5743
  53   2.0000     -10.308574      -280.5106
  54   2.0000     -10.305187      -280.4184
  55   2.0000     -10.303808      -280.3809
  56   2.0000     -10.303697      -280.3779
  57   2.0000     -10.303240      -280.3654
  58   2.0000     -10.301264      -280.3116
  59   2.0000     -10.301154      -280.3086
  60   2.0000     -10.300805      -280.2992
  61   2.0000     -10.299320      -280.2588
  62   2.0000     -10.299238      -280.2565
  63   2.0000     -10.296628      -280.1855
  64   2.0000     -10.295058      -280.1428
  65   2.0000     -10.294883      -280.1380
  66   2.0000     -10.294517      -280.1280
  67   2.0000     -10.293976      -280.1133
  68   2.0000     -10.291772      -280.0534
  69   2.0000     -10.290689      -280.0239
  70   2.0000     -10.286702      -279.9154
  71   2.0000     -10.285136      -279.8728
  72   2.0000     -10.284059      -279.8435
  73   2.0000     -10.280307      -279.7414
  74   2.0000     -10.279651      -279.7235
  75   2.0000     -10.278719      -279.6982
  76   2.0000     -10.266165      -279.3565
  77   2.0000      -8.795278      -239.3317
  78   2.0000      -8.788586      -239.1496
  79   2.0000      -8.074223      -219.7108
  80   2.0000      -8.066302      -219.4952
  81   2.0000      -8.057266      -219.2494
  82   2.0000      -8.044373      -218.8985
  83   2.0000      -8.042669      -218.8522
  84   2.0000      -8.034431      -218.6280
  85   2.0000      -6.631560      -180.4539
  86   2.0000      -6.624876      -180.2720
  87   2.0000      -6.617031      -180.0586
  88   2.0000      -6.616805      -180.0524
  89   2.0000      -6.610309      -179.8757
  90   2.0000      -6.610149      -179.8713
  91   2.0000      -6.043923      -164.4635
  92   2.0000      -6.039631      -164.3467
  93   2.0000      -6.035985      -164.2475
  94   2.0000      -6.035433      -164.2325
  95   2.0000      -6.031734      -164.1318
  96   2.0000      -6.027515      -164.0170
  97   2.0000      -6.026698      -163.9948
  98   2.0000      -6.022258      -163.8740
  99   2.0000      -6.019362      -163.7952
 100   2.0000      -6.014261      -163.6564
 101   2.0000      -6.012302      -163.6031
 102   2.0000      -6.010426      -163.5520
 103   2.0000      -6.009288      -163.5210
 104   2.0000      -6.004930      -163.4025
 105   2.0000      -6.004269      -163.3845
 106   2.0000      -6.002660      -163.3407
 107   2.0000      -6.000422      -163.2798
 108   2.0000      -5.994969      -163.1314
 109   2.0000      -2.747485       -74.7629
 110   2.0000      -2.743327       -74.6497
 111   2.0000      -2.743181       -74.6457
 112   2.0000      -2.740730       -74.5791
 113   2.0000      -2.736672       -74.4686
 114   2.0000      -2.736530       -74.4648
 115   2.0000      -2.731621       -74.3312
 116   2.0000      -2.731618       -74.3311
 117   2.0000      -2.724971       -74.1502
 118   2.0000      -2.724948       -74.1496
 119   2.0000      -1.188018       -32.3276
 120   2.0000      -1.136402       -30.9231
 121   2.0000      -1.118341       -30.4316
 122   2.0000      -1.095571       -29.8120
 123   2.0000      -1.090318       -29.6691
 124   2.0000      -1.063972       -28.9521
 125   2.0000      -1.025796       -27.9133
 126   2.0000      -1.016885       -27.6708
 127   2.0000      -1.016555       -27.6619
 128   2.0000      -1.008803       -27.4509
 129   2.0000      -0.998336       -27.1661
 130   2.0000      -0.996947       -27.1283
 131   2.0000      -0.991591       -26.9826
 132   2.0000      -0.990478       -26.9523
 133   2.0000      -0.990380       -26.9496
 134   2.0000      -0.982516       -26.7356
 135   2.0000      -0.979762       -26.6607
 136   2.0000      -0.965582       -26.2748
 137   2.0000      -0.944719       -25.7071
 138   2.0000      -0.937582       -25.5129
 139   2.0000      -0.912155       -24.8210
 140   2.0000      -0.911544       -24.8044
 141   2.0000      -0.902526       -24.5590
 142   2.0000      -0.900314       -24.4988
 143   2.0000      -0.892679       -24.2910
 144   2.0000      -0.888848       -24.1868
 145   2.0000      -0.879937       -23.9443
 146   2.0000      -0.876934       -23.8626
 147   2.0000      -0.870167       -23.6784
 148   2.0000      -0.861907       -23.4537
 149   2.0000      -0.851130       -23.1604
 150   2.0000      -0.842526       -22.9263
 151   2.0000      -0.832213       -22.6457
 152   2.0000      -0.831300       -22.6208
 153   2.0000      -0.823640       -22.4124
 154   2.0000      -0.820465       -22.3260
 155   2.0000      -0.815491       -22.1906
 156   2.0000      -0.811661       -22.0864
 157   2.0000      -0.796247       -21.6670
 158   2.0000      -0.789303       -21.4780
 159   2.0000      -0.766552       -20.8589
 160   2.0000      -0.763789       -20.7838
 161   2.0000      -0.763090       -20.7647
 162   2.0000      -0.750848       -20.4316
 163   2.0000      -0.744374       -20.2555
 164   2.0000      -0.726654       -19.7732
 165   2.0000      -0.720115       -19.5953
 166   2.0000      -0.701660       -19.0931
 167   2.0000      -0.699540       -19.0354
 168   2.0000      -0.693898       -18.8819
 169   2.0000      -0.691278       -18.8106
 170   2.0000      -0.689736       -18.7687
 171   2.0000      -0.683073       -18.5874
 172   2.0000      -0.677379       -18.4324
 173   2.0000      -0.674655       -18.3583
 174   2.0000      -0.663094       -18.0437
 175   2.0000      -0.659806       -17.9542
 176   2.0000      -0.658837       -17.9279
 177   2.0000      -0.654825       -17.8187
 178   2.0000      -0.645433       -17.5631
 179   2.0000      -0.635389       -17.2898
 180   2.0000      -0.633656       -17.2426
 181   2.0000      -0.628024       -17.0894
 182   2.0000      -0.627732       -17.0815
 183   2.0000      -0.624244       -16.9865
 184   2.0000      -0.617385       -16.7999
 185   2.0000      -0.616126       -16.7656
 186   2.0000      -0.612631       -16.6705
 187   2.0000      -0.608900       -16.5690
 188   2.0000      -0.598277       -16.2799
 189   2.0000      -0.594516       -16.1776
 190   2.0000      -0.591034       -16.0829
 191   2.0000      -0.584564       -15.9068
 192   2.0000      -0.577549       -15.7159
 193   2.0000      -0.572192       -15.5701
 194   2.0000      -0.570802       -15.5323
 195   2.0000      -0.560537       -15.2530
 196   2.0000      -0.557315       -15.1653
 197   2.0000      -0.552527       -15.0350
 198   2.0000      -0.549082       -14.9413
 199   2.0000      -0.544460       -14.8155
 200   2.0000      -0.542773       -14.7696
 201   2.0000      -0.537182       -14.6175
 202   2.0000      -0.535327       -14.5670
 203   2.0000      -0.533302       -14.5119
 204   2.0000      -0.532771       -14.4974
 205   2.0000      -0.528641       -14.3851
 206   2.0000      -0.527346       -14.3498
 207   2.0000      -0.524624       -14.2758
 208   2.0000      -0.522002       -14.2044
 209   2.0000      -0.519215       -14.1286
 210   2.0000      -0.516066       -14.0429
 211   2.0000      -0.514015       -13.9871
 212   2.0000      -0.510860       -13.9012
 213   2.0000      -0.510099       -13.8805
 214   2.0000      -0.506306       -13.7773
 215   2.0000      -0.502985       -13.6869
 216   2.0000      -0.502500       -13.6737
 217   2.0000      -0.499821       -13.6008
 218   2.0000      -0.496919       -13.5219
 219   2.0000      -0.495345       -13.4790
 220   2.0000      -0.493779       -13.4364
 221   2.0000      -0.493061       -13.4169
 222   2.0000      -0.490980       -13.3603
 223   2.0000      -0.487619       -13.2688
 224   2.0000      -0.487319       -13.2606
 225   2.0000      -0.482715       -13.1353
 226   2.0000      -0.479643       -13.0518
 227   2.0000      -0.476660       -12.9706
 228   2.0000      -0.474076       -12.9003
 229   2.0000      -0.471086       -12.8189
 230   2.0000      -0.463652       -12.6166
 231   2.0000      -0.461171       -12.5491
 232   2.0000      -0.460302       -12.5255
 233   2.0000      -0.455752       -12.4016
 234   2.0000      -0.451949       -12.2982
 235   2.0000      -0.451748       -12.2927
 236   2.0000      -0.450042       -12.2463
 237   2.0000      -0.447750       -12.1839
 238   2.0000      -0.444475       -12.0948
 239   2.0000      -0.442590       -12.0435
 240   2.0000      -0.440971       -11.9994
 241   2.0000      -0.440134       -11.9766
 242   2.0000      -0.438014       -11.9190
 243   2.0000      -0.437204       -11.8969
 244   2.0000      -0.435932       -11.8623
 245   2.0000      -0.434732       -11.8297
 246   2.0000      -0.432961       -11.7815
 247   2.0000      -0.432527       -11.7697
 248   2.0000      -0.430263       -11.7081
 249   2.0000      -0.426534       -11.6066
 250   2.0000      -0.424717       -11.5571
 251   2.0000      -0.423723       -11.5301
 252   2.0000      -0.420652       -11.4465
 253   2.0000      -0.420096       -11.4314
 254   2.0000      -0.412185       -11.2161
 255   2.0000      -0.412087       -11.2135
 256   2.0000      -0.410781       -11.1779
 257   2.0000      -0.404821       -11.0157
 258   2.0000      -0.399314       -10.8659
 259   2.0000      -0.398386       -10.8406
 260   2.0000      -0.390430       -10.6241
 261   2.0000      -0.386542       -10.5183
 262   2.0000      -0.381214       -10.3734
 263   2.0000      -0.378472       -10.2988
 264   2.0000      -0.377369       -10.2687
 265   2.0000      -0.377263       -10.2658
 266   2.0000      -0.371656       -10.1133
 267   2.0000      -0.371006       -10.0956
 268   2.0000      -0.355945        -9.6857
 269   2.0000      -0.351909        -9.5759
 270   2.0000      -0.339751        -9.2451
 271   2.0000      -0.337102        -9.1730
 272   2.0000      -0.333123        -9.0647
 273   2.0000      -0.329276        -8.9600
 274   2.0000      -0.326308        -8.8793
 275   2.0000      -0.319797        -8.7021
 276   2.0000      -0.318090        -8.6557
 277   2.0000      -0.316869        -8.6224
 278   2.0000      -0.309410        -8.4195
 279   2.0000      -0.297452        -8.0941
 280   2.0000      -0.294126        -8.0036
 281   2.0000      -0.289339        -7.8733
 282   2.0000      -0.282772        -7.6946
 283   2.0000      -0.266924        -7.2634
 284   2.0000      -0.216004        -5.8778
 285   0.0000      -0.086409        -2.3513
 286   0.0000      -0.078180        -2.1274
 287   0.0000      -0.055175        -1.5014
 288   0.0000      -0.053791        -1.4637
 289   0.0000      -0.046807        -1.2737

MULLIKEN ATOMIC CHARGES
-----------------------
   0 C :    0.326323
   1 C :   -0.342354
   2 C :   -0.187414
   3 N :    0.154147
   4 C :   -0.195408
   5 N :    0.156702
   6 C :    0.016679
   7 C :   -0.020039
   8 C :   -0.062954
   9 C :    0.119022
  10 C :   -0.092496
  11 C :   -0.018158
  12 S :    0.187978
  13 C :   -0.122092
  14 C :    0.038274
  15 Br:    0.027140
  16 C :    0.167573
  17 O :   -0.147464
  18 C :   -0.023124
  19 C :    0.007757
  20 C :   -0.115297
  21 S :    0.067208
  22 C :   -0.010452
  23 C :   -0.050432
  24 C :    0.221463
  25 O :   -0.222916
  26 O :   -0.301712
  27 C :    0.301646
  28 C :   -0.177376
  29 C :    0.011383
  30 C :    0.040641
  31 C :    0.033410
  32 C :   -0.064743
  33 S :    0.045749
  34 C :   -0.040178
  35 C :    0.019278
  36 C :    0.047632
  37 C :   -0.050338
  38 S :    0.015892
  39 C :    0.040464
  40 N :   -0.051413
  41 C :    0.133013
  42 C :   -0.228246
  43 S :    0.144784
  44 C :   -0.152863
  45 C :    0.107216
  46 N :   -0.052476
  47 C :    0.068545
  48 C :   -0.030769
  49 C :    0.022817
  50 C :   -0.133798
  51 C :    0.293236
  52 C :   -0.360283
  53 C :   -0.176944
  54 N :    0.140986
  55 C :   -0.148766
  56 N :    0.123264
  57 C :   -0.000635
  58 C :   -0.000545
  59 C :    0.139882
  60 O :   -0.155807
  61 C :   -0.075778
  62 C :    0.113678
  63 C :   -0.088708
  64 C :   -0.022188
  65 S :    0.181316
  66 C :   -0.123260
  67 C :    0.037778
  68 Br:    0.018401
  69 H :   -0.008390
  70 H :   -0.006535
  71 H :   -0.001004
  72 H :    0.023400
  73 H :    0.096014
  74 H :    0.032636
  75 H :    0.024914
  76 H :    0.021767
  77 H :    0.010657
  78 H :   -0.010652
  79 H :   -0.011190
  80 H :   -0.014372
  81 H :   -0.012665
  82 H :    0.008101
  83 H :    0.111036
  84 H :    0.016133
  85 H :    0.014634
  86 H :    0.143290
  87 H :    0.027503
  88 H :    0.023136
  89 H :    0.009204
  90 H :   -0.011803
  91 H :   -0.004740
  92 H :   -0.004927
Sum of atomic charges:   -0.0000000

LOEWDIN ATOMIC CHARGES
----------------------
   0 C :    0.080409
   1 C :   -0.132453
   2 C :   -0.017301
   3 N :   -0.050327
   4 C :   -0.020102
   5 N :   -0.044867
   6 C :   -0.019548
   7 C :   -0.047937
   8 C :    0.025627
   9 C :   -0.030349
  10 C :   -0.142322
  11 C :   -0.008554
  12 S :    0.433588
  13 C :   -0.270153
  14 C :   -0.070000
  15 Br:    0.139619
  16 C :    0.094789
  17 O :   -0.132870
  18 C :   -0.076938
  19 C :    0.068233
  20 C :   -0.075022
  21 S :    0.303977
  22 C :   -0.074543
  23 C :   -0.120161
  24 C :    0.078302
  25 O :   -0.191679
  26 O :   -0.089373
  27 C :    0.086403
  28 C :   -0.098080
  29 C :   -0.127300
  30 C :   -0.038447
  31 C :   -0.021893
  32 C :   -0.192888
  33 S :    0.335139
  34 C :   -0.165662
  35 C :   -0.050536
  36 C :   -0.022921
  37 C :   -0.198450
  38 S :    0.319787
  39 C :    0.014033
  40 N :    0.027289
  41 C :   -0.022994
  42 C :   -0.244369
  43 S :    0.465246
  44 C :   -0.185552
  45 C :   -0.054711
  46 N :    0.047605
  47 C :    0.088827
  48 C :   -0.103419
  49 C :    0.078197
  50 C :   -0.126529
  51 C :    0.079821
  52 C :   -0.159097
  53 C :   -0.020960
  54 N :   -0.061578
  55 C :    0.002039
  56 N :   -0.070445
  57 C :   -0.018706
  58 C :   -0.050092
  59 C :    0.081286
  60 O :   -0.157199
  61 C :    0.019569
  62 C :   -0.034906
  63 C :   -0.145134
  64 C :   -0.013551
  65 S :    0.428896
  66 C :   -0.273566
  67 C :   -0.070457
  68 Br:    0.132702
  69 H :    0.042133
  70 H :    0.041152
  71 H :    0.039645
  72 H :    0.041327
  73 H :    0.043474
  74 H :    0.027190
  75 H :    0.028994
  76 H :    0.021527
  77 H :    0.031135
  78 H :    0.034048
  79 H :    0.032618
  80 H :    0.031607
  81 H :    0.033412
  82 H :    0.035532
  83 H :    0.066121
  84 H :    0.019699
  85 H :    0.022732
  86 H :    0.089476
  87 H :    0.038528
  88 H :    0.032705
  89 H :    0.040663
  90 H :    0.040269
  91 H :    0.040360
  92 H :    0.038212

  Mayer bond orders larger than 0.100000
B(  0-C ,  1-C ) :   1.6545 B(  0-C ,  6-C ) :   1.0154 B(  0-C , 18-C ) :   1.0431
B(  1-C ,  2-C ) :   1.1368 B(  1-C ,  4-C ) :   1.1439 B(  2-C ,  3-N ) :   2.9717
B(  4-C ,  5-N ) :   2.9699 B(  6-C ,  7-C ) :   1.2740 B(  6-C , 11-C ) :   1.3991
B(  7-C ,  8-C ) :   1.4204 B(  7-C , 16-C ) :   0.9494 B(  8-C ,  9-C ) :   1.2519
B(  8-C , 69-H ) :   1.0154 B(  9-C , 10-C ) :   1.2985 B(  9-C , 14-C ) :   1.1625
B( 10-C , 11-C ) :   1.3417 B( 10-C , 12-S ) :   1.0865 B( 11-C , 70-H ) :   0.9780
B( 12-S , 13-C ) :   1.0849 B( 13-C , 14-C ) :   1.6181 B( 13-C , 15-Br) :   1.0214
B( 14-C , 71-H ) :   1.0001 B( 16-C , 17-O ) :   2.2027 B( 16-C , 18-C ) :   0.9227
B( 18-C , 19-C ) :   1.7464 B( 19-C , 20-C ) :   0.9478 B( 19-C , 72-H ) :   0.9304
B( 20-C , 21-S ) :   1.0077 B( 20-C , 23-C ) :   0.9704 B( 20-C , 73-H ) :   0.8944
B( 21-S , 22-C ) :   1.0903 B( 22-C , 23-C ) :   1.6665 B( 22-C , 74-H ) :   1.0060
B( 23-C , 24-C ) :   0.9786 B( 24-C , 25-O ) :   2.0669 B( 24-C , 26-O ) :   1.2536
B( 26-O , 27-C ) :   0.8970 B( 27-C , 28-C ) :   1.0587 B( 27-C , 75-H ) :   0.9294
B( 27-C , 76-H ) :   0.9483 B( 28-C , 29-C ) :   1.7555 B( 28-C , 77-H ) :   0.9656
B( 29-C , 30-C ) :   1.0893 B( 29-C , 33-S ) :   1.0159 B( 30-C , 31-C ) :   1.6517
B( 30-C , 78-H ) :   0.9977 B( 31-C , 32-C ) :   1.1544 B( 31-C , 79-H ) :   0.9921
B( 32-C , 33-S ) :   1.0176 B( 32-C , 34-C ) :   1.5801 B( 34-C , 35-C ) :   1.1612
B( 34-C , 38-S ) :   1.0383 B( 35-C , 36-C ) :   1.6342 B( 35-C , 80-H ) :   0.9915
B( 36-C , 37-C ) :   1.1426 B( 36-C , 81-H ) :   0.9933 B( 37-C , 38-S ) :   0.9873
B( 37-C , 39-C ) :   1.6159 B( 39-C , 40-N ) :   1.1654 B( 39-C , 82-H ) :   0.9686
B( 40-N , 41-C ) :   1.1363 B( 40-N , 83-H ) :   0.9073 B( 41-C , 42-C ) :   1.5120
B( 41-C , 45-C ) :   1.2521 B( 42-C , 43-S ) :   1.1358 B( 42-C , 84-H ) :   0.9763
B( 43-S , 44-C ) :   1.2002 B( 44-C , 45-C ) :   1.5353 B( 44-C , 85-H ) :   0.9518
B( 45-C , 46-N ) :   1.0109 B( 46-N , 47-C ) :   1.2610 B( 46-N , 86-H ) :   0.9170
B( 47-C , 48-C ) :   1.5616 B( 47-C , 87-H ) :   0.9633 B( 48-C , 49-C ) :   1.2212
B( 48-C , 88-H ) :   0.9552 B( 49-C , 50-C ) :   1.5404 B( 49-C , 89-H ) :   0.9480
B( 50-C , 51-C ) :   1.0702 B( 50-C , 59-C ) :   0.9636 B( 51-C , 52-C ) :   1.6038
B( 51-C , 57-C ) :   1.0111 B( 52-C , 53-C ) :   1.1256 B( 52-C , 55-C ) :   1.1907
B( 53-C , 54-N ) :   2.9831 B( 55-C , 56-N ) :   2.8839 B( 56-N , 85-H ) :   0.1151
B( 57-C , 58-C ) :   1.2776 B( 57-C , 64-C ) :   1.4165 B( 58-C , 59-C ) :   0.9202
B( 58-C , 61-C ) :   1.4324 B( 59-C , 60-O ) :   2.2481 B( 61-C , 62-C ) :   1.2446
B( 61-C , 90-H ) :   1.0167 B( 62-C , 63-C ) :   1.3145 B( 62-C , 67-C ) :   1.1624
B( 63-C , 64-C ) :   1.3224 B( 63-C , 65-S ) :   1.0826 B( 64-C , 91-H ) :   0.9826
B( 65-S , 66-C ) :   1.0868 B( 66-C , 67-C ) :   1.6191 B( 66-C , 68-Br) :   1.0152
B( 67-C , 92-H ) :   1.0006

-----------------------------------------------------------------------------
         ABSORPTION SPECTRUM VIA TRANSITION ELECTRIC DIPOLE MOMENTS
-----------------------------------------------------------------------------
State   Energy  Wavelength   fosc         T2         TX        TY        TZ
        (cm-1)    (nm)                  (au**2)     (au)      (au)      (au)
-----------------------------------------------------------------------------
   0   17485.5    571.9   0.007799399   0.14684  -0.03945   0.28638   0.25155
   1   18536.1    539.5   0.119043389   2.11428  -0.46239   1.32062   0.39553
   2   21134.6    473.2   1.547625140  24.10724  -0.19862   3.49215   3.44568
   3   23039.6    434.0   0.282316925   4.03402   1.34982  -1.41507   0.45781
   4   24542.1    407.5   0.007507072   0.10070  -0.03392  -0.20874  -0.23660
   5   26410.9    378.6   0.032267029   0.40221   0.32444  -0.31495   0.44470
   6   26873.3    372.1   0.121315663   1.48618  -0.17382  -1.19722  -0.15046
   7   28733.8    348.0   0.052043419   0.59628  -0.75283  -0.17103  -0.01631
   8   28889.7    346.1   0.420119277   4.78746   1.33341   0.83482   1.52070
   9   29387.5    340.3   0.008390507   0.09399  -0.00650   0.29836  -0.07025
  10   30148.2    331.7   0.642406390   7.01494  -2.10779   1.37178  -0.83089
  11   30507.0    327.8   0.003387183   0.03655   0.04650  -0.12341   0.13842
  12   30601.6    326.8   0.000281712   0.00303   0.05281  -0.01048  -0.01149
  13   30654.7    326.2   0.047747302   0.51278   0.43706  -0.04539   0.56542
  14   31078.4    321.8   0.054537027   0.57771   0.30683  -0.20347   0.66495
  15   31442.4    318.0   0.292772689   3.06543   1.35578  -0.76655   0.79981
  16   31745.5    315.0   0.021862228   0.22672   0.10675  -0.04904   0.46143
  17   31868.8    313.8   0.004490867   0.04639   0.08200  -0.02741  -0.19727
  18   32040.8    312.1   0.167925642   1.72540   0.97970  -0.36690   0.79434
  19   32166.1    310.9   0.008154972   0.08346   0.03711   0.28113  -0.05524
  20   32345.3    309.2   0.008558723   0.08711  -0.19022   0.12797  -0.18588
  21   32966.2    303.3   0.092658068   0.92532  -0.51601   0.25576  -0.77048
  22   33749.2    296.3   0.060985704   0.59490  -0.18331  -0.62262   0.41671
  23   34039.8    293.8   0.077839837   0.75282   0.42559   0.40687   0.63730
  24   34385.4    290.8   0.460107795   4.40515  -1.30911  -0.41070  -1.58830
  25   34766.9    287.6   0.145216134   1.37507   0.20882  -1.08151   0.40225
  26   34837.5    287.0   0.445299351   4.20805   1.61354  -0.56049   1.13596
  27   35223.9    283.9   0.084826612   0.79281   0.22483   0.75914  -0.40739
  28   35978.1    277.9   0.037260451   0.34095  -0.12146  -0.55846   0.11965
  29   36197.2    276.3   0.113784436   1.03487   0.27080  -0.60834  -0.76906
  30   36899.2    271.0   0.000478386   0.00427  -0.05366   0.02967  -0.02254
  31   38464.0    260.0   0.013234682   0.11328   0.10369   0.13727   0.28927
  32   38693.0    258.4   0.006519559   0.05547   0.04809  -0.04508  -0.22611
  33   38747.1    258.1   0.082047207   0.69711  -0.43387  -0.44029  -0.56126
  34   39313.9    254.4   0.000024223   0.00020   0.00690   0.01198   0.00340
  35   39387.4    253.9   0.005807762   0.04854   0.11481   0.12525   0.14027
  36   39478.0    253.3   0.002522834   0.02104   0.10289   0.00717  -0.10198
  37   39900.1    250.6   0.010084401   0.08321   0.02929   0.28206  -0.05282
  38   40229.9    248.6   0.002950291   0.02414   0.12974   0.07409  -0.04267
  39   40254.0    248.4   0.019396940   0.15864  -0.31717  -0.06001   0.23332

FINAL SINGLE POINT ENERGY    -10120.222136390226

DIPOLE MOMENT
-------------
                                X             Y             Z
Electronic contribution:   -106.31379       8.70136     -79.77412
Nuclear contribution   :    105.01072      -9.94193      79.07754
                        -----------------------------------------
Total Dipole Moment    :     -1.30307      -1.24056      -0.69658
                        -----------------------------------------
Magnitude (a.u.)       :      1.92930
Magnitude (Debye)      :      4.90390

Rotational constants in cm-1:     0.000949     0.000154     0.000141
Rotational constants in MHz :    28.464127     4.618787     4.223841

                             ****ORCA TERMINATED NORMALLY****
TOTAL RUN TIME: 0 days 0 hours 8 minutes 27 seconds 909 msec
