                         Program Version 4.2.0 -  RELEASE  -
|  1> # ORCA input file
|  2> # SCF done       -190.578266529578          0.001711622102
|  3> ! CAM-B3LYP def2-SVP def2/J RIJCOSX Grid4 TightSCF
|  4> %maxcore 5000
|  5> %tddft
|  6>     Mode sTDDFT
|  7>     Ethresh 5.0
|  8>     maxcore 5000
|  9> end
| 10>
| 11> %pal
| 12>   nprocs 6
| 13>   end
| 14> * xyz 0 1
| 15>    C       -3.30334         1.21225        -2.41322
| 16>    C       -3.28765         2.49079        -2.92156
| 17>    C       -2.17235         3.08326        -3.54326
| 18>    N       -1.29650         3.61293        -4.06480
| 19>    C       -4.37059         3.38348        -2.82438
| 20>    N       -5.21125         4.16221        -2.73007
| 21>    C       -2.16369         0.30153        -2.34503
| 22>    C       -2.54540        -0.85883        -1.62137
| 23>    C       -1.68024        -1.89702        -1.37940
| 24>    C       -0.37461        -1.78696        -1.87282
| 25>    C       -0.00249        -0.62535        -2.58812
| 26>    C       -0.87887         0.42648        -2.83405
| 27>    S        1.65529        -0.69392        -3.10060
| 28>    C        1.82458        -2.26246        -2.35735
| 29>    C        0.69785        -2.71311        -1.75674
| 30>   Br        3.47210        -3.15476        -2.44453
| 31>    C       -3.95372        -0.72196        -1.21804
| 32>    O       -4.63010        -1.51068        -0.56754
| 33>    C       -4.40891         0.55522        -1.76906
| 34>    C       -5.72345         0.95716        -1.69331
| 35>    N       -6.61268         0.24081        -0.99275
| 36>    C       -7.93805         0.46906        -0.80886
| 37>    S       -8.88303        -0.86578        -0.20174
| 38>    C      -10.32043         0.08841        -0.38085
| 39>    N      -11.55362        -0.48745        -0.08618
| 40>    O      -12.55224         0.19964        -0.25012
| 41>    O      -11.55885        -1.64961         0.28771
| 42>    C      -10.07517         1.35373        -0.84091
| 43>    C       -8.70833         1.61934        -1.07511
| 44>    C       -8.21782         2.90855        -1.44705
| 45>    C       -9.00546         3.89873        -1.95270
| 46>    C       -8.54941         5.18426        -2.27790
| 47>    C       -9.39891         6.17201        -2.71738
| 48>    C       -9.08475         7.50159        -3.08894
| 49>    C      -10.16116         8.25193        -3.46213
| 50>    C      -11.38701         7.55622        -3.40442
| 51>    S      -11.12786         5.91401        -2.85688
| 52>    C      -12.66642         7.98466        -3.69854
| 53>    C      -13.12858         9.25781        -4.10263
| 54>    C      -14.47752         9.33301        -4.27141
| 55>    C      -15.16438         8.11929        -4.01357
| 56>    S      -14.00053         6.86673        -3.56087
| 57>    C      -16.50661         7.87661        -4.04035
| 58>    N      -17.02704         6.66056        -3.75582
| 59>    C      -18.36229         6.33506        -3.66723
| 60>    C      -19.42876         7.03255        -4.16061
| 61>    S      -20.92127         6.22731        -3.87768
| 62>    C      -20.12877         4.93446        -3.07277
| 63>    C      -18.78012         5.11908        -3.01590
| 64>    N      -17.85425         4.29892        -2.39255
| 65>    C      -17.82465         2.95085        -2.39260
| 66>    C      -16.68140         2.28236        -2.08801
| 67>    C      -16.46961         0.91024        -2.31064
| 68>    C      -15.25493         0.35675        -2.61644
| 69>    C      -14.02052         0.95763        -3.05206
| 70>    C      -13.79747         2.23244        -3.53329
| 71>    C      -12.53596         2.68407        -3.97740
| 72>    N      -11.53232         3.12027        -4.32806
| 73>    C      -14.70961         3.28470        -3.70604
| 74>    N      -15.33536         4.23217        -3.90758
| 75>    C      -13.01021        -0.10058        -3.06824
| 76>    C      -13.61666        -1.33020        -2.70829
| 77>    C      -15.06345        -1.10855        -2.50917
| 78>    O      -15.91918        -1.93808        -2.29893
| 79>    C      -12.90842        -2.49786        -2.56831
| 80>    C      -11.53194        -2.46186        -2.82222
| 81>    C      -10.94823        -1.24655        -3.24473
| 82>    C      -11.66070        -0.06050        -3.36588
| 83>    S       -9.24187        -1.42135        -3.53716
| 84>    C       -9.32807        -3.09129        -3.03811
| 85>    C      -10.57275        -3.50554        -2.70499
| 86>   Br       -7.75475        -4.10981        -2.99513
| 87>    H       -1.99744        -2.76742        -0.82691
| 88>    H       -0.54934         1.29036        -3.38692
| 89>    H        0.62372        -3.65898        -1.25194
| 90>    H       -6.07689         1.82302        -2.22943
| 91>    H       -6.21263        -0.63279        -0.60828
| 92>    H      -10.86415         2.07044        -0.97472
| 93>    H       -7.17637         3.13389        -1.27560
| 94>    H      -10.05020         3.69970        -2.15362
| 95>    H       -7.49656         5.40922        -2.18461
| 96>    H       -8.06995         7.85808        -3.07232
| 97>    H      -10.10602         9.27830        -3.77948
| 98>    H      -12.45219        10.08099        -4.24790
| 99>    H      -15.00466        10.22187        -4.57020
|100>    H      -17.19822         8.67863        -4.25044
|101>    H      -16.36013         5.88723        -3.70434
|102>    H      -19.43029         7.95818        -4.69819
|103>    H      -20.70257         4.12643        -2.66751
|104>    H      -16.97625         4.74688        -2.15610
|105>    H      -18.70932         2.44369        -2.74932
|106>    H      -15.82772         2.85806        -1.75733
|107>    H      -17.30538         0.22284        -2.24634
|108>    H      -13.39648        -3.40845        -2.25977
|109>    H      -11.14802         0.83899        -3.66084
|110>    H      -10.80693        -4.49961        -2.37152
|111> *
|112>
|113>                          ****END OF INPUT****

CARTESIAN COORDINATES (ANGSTROEM)
---------------------------------
  C     -3.303340    1.212250   -2.413220
  C     -3.287650    2.490790   -2.921560
  C     -2.172350    3.083260   -3.543260
  N     -1.296500    3.612930   -4.064800
  C     -4.370590    3.383480   -2.824380
  N     -5.211250    4.162210   -2.730070
  C     -2.163690    0.301530   -2.345030
  C     -2.545400   -0.858830   -1.621370
  C     -1.680240   -1.897020   -1.379400
  C     -0.374610   -1.786960   -1.872820
  C     -0.002490   -0.625350   -2.588120
  C     -0.878870    0.426480   -2.834050
  S      1.655290   -0.693920   -3.100600
  C      1.824580   -2.262460   -2.357350
  C      0.697850   -2.713110   -1.756740
  Br     3.472100   -3.154760   -2.444530
  C     -3.953720   -0.721960   -1.218040
  O     -4.630100   -1.510680   -0.567540
  C     -4.408910    0.555220   -1.769060
  C     -5.723450    0.957160   -1.693310
  N     -6.612680    0.240810   -0.992750
  C     -7.938050    0.469060   -0.808860
  S     -8.883030   -0.865780   -0.201740
  C    -10.320430    0.088410   -0.380850
  N    -11.553620   -0.487450   -0.086180
  O    -12.552240    0.199640   -0.250120
  O    -11.558850   -1.649610    0.287710
  C    -10.075170    1.353730   -0.840910
  C     -8.708330    1.619340   -1.075110
  C     -8.217820    2.908550   -1.447050
  C     -9.005460    3.898730   -1.952700
  C     -8.549410    5.184260   -2.277900
  C     -9.398910    6.172010   -2.717380
  C     -9.084750    7.501590   -3.088940
  C    -10.161160    8.251930   -3.462130
  C    -11.387010    7.556220   -3.404420
  S    -11.127860    5.914010   -2.856880
  C    -12.666420    7.984660   -3.698540
  C    -13.128580    9.257810   -4.102630
  C    -14.477520    9.333010   -4.271410
  C    -15.164380    8.119290   -4.013570
  S    -14.000530    6.866730   -3.560870
  C    -16.506610    7.876610   -4.040350
  N    -17.027040    6.660560   -3.755820
  C    -18.362290    6.335060   -3.667230
  C    -19.428760    7.032550   -4.160610
  S    -20.921270    6.227310   -3.877680
  C    -20.128770    4.934460   -3.072770
  C    -18.780120    5.119080   -3.015900
  N    -17.854250    4.298920   -2.392550
  C    -17.824650    2.950850   -2.392600
  C    -16.681400    2.282360   -2.088010
  C    -16.469610    0.910240   -2.310640
  C    -15.254930    0.356750   -2.616440
  C    -14.020520    0.957630   -3.052060
  C    -13.797470    2.232440   -3.533290
  C    -12.535960    2.684070   -3.977400
  N    -11.532320    3.120270   -4.328060
  C    -14.709610    3.284700   -3.706040
  N    -15.335360    4.232170   -3.907580
  C    -13.010210   -0.100580   -3.068240
  C    -13.616660   -1.330200   -2.708290
  C    -15.063450   -1.108550   -2.509170
  O    -15.919180   -1.938080   -2.298930
  C    -12.908420   -2.497860   -2.568310
  C    -11.531940   -2.461860   -2.822220
  C    -10.948230   -1.246550   -3.244730
  C    -11.660700   -0.060500   -3.365880
  S     -9.241870   -1.421350   -3.537160
  C     -9.328070   -3.091290   -3.038110
  C    -10.572750   -3.505540   -2.704990
  Br    -7.754750   -4.109810   -2.995130
  H     -1.997440   -2.767420   -0.826910
  H     -0.549340    1.290360   -3.386920
  H      0.623720   -3.658980   -1.251940
  H     -6.076890    1.823020   -2.229430
  H     -6.212630   -0.632790   -0.608280
  H    -10.864150    2.070440   -0.974720
  H     -7.176370    3.133890   -1.275600
  H    -10.050200    3.699700   -2.153620
  H     -7.496560    5.409220   -2.184610
  H     -8.069950    7.858080   -3.072320
  H    -10.106020    9.278300   -3.779480
  H    -12.452190   10.080990   -4.247900
  H    -15.004660   10.221870   -4.570200
  H    -17.198220    8.678630   -4.250440
  H    -16.360130    5.887230   -3.704340
  H    -19.430290    7.958180   -4.698190
  H    -20.702570    4.126430   -2.667510
  H    -16.976250    4.746880   -2.156100
  H    -18.709320    2.443690   -2.749320
  H    -15.827720    2.858060   -1.757330
  H    -17.305380    0.222840   -2.246340
  H    -13.396480   -3.408450   -2.259770
  H    -11.148020    0.838990   -3.660840
  H    -10.806930   -4.499610   -2.371520

 Total Charge           Charge          ....    0
 Multiplicity           Mult            ....    1
 Number of Electrons    NEL             ....  590
 Basis Dimension        Dim             .... 1188

ORBITAL ENERGIES
----------------

  NO   OCC          E(Eh)            E(eV)
   0   2.0000    -482.885632    -13139.9861
   1   2.0000    -482.881191    -13139.8652
   2   2.0000     -88.980171     -2421.2736
   3   2.0000     -88.976033     -2421.1610
   4   2.0000     -88.969604     -2420.9860
   5   2.0000     -88.962764     -2420.7999
   6   2.0000     -88.933374     -2420.0001
   7   2.0000     -88.924340     -2419.7543
   8   2.0000     -62.563360     -1702.4356
   9   2.0000     -62.558877     -1702.3136
  10   2.0000     -56.397315     -1534.6489
  11   2.0000     -56.394591     -1534.5748
  12   2.0000     -56.394558     -1534.5740
  13   2.0000     -56.392799     -1534.5261
  14   2.0000     -56.390129     -1534.4534
  15   2.0000     -56.390089     -1534.4523
  16   2.0000     -19.240369      -523.5570
  17   2.0000     -19.240213      -523.5528
  18   2.0000     -19.226859      -523.1894
  19   2.0000     -19.201084      -522.4880
  20   2.0000     -14.649919      -398.6446
  21   2.0000     -14.493143      -394.3785
  22   2.0000     -14.476513      -393.9260
  23   2.0000     -14.452626      -393.2759
  24   2.0000     -14.423376      -392.4800
  25   2.0000     -14.418384      -392.3442
  26   2.0000     -14.410876      -392.1399
  27   2.0000     -14.409261      -392.0959
  28   2.0000     -10.373871      -282.2874
  29   2.0000     -10.361540      -281.9518
  30   2.0000     -10.361041      -281.9383
  31   2.0000     -10.358872      -281.8792
  32   2.0000     -10.352008      -281.6924
  33   2.0000     -10.351496      -281.6785
  34   2.0000     -10.351204      -281.6706
  35   2.0000     -10.342415      -281.4314
  36   2.0000     -10.342341      -281.4294
  37   2.0000     -10.339029      -281.3393
  38   2.0000     -10.336628      -281.2739
  39   2.0000     -10.335025      -281.2303
  40   2.0000     -10.333692      -281.1941
  41   2.0000     -10.330515      -281.1076
  42   2.0000     -10.328735      -281.0592
  43   2.0000     -10.325683      -280.9761
  44   2.0000     -10.325283      -280.9652
  45   2.0000     -10.321964      -280.8749
  46   2.0000     -10.317039      -280.7409
  47   2.0000     -10.314651      -280.6759
  48   2.0000     -10.313537      -280.6456
  49   2.0000     -10.313084      -280.6333
  50   2.0000     -10.308621      -280.5119
  51   2.0000     -10.307781      -280.4890
  52   2.0000     -10.305946      -280.4390
  53   2.0000     -10.303234      -280.3652
  54   2.0000     -10.303232      -280.3652
  55   2.0000     -10.302674      -280.3500
  56   2.0000     -10.301022      -280.3051
  57   2.0000     -10.299483      -280.2632
  58   2.0000     -10.298645      -280.2404
  59   2.0000     -10.298296      -280.2309
  60   2.0000     -10.297127      -280.1991
  61   2.0000     -10.295804      -280.1631
  62   2.0000     -10.295437      -280.1531
  63   2.0000     -10.294990      -280.1409
  64   2.0000     -10.291840      -280.0552
  65   2.0000     -10.291776      -280.0535
  66   2.0000     -10.291105      -280.0352
  67   2.0000     -10.290000      -280.0051
  68   2.0000     -10.289947      -280.0037
  69   2.0000     -10.287898      -279.9479
  70   2.0000     -10.282165      -279.7919
  71   2.0000     -10.280878      -279.7569
  72   2.0000     -10.280791      -279.7546
  73   2.0000     -10.279379      -279.7161
  74   2.0000     -10.274822      -279.5921
  75   2.0000     -10.273441      -279.5545
  76   2.0000     -10.268133      -279.4101
  77   2.0000     -10.264451      -279.3099
  78   2.0000     -10.264343      -279.3070
  79   2.0000     -10.251074      -278.9459
  80   2.0000      -8.792802      -239.2643
  81   2.0000      -8.788302      -239.1419
  82   2.0000      -8.075324      -219.7407
  83   2.0000      -8.072035      -219.6512
  84   2.0000      -8.064883      -219.4566
  85   2.0000      -8.058602      -219.2857
  86   2.0000      -8.029503      -218.4939
  87   2.0000      -8.020601      -218.2516
  88   2.0000      -6.629131      -180.3878
  89   2.0000      -6.624516      -180.2622
  90   2.0000      -6.614522      -179.9903
  91   2.0000      -6.614321      -179.9848
  92   2.0000      -6.610080      -179.8694
  93   2.0000      -6.609893      -179.8643
  94   2.0000      -6.045041      -164.4939
  95   2.0000      -6.041721      -164.4036
  96   2.0000      -6.040746      -164.3771
  97   2.0000      -6.037425      -164.2867
  98   2.0000      -6.036606      -164.2644
  99   2.0000      -6.034646      -164.2111
 100   2.0000      -6.033275      -164.1738
 101   2.0000      -6.030356      -164.0943
 102   2.0000      -6.028112      -164.0333
 103   2.0000      -6.026135      -163.9795
 104   2.0000      -6.023751      -163.9146
 105   2.0000      -6.020502      -163.8262
 106   2.0000      -5.999333      -163.2501
 107   2.0000      -5.995256      -163.1392
 108   2.0000      -5.990318      -163.0048
 109   2.0000      -5.990225      -163.0023
 110   2.0000      -5.986332      -162.8964
 111   2.0000      -5.981487      -162.7645
 112   2.0000      -2.744953       -74.6940
 113   2.0000      -2.740882       -74.5832
 114   2.0000      -2.740800       -74.5809
 115   2.0000      -2.740407       -74.5703
 116   2.0000      -2.736349       -74.4599
 117   2.0000      -2.736212       -74.4561
 118   2.0000      -2.729147       -74.2639
 119   2.0000      -2.729132       -74.2635
 120   2.0000      -2.724749       -74.1442
 121   2.0000      -2.724723       -74.1435
 122   2.0000      -1.318093       -35.8671
 123   2.0000      -1.141507       -31.0620
 124   2.0000      -1.136567       -30.9276
 125   2.0000      -1.116163       -30.3723
 126   2.0000      -1.095335       -29.8056
 127   2.0000      -1.086623       -29.5685
 128   2.0000      -1.053813       -28.6757
 129   2.0000      -1.023173       -27.8420
 130   2.0000      -1.020523       -27.7698
 131   2.0000      -1.013266       -27.5724
 132   2.0000      -1.011316       -27.5193
 133   2.0000      -1.002412       -27.2770
 134   2.0000      -0.995302       -27.0835
 135   2.0000      -0.993859       -27.0443
 136   2.0000      -0.988648       -26.9025
 137   2.0000      -0.983805       -26.7707
 138   2.0000      -0.981477       -26.7073
 139   2.0000      -0.976187       -26.5634
 140   2.0000      -0.955913       -26.0117
 141   2.0000      -0.941875       -25.6297
 142   2.0000      -0.937332       -25.5061
 143   2.0000      -0.912895       -24.8411
 144   2.0000      -0.911913       -24.8144
 145   2.0000      -0.908663       -24.7260
 146   2.0000      -0.902564       -24.5600
 147   2.0000      -0.901196       -24.5228
 148   2.0000      -0.886385       -24.1198
 149   2.0000      -0.882566       -24.0158
 150   2.0000      -0.878121       -23.8949
 151   2.0000      -0.876878       -23.8611
 152   2.0000      -0.872952       -23.7542
 153   2.0000      -0.859980       -23.4012
 154   2.0000      -0.844756       -22.9870
 155   2.0000      -0.841396       -22.8956
 156   2.0000      -0.837505       -22.7897
 157   2.0000      -0.829866       -22.5818
 158   2.0000      -0.821706       -22.3598
 159   2.0000      -0.819202       -22.2916
 160   2.0000      -0.809570       -22.0295
 161   2.0000      -0.805444       -21.9172
 162   2.0000      -0.799957       -21.7679
 163   2.0000      -0.786750       -21.4085
 164   2.0000      -0.773215       -21.0403
 165   2.0000      -0.766393       -20.8546
 166   2.0000      -0.760728       -20.7005
 167   2.0000      -0.758305       -20.6345
 168   2.0000      -0.753420       -20.5016
 169   2.0000      -0.730909       -19.8890
 170   2.0000      -0.720926       -19.6174
 171   2.0000      -0.717986       -19.5374
 172   2.0000      -0.701875       -19.0990
 173   2.0000      -0.698322       -19.0023
 174   2.0000      -0.690277       -18.7834
 175   2.0000      -0.687254       -18.7011
 176   2.0000      -0.684840       -18.6355
 177   2.0000      -0.680557       -18.5189
 178   2.0000      -0.674344       -18.3498
 179   2.0000      -0.671183       -18.2638
 180   2.0000      -0.660479       -17.9725
 181   2.0000      -0.659432       -17.9441
 182   2.0000      -0.655799       -17.8452
 183   2.0000      -0.647662       -17.6238
 184   2.0000      -0.644285       -17.5319
 185   2.0000      -0.637208       -17.3393
 186   2.0000      -0.635058       -17.2808
 187   2.0000      -0.633818       -17.2471
 188   2.0000      -0.630398       -17.1540
 189   2.0000      -0.628156       -17.0930
 190   2.0000      -0.621471       -16.9111
 191   2.0000      -0.615778       -16.7562
 192   2.0000      -0.614127       -16.7112
 193   2.0000      -0.605622       -16.4798
 194   2.0000      -0.601130       -16.3576
 195   2.0000      -0.598426       -16.2840
 196   2.0000      -0.592132       -16.1127
 197   2.0000      -0.590773       -16.0758
 198   2.0000      -0.590134       -16.0584
 199   2.0000      -0.581817       -15.8321
 200   2.0000      -0.579165       -15.7599
 201   2.0000      -0.573761       -15.6128
 202   2.0000      -0.571125       -15.5411
 203   2.0000      -0.564327       -15.3561
 204   2.0000      -0.555710       -15.1216
 205   2.0000      -0.552161       -15.0251
 206   2.0000      -0.551200       -14.9989
 207   2.0000      -0.544789       -14.8245
 208   2.0000      -0.541439       -14.7333
 209   2.0000      -0.539714       -14.6864
 210   2.0000      -0.535166       -14.5626
 211   2.0000      -0.534599       -14.5472
 212   2.0000      -0.532770       -14.4974
 213   2.0000      -0.526961       -14.3393
 214   2.0000      -0.525814       -14.3081
 215   2.0000      -0.523206       -14.2372
 216   2.0000      -0.522414       -14.2156
 217   2.0000      -0.520191       -14.1551
 218   2.0000      -0.517153       -14.0725
 219   2.0000      -0.514507       -14.0005
 220   2.0000      -0.509340       -13.8599
 221   2.0000      -0.507729       -13.8160
 222   2.0000      -0.503554       -13.7024
 223   2.0000      -0.501830       -13.6555
 224   2.0000      -0.498199       -13.5567
 225   2.0000      -0.497197       -13.5294
 226   2.0000      -0.496691       -13.5157
 227   2.0000      -0.493466       -13.4279
 228   2.0000      -0.491902       -13.3853
 229   2.0000      -0.490222       -13.3396
 230   2.0000      -0.488004       -13.2793
 231   2.0000      -0.485637       -13.2149
 232   2.0000      -0.484770       -13.1913
 233   2.0000      -0.479136       -13.0379
 234   2.0000      -0.477240       -12.9864
 235   2.0000      -0.476671       -12.9709
 236   2.0000      -0.472512       -12.8577
 237   2.0000      -0.469097       -12.7648
 238   2.0000      -0.464100       -12.6288
 239   2.0000      -0.463315       -12.6075
 240   2.0000      -0.461689       -12.5632
 241   2.0000      -0.459417       -12.5014
 242   2.0000      -0.458662       -12.4808
 243   2.0000      -0.457222       -12.4416
 244   2.0000      -0.451562       -12.2876
 245   2.0000      -0.450301       -12.2533
 246   2.0000      -0.448723       -12.2104
 247   2.0000      -0.445474       -12.1220
 248   2.0000      -0.442796       -12.0491
 249   2.0000      -0.441637       -12.0175
 250   2.0000      -0.440888       -11.9972
 251   2.0000      -0.439691       -11.9646
 252   2.0000      -0.438336       -11.9277
 253   2.0000      -0.434468       -11.8225
 254   2.0000      -0.432381       -11.7657
 255   2.0000      -0.430378       -11.7112
 256   2.0000      -0.428002       -11.6465
 257   2.0000      -0.426791       -11.6136
 258   2.0000      -0.424871       -11.5613
 259   2.0000      -0.422527       -11.4975
 260   2.0000      -0.418583       -11.3902
 261   2.0000      -0.411593       -11.2000
 262   2.0000      -0.410190       -11.1618
 263   2.0000      -0.409003       -11.1295
 264   2.0000      -0.407127       -11.0785
 265   2.0000      -0.402656       -10.9568
 266   2.0000      -0.399657       -10.8752
 267   2.0000      -0.389860       -10.6086
 268   2.0000      -0.388610       -10.5746
 269   2.0000      -0.387973       -10.5573
 270   2.0000      -0.378922       -10.3110
 271   2.0000      -0.375206       -10.2099
 272   2.0000      -0.375177       -10.2091
 273   2.0000      -0.370761       -10.0889
 274   2.0000      -0.370444       -10.0803
 275   2.0000      -0.369370       -10.0511
 276   2.0000      -0.367023        -9.9872
 277   2.0000      -0.361536        -9.8379
 278   2.0000      -0.352229        -9.5846
 279   2.0000      -0.350851        -9.5471
 280   2.0000      -0.340038        -9.2529
 281   2.0000      -0.333153        -9.0655
 282   2.0000      -0.326683        -8.8895
 283   2.0000      -0.325308        -8.8521
 284   2.0000      -0.317811        -8.6481
 285   2.0000      -0.316729        -8.6186
 286   2.0000      -0.309081        -8.4105
 287   2.0000      -0.305752        -8.3199
 288   2.0000      -0.300108        -8.1663
 289   2.0000      -0.294478        -8.0131
 290   2.0000      -0.287031        -7.8105
 291   2.0000      -0.279784        -7.6133
 292   2.0000      -0.263546        -7.1715
 293   2.0000      -0.253267        -6.8918
 294   2.0000      -0.192233        -5.2309
 295   0.0000      -0.086316        -2.3488
 296   0.0000      -0.082490        -2.2447
 297   0.0000      -0.066352        -1.8055
 298   0.0000      -0.058624        -1.5952
 299   0.0000      -0.044388        -1.2078

MULLIKEN ATOMIC CHARGES
-----------------------
   0 C :    0.322980
   1 C :   -0.348713
   2 C :   -0.184221
   3 N :    0.146124
   4 C :   -0.200331
   5 N :    0.150842
   6 C :    0.005650
   7 C :   -0.004093
   8 C :   -0.071166
   9 C :    0.114449
  10 C :   -0.091514
  11 C :   -0.021416
  12 S :    0.188879
  13 C :   -0.124985
  14 C :    0.040660
  15 Br:    0.023505
  16 C :    0.171138
  17 O :   -0.215517
  18 C :   -0.142913
  19 C :    0.025608
  20 N :    0.021689
  21 C :   -0.135631
  22 S :    0.182170
  23 C :   -0.014000
  24 N :    0.280196
  25 O :   -0.254852
  26 O :   -0.257623
  27 C :   -0.003059
  28 C :    0.146060
  29 C :   -0.074312
  30 C :    0.021055
  31 C :   -0.023295
  32 C :   -0.000897
  33 C :    0.020923
  34 C :    0.037725
  35 C :   -0.055023
  36 S :    0.055188
  37 C :   -0.031065
  38 C :    0.015385
  39 C :    0.046185
  40 C :   -0.054406
  41 S :    0.042784
  42 C :    0.050893
  43 N :   -0.080451
  44 C :    0.150064
  45 C :   -0.210982
  46 S :    0.127000
  47 C :   -0.187234
  48 C :    0.103829
  49 N :   -0.029448
  50 C :    0.108078
  51 C :   -0.042821
  52 C :    0.026735
  53 C :   -0.133355
  54 C :    0.362622
  55 C :   -0.397547
  56 C :   -0.174642
  57 N :    0.130808
  58 C :   -0.138879
  59 N :    0.104456
  60 C :    0.005669
  61 C :    0.009808
  62 C :    0.135105
  63 O :   -0.150223
  64 C :   -0.064823
  65 C :    0.116502
  66 C :   -0.112971
  67 C :   -0.031141
  68 S :    0.164890
  69 C :   -0.125167
  70 C :    0.052387
  71 Br:    0.015663
  72 H :   -0.010968
  73 H :   -0.004452
  74 H :   -0.004225
  75 H :    0.050821
  76 H :    0.165129
  77 H :    0.011201
  78 H :   -0.012180
  79 H :   -0.001148
  80 H :   -0.008781
  81 H :   -0.013327
  82 H :   -0.018574
  83 H :   -0.019069
  84 H :   -0.017479
  85 H :    0.002385
  86 H :    0.135763
  87 H :    0.017246
  88 H :    0.015722
  89 H :    0.127384
  90 H :    0.028739
  91 H :    0.030087
  92 H :    0.018714
  93 H :   -0.012168
  94 H :   -0.012005
  95 H :   -0.003805
Sum of atomic charges:   -0.0000000

LOEWDIN ATOMIC CHARGES
----------------------
   0 C :    0.081518
   1 C :   -0.158421
   2 C :   -0.020847
   3 N :   -0.060258
   4 C :   -0.011122
   5 N :   -0.060357
   6 C :   -0.017959
   7 C :   -0.049937
   8 C :    0.022024
   9 C :   -0.034801
  10 C :   -0.144876
  11 C :   -0.008325
  12 S :    0.435095
  13 C :   -0.272399
  14 C :   -0.069948
  15 Br:    0.136537
  16 C :    0.092467
  17 O :   -0.175664
  18 C :   -0.153992
  19 C :    0.116103
  20 N :    0.084972
  21 C :   -0.128427
  22 S :    0.459091
  23 C :   -0.207686
  24 N :    0.280324
  25 O :   -0.218848
  26 O :   -0.225123
  27 C :    0.003645
  28 C :   -0.073653
  29 C :   -0.074123
  30 C :    0.002139
  31 C :   -0.074864
  32 C :   -0.123163
  33 C :   -0.048787
  34 C :   -0.022706
  35 C :   -0.201728
  36 S :    0.377597
  37 C :   -0.162920
  38 C :   -0.055806
  39 C :   -0.022694
  40 C :   -0.203055
  41 S :    0.366443
  42 C :    0.020748
  43 N :    0.026767
  44 C :   -0.021228
  45 C :   -0.232855
  46 S :    0.447502
  47 C :   -0.214421
  48 C :   -0.035288
  49 N :    0.062106
  50 C :    0.098571
  51 C :   -0.105786
  52 C :    0.084880
  53 C :   -0.118926
  54 C :    0.094592
  55 C :   -0.169262
  56 C :   -0.017380
  57 N :   -0.065253
  58 C :    0.030706
  59 N :   -0.103453
  60 C :   -0.020492
  61 C :   -0.045155
  62 C :    0.084489
  63 O :   -0.150987
  64 C :    0.026146
  65 C :   -0.035951
  66 C :   -0.152688
  67 C :   -0.017746
  68 S :    0.420257
  69 C :   -0.276756
  70 C :   -0.063520
  71 Br:    0.130678
  72 H :    0.040992
  73 H :    0.041882
  74 H :    0.038719
  75 H :    0.044250
  76 H :    0.084296
  77 H :    0.043136
  78 H :    0.025609
  79 H :    0.016554
  80 H :    0.033633
  81 H :    0.033017
  82 H :    0.030278
  83 H :    0.029760
  84 H :    0.030971
  85 H :    0.031574
  86 H :    0.054712
  87 H :    0.021846
  88 H :    0.023980
  89 H :    0.083961
  90 H :    0.037567
  91 H :    0.035088
  92 H :    0.044164
  93 H :    0.041548
  94 H :    0.036964
  95 H :    0.039739

  Mayer bond orders larger than 0.100000
B(  0-C ,  1-C ) :   1.6038 B(  0-C ,  6-C ) :   1.0027 B(  0-C , 18-C ) :   1.1231
B(  1-C ,  2-C ) :   1.1459 B(  1-C ,  4-C ) :   1.1506 B(  2-C ,  3-N ) :   2.9694
B(  4-C ,  5-N ) :   2.9623 B(  6-C ,  7-C ) :   1.2748 B(  6-C , 11-C ) :   1.4293
B(  7-C ,  8-C ) :   1.4305 B(  7-C , 16-C ) :   0.9742 B(  8-C ,  9-C ) :   1.2375
B(  8-C , 72-H ) :   1.0173 B(  9-C , 10-C ) :   1.3172 B(  9-C , 14-C ) :   1.1630
B( 10-C , 11-C ) :   1.3157 B( 10-C , 12-S ) :   1.0884 B( 11-C , 73-H ) :   0.9796
B( 12-S , 13-C ) :   1.0889 B( 13-C , 14-C ) :   1.6173 B( 13-C , 15-Br) :   1.0185
B( 14-C , 74-H ) :   0.9999 B( 16-C , 17-O ) :   2.0513 B( 16-C , 18-C ) :   1.0019
B( 17-O , 76-H ) :   0.1447 B( 18-C , 19-C ) :   1.4108 B( 19-C , 20-N ) :   1.3708
B( 19-C , 75-H ) :   0.9334 B( 20-N , 21-C ) :   1.1617 B( 20-N , 76-H ) :   0.8303
B( 21-C , 22-S ) :   1.1226 B( 21-C , 28-C ) :   1.3508 B( 22-S , 23-C ) :   1.0931
B( 23-C , 24-N ) :   0.9786 B( 23-C , 27-C ) :   1.4610 B( 24-N , 25-O ) :   1.5074
B( 24-N , 26-O ) :   1.5024 B( 25-O , 26-O ) :   0.2490 B( 27-C , 28-C ) :   1.2304
B( 27-C , 77-H ) :   0.9999 B( 28-C , 29-C ) :   1.0670 B( 29-C , 30-C ) :   1.6340
B( 29-C , 78-H ) :   0.9724 B( 30-C , 31-C ) :   1.1787 B( 30-C , 79-H ) :   0.9613
B( 31-C , 32-C ) :   1.5234 B( 31-C , 80-H ) :   0.9847 B( 32-C , 33-C ) :   1.1538
B( 32-C , 36-S ) :   1.0557 B( 33-C , 34-C ) :   1.5718 B( 33-C , 81-H ) :   0.9997
B( 34-C , 35-C ) :   1.2036 B( 34-C , 82-H ) :   0.9929 B( 35-C , 36-S ) :   1.0415
B( 35-C , 37-C ) :   1.4968 B( 37-C , 38-C ) :   1.1884 B( 37-C , 41-S ) :   1.0619
B( 38-C , 39-C ) :   1.6045 B( 38-C , 83-H ) :   0.9928 B( 39-C , 40-C ) :   1.1573
B( 39-C , 84-H ) :   0.9923 B( 40-C , 41-S ) :   1.0040 B( 40-C , 42-C ) :   1.5791
B( 42-C , 43-N ) :   1.1942 B( 42-C , 85-H ) :   0.9678 B( 43-N , 44-C ) :   1.1256
B( 43-N , 86-H ) :   0.8625 B( 44-C , 45-C ) :   1.5180 B( 44-C , 48-C ) :   1.2446
B( 45-C , 46-S ) :   1.1425 B( 45-C , 87-H ) :   0.9747 B( 46-S , 47-C ) :   1.1652
B( 47-C , 48-C ) :   1.5331 B( 47-C , 88-H ) :   0.9799 B( 48-C , 49-N ) :   1.0854
B( 49-N , 50-C ) :   1.2550 B( 49-N , 89-H ) :   0.9117 B( 50-C , 51-C ) :   1.5448
B( 50-C , 90-H ) :   0.9750 B( 51-C , 52-C ) :   1.2113 B( 51-C , 91-H ) :   0.9443
B( 52-C , 53-C ) :   1.5468 B( 52-C , 92-H ) :   0.9591 B( 53-C , 54-C ) :   1.1008
B( 53-C , 62-C ) :   0.9542 B( 54-C , 55-C ) :   1.5384 B( 54-C , 60-C ) :   1.0148
B( 55-C , 56-C ) :   1.1511 B( 55-C , 58-C ) :   1.1917 B( 56-C , 57-N ) :   2.8808
B( 58-C , 59-N ) :   2.8541 B( 59-N , 86-H ) :   0.1430 B( 60-C , 61-C ) :   1.2696
B( 60-C , 67-C ) :   1.4154 B( 61-C , 62-C ) :   0.9202 B( 61-C , 64-C ) :   1.4377
B( 62-C , 63-O ) :   2.2706 B( 64-C , 65-C ) :   1.2331 B( 64-C , 93-H ) :   1.0135
B( 65-C , 66-C ) :   1.3220 B( 65-C , 70-C ) :   1.1589 B( 66-C , 67-C ) :   1.3213
B( 66-C , 68-S ) :   1.0811 B( 67-C , 94-H ) :   0.9714 B( 68-S , 69-C ) :   1.0783
B( 69-C , 70-C ) :   1.6209 B( 69-C , 71-Br) :   1.0137 B( 70-C , 95-H ) :   0.9999

-----------------------------------------------------------------------------
         ABSORPTION SPECTRUM VIA TRANSITION ELECTRIC DIPOLE MOMENTS
-----------------------------------------------------------------------------
State   Energy  Wavelength   fosc         T2         TX        TY        TZ
        (cm-1)    (nm)                  (au**2)     (au)      (au)      (au)
-----------------------------------------------------------------------------
   0    8937.0   1118.9   0.018318115   0.67479   0.79284  -0.15839   0.14526
   1   10206.1    979.8   0.407194247  13.13464   3.19451  -1.67399   0.35710
   2   14576.9    686.0   0.329881800   7.45024  -2.24086   1.32010  -0.82831
   3   15368.3    650.7   0.302820402   6.48688  -2.03306   1.31969  -0.78228
   4   19169.2    521.7   0.078375878   1.34603   0.97410  -0.57364   0.26096
   5   20142.6    496.5   0.343187801   5.60908   1.89735  -1.30015  -0.56458
   6   21175.6    472.2   0.458721439   7.13162  -2.55752   0.74860  -0.17416
   7   22331.8    447.8   0.163585259   2.41155  -1.45656  -0.31214   0.43882
   8   22867.1    437.3   0.150351139   2.16457   1.38322   0.12659  -0.48502
   9   25811.2    387.4   0.095223504   1.21454  -0.72389  -0.75362   0.35012
  10   26220.4    381.4   0.125575703   1.57668  -1.21307   0.32312   0.02718
  11   26572.4    376.3   0.203929713   2.52653   1.56917   0.18251  -0.17590
  12   26967.3    370.8   0.123014767   1.50174  -1.19262   0.22882   0.16446
  13   27481.0    363.9   0.093393203   1.11882   1.05438   0.05200   0.06630
  14   27714.3    360.8   0.006175037   0.07335  -0.09435   0.25363   0.01106
  15   28081.3    356.1   0.014275261   0.16736  -0.34393  -0.12652   0.18182
  16   28445.6    351.5   0.219090235   2.53561  -0.56043  -1.43660   0.39712
  17   28682.4    348.6   0.399305540   4.58317  -0.85714  -1.91061   0.44504
  18   29301.7    341.3   0.644755785   7.24400  -2.26812   1.44566  -0.09838
  19   29647.7    337.3   0.142546749   1.58286  -0.81456   0.93407  -0.21646
  20   29780.1    335.8   0.121017708   1.33782   1.15010   0.04514  -0.11428
  21   29906.9    334.4   0.092434232   1.01751   0.63349  -0.77566  -0.12062
  22   30218.9    330.9   0.013011481   0.14175   0.10487  -0.35413   0.07310
  23   30737.6    325.3   0.532827197   5.70680   1.39061  -1.94225   0.02589
  24   30889.4    323.7   0.055517044   0.59169   0.68280  -0.35342   0.02367
  25   31058.4    322.0   0.070331827   0.74550   0.26024   0.75189  -0.33533
  26   31238.5    320.1   0.023501800   0.24768  -0.47029   0.16280  -0.00240
  27   31565.6    316.8   0.031766143   0.33130  -0.53024   0.21353   0.06751
  28   31968.7    312.8   0.180358633   1.85732   0.97562  -0.95099   0.03340
  29   32041.6    312.1   0.038686456   0.39748  -0.53563  -0.28237   0.17565
  30   32660.3    306.2   0.016066401   0.16195   0.29859  -0.21471  -0.16337
  31   32719.8    305.6   0.082608649   0.83117  -0.83935  -0.28874   0.20804
  32   32985.4    303.2   0.060182891   0.60066   0.24236  -0.67233   0.29983
  33   33261.8    300.6   0.044382059   0.43928   0.16824   0.63515  -0.08695
  34   33431.5    299.1   0.076561018   0.75392  -0.51655   0.69754  -0.02332
  35   33595.1    297.7   0.007801922   0.07645  -0.17798  -0.21051  -0.02150
  36   33764.2    296.2   0.077085506   0.75161   0.46985   0.68934  -0.23593
  37   33953.7    294.5   0.012901415   0.12509  -0.23405   0.26418  -0.02277
  38   33989.8    294.2   0.086919202   0.84186  -0.63085  -0.60698   0.27473
  39   34355.5    291.1   0.004328328   0.04148  -0.10084   0.16992  -0.04932
  40   34479.9    290.0   0.256072522   2.44497  -0.78234   1.30039  -0.37669
  41   34664.7    288.5   0.082428859   0.78283  -0.25505  -0.74436   0.40461
  42   34917.5    286.4   0.417056756   3.93212   0.39717  -1.85487   0.57779
  43   35412.6    282.4   0.052282964   0.48605   0.34142   0.54202  -0.27512
  44   35521.4    281.5   0.010762111   0.09974  -0.23814  -0.18590   0.09206
  45   35736.6    279.8   0.029853990   0.27502   0.15571   0.35044  -0.35773
  46   35870.0    278.8   0.000795294   0.00730  -0.07543   0.03334  -0.02233
  47   36183.1    276.4   0.005260001   0.04786   0.08250   0.19942  -0.03585
  48   36192.4    276.3   0.001967741   0.01790  -0.04998   0.00018  -0.12410
  49   36747.6    272.1   0.003005579   0.02693   0.13975  -0.08589   0.00443
  50   37087.1    269.6   0.070257086   0.62365  -0.09326   0.74116  -0.25620
  51   37221.3    268.7   0.037319856   0.33008  -0.39141  -0.42046  -0.00990
  52   37499.6    266.7   0.073456102   0.64488  -0.28867   0.73663  -0.13756
  53   37539.0    266.4   0.018586703   0.16300   0.13657  -0.36476   0.10632
  54   37824.8    264.4   0.000727911   0.00634  -0.06901  -0.00235   0.03959
  55   37893.3    263.9   0.007718274   0.06706   0.13487  -0.21927   0.02801
  56   38019.5    263.0   0.017682819   0.15312   0.04419   0.37327  -0.10876
  57   38407.8    260.4   0.022280649   0.19098  -0.11725   0.40127  -0.12733
  58   38558.7    259.3   0.040206792   0.34328   0.40574   0.29806  -0.29969
  59   38723.1    258.2   0.156355775   1.32929   0.89531   0.56433  -0.45744
  60   39119.0    255.6   0.038635228   0.32514   0.04816  -0.54109   0.17333
  61   39207.1    255.1   0.068256090   0.57313  -0.70693  -0.13255   0.23624
  62   39578.5    252.7   0.004143656   0.03447  -0.18185  -0.02966   0.02272
  63   39613.0    252.4   0.001543109   0.01282  -0.03168  -0.08423   0.06874
  64   39745.9    251.6   0.085076712   0.70468   0.78920   0.08627  -0.27277
  65   39891.7    250.7   0.017539903   0.14475  -0.25832  -0.20564   0.18903
  66   40083.8    249.5   0.057409466   0.47151   0.57690   0.17341  -0.32958
  67   40315.3    248.0   0.005932226   0.04844   0.17783  -0.00597  -0.12955

FINAL SINGLE POINT ENERGY    -10267.582151289913

DIPOLE MOMENT
-------------
                                X             Y             Z
Electronic contribution:    179.36243    -134.41440      -1.49651
Nuclear contribution   :   -180.66627     134.48226       1.75232
                        -----------------------------------------
Total Dipole Moment    :     -1.30384       0.06786       0.25581
                        -----------------------------------------
Magnitude (a.u.)       :      1.33042
Magnitude (Debye)      :      3.38167

Rotational constants in cm-1:     0.001400     0.000295     0.000252
Rotational constants in MHz :    41.966553     8.856584     7.559189

                             ****ORCA TERMINATED NORMALLY****
TOTAL RUN TIME: 0 days 0 hours 12 minutes 52 seconds 437 msec
