                         Program Version 4.2.0 -  RELEASE  -
|  1> # ORCA input file
|  2> # SCF done       -186.224299806097          0.000621449272
|  3> ! CAM-B3LYP def2-SVP def2/J RIJCOSX Grid4 TightSCF
|  4> %maxcore 5000
|  5> %tddft
|  6>     Mode sTDDFT
|  7>     Ethresh 5.0
|  8>     maxcore 5000
|  9> end
| 10>
| 11> %pal
| 12>   nprocs 6
| 13>   end
| 14> * xyz 0 1
| 15>    C       -1.51664         1.66466        -1.80516
| 16>    C       -0.73067         2.59921        -2.43533
| 17>    C        0.41639         2.27461        -3.18923
| 18>    N        1.33727         2.06652        -3.84251
| 19>    C       -0.95276         3.98727        -2.49776
| 20>    N       -1.04609         5.12595        -2.63062
| 21>    C       -1.23472         0.23417        -1.78272
| 22>    C       -2.30323        -0.42511        -1.13045
| 23>    C       -2.35257        -1.78919        -0.97915
| 24>    C       -1.28118        -2.54075        -1.47413
| 25>    C       -0.19429        -1.86960        -2.08391
| 26>    C       -0.15602        -0.49113        -2.25399
| 27>    S        1.04569        -2.97925        -2.58118
| 28>    C        0.09106        -4.31299        -1.99492
| 29>    C       -1.09089        -3.94823        -1.44254
| 30>   Br        0.74347        -6.05983        -2.16344
| 31>    C       -3.27574         0.57585        -0.64652
| 32>    O       -4.29534         0.32632        -0.03571
| 33>    C       -2.75253         1.88776        -1.07967
| 34>    C       -3.33196         3.12378        -0.92883
| 35>    C       -4.46750         3.55075        -0.22597
| 36>    S       -4.93133         5.23759        -0.50287
| 37>    C       -6.20535         5.08656         0.62197
| 38>    N       -7.10362         5.95936         1.04725
| 39>    C       -7.88843         5.44464         1.97007
| 40>    S       -7.53654         3.74534         2.36192
| 41>    C       -6.25767         3.79200         1.19321
| 42>    C       -5.29277         2.92899         0.70669
| 43>    C       -8.90435         6.19963         2.56064
| 44>    C       -9.14598         7.47635         2.09738
| 45>    C      -10.11323         8.41329         2.53709
| 46>    C      -10.13702         9.57220         1.81651
| 47>    C       -9.19419         9.59082         0.76759
| 48>    S       -8.23581         8.11555         0.76122
| 49>    C       -8.97395        10.52350        -0.22685
| 50>    C       -9.55185        11.78798        -0.47951
| 51>    C       -9.10708        12.39337        -1.61782
| 52>    C       -8.15811        11.63130        -2.34410
| 53>    S       -7.81956        10.12920        -1.47571
| 54>    C       -7.56919        11.87332        -3.55450
| 55>    N       -6.74277        10.94142        -4.09066
| 56>    C       -6.10958        10.90516        -5.27808
| 57>    S       -6.09321        12.24322        -6.37446
| 58>    C       -5.09929        11.31104        -7.45864
| 59>    N       -4.74643        11.92450        -8.66520
| 60>    O       -4.07586        11.28907        -9.45520
| 61>    O       -5.15660        13.06249        -8.83043
| 62>    C       -4.80059        10.05896        -6.99898
| 63>    C       -5.38180         9.78700        -5.74444
| 64>    C       -5.32406         8.55341        -5.02965
| 65>    C       -4.58112         7.46049        -5.33637
| 66>    C       -4.67692         6.29728        -4.53564
| 67>    C       -3.92942         5.15894        -4.54407
| 68>    C       -2.66899         4.79582        -5.15705
| 69>    C       -1.65428         5.64711        -5.50297
| 70>    C       -0.41678         5.22013        -6.03075
| 71>    N        0.59236         4.92676        -6.49103
| 72>    C       -1.67607         7.04245        -5.29388
| 73>    N       -1.62731         8.17640        -5.12638
| 74>    C       -2.56486         3.33742        -5.10375
| 75>    C       -3.63472         2.83358        -4.32081
| 76>    C       -4.48243         3.95311        -3.87858
| 77>    O       -5.45335         3.90489        -3.15350
| 78>    C       -3.79607         1.49531        -4.05561
| 79>    C       -2.85767         0.60806        -4.59037
| 80>    C       -1.78689         1.11756        -5.36407
| 81>    C       -1.62508         2.47260        -5.63350
| 82>    S       -0.74198        -0.15242        -5.92006
| 83>    C       -1.75793        -1.33383        -5.13778
| 84>    C       -2.81634        -0.80806        -4.47765
| 85>   Br       -1.34513        -3.15459        -5.27461
| 86>    H       -3.18713        -2.26202        -0.48520
| 87>    H        0.69371        -0.03186        -2.72991
| 88>    H       -1.79981        -4.64309        -1.03110
| 89>    H       -2.83581         3.93818        -1.44355
| 90>    H       -5.17405         1.90148         0.99601
| 91>    H       -9.49565         5.77856         3.35704
| 92>    H      -10.76534         8.19767         3.36516
| 93>    H      -10.81456        10.38722         2.00132
| 94>    H      -10.28145        12.21321         0.18617
| 95>    H       -9.44179        13.35361        -1.96713
| 96>    H       -7.75319        12.77321        -4.12009
| 97>    H       -6.60996        10.11810        -3.50846
| 98>    H       -4.19361         9.37193        -7.55877
| 99>    H       -5.93425         8.47938        -4.13664
|100>    H       -3.92991         7.46021        -6.19519
|101>    H       -5.51678         6.25988        -3.84651
|102>    H       -4.62125         1.14374        -3.45572
|103>    H       -0.79655         2.81077        -6.23366
|104>    H       -3.54219        -1.38986        -3.93960
|105> *
|106>
|107>                          ****END OF INPUT****

CARTESIAN COORDINATES (ANGSTROEM)
---------------------------------
  C     -1.516640    1.664660   -1.805160
  C     -0.730670    2.599210   -2.435330
  C      0.416390    2.274610   -3.189230
  N      1.337270    2.066520   -3.842510
  C     -0.952760    3.987270   -2.497760
  N     -1.046090    5.125950   -2.630620
  C     -1.234720    0.234170   -1.782720
  C     -2.303230   -0.425110   -1.130450
  C     -2.352570   -1.789190   -0.979150
  C     -1.281180   -2.540750   -1.474130
  C     -0.194290   -1.869600   -2.083910
  C     -0.156020   -0.491130   -2.253990
  S      1.045690   -2.979250   -2.581180
  C      0.091060   -4.312990   -1.994920
  C     -1.090890   -3.948230   -1.442540
  Br     0.743470   -6.059830   -2.163440
  C     -3.275740    0.575850   -0.646520
  O     -4.295340    0.326320   -0.035710
  C     -2.752530    1.887760   -1.079670
  C     -3.331960    3.123780   -0.928830
  C     -4.467500    3.550750   -0.225970
  S     -4.931330    5.237590   -0.502870
  C     -6.205350    5.086560    0.621970
  N     -7.103620    5.959360    1.047250
  C     -7.888430    5.444640    1.970070
  S     -7.536540    3.745340    2.361920
  C     -6.257670    3.792000    1.193210
  C     -5.292770    2.928990    0.706690
  C     -8.904350    6.199630    2.560640
  C     -9.145980    7.476350    2.097380
  C    -10.113230    8.413290    2.537090
  C    -10.137020    9.572200    1.816510
  C     -9.194190    9.590820    0.767590
  S     -8.235810    8.115550    0.761220
  C     -8.973950   10.523500   -0.226850
  C     -9.551850   11.787980   -0.479510
  C     -9.107080   12.393370   -1.617820
  C     -8.158110   11.631300   -2.344100
  S     -7.819560   10.129200   -1.475710
  C     -7.569190   11.873320   -3.554500
  N     -6.742770   10.941420   -4.090660
  C     -6.109580   10.905160   -5.278080
  S     -6.093210   12.243220   -6.374460
  C     -5.099290   11.311040   -7.458640
  N     -4.746430   11.924500   -8.665200
  O     -4.075860   11.289070   -9.455200
  O     -5.156600   13.062490   -8.830430
  C     -4.800590   10.058960   -6.998980
  C     -5.381800    9.787000   -5.744440
  C     -5.324060    8.553410   -5.029650
  C     -4.581120    7.460490   -5.336370
  C     -4.676920    6.297280   -4.535640
  C     -3.929420    5.158940   -4.544070
  C     -2.668990    4.795820   -5.157050
  C     -1.654280    5.647110   -5.502970
  C     -0.416780    5.220130   -6.030750
  N      0.592360    4.926760   -6.491030
  C     -1.676070    7.042450   -5.293880
  N     -1.627310    8.176400   -5.126380
  C     -2.564860    3.337420   -5.103750
  C     -3.634720    2.833580   -4.320810
  C     -4.482430    3.953110   -3.878580
  O     -5.453350    3.904890   -3.153500
  C     -3.796070    1.495310   -4.055610
  C     -2.857670    0.608060   -4.590370
  C     -1.786890    1.117560   -5.364070
  C     -1.625080    2.472600   -5.633500
  S     -0.741980   -0.152420   -5.920060
  C     -1.757930   -1.333830   -5.137780
  C     -2.816340   -0.808060   -4.477650
  Br    -1.345130   -3.154590   -5.274610
  H     -3.187130   -2.262020   -0.485200
  H      0.693710   -0.031860   -2.729910
  H     -1.799810   -4.643090   -1.031100
  H     -2.835810    3.938180   -1.443550
  H     -5.174050    1.901480    0.996010
  H     -9.495650    5.778560    3.357040
  H    -10.765340    8.197670    3.365160
  H    -10.814560   10.387220    2.001320
  H    -10.281450   12.213210    0.186170
  H     -9.441790   13.353610   -1.967130
  H     -7.753190   12.773210   -4.120090
  H     -6.609960   10.118100   -3.508460
  H     -4.193610    9.371930   -7.558770
  H     -5.934250    8.479380   -4.136640
  H     -3.929910    7.460210   -6.195190
  H     -5.516780    6.259880   -3.846510
  H     -4.621250    1.143740   -3.455720
  H     -0.796550    2.810770   -6.233660
  H     -3.542190   -1.389860   -3.939600

 Total Charge           Charge          ....    0
 Multiplicity           Mult            ....    1
 Number of Electrons    NEL             ....  588
 Basis Dimension        Dim             .... 1153

ORBITAL ENERGIES
----------------

  NO   OCC          E(Eh)            E(eV)
   0   2.0000    -482.883763    -13139.9352
   1   2.0000    -482.882780    -13139.9085
   2   2.0000     -88.995691     -2421.6959
   3   2.0000     -88.972133     -2421.0548
   4   2.0000     -88.971834     -2421.0467
   5   2.0000     -88.968587     -2420.9583
   6   2.0000     -88.967083     -2420.9174
   7   2.0000     -88.963259     -2420.8134
   8   2.0000     -88.952629     -2420.5241
   9   2.0000     -62.561542     -1702.3861
  10   2.0000     -62.560153     -1702.3483
  11   2.0000     -56.395479     -1534.5990
  12   2.0000     -56.394094     -1534.5613
  13   2.0000     -56.392771     -1534.5253
  14   2.0000     -56.392768     -1534.5252
  15   2.0000     -56.391418     -1534.4885
  16   2.0000     -56.391369     -1534.4872
  17   2.0000     -19.239320      -523.5285
  18   2.0000     -19.239277      -523.5273
  19   2.0000     -19.213242      -522.8189
  20   2.0000     -19.213044      -522.8135
  21   2.0000     -14.651233      -398.6803
  22   2.0000     -14.507184      -394.7605
  23   2.0000     -14.420036      -392.3891
  24   2.0000     -14.414672      -392.2432
  25   2.0000     -14.407899      -392.0589
  26   2.0000     -14.407241      -392.0410
  27   2.0000     -14.406267      -392.0145
  28   2.0000     -10.385110      -282.5932
  29   2.0000     -10.363817      -282.0138
  30   2.0000     -10.361999      -281.9643
  31   2.0000     -10.359854      -281.9060
  32   2.0000     -10.355453      -281.7862
  33   2.0000     -10.354605      -281.7631
  34   2.0000     -10.350757      -281.6584
  35   2.0000     -10.348769      -281.6043
  36   2.0000     -10.341381      -281.4033
  37   2.0000     -10.337174      -281.2888
  38   2.0000     -10.336756      -281.2774
  39   2.0000     -10.335761      -281.2504
  40   2.0000     -10.333563      -281.1905
  41   2.0000     -10.333048      -281.1765
  42   2.0000     -10.330016      -281.0940
  43   2.0000     -10.324366      -280.9403
  44   2.0000     -10.322140      -280.8797
  45   2.0000     -10.321252      -280.8555
  46   2.0000     -10.318839      -280.7899
  47   2.0000     -10.317750      -280.7603
  48   2.0000     -10.316846      -280.7357
  49   2.0000     -10.316359      -280.7224
  50   2.0000     -10.314043      -280.6594
  51   2.0000     -10.311659      -280.5945
  52   2.0000     -10.311541      -280.5913
  53   2.0000     -10.310771      -280.5704
  54   2.0000     -10.310584      -280.5653
  55   2.0000     -10.308626      -280.5120
  56   2.0000     -10.308596      -280.5112
  57   2.0000     -10.308544      -280.5097
  58   2.0000     -10.306944      -280.4662
  59   2.0000     -10.305936      -280.4388
  60   2.0000     -10.305590      -280.4294
  61   2.0000     -10.304081      -280.3883
  62   2.0000     -10.304061      -280.3878
  63   2.0000     -10.302915      -280.3566
  64   2.0000     -10.301381      -280.3148
  65   2.0000     -10.300727      -280.2970
  66   2.0000     -10.300370      -280.2873
  67   2.0000     -10.298620      -280.2397
  68   2.0000     -10.297788      -280.2170
  69   2.0000     -10.295406      -280.1522
  70   2.0000     -10.293766      -280.1076
  71   2.0000     -10.293424      -280.0983
  72   2.0000     -10.293068      -280.0886
  73   2.0000     -10.292489      -280.0729
  74   2.0000     -10.291751      -280.0528
  75   2.0000     -10.289416      -279.9892
  76   2.0000     -10.289046      -279.9792
  77   2.0000     -10.288032      -279.9516
  78   2.0000     -10.287519      -279.9376
  79   2.0000      -8.791002      -239.2153
  80   2.0000      -8.789503      -239.1745
  81   2.0000      -8.091011      -220.1676
  82   2.0000      -8.067671      -219.5325
  83   2.0000      -8.067654      -219.5320
  84   2.0000      -8.065102      -219.4626
  85   2.0000      -8.062609      -219.3947
  86   2.0000      -8.058794      -219.2909
  87   2.0000      -8.046881      -218.9668
  88   2.0000      -6.627254      -180.3368
  89   2.0000      -6.625736      -180.2954
  90   2.0000      -6.612773      -179.9427
  91   2.0000      -6.612561      -179.9369
  92   2.0000      -6.611285      -179.9022
  93   2.0000      -6.611063      -179.8962
  94   2.0000      -6.060778      -164.9222
  95   2.0000      -6.056305      -164.8004
  96   2.0000      -6.052366      -164.6932
  97   2.0000      -6.037373      -164.2853
  98   2.0000      -6.037337      -164.2843
  99   2.0000      -6.034933      -164.2189
 100   2.0000      -6.033088      -164.1687
 101   2.0000      -6.033084      -164.1686
 102   2.0000      -6.032089      -164.1415
 103   2.0000      -6.030876      -164.1085
 104   2.0000      -6.028913      -164.0551
 105   2.0000      -6.028881      -164.0542
 106   2.0000      -6.028319      -164.0389
 107   2.0000      -6.028027      -164.0310
 108   2.0000      -6.025850      -163.9717
 109   2.0000      -6.024236      -163.9278
 110   2.0000      -6.023918      -163.9191
 111   2.0000      -6.020546      -163.8274
 112   2.0000      -6.016882      -163.7277
 113   2.0000      -6.012180      -163.5997
 114   2.0000      -6.007990      -163.4857
 115   2.0000      -2.743126       -74.6442
 116   2.0000      -2.741633       -74.6036
 117   2.0000      -2.739087       -74.5343
 118   2.0000      -2.738924       -74.5299
 119   2.0000      -2.737585       -74.4935
 120   2.0000      -2.737415       -74.4889
 121   2.0000      -2.727414       -74.2167
 122   2.0000      -2.727398       -74.2163
 123   2.0000      -2.725931       -74.1764
 124   2.0000      -2.725915       -74.1759
 125   2.0000      -1.320521       -35.9332
 126   2.0000      -1.140069       -31.0229
 127   2.0000      -1.128206       -30.7001
 128   2.0000      -1.127747       -30.6876
 129   2.0000      -1.115586       -30.3566
 130   2.0000      -1.082722       -29.4624
 131   2.0000      -1.022276       -27.8176
 132   2.0000      -1.019557       -27.7436
 133   2.0000      -1.016048       -27.6481
 134   2.0000      -1.010811       -27.5056
 135   2.0000      -1.008289       -27.4369
 136   2.0000      -1.006050       -27.3760
 137   2.0000      -0.991475       -26.9794
 138   2.0000      -0.989594       -26.9282
 139   2.0000      -0.985363       -26.8131
 140   2.0000      -0.985074       -26.8052
 141   2.0000      -0.983616       -26.7655
 142   2.0000      -0.976786       -26.5797
 143   2.0000      -0.943984       -25.6871
 144   2.0000      -0.938579       -25.5400
 145   2.0000      -0.932788       -25.3825
 146   2.0000      -0.916267       -24.9329
 147   2.0000      -0.907143       -24.6846
 148   2.0000      -0.905989       -24.6532
 149   2.0000      -0.903661       -24.5899
 150   2.0000      -0.903194       -24.5772
 151   2.0000      -0.892638       -24.2899
 152   2.0000      -0.886963       -24.1355
 153   2.0000      -0.882424       -24.0120
 154   2.0000      -0.881471       -23.9860
 155   2.0000      -0.875841       -23.8328
 156   2.0000      -0.867676       -23.6107
 157   2.0000      -0.864591       -23.5267
 158   2.0000      -0.857111       -23.3232
 159   2.0000      -0.835074       -22.7235
 160   2.0000      -0.831346       -22.6221
 161   2.0000      -0.828320       -22.5397
 162   2.0000      -0.825641       -22.4668
 163   2.0000      -0.824030       -22.4230
 164   2.0000      -0.820314       -22.3219
 165   2.0000      -0.801883       -21.8204
 166   2.0000      -0.785554       -21.3760
 167   2.0000      -0.772546       -21.0220
 168   2.0000      -0.759945       -20.6792
 169   2.0000      -0.756106       -20.5747
 170   2.0000      -0.751261       -20.4429
 171   2.0000      -0.740195       -20.1417
 172   2.0000      -0.735701       -20.0194
 173   2.0000      -0.715931       -19.4815
 174   2.0000      -0.704075       -19.1589
 175   2.0000      -0.696399       -18.9500
 176   2.0000      -0.694222       -18.8907
 177   2.0000      -0.687459       -18.7067
 178   2.0000      -0.681595       -18.5471
 179   2.0000      -0.680459       -18.5162
 180   2.0000      -0.673914       -18.3381
 181   2.0000      -0.672076       -18.2881
 182   2.0000      -0.663016       -18.0416
 183   2.0000      -0.657313       -17.8864
 184   2.0000      -0.654815       -17.8184
 185   2.0000      -0.651458       -17.7271
 186   2.0000      -0.644587       -17.5401
 187   2.0000      -0.639529       -17.4025
 188   2.0000      -0.636931       -17.3318
 189   2.0000      -0.634309       -17.2604
 190   2.0000      -0.632586       -17.2136
 191   2.0000      -0.630268       -17.1505
 192   2.0000      -0.619158       -16.8481
 193   2.0000      -0.618679       -16.8351
 194   2.0000      -0.611124       -16.6295
 195   2.0000      -0.606498       -16.5037
 196   2.0000      -0.596991       -16.2450
 197   2.0000      -0.595157       -16.1950
 198   2.0000      -0.592894       -16.1335
 199   2.0000      -0.590913       -16.0796
 200   2.0000      -0.579571       -15.7709
 201   2.0000      -0.577394       -15.7117
 202   2.0000      -0.575277       -15.6541
 203   2.0000      -0.569784       -15.5046
 204   2.0000      -0.560036       -15.2394
 205   2.0000      -0.558006       -15.1841
 206   2.0000      -0.555415       -15.1136
 207   2.0000      -0.553996       -15.0750
 208   2.0000      -0.550886       -14.9904
 209   2.0000      -0.547980       -14.9113
 210   2.0000      -0.544087       -14.8054
 211   2.0000      -0.540789       -14.7156
 212   2.0000      -0.537018       -14.6130
 213   2.0000      -0.534954       -14.5568
 214   2.0000      -0.532359       -14.4862
 215   2.0000      -0.531182       -14.4542
 216   2.0000      -0.527644       -14.3579
 217   2.0000      -0.523496       -14.2450
 218   2.0000      -0.522907       -14.2290
 219   2.0000      -0.514161       -13.9910
 220   2.0000      -0.513300       -13.9676
 221   2.0000      -0.511032       -13.9059
 222   2.0000      -0.508702       -13.8425
 223   2.0000      -0.507975       -13.8227
 224   2.0000      -0.506478       -13.7820
 225   2.0000      -0.503557       -13.7025
 226   2.0000      -0.501388       -13.6435
 227   2.0000      -0.498771       -13.5722
 228   2.0000      -0.496188       -13.5020
 229   2.0000      -0.495003       -13.4697
 230   2.0000      -0.491137       -13.3645
 231   2.0000      -0.489594       -13.3225
 232   2.0000      -0.487615       -13.2687
 233   2.0000      -0.486014       -13.2251
 234   2.0000      -0.484368       -13.1803
 235   2.0000      -0.479089       -13.0367
 236   2.0000      -0.475629       -12.9425
 237   2.0000      -0.468400       -12.7458
 238   2.0000      -0.467909       -12.7325
 239   2.0000      -0.463761       -12.6196
 240   2.0000      -0.457531       -12.4501
 241   2.0000      -0.455232       -12.3875
 242   2.0000      -0.453776       -12.3479
 243   2.0000      -0.452167       -12.3041
 244   2.0000      -0.450694       -12.2640
 245   2.0000      -0.447712       -12.1829
 246   2.0000      -0.447438       -12.1754
 247   2.0000      -0.444640       -12.0993
 248   2.0000      -0.444053       -12.0833
 249   2.0000      -0.441298       -12.0083
 250   2.0000      -0.439975       -11.9723
 251   2.0000      -0.438633       -11.9358
 252   2.0000      -0.436071       -11.8661
 253   2.0000      -0.434829       -11.8323
 254   2.0000      -0.434134       -11.8134
 255   2.0000      -0.431259       -11.7351
 256   2.0000      -0.427307       -11.6276
 257   2.0000      -0.424608       -11.5542
 258   2.0000      -0.420790       -11.4503
 259   2.0000      -0.419173       -11.4063
 260   2.0000      -0.418504       -11.3881
 261   2.0000      -0.414374       -11.2757
 262   2.0000      -0.412627       -11.2281
 263   2.0000      -0.402840       -10.9618
 264   2.0000      -0.400769       -10.9055
 265   2.0000      -0.398800       -10.8519
 266   2.0000      -0.397367       -10.8129
 267   2.0000      -0.387872       -10.5545
 268   2.0000      -0.387164       -10.5353
 269   2.0000      -0.387015       -10.5312
 270   2.0000      -0.380293       -10.3483
 271   2.0000      -0.379220       -10.3191
 272   2.0000      -0.376128       -10.2350
 273   2.0000      -0.373252       -10.1567
 274   2.0000      -0.370112       -10.0712
 275   2.0000      -0.368145       -10.0177
 276   2.0000      -0.367518       -10.0007
 277   2.0000      -0.358528        -9.7560
 278   2.0000      -0.355463        -9.6727
 279   2.0000      -0.346024        -9.4158
 280   2.0000      -0.340196        -9.2572
 281   2.0000      -0.337826        -9.1927
 282   2.0000      -0.334838        -9.1114
 283   2.0000      -0.332825        -9.0566
 284   2.0000      -0.330367        -8.9897
 285   2.0000      -0.318550        -8.6682
 286   2.0000      -0.314355        -8.5540
 287   2.0000      -0.307730        -8.3738
 288   2.0000      -0.303490        -8.2584
 289   2.0000      -0.291598        -7.9348
 290   2.0000      -0.287691        -7.8285
 291   2.0000      -0.284791        -7.7496
 292   2.0000      -0.265318        -7.2197
 293   2.0000      -0.227135        -6.1807
 294   0.0000      -0.106341        -2.8937
 295   0.0000      -0.087989        -2.3943
 296   0.0000      -0.079304        -2.1580
 297   0.0000      -0.058759        -1.5989
 298   0.0000      -0.056840        -1.5467

MULLIKEN ATOMIC CHARGES
-----------------------
   0 C :    0.334779
   1 C :   -0.389963
   2 C :   -0.210155
   3 N :    0.165265
   4 C :   -0.157009
   5 N :    0.131632
   6 C :    0.023014
   7 C :   -0.013368
   8 C :   -0.095485
   9 C :    0.126746
  10 C :   -0.092266
  11 C :   -0.026197
  12 S :    0.186526
  13 C :   -0.125441
  14 C :    0.039672
  15 Br:    0.019421
  16 C :    0.133207
  17 O :   -0.163720
  18 C :   -0.092462
  19 C :    0.039979
  20 C :   -0.105579
  21 S :    0.161419
  22 C :   -0.032010
  23 N :   -0.126555
  24 C :   -0.021088
  25 S :    0.134449
  26 C :   -0.026470
  27 C :   -0.002768
  28 C :   -0.011303
  29 C :    0.001581
  30 C :    0.028948
  31 C :    0.041405
  32 C :   -0.044537
  33 S :    0.118618
  34 C :   -0.029260
  35 C :    0.027128
  36 C :    0.058675
  37 C :   -0.054246
  38 S :    0.020397
  39 C :    0.056168
  40 N :   -0.028050
  41 C :   -0.103588
  42 S :    0.169403
  43 C :   -0.008276
  44 N :    0.277674
  45 O :   -0.242058
  46 O :   -0.267849
  47 C :    0.030033
  48 C :    0.135568
  49 C :   -0.042286
  50 C :    0.032049
  51 C :   -0.009313
  52 C :   -0.080733
  53 C :    0.285836
  54 C :   -0.325064
  55 C :   -0.183740
  56 N :    0.168180
  57 C :   -0.198758
  58 N :    0.167144
  59 C :    0.011924
  60 C :   -0.018710
  61 C :    0.112416
  62 O :   -0.152786
  63 C :   -0.055340
  64 C :    0.104655
  65 C :   -0.094382
  66 C :   -0.030922
  67 S :    0.198648
  68 C :   -0.138320
  69 C :    0.057339
  70 Br:    0.024865
  71 H :   -0.014565
  72 H :   -0.006575
  73 H :   -0.007059
  74 H :    0.001820
  75 H :    0.018609
  76 H :   -0.013447
  77 H :   -0.009720
  78 H :   -0.011727
  79 H :   -0.004301
  80 H :   -0.001325
  81 H :    0.031011
  82 H :    0.163789
  83 H :    0.021489
  84 H :   -0.016663
  85 H :    0.020262
  86 H :    0.014420
  87 H :   -0.006617
  88 H :    0.000680
  89 H :   -0.004786
Sum of atomic charges:   -0.0000000

LOEWDIN ATOMIC CHARGES
----------------------
   0 C :    0.079162
   1 C :   -0.156145
   2 C :   -0.019968
   3 N :   -0.059606
   4 C :   -0.019074
   5 N :   -0.062680
   6 C :   -0.021124
   7 C :   -0.051452
   8 C :    0.014637
   9 C :   -0.035212
  10 C :   -0.146690
  11 C :   -0.010978
  12 S :    0.434787
  13 C :   -0.275976
  14 C :   -0.071535
  15 Br:    0.134514
  16 C :    0.081373
  17 O :   -0.153345
  18 C :   -0.113559
  19 C :    0.047792
  20 C :   -0.170452
  21 S :    0.464006
  22 C :   -0.159313
  23 N :   -0.144394
  24 C :   -0.099504
  25 S :    0.394121
  26 C :   -0.225789
  27 C :   -0.010076
  28 C :   -0.115424
  29 C :   -0.108710
  30 C :   -0.044618
  31 C :   -0.016729
  32 C :   -0.206324
  33 S :    0.435351
  34 C :   -0.146442
  35 C :   -0.040828
  36 C :   -0.013749
  37 C :   -0.183986
  38 S :    0.357985
  39 C :    0.010256
  40 N :    0.058812
  41 C :   -0.094156
  42 S :    0.458314
  43 C :   -0.203848
  44 N :    0.273389
  45 O :   -0.208703
  46 O :   -0.234117
  47 C :    0.021519
  48 C :   -0.106307
  49 C :    0.017899
  50 C :   -0.022667
  51 C :    0.062393
  52 C :   -0.090585
  53 C :    0.064907
  54 C :   -0.123214
  55 C :   -0.019309
  56 N :   -0.040958
  57 C :   -0.015238
  58 N :   -0.050006
  59 C :   -0.016257
  60 C :   -0.058769
  61 C :    0.076404
  62 O :   -0.152181
  63 C :    0.022685
  64 C :   -0.038548
  65 C :   -0.143130
  66 C :   -0.009485
  67 S :    0.445716
  68 C :   -0.275303
  69 C :   -0.070205
  70 Br:    0.142494
  71 H :    0.038795
  72 H :    0.039342
  73 H :    0.037523
  74 H :    0.038424
  75 H :    0.038413
  76 H :    0.034465
  77 H :    0.033932
  78 H :    0.031585
  79 H :    0.036524
  80 H :    0.038089
  81 H :    0.036545
  82 H :    0.079439
  83 H :    0.050980
  84 H :    0.027678
  85 H :    0.033575
  86 H :    0.041327
  87 H :    0.041214
  88 H :    0.043274
  89 H :    0.037027

  Mayer bond orders larger than 0.100000
B(  0-C ,  1-C ) :   1.5986 B(  0-C ,  6-C ) :   0.9892 B(  0-C , 18-C ) :   1.1021
B(  1-C ,  2-C ) :   1.1578 B(  1-C ,  4-C ) :   1.1506 B(  2-C ,  3-N ) :   2.9511
B(  4-C ,  5-N ) :   2.8735 B(  6-C ,  7-C ) :   1.2729 B(  6-C , 11-C ) :   1.4128
B(  7-C ,  8-C ) :   1.4141 B(  7-C , 16-C ) :   0.9440 B(  8-C ,  9-C ) :   1.2307
B(  8-C , 71-H ) :   1.0189 B(  9-C , 10-C ) :   1.3087 B(  9-C , 14-C ) :   1.1638
B( 10-C , 11-C ) :   1.3135 B( 10-C , 12-S ) :   1.0863 B( 11-C , 72-H ) :   0.9839
B( 12-S , 13-C ) :   1.0881 B( 13-C , 14-C ) :   1.6134 B( 13-C , 15-Br) :   1.0168
B( 14-C , 73-H ) :   1.0003 B( 16-C , 17-O ) :   2.1734 B( 16-C , 18-C ) :   0.9531
B( 18-C , 19-C ) :   1.5492 B( 19-C , 20-C ) :   1.2856 B( 19-C , 74-H ) :   0.8912
B( 20-C , 21-S ) :   1.0651 B( 20-C , 27-C ) :   1.3975 B( 21-S , 22-C ) :   1.1639
B( 22-C , 23-N ) :   1.4131 B( 22-C , 26-C ) :   1.2783 B( 23-N , 24-C ) :   1.5118
B( 23-N , 33-S ) :   0.1007 B( 24-C , 25-S ) :   1.0623 B( 24-C , 28-C ) :   1.2281
B( 25-S , 26-C ) :   1.0454 B( 26-C , 27-C ) :   1.3353 B( 27-C , 75-H ) :   0.9810
B( 28-C , 29-C ) :   1.5113 B( 28-C , 76-H ) :   0.9692 B( 29-C , 30-C ) :   1.1633
B( 29-C , 33-S ) :   1.1081 B( 30-C , 31-C ) :   1.5736 B( 30-C , 77-H ) :   0.9994
B( 31-C , 32-C ) :   1.1968 B( 31-C , 78-H ) :   0.9959 B( 32-C , 33-S ) :   0.9840
B( 32-C , 34-C ) :   1.5116 B( 34-C , 35-C ) :   1.1890 B( 34-C , 38-S ) :   1.0660
B( 35-C , 36-C ) :   1.6003 B( 35-C , 79-H ) :   0.9938 B( 36-C , 37-C ) :   1.1612
B( 36-C , 80-H ) :   0.9948 B( 37-C , 38-S ) :   1.0118 B( 37-C , 39-C ) :   1.5819
B( 39-C , 40-N ) :   1.1527 B( 39-C , 81-H ) :   0.9663 B( 40-N , 41-C ) :   1.2557
B( 40-N , 82-H ) :   0.8924 B( 41-C , 42-S ) :   1.1374 B( 41-C , 48-C ) :   1.3144
B( 42-S , 43-C ) :   1.0588 B( 43-C , 44-N ) :   0.9708 B( 43-C , 47-C ) :   1.5162
B( 44-N , 45-O ) :   1.5389 B( 44-N , 46-O ) :   1.5043 B( 45-O , 46-O ) :   0.2583
B( 47-C , 48-C ) :   1.2268 B( 47-C , 83-H ) :   0.9984 B( 48-C , 49-C ) :   1.0702
B( 49-C , 50-C ) :   1.6816 B( 49-C , 84-H ) :   0.9698 B( 50-C , 51-C ) :   1.1284
B( 50-C , 85-H ) :   0.9622 B( 51-C , 52-C ) :   1.6085 B( 51-C , 86-H ) :   0.9451
B( 52-C , 53-C ) :   1.0237 B( 52-C , 61-C ) :   0.9569 B( 53-C , 54-C ) :   1.6607
B( 53-C , 59-C ) :   1.0060 B( 54-C , 55-C ) :   1.1350 B( 54-C , 57-C ) :   1.1635
B( 55-C , 56-N ) :   2.9823 B( 57-C , 58-N ) :   3.0081 B( 59-C , 60-C ) :   1.2773
B( 59-C , 66-C ) :   1.4054 B( 60-C , 61-C ) :   0.9326 B( 60-C , 63-C ) :   1.4174
B( 61-C , 62-O ) :   2.2042 B( 63-C , 64-C ) :   1.2496 B( 63-C , 87-H ) :   1.0134
B( 64-C , 65-C ) :   1.3093 B( 64-C , 69-C ) :   1.1619 B( 65-C , 66-C ) :   1.3091
B( 65-C , 67-S ) :   1.0913 B( 66-C , 88-H ) :   0.9878 B( 67-S , 68-C ) :   1.0847
B( 68-C , 69-C ) :   1.6084 B( 68-C , 70-Br) :   1.0215 B( 69-C , 89-H ) :   0.9999

-----------------------------------------------------------------------------
         ABSORPTION SPECTRUM VIA TRANSITION ELECTRIC DIPOLE MOMENTS
-----------------------------------------------------------------------------
State   Energy  Wavelength   fosc         T2         TX        TY        TZ
        (cm-1)    (nm)                  (au**2)     (au)      (au)      (au)
-----------------------------------------------------------------------------
   0   11326.3    882.9   0.426564202  12.39858   0.78260  -2.83025   1.94314
   1   16393.4    610.0   0.490935655   9.85899  -1.75969   2.58106   0.31722
   2   19429.0    514.7   0.646523534  10.95495  -1.87717  -0.32747   2.70628
   3   20535.5    487.0   1.146560635  18.38093   2.99438  -2.51654  -1.75547
   4   22763.8    439.3   0.243025935   3.51466  -0.14263  -1.16297   1.46349
   5   23109.5    432.7   0.050197178   0.71510  -0.46172  -0.29169   0.64562
   6   23719.4    421.6   0.355759059   4.93774   1.35504  -1.51295  -0.90143
   7   24681.8    405.2   0.279668721   3.73030   0.00360   1.53911  -1.16680
   8   25241.0    396.2   0.093326618   1.21724  -0.63124   0.70839   0.56299
   9   25661.7    389.7   0.097834387   1.25511   0.26092  -1.03292   0.34655
  10   26121.8    382.8   0.007080123   0.08923  -0.21996  -0.12525  -0.15862
  11   26888.1    371.9   0.238883623   2.92484   0.57320  -1.61016   0.06061
  12   27138.0    368.5   0.007674914   0.09310   0.27517   0.11181   0.06989
  13   27177.3    368.0   0.078469399   0.95054  -0.82139   0.52351   0.04241
  14   27567.1    362.8   0.067610817   0.80742   0.06730  -0.72808  -0.52230
  15   28665.5    348.9   0.223468291   2.56644  -0.11058   1.58996  -0.16196
  16   29043.1    344.3   0.012478330   0.14145   0.34431   0.00093  -0.15132
  17   29128.8    343.3   0.049866388   0.56359  -0.23899  -0.39966   0.58885
  18   29523.1    338.7   0.004512677   0.05032  -0.05253  -0.04478  -0.21344
  19   29677.4    337.0   0.072695444   0.80641  -0.57339   0.62638   0.29204
  20   29770.1    335.9   0.131167037   1.45051   0.09086   1.08570  -0.51333
  21   30186.0    331.3   0.069082867   0.75342   0.29673  -0.81472   0.04018
  22   30531.4    327.5   0.005436135   0.05862  -0.13366   0.19292   0.05945
  23   30633.6    326.4   0.093977988   1.00996   0.14422  -0.96877   0.22504
  24   30943.1    323.2   0.046776301   0.49766   0.21084  -0.67318  -0.00663
  25   31077.6    321.8   0.000670694   0.00710  -0.06966  -0.04032  -0.02503
  26   31170.1    320.8   0.034516482   0.36456   0.10440  -0.52760   0.27439
  27   31499.5    317.5   0.099162801   1.03638  -0.68631  -0.09896   0.74537
  28   31933.8    313.1   0.034474105   0.35540  -0.07819   0.54711   0.22351
  29   32127.8    311.3   0.078729119   0.80673  -0.23299   0.81151  -0.30643
  30   32259.3    310.0   0.007782335   0.07942   0.21041  -0.01834   0.18658
  31   32420.4    308.4   0.033175738   0.33688   0.25005   0.26819  -0.44993
  32   32612.7    306.6   0.144439365   1.45806  -0.34617  -0.95770   0.64887
  33   32728.2    305.5   0.010518206   0.10580   0.20279  -0.15928  -0.19826
  34   32865.1    304.3   0.017099693   0.17129   0.05863   0.40953  -0.01154
  35   33055.3    302.5   0.133721343   1.33179   0.20962   1.12370  -0.15861
  36   33644.9    297.2   0.193754113   1.89586   0.23388   1.33516  -0.24191
  37   33807.9    295.8   0.704670616   6.86188  -0.17188   2.61337  -0.05139
  38   33957.7    294.5   0.017418137   0.16886  -0.08042   0.23731  -0.32570
  39   34391.2    290.8   0.123578437   1.18296   0.40880   0.83891  -0.55863
  40   34587.3    289.1   0.051820568   0.49324   0.36429  -0.59778  -0.05652
  41   34732.6    287.9   0.006464478   0.06127  -0.10986  -0.21789   0.04155
  42   35248.2    283.7   0.040912116   0.38211  -0.01856  -0.51466   0.34189
  43   35388.4    282.6   0.049874344   0.46397  -0.30947   0.60153   0.07975
  44   35580.7    281.1   0.008784486   0.08128  -0.01050   0.00046  -0.28490
  45   35902.9    278.5   0.013554396   0.12429  -0.15952  -0.28548   0.13169
  46   35956.1    278.1   0.086179126   0.78905  -0.23554  -0.84488   0.14055
  47   36198.9    276.3   0.097887530   0.89024  -0.34750  -0.84767   0.22570
  48   36598.1    273.2   0.035216350   0.31678   0.37711  -0.40692  -0.09478
  49   36968.1    270.5   0.014951801   0.13315  -0.29552  -0.14975   0.15296
  50   37506.6    266.6   0.039231566   0.34435   0.50644  -0.11939  -0.27133
  51   37649.2    265.6   0.016588130   0.14505   0.17734   0.14710  -0.30325
  52   38000.9    263.2   0.182966174   1.58509  -0.90765  -0.44098   0.75286
  53   38190.4    261.8   0.009788696   0.08438   0.28891   0.02972  -0.00542
  54   38351.6    260.7   0.016813814   0.14433   0.15919   0.01605  -0.34457
  55   38491.4    259.8   0.026042036   0.22273  -0.11160   0.43397   0.14817
  56   38588.9    259.1   0.022066166   0.18825   0.18590   0.35032  -0.17599
  57   38777.5    257.9   0.018799103   0.15960   0.28781   0.22455  -0.16230
  58   39121.0    255.6   0.001948419   0.01640   0.12262   0.03562   0.00962
  59   39180.5    255.2   0.006696927   0.05627  -0.18173   0.15131  -0.01874
  60   39431.8    253.6   0.015706529   0.13113  -0.16916   0.16848   0.27227
  61   39795.8    251.3   0.089508273   0.74046  -0.56434  -0.33221   0.55823
  62   39859.3    250.9   0.002289616   0.01891   0.08678   0.09791  -0.04236
  63   39984.9    250.1   0.042935976   0.35351   0.40712  -0.42477   0.08562
  64   40109.4    249.3   0.011127886   0.09134  -0.17560   0.10099  -0.22428
  65   40277.1    248.3   0.118094146   0.96526   0.75342  -0.44219  -0.44954

FINAL SINGLE POINT ENERGY    -10569.896424506054

DIPOLE MOMENT
-------------
                                X             Y             Z
Electronic contribution:     91.62085    -188.06726     -25.33001
Nuclear contribution   :    -96.42079     187.69281      28.30603
                        -----------------------------------------
Total Dipole Moment    :     -4.79994      -0.37444       2.97602
                        -----------------------------------------
Magnitude (a.u.)       :      5.66007
Magnitude (Debye)      :     14.38675

Rotational constants in cm-1:     0.001222     0.000376     0.000302
Rotational constants in MHz :    36.637689    11.267298     9.047968

                             ****ORCA TERMINATED NORMALLY****
TOTAL RUN TIME: 0 days 0 hours 15 minutes 18 seconds 118 msec
