                         Program Version 4.2.0 -  RELEASE  -
|  1> # ORCA input file
|  2> # SCF done       -122.124153274081          0.000256197083
|  3> ! CAM-B3LYP def2-SVP def2/J RIJCOSX Grid4 TightSCF
|  4> %maxcore 5000
|  5> %tddft
|  6>     Mode sTDDFT
|  7>     Ethresh 5.0
|  8>     maxcore 5000
|  9> end
| 10>
| 11> %pal
| 12>   nprocs 6
| 13>   end
| 14> * xyz 0 1
| 15>    C        5.53068        -9.51978        -2.85666
| 16>    C        5.18992       -10.26469        -1.79728
| 17>    C        4.19998       -11.30253        -1.73424
| 18>    C        4.07644       -11.88638        -0.52294
| 19>    C        4.95248       -11.36728         0.47233
| 20>    S        5.94678       -10.08955        -0.20517
| 21>    C        5.05804       -11.76435         1.78069
| 22>    C        4.31714       -12.76540         2.45882
| 23>    C        4.66339       -12.92058         3.76037
| 24>    C        5.70597       -12.06078         4.21508
| 25>    S        6.20927       -11.02690         2.88268
| 26>    C        6.24294       -12.13132         5.46861
| 27>    C        7.29294       -11.43101         6.11047
| 28>    O        7.79221       -12.06595         7.21113
| 29>    C        8.79857       -11.32485         7.69318
| 30>    C        8.97549       -10.20117         6.95464
| 31>    C        7.99372       -10.23214         5.92170
| 32>    C        7.72227        -9.19527         4.97847
| 33>    C        8.51308        -8.12632         4.77526
| 34>    N        8.17636        -7.13470         3.88775
| 35>    C        8.87102        -6.00353         3.61482
| 36>    S        7.98949        -4.62269         3.02392
| 37>    C        9.45273        -3.68588         3.05359
| 38>    N        9.39439        -2.36698         2.61971
| 39>    O       10.42375        -1.70987         2.65186
| 40>    O        8.30741        -1.95539         2.23761
| 41>    C       10.53719        -4.40388         3.48927
| 42>    C       10.23411        -5.73976         3.79918
| 43>    C       11.23736        -6.72848         4.13432
| 44>    C       12.39611        -6.44413         4.75147
| 45>    C       13.42231        -7.42313         4.97353
| 46>    C       14.56652        -7.23835         5.64777
| 47>    C       14.95130        -5.98223         6.36490
| 48>    C       15.59647        -8.33974         5.72257
| 49>    N       15.56283        -9.19580         4.56372
| 50>    C       16.02068       -10.48007         4.59227
| 51>    C       16.38848       -11.18266         3.50467
| 52>    C       16.79289       -12.55300         3.54966
| 53>    O       16.77318       -13.21859         4.73109
| 54>    C       17.21051       -14.47352         4.49172
| 55>    C       17.51592       -14.64025         3.18279
| 56>    C       17.25055       -13.39349         2.54268
| 57>    C       17.42214       -13.05988         1.15153
| 58>    C       17.88301       -13.88456         0.21547
| 59>    H        5.04506        -9.66240        -3.80580
| 60>    H        6.29116        -8.76314        -2.79646
| 61>    H        3.62535       -11.56328        -2.60526
| 62>    H        3.38594       -12.68026        -0.29927
| 63>    H        3.55557       -13.33941         1.96234
| 64>    H        4.21045       -13.63417         4.42620
| 65>    H        5.85143       -12.93274         6.08559
| 66>    H        9.30618       -11.69705         8.56148
| 67>    H        9.69771        -9.43129         7.13008
| 68>    H        6.80511        -9.27632         4.41753
| 69>    H        9.43723        -7.97679         5.30846
| 70>    H        7.24517        -7.19726         3.49405
| 71>    H       11.52205        -3.97632         3.53395
| 72>    H       11.03716        -7.74310         3.81509
| 73>    H       12.57786        -5.43514         5.09073
| 74>    H       13.24782        -8.39451         4.52769
| 75>    H       14.08914        -5.36637         6.59873
| 76>    H       15.63831        -5.39559         5.75336
| 77>    H       15.46344        -6.22675         7.29421
| 78>    H       15.40502        -8.96014         6.60616
| 79>    H       16.59137        -7.88364         5.85488
| 80>    H       15.66066        -8.71631         3.67963
| 81>    H       16.02592       -10.94569         5.56753
| 82>    H       16.38914       -10.71505         2.53159
| 83>    H       17.25517       -15.13912         5.33103
| 84>    H       17.88357       -15.53406         2.72298
| 85>    H       17.14685       -12.04928         0.87886
| 86>    H       18.17156       -14.89757         0.43612
| 87>    H       17.98842       -13.57096        -0.80876
| 88> *
| 89>
| 90>                          ****END OF INPUT****

CARTESIAN COORDINATES (ANGSTROEM)
---------------------------------
  C      5.530680   -9.519780   -2.856660
  C      5.189920  -10.264690   -1.797280
  C      4.199980  -11.302530   -1.734240
  C      4.076440  -11.886380   -0.522940
  C      4.952480  -11.367280    0.472330
  S      5.946780  -10.089550   -0.205170
  C      5.058040  -11.764350    1.780690
  C      4.317140  -12.765400    2.458820
  C      4.663390  -12.920580    3.760370
  C      5.705970  -12.060780    4.215080
  S      6.209270  -11.026900    2.882680
  C      6.242940  -12.131320    5.468610
  C      7.292940  -11.431010    6.110470
  O      7.792210  -12.065950    7.211130
  C      8.798570  -11.324850    7.693180
  C      8.975490  -10.201170    6.954640
  C      7.993720  -10.232140    5.921700
  C      7.722270   -9.195270    4.978470
  C      8.513080   -8.126320    4.775260
  N      8.176360   -7.134700    3.887750
  C      8.871020   -6.003530    3.614820
  S      7.989490   -4.622690    3.023920
  C      9.452730   -3.685880    3.053590
  N      9.394390   -2.366980    2.619710
  O     10.423750   -1.709870    2.651860
  O      8.307410   -1.955390    2.237610
  C     10.537190   -4.403880    3.489270
  C     10.234110   -5.739760    3.799180
  C     11.237360   -6.728480    4.134320
  C     12.396110   -6.444130    4.751470
  C     13.422310   -7.423130    4.973530
  C     14.566520   -7.238350    5.647770
  C     14.951300   -5.982230    6.364900
  C     15.596470   -8.339740    5.722570
  N     15.562830   -9.195800    4.563720
  C     16.020680  -10.480070    4.592270
  C     16.388480  -11.182660    3.504670
  C     16.792890  -12.553000    3.549660
  O     16.773180  -13.218590    4.731090
  C     17.210510  -14.473520    4.491720
  C     17.515920  -14.640250    3.182790
  C     17.250550  -13.393490    2.542680
  C     17.422140  -13.059880    1.151530
  C     17.883010  -13.884560    0.215470
  H      5.045060   -9.662400   -3.805800
  H      6.291160   -8.763140   -2.796460
  H      3.625350  -11.563280   -2.605260
  H      3.385940  -12.680260   -0.299270
  H      3.555570  -13.339410    1.962340
  H      4.210450  -13.634170    4.426200
  H      5.851430  -12.932740    6.085590
  H      9.306180  -11.697050    8.561480
  H      9.697710   -9.431290    7.130080
  H      6.805110   -9.276320    4.417530
  H      9.437230   -7.976790    5.308460
  H      7.245170   -7.197260    3.494050
  H     11.522050   -3.976320    3.533950
  H     11.037160   -7.743100    3.815090
  H     12.577860   -5.435140    5.090730
  H     13.247820   -8.394510    4.527690
  H     14.089140   -5.366370    6.598730
  H     15.638310   -5.395590    5.753360
  H     15.463440   -6.226750    7.294210
  H     15.405020   -8.960140    6.606160
  H     16.591370   -7.883640    5.854880
  H     15.660660   -8.716310    3.679630
  H     16.025920  -10.945690    5.567530
  H     16.389140  -10.715050    2.531590
  H     17.255170  -15.139120    5.331030
  H     17.883570  -15.534060    2.722980
  H     17.146850  -12.049280    0.878860
  H     18.171560  -14.897570    0.436120
  H     17.988420  -13.570960   -0.808760

 Total Charge           Charge          ....    0
 Multiplicity           Mult            ....    1
 Number of Electrons    NEL             ....  334
 Basis Dimension        Dim             ....  773

ORBITAL ENERGIES
----------------

  NO   OCC          E(Eh)            E(eV)
   0   2.0000     -88.972224     -2421.0573
   1   2.0000     -88.943611     -2420.2787
   2   2.0000     -88.936387     -2420.0821
   3   2.0000     -19.280885      -524.6596
   4   2.0000     -19.264459      -524.2126
   5   2.0000     -19.223192      -523.0896
   6   2.0000     -19.222130      -523.0607
   7   2.0000     -14.634723      -398.2311
   8   2.0000     -14.473014      -393.8307
   9   2.0000     -14.422526      -392.4569
  10   2.0000     -10.360596      -281.9262
  11   2.0000     -10.329005      -281.0665
  12   2.0000     -10.324957      -280.9564
  13   2.0000     -10.321994      -280.8757
  14   2.0000     -10.320293      -280.8295
  15   2.0000     -10.309479      -280.5352
  16   2.0000     -10.308044      -280.4961
  17   2.0000     -10.307757      -280.4883
  18   2.0000     -10.307133      -280.4713
  19   2.0000     -10.306424      -280.4521
  20   2.0000     -10.304436      -280.3979
  21   2.0000     -10.300731      -280.2971
  22   2.0000     -10.298578      -280.2386
  23   2.0000     -10.298083      -280.2251
  24   2.0000     -10.288153      -279.9549
  25   2.0000     -10.287695      -279.9424
  26   2.0000     -10.284470      -279.8547
  27   2.0000     -10.283234      -279.8210
  28   2.0000     -10.282919      -279.8124
  29   2.0000     -10.282343      -279.7968
  30   2.0000     -10.280717      -279.7525
  31   2.0000     -10.280600      -279.7493
  32   2.0000     -10.280117      -279.7362
  33   2.0000     -10.275029      -279.5978
  34   2.0000     -10.271658      -279.5060
  35   2.0000     -10.270725      -279.4806
  36   2.0000     -10.267378      -279.3896
  37   2.0000     -10.266108      -279.3550
  38   2.0000     -10.263815      -279.2926
  39   2.0000     -10.257394      -279.1179
  40   2.0000     -10.248262      -278.8694
  41   2.0000     -10.246255      -278.8148
  42   2.0000     -10.246021      -278.8084
  43   2.0000     -10.241513      -278.6857
  44   2.0000      -8.068200      -219.5469
  45   2.0000      -8.039579      -218.7681
  46   2.0000      -8.033144      -218.5930
  47   2.0000      -6.037945      -164.3008
  48   2.0000      -6.033568      -164.1817
  49   2.0000      -6.029410      -164.0686
  50   2.0000      -6.009374      -163.5234
  51   2.0000      -6.005353      -163.4140
  52   2.0000      -6.002995      -163.3498
  53   2.0000      -6.000362      -163.2781
  54   2.0000      -5.999099      -163.2438
  55   2.0000      -5.993605      -163.0943
  56   2.0000      -1.301758       -35.4226
  57   2.0000      -1.200108       -32.6566
  58   2.0000      -1.181411       -32.1478
  59   2.0000      -1.120330       -30.4857
  60   2.0000      -1.078379       -29.3442
  61   2.0000      -1.025027       -27.8924
  62   2.0000      -0.992451       -27.0060
  63   2.0000      -0.989993       -26.9391
  64   2.0000      -0.966900       -26.3107
  65   2.0000      -0.920648       -25.0521
  66   2.0000      -0.917368       -24.9629
  67   2.0000      -0.898699       -24.4548
  68   2.0000      -0.893397       -24.3106
  69   2.0000      -0.891404       -24.2563
  70   2.0000      -0.878694       -23.9105
  71   2.0000      -0.865546       -23.5527
  72   2.0000      -0.864536       -23.5252
  73   2.0000      -0.844857       -22.9897
  74   2.0000      -0.842578       -22.9277
  75   2.0000      -0.833522       -22.6813
  76   2.0000      -0.826132       -22.4802
  77   2.0000      -0.821020       -22.3411
  78   2.0000      -0.813980       -22.1495
  79   2.0000      -0.798301       -21.7229
  80   2.0000      -0.783739       -21.3266
  81   2.0000      -0.774123       -21.0649
  82   2.0000      -0.759862       -20.6769
  83   2.0000      -0.749740       -20.4015
  84   2.0000      -0.737431       -20.0665
  85   2.0000      -0.717414       -19.5218
  86   2.0000      -0.696561       -18.9544
  87   2.0000      -0.689893       -18.7730
  88   2.0000      -0.685910       -18.6646
  89   2.0000      -0.681953       -18.5569
  90   2.0000      -0.679885       -18.5006
  91   2.0000      -0.660714       -17.9789
  92   2.0000      -0.650484       -17.7006
  93   2.0000      -0.636658       -17.3243
  94   2.0000      -0.634281       -17.2597
  95   2.0000      -0.626216       -17.0402
  96   2.0000      -0.623230       -16.9590
  97   2.0000      -0.622047       -16.9268
  98   2.0000      -0.615693       -16.7538
  99   2.0000      -0.614418       -16.7192
 100   2.0000      -0.612274       -16.6608
 101   2.0000      -0.598487       -16.2857
 102   2.0000      -0.596852       -16.2412
 103   2.0000      -0.592548       -16.1240
 104   2.0000      -0.586683       -15.9644
 105   2.0000      -0.580382       -15.7930
 106   2.0000      -0.572763       -15.5857
 107   2.0000      -0.569922       -15.5084
 108   2.0000      -0.566233       -15.4080
 109   2.0000      -0.557536       -15.1713
 110   2.0000      -0.548833       -14.9345
 111   2.0000      -0.547072       -14.8866
 112   2.0000      -0.546111       -14.8604
 113   2.0000      -0.535016       -14.5585
 114   2.0000      -0.530456       -14.4345
 115   2.0000      -0.527331       -14.3494
 116   2.0000      -0.523365       -14.2415
 117   2.0000      -0.514951       -14.0125
 118   2.0000      -0.514225       -13.9928
 119   2.0000      -0.511529       -13.9194
 120   2.0000      -0.505261       -13.7489
 121   2.0000      -0.504907       -13.7392
 122   2.0000      -0.502567       -13.6755
 123   2.0000      -0.492974       -13.4145
 124   2.0000      -0.491562       -13.3761
 125   2.0000      -0.487899       -13.2764
 126   2.0000      -0.484634       -13.1876
 127   2.0000      -0.484169       -13.1749
 128   2.0000      -0.480918       -13.0864
 129   2.0000      -0.478332       -13.0161
 130   2.0000      -0.476599       -12.9689
 131   2.0000      -0.467017       -12.7082
 132   2.0000      -0.462422       -12.5831
 133   2.0000      -0.459399       -12.5009
 134   2.0000      -0.458270       -12.4702
 135   2.0000      -0.455268       -12.3885
 136   2.0000      -0.454120       -12.3572
 137   2.0000      -0.453182       -12.3317
 138   2.0000      -0.450382       -12.2555
 139   2.0000      -0.440361       -11.9828
 140   2.0000      -0.435459       -11.8494
 141   2.0000      -0.424173       -11.5423
 142   2.0000      -0.422398       -11.4940
 143   2.0000      -0.418944       -11.4001
 144   2.0000      -0.416842       -11.3429
 145   2.0000      -0.408872       -11.1260
 146   2.0000      -0.406011       -11.0481
 147   2.0000      -0.402499       -10.9526
 148   2.0000      -0.399378       -10.8676
 149   2.0000      -0.393406       -10.7051
 150   2.0000      -0.385440       -10.4884
 151   2.0000      -0.382615       -10.4115
 152   2.0000      -0.372139       -10.1264
 153   2.0000      -0.364258        -9.9120
 154   2.0000      -0.351499        -9.5648
 155   2.0000      -0.344844        -9.3837
 156   2.0000      -0.344424        -9.3722
 157   2.0000      -0.336381        -9.1534
 158   2.0000      -0.329224        -8.9586
 159   2.0000      -0.321918        -8.7598
 160   2.0000      -0.320663        -8.7257
 161   2.0000      -0.298267        -8.1163
 162   2.0000      -0.295966        -8.0537
 163   2.0000      -0.277912        -7.5624
 164   2.0000      -0.249465        -6.7883
 165   2.0000      -0.221211        -6.0194
 166   2.0000      -0.211998        -5.7688
 167   0.0000      -0.063962        -1.7405
 168   0.0000      -0.042831        -1.1655
 169   0.0000      -0.014472        -0.3938
 170   0.0000       0.004903         0.1334
 171   0.0000       0.020876         0.5681

MULLIKEN ATOMIC CHARGES
-----------------------
   0 C :   -0.030714
   1 C :   -0.061823
   2 C :    0.052563
   3 C :    0.028533
   4 C :   -0.069914
   5 S :    0.065589
   6 C :   -0.050055
   7 C :    0.034361
   8 C :    0.028794
   9 C :   -0.012469
  10 S :    0.058893
  11 C :   -0.067852
  12 C :    0.118875
  13 O :   -0.201640
  14 C :    0.155709
  15 C :   -0.055154
  16 C :    0.031732
  17 C :   -0.030579
  18 C :    0.047354
  19 N :   -0.020154
  20 C :   -0.111084
  21 S :    0.159561
  22 C :   -0.019834
  23 N :    0.279934
  24 O :   -0.264411
  25 O :   -0.276199
  26 C :    0.001399
  27 C :    0.092042
  28 C :   -0.052674
  29 C :    0.005315
  30 C :    0.009790
  31 C :   -0.248587
  32 C :    0.090850
  33 C :    0.235433
  34 N :   -0.172855
  35 C :    0.066240
  36 C :   -0.069281
  37 C :    0.115990
  38 O :   -0.216047
  39 C :    0.134839
  40 C :   -0.039198
  41 C :    0.020433
  42 C :   -0.005518
  43 C :   -0.030581
  44 H :    0.019465
  45 H :    0.021948
  46 H :   -0.011984
  47 H :   -0.011604
  48 H :   -0.015075
  49 H :   -0.011833
  50 H :    0.000743
  51 H :    0.008509
  52 H :   -0.014186
  53 H :   -0.016081
  54 H :    0.024887
  55 H :    0.137707
  56 H :    0.006235
  57 H :    0.011422
  58 H :   -0.013509
  59 H :   -0.017664
  60 H :    0.021449
  61 H :    0.033638
  62 H :    0.018978
  63 H :    0.028600
  64 H :    0.004129
  65 H :    0.115447
  66 H :    0.005014
  67 H :   -0.030631
  68 H :   -0.003466
  69 H :   -0.023648
  70 H :   -0.027735
  71 H :    0.001027
  72 H :    0.010611
Sum of atomic charges:   -0.0000000

LOEWDIN ATOMIC CHARGES
----------------------
   0 C :   -0.078182
   1 C :   -0.138785
   2 C :   -0.032487
   3 C :   -0.026506
   4 C :   -0.180618
   5 S :    0.339973
   6 C :   -0.181558
   7 C :   -0.037956
   8 C :   -0.030083
   9 C :   -0.150574
  10 S :    0.375816
  11 C :   -0.070463
  12 C :    0.014756
  13 O :    0.008956
  14 C :    0.047313
  15 C :   -0.074696
  16 C :   -0.055493
  17 C :   -0.083157
  18 C :    0.028934
  19 N :    0.036348
  20 C :   -0.098225
  21 S :    0.439524
  22 C :   -0.218617
  23 N :    0.274678
  24 O :   -0.230396
  25 O :   -0.242050
  26 C :    0.005458
  27 C :   -0.111520
  28 C :   -0.033711
  29 C :   -0.026988
  30 C :   -0.053589
  31 C :   -0.040833
  32 C :   -0.048665
  33 C :    0.042867
  34 N :   -0.019120
  35 C :    0.040414
  36 C :   -0.133648
  37 C :    0.043222
  38 O :   -0.003290
  39 C :    0.023320
  40 C :   -0.064863
  41 C :   -0.094154
  42 C :   -0.018155
  43 C :   -0.067717
  44 H :    0.028695
  45 H :    0.026183
  46 H :    0.033339
  47 H :    0.032274
  48 H :    0.031257
  49 H :    0.033228
  50 H :    0.043934
  51 H :    0.023273
  52 H :    0.027824
  53 H :    0.008413
  54 H :    0.032126
  55 H :    0.094578
  56 H :    0.043036
  57 H :    0.031013
  58 H :    0.023218
  59 H :    0.025502
  60 H :    0.030165
  61 H :    0.039499
  62 H :    0.033190
  63 H :    0.037075
  64 H :    0.014784
  65 H :    0.075577
  66 H :    0.026842
  67 H :    0.025285
  68 H :    0.017268
  69 H :    0.025982
  70 H :    0.024206
  71 H :    0.016385
  72 H :    0.020373

  Mayer bond orders larger than 0.100000
B(  0-C ,  1-C ) :   1.8680 B(  0-C , 44-H ) :   0.9499 B(  0-C , 45-H ) :   0.9424
B(  1-C ,  2-C ) :   1.0778 B(  1-C ,  5-S ) :   1.0056 B(  2-C ,  3-C ) :   1.6651
B(  2-C , 46-H ) :   0.9928 B(  3-C ,  4-C ) :   1.1484 B(  3-C , 47-H ) :   0.9926
B(  4-C ,  5-S ) :   1.0368 B(  4-C ,  6-C ) :   1.5724 B(  6-C ,  7-C ) :   1.1591
B(  6-C , 10-S ) :   1.0271 B(  7-C ,  8-C ) :   1.6177 B(  7-C , 48-H ) :   0.9922
B(  8-C ,  9-C ) :   1.1249 B(  8-C , 49-H ) :   0.9989 B(  9-C , 10-S ) :   1.0137
B(  9-C , 11-C ) :   1.6311 B( 11-C , 12-C ) :   1.1378 B( 11-C , 50-H ) :   0.9460
B( 12-C , 13-O ) :   1.1116 B( 12-C , 16-C ) :   1.4227 B( 13-O , 14-C ) :   1.1537
B( 14-C , 15-C ) :   1.5571 B( 14-C , 51-H ) :   1.0019 B( 15-C , 16-C ) :   1.2101
B( 15-C , 52-H ) :   0.9966 B( 16-C , 17-C ) :   1.1351 B( 17-C , 18-C ) :   1.7078
B( 17-C , 53-H ) :   0.9377 B( 18-C , 19-N ) :   1.1115 B( 18-C , 54-H ) :   0.9616
B( 19-N , 20-C ) :   1.2151 B( 19-N , 55-H ) :   0.9109 B( 20-C , 21-S ) :   1.1336
B( 20-C , 27-C ) :   1.3664 B( 21-S , 22-C ) :   1.0713 B( 22-C , 23-N ) :   0.9907
B( 22-C , 26-C ) :   1.4646 B( 23-N , 24-O ) :   1.5206 B( 23-N , 25-O ) :   1.4990
B( 24-O , 25-O ) :   0.2501 B( 26-C , 27-C ) :   1.2594 B( 26-C , 56-H ) :   1.0029
B( 27-C , 28-C ) :   1.0173 B( 28-C , 29-C ) :   1.7545 B( 28-C , 57-H ) :   0.9757
B( 29-C , 30-C ) :   1.0805 B( 29-C , 58-H ) :   0.9712 B( 30-C , 31-C ) :   1.7998
B( 30-C , 59-H ) :   0.9687 B( 31-C , 32-C ) :   1.0800 B( 31-C , 33-C ) :   1.0010
B( 32-C , 60-H ) :   0.9535 B( 32-C , 61-H ) :   0.9454 B( 32-C , 62-H ) :   0.9512
B( 33-C , 34-N ) :   1.0251 B( 33-C , 63-H ) :   0.9171 B( 33-C , 64-H ) :   0.9406
B( 34-N , 35-C ) :   1.1797 B( 34-N , 65-H ) :   0.9384 B( 35-C , 36-C ) :   1.6654
B( 35-C , 66-H ) :   0.9653 B( 36-C , 37-C ) :   1.1691 B( 36-C , 67-H ) :   0.9457
B( 37-C , 38-O ) :   1.1558 B( 37-C , 41-C ) :   1.4460 B( 38-O , 39-C ) :   1.1064
B( 39-C , 40-C ) :   1.5939 B( 39-C , 68-H ) :   1.0033 B( 40-C , 41-C ) :   1.1922
B( 40-C , 69-H ) :   0.9985 B( 41-C , 42-C ) :   1.1006 B( 42-C , 43-C ) :   1.9518
B( 42-C , 70-H ) :   0.9568 B( 43-C , 71-H ) :   0.9544 B( 43-C , 72-H ) :   0.9478

-----------------------------------------------------------------------------
         ABSORPTION SPECTRUM VIA TRANSITION ELECTRIC DIPOLE MOMENTS
-----------------------------------------------------------------------------
State   Energy  Wavelength   fosc         T2         TX        TY        TZ
        (cm-1)    (nm)                  (au**2)     (au)      (au)      (au)
-----------------------------------------------------------------------------
   0   17842.3    560.5   0.838512513  15.47154  -1.90711  -1.32235  -3.17583
   1   23467.0    426.1   0.288171183   4.04268  -0.15840   1.37317  -1.46013
   2   24699.3    404.9   0.062330842   0.83079  -0.13459  -0.59393   0.67818
   3   25585.2    390.9   0.707425935   9.10265  -0.29317  -2.18525   2.05947
   4   28495.8    350.9   0.118036295   1.36367  -0.96913  -0.07877   0.64673
   5   28889.3    346.1   0.131946314   1.50361   0.90283   0.64714  -0.51934
   6   29333.8    340.9   0.058002200   0.65096   0.08279   0.79145  -0.13309
   7   29998.4    333.4   0.014462146   0.15871   0.19594  -0.15922   0.30817
   8   30376.6    329.2   0.015466264   0.16762  -0.18004  -0.14771  -0.33673
   9   32968.1    303.3   0.231390142   2.31061   0.50768   1.27571  -0.65225
  10   33162.4    301.5   0.061675949   0.61227   0.21859   0.69541  -0.28443
  11   33642.7    297.2   0.005333331   0.05219   0.03978  -0.15172   0.16609
  12   34496.8    289.9   0.009166918   0.08748  -0.02887   0.16673   0.24259
  13   35091.2    285.0   0.433120677   4.06337   1.77114  -0.93755   0.21776
  14   35804.6    279.3   0.095797585   0.88083   0.75496  -0.55537  -0.04923
  15   36564.8    273.5   0.706712860   6.36290  -0.77046   1.91812   1.44572
  16   37023.4    270.1   0.187695296   1.66898  -0.64519  -1.00111  -0.50049
  17   37728.9    265.0   0.021425626   0.18695   0.22062   0.37151  -0.01624
  18   38812.4    257.6   0.126865790   1.07609  -0.06383  -0.86428   0.57013
  19   39449.7    253.5   0.012972691   0.10826   0.04413  -0.25095   0.20816
  20   39982.4    250.1   0.151344134   1.24616   0.00961   0.54435  -0.97455

FINAL SINGLE POINT ENERGY     -2969.945131089914

DIPOLE MOMENT
-------------
                                X             Y             Z
Electronic contribution:    -43.23415      16.28479      -4.55714
Nuclear contribution   :     42.68015     -18.04818       5.56831
                        -----------------------------------------
Total Dipole Moment    :     -0.55400      -1.76339       1.01116
                        -----------------------------------------
Magnitude (a.u.)       :      2.10687
Magnitude (Debye)      :      5.35523

Rotational constants in cm-1:     0.001571     0.001031     0.000807
Rotational constants in MHz :    47.103826    30.899354    24.203423

                             ****ORCA TERMINATED NORMALLY****
TOTAL RUN TIME: 0 days 0 hours 4 minutes 9 seconds 918 msec
