                         Program Version 4.2.0 -  RELEASE  -
|  1> # ORCA input file
|  2> # SCF done       -194.629915919159          0.000819598401
|  3> ! CAM-B3LYP def2-SVP def2/J RIJCOSX Grid4 TightSCF
|  4> %maxcore 5000
|  5> %tddft
|  6>     Mode sTDDFT
|  7>     Ethresh 5.0
|  8>     maxcore 5000
|  9> end
| 10>
| 11> %pal
| 12>   nprocs 6
| 13>   end
| 14> * xyz 0 1
| 15>    C      -13.27826        -1.70394        -5.36543
| 16>    C      -13.95129        -2.57751        -4.54907
| 17>    C      -14.81369        -3.59096        -5.01550
| 18>    N      -15.52785        -4.43344        -5.33020
| 19>    C      -13.88483        -2.59836        -3.14107
| 20>    N      -13.88939        -2.68401        -1.99545
| 21>    C      -13.33900        -1.68926        -6.82037
| 22>    C      -12.48852        -0.66562        -7.30457
| 23>    C      -12.33547        -0.39559        -8.64259
| 24>    C      -13.05238        -1.17879        -9.55231
| 25>    C      -13.89799        -2.20279        -9.06177
| 26>    C      -14.05648        -2.47203        -7.70886
| 27>    S      -14.68951        -3.05054       -10.35707
| 28>    C      -13.88332        -2.03263       -11.52138
| 29>    C      -13.06433        -1.10487       -10.97196
| 30>   Br      -14.19952        -2.29065       -13.35217
| 31>    C      -11.83313         0.01317        -6.17006
| 32>    O      -11.06010         0.94216        -6.24487
| 33>    C      -12.36570        -0.65035        -4.94800
| 34>    C      -12.14572        -0.21733        -3.68002
| 35>    C      -11.15018         0.77220        -3.33714
| 36>    C       -9.86043         0.61752        -3.76271
| 37>    S       -8.78736         1.84088        -3.24370
| 38>    C      -10.10704         2.67814        -2.48524
| 39>    C      -11.31963         1.97511        -2.55732
| 40>    C      -12.46954         2.50719        -1.92461
| 41>    C      -13.72686         1.68076        -1.93080
| 42>    C      -13.74835         0.66645        -0.78578
| 43>    C      -12.41410         3.75335        -1.31450
| 44>    C      -13.49849         4.22371        -0.37724
| 45>    C      -12.92559         4.45969         1.02322
| 46>    C      -11.24711         4.54673        -1.46022
| 47>    C      -11.00783         5.93110        -1.12877
| 48>    C       -9.68487         6.25169        -1.21308
| 49>    S       -8.68180         4.98382        -1.80188
| 50>    C      -10.07108         3.94981        -1.93865
| 51>    C      -11.99440         6.98042        -0.96545
| 52>    C      -13.09579         7.04518        -1.73701
| 53>    C      -14.06852         8.09017        -1.74357
| 54>    S      -15.06346         8.27223        -3.15884
| 55>    C      -15.79367         9.68092        -2.50051
| 56>    C      -15.31482        10.01317        -1.27346
| 57>    C      -15.83763        11.17437        -0.49368
| 58>    C      -14.32068         9.09115        -0.81339
| 59>    C      -13.71626         9.09506         0.49087
| 60>    C      -13.34494        10.19670         1.18580
| 61>    C      -12.78502        10.19939         2.49168
| 62>    C      -12.69541         9.12582         3.33005
| 63>    C      -12.15801         9.18950         4.62299
| 64>    C      -12.12452         8.12954         5.49669
| 65>    C      -11.63479         8.13150         6.82409
| 66>    C      -11.77200         6.94166         7.47392
| 67>    C      -12.37385         5.92853         6.69638
| 68>    S      -12.74867         6.53418         5.09773
| 69>    C      -12.68551         4.63549         7.06862
| 70>    C      -12.48528         4.02757         8.32788
| 71>    C      -12.94766         2.75200         8.38628
| 72>    C      -13.53669         2.26916         7.18099
| 73>    S      -13.44179         3.51580         5.95146
| 74>    C      -14.10890         1.02835         7.10329
| 75>    C      -14.77015         0.33920         6.04894
| 76>    C      -15.39736        -0.89134         6.33390
| 77>    O      -15.29832        -1.29682         7.63070
| 78>    C      -16.26282        -2.13925         8.22512
| 79>    C      -16.04201        -1.65669         5.31527
| 80>    O      -16.55274        -2.86319         5.70011
| 81>    C      -17.19270        -3.66415         4.73583
| 82>    C      -16.11702        -1.19959         4.01916
| 83>    C      -15.52259         0.02597         3.70168
| 84>    C      -14.83913         0.79558         4.70573
| 85>    N      -14.32297         1.90700         4.20290
| 86>    S      -14.66658         1.98844         2.62790
| 87>    N      -15.48502         0.60621         2.50369
| 88>    H      -11.68049         0.39437        -8.97507
| 89>    H      -14.71677        -3.25994        -7.38759
| 90>    H      -12.49153        -0.39645       -11.54194
| 91>    H      -12.70504        -0.65815        -2.86733
| 92>    H       -9.47439        -0.20657        -4.33068
| 93>    H      -13.78478         1.16047        -2.89060
| 94>    H      -14.60803         2.31965        -1.87041
| 95>    H      -12.83181         0.08128        -0.76556
| 96>    H      -14.58971        -0.01391        -0.89004
| 97>    H      -13.83940         1.17480         0.17069
| 98>    H      -14.28136         3.47393        -0.29601
| 99>    H      -13.95686         5.14741        -0.73057
|100>    H      -12.41296         3.56917         1.37953
|101>    H      -13.72522         4.69649         1.72116
|102>    H      -12.21659         5.28306         1.02379
|103>    H       -9.24631         7.21205        -1.02443
|104>    H      -11.72778         7.80065        -0.31453
|105>    H      -13.24088         6.28326        -2.49378
|106>    H      -16.55330        10.18658        -3.06405
|107>    H      -16.82803        11.44855        -0.85039
|108>    H      -15.18649        12.04072        -0.61031
|109>    H      -15.89381        10.92723         0.56443
|110>    H      -13.54383         8.11496         0.91620
|111>    H      -13.42845        11.16284         0.70823
|112>    H      -12.41833        11.15231         2.85312
|113>    H      -13.07458         8.16274         3.01471
|114>    H      -11.75965        10.13391         4.97142
|115>    H      -11.20358         9.01633         7.25895
|116>    H      -11.46099         6.76754         8.48855
|117>    H      -12.01932         4.54202         9.14963
|118>    H      -12.89560         2.12834         9.26182
|119>    H      -14.07267         0.46494         8.02682
|120>    H      -16.09603        -3.18816         7.97366
|121>    H      -17.27791        -1.85472         7.94131
|122>    H      -16.13561        -1.99955         9.29952
|123>    H      -18.06718        -3.16092         4.31233
|124>    H      -17.51343        -4.55761         5.26949
|125>    H      -16.50829        -3.94748         3.93086
|126>    H      -16.59368        -1.75783         3.23336
|127> *
|128>
|129>                          ****END OF INPUT****

CARTESIAN COORDINATES (ANGSTROEM)
---------------------------------
  C    -13.278260   -1.703940   -5.365430
  C    -13.951290   -2.577510   -4.549070
  C    -14.813690   -3.590960   -5.015500
  N    -15.527850   -4.433440   -5.330200
  C    -13.884830   -2.598360   -3.141070
  N    -13.889390   -2.684010   -1.995450
  C    -13.339000   -1.689260   -6.820370
  C    -12.488520   -0.665620   -7.304570
  C    -12.335470   -0.395590   -8.642590
  C    -13.052380   -1.178790   -9.552310
  C    -13.897990   -2.202790   -9.061770
  C    -14.056480   -2.472030   -7.708860
  S    -14.689510   -3.050540  -10.357070
  C    -13.883320   -2.032630  -11.521380
  C    -13.064330   -1.104870  -10.971960
  Br   -14.199520   -2.290650  -13.352170
  C    -11.833130    0.013170   -6.170060
  O    -11.060100    0.942160   -6.244870
  C    -12.365700   -0.650350   -4.948000
  C    -12.145720   -0.217330   -3.680020
  C    -11.150180    0.772200   -3.337140
  C     -9.860430    0.617520   -3.762710
  S     -8.787360    1.840880   -3.243700
  C    -10.107040    2.678140   -2.485240
  C    -11.319630    1.975110   -2.557320
  C    -12.469540    2.507190   -1.924610
  C    -13.726860    1.680760   -1.930800
  C    -13.748350    0.666450   -0.785780
  C    -12.414100    3.753350   -1.314500
  C    -13.498490    4.223710   -0.377240
  C    -12.925590    4.459690    1.023220
  C    -11.247110    4.546730   -1.460220
  C    -11.007830    5.931100   -1.128770
  C     -9.684870    6.251690   -1.213080
  S     -8.681800    4.983820   -1.801880
  C    -10.071080    3.949810   -1.938650
  C    -11.994400    6.980420   -0.965450
  C    -13.095790    7.045180   -1.737010
  C    -14.068520    8.090170   -1.743570
  S    -15.063460    8.272230   -3.158840
  C    -15.793670    9.680920   -2.500510
  C    -15.314820   10.013170   -1.273460
  C    -15.837630   11.174370   -0.493680
  C    -14.320680    9.091150   -0.813390
  C    -13.716260    9.095060    0.490870
  C    -13.344940   10.196700    1.185800
  C    -12.785020   10.199390    2.491680
  C    -12.695410    9.125820    3.330050
  C    -12.158010    9.189500    4.622990
  C    -12.124520    8.129540    5.496690
  C    -11.634790    8.131500    6.824090
  C    -11.772000    6.941660    7.473920
  C    -12.373850    5.928530    6.696380
  S    -12.748670    6.534180    5.097730
  C    -12.685510    4.635490    7.068620
  C    -12.485280    4.027570    8.327880
  C    -12.947660    2.752000    8.386280
  C    -13.536690    2.269160    7.180990
  S    -13.441790    3.515800    5.951460
  C    -14.108900    1.028350    7.103290
  C    -14.770150    0.339200    6.048940
  C    -15.397360   -0.891340    6.333900
  O    -15.298320   -1.296820    7.630700
  C    -16.262820   -2.139250    8.225120
  C    -16.042010   -1.656690    5.315270
  O    -16.552740   -2.863190    5.700110
  C    -17.192700   -3.664150    4.735830
  C    -16.117020   -1.199590    4.019160
  C    -15.522590    0.025970    3.701680
  C    -14.839130    0.795580    4.705730
  N    -14.322970    1.907000    4.202900
  S    -14.666580    1.988440    2.627900
  N    -15.485020    0.606210    2.503690
  H    -11.680490    0.394370   -8.975070
  H    -14.716770   -3.259940   -7.387590
  H    -12.491530   -0.396450  -11.541940
  H    -12.705040   -0.658150   -2.867330
  H     -9.474390   -0.206570   -4.330680
  H    -13.784780    1.160470   -2.890600
  H    -14.608030    2.319650   -1.870410
  H    -12.831810    0.081280   -0.765560
  H    -14.589710   -0.013910   -0.890040
  H    -13.839400    1.174800    0.170690
  H    -14.281360    3.473930   -0.296010
  H    -13.956860    5.147410   -0.730570
  H    -12.412960    3.569170    1.379530
  H    -13.725220    4.696490    1.721160
  H    -12.216590    5.283060    1.023790
  H     -9.246310    7.212050   -1.024430
  H    -11.727780    7.800650   -0.314530
  H    -13.240880    6.283260   -2.493780
  H    -16.553300   10.186580   -3.064050
  H    -16.828030   11.448550   -0.850390
  H    -15.186490   12.040720   -0.610310
  H    -15.893810   10.927230    0.564430
  H    -13.543830    8.114960    0.916200
  H    -13.428450   11.162840    0.708230
  H    -12.418330   11.152310    2.853120
  H    -13.074580    8.162740    3.014710
  H    -11.759650   10.133910    4.971420
  H    -11.203580    9.016330    7.258950
  H    -11.460990    6.767540    8.488550
  H    -12.019320    4.542020    9.149630
  H    -12.895600    2.128340    9.261820
  H    -14.072670    0.464940    8.026820
  H    -16.096030   -3.188160    7.973660
  H    -17.277910   -1.854720    7.941310
  H    -16.135610   -1.999550    9.299520
  H    -18.067180   -3.160920    4.312330
  H    -17.513430   -4.557610    5.269490
  H    -16.508290   -3.947480    3.930860
  H    -16.593680   -1.757830    3.233360

 Total Charge           Charge          ....    0
 Multiplicity           Mult            ....    1
 Number of Electrons    NEL             ....  586
 Basis Dimension        Dim             .... 1263

ORBITAL ENERGIES
----------------

  NO   OCC          E(Eh)            E(eV)
   0   2.0000    -482.886255    -13140.0030
   1   2.0000     -89.003838     -2421.9176
   2   2.0000     -88.976226     -2421.1662
   3   2.0000     -88.953804     -2420.5561
   4   2.0000     -88.945199     -2420.3219
   5   2.0000     -88.938761     -2420.1467
   6   2.0000     -88.928563     -2419.8692
   7   2.0000     -88.923282     -2419.7255
   8   2.0000     -62.563971     -1702.4522
   9   2.0000     -56.397925     -1534.6656
  10   2.0000     -56.395201     -1534.5914
  11   2.0000     -56.395173     -1534.5907
  12   2.0000     -19.254454      -523.9403
  13   2.0000     -19.242026      -523.6022
  14   2.0000     -19.212661      -522.8031
  15   2.0000     -14.420902      -392.4127
  16   2.0000     -14.417802      -392.3283
  17   2.0000     -14.416571      -392.2948
  18   2.0000     -14.415711      -392.2715
  19   2.0000     -10.365511      -282.0599
  20   2.0000     -10.359939      -281.9083
  21   2.0000     -10.345090      -281.5042
  22   2.0000     -10.342584      -281.4360
  23   2.0000     -10.341860      -281.4163
  24   2.0000     -10.338638      -281.3286
  25   2.0000     -10.327361      -281.0218
  26   2.0000     -10.326412      -280.9960
  27   2.0000     -10.319160      -280.7986
  28   2.0000     -10.318623      -280.7840
  29   2.0000     -10.316822      -280.7350
  30   2.0000     -10.312815      -280.6260
  31   2.0000     -10.308833      -280.5176
  32   2.0000     -10.308636      -280.5123
  33   2.0000     -10.308472      -280.5078
  34   2.0000     -10.306275      -280.4480
  35   2.0000     -10.306258      -280.4475
  36   2.0000     -10.301131      -280.3080
  37   2.0000     -10.300815      -280.2994
  38   2.0000     -10.297240      -280.2021
  39   2.0000     -10.296679      -280.1869
  40   2.0000     -10.294789      -280.1354
  41   2.0000     -10.293867      -280.1104
  42   2.0000     -10.293075      -280.0888
  43   2.0000     -10.293003      -280.0869
  44   2.0000     -10.291930      -280.0576
  45   2.0000     -10.291889      -280.0565
  46   2.0000     -10.286747      -279.9166
  47   2.0000     -10.285518      -279.8832
  48   2.0000     -10.285310      -279.8775
  49   2.0000     -10.283778      -279.8358
  50   2.0000     -10.281454      -279.7726
  51   2.0000     -10.276404      -279.6352
  52   2.0000     -10.274664      -279.5878
  53   2.0000     -10.274332      -279.5788
  54   2.0000     -10.273384      -279.5530
  55   2.0000     -10.270882      -279.4849
  56   2.0000     -10.270576      -279.4766
  57   2.0000     -10.270493      -279.4743
  58   2.0000     -10.270294      -279.4689
  59   2.0000     -10.269183      -279.4387
  60   2.0000     -10.269086      -279.4360
  61   2.0000     -10.268564      -279.4218
  62   2.0000     -10.268392      -279.4172
  63   2.0000     -10.267969      -279.4056
  64   2.0000     -10.265973      -279.3513
  65   2.0000     -10.264778      -279.3188
  66   2.0000     -10.263915      -279.2953
  67   2.0000     -10.263184      -279.2754
  68   2.0000     -10.262494      -279.2567
  69   2.0000     -10.261805      -279.2379
  70   2.0000     -10.260543      -279.2036
  71   2.0000     -10.260342      -279.1981
  72   2.0000     -10.259239      -279.1681
  73   2.0000     -10.256186      -279.0850
  74   2.0000     -10.252968      -278.9974
  75   2.0000     -10.243813      -278.7483
  76   2.0000     -10.242536      -278.7136
  77   2.0000      -8.793400      -239.2806
  78   2.0000      -8.094610      -220.2655
  79   2.0000      -8.072129      -219.6538
  80   2.0000      -8.050079      -219.0538
  81   2.0000      -8.041333      -218.8158
  82   2.0000      -8.035002      -218.6435
  83   2.0000      -8.024672      -218.3624
  84   2.0000      -8.017848      -218.1767
  85   2.0000      -6.629712      -180.4036
  86   2.0000      -6.615148      -180.0073
  87   2.0000      -6.614903      -180.0007
  88   2.0000      -6.066028      -165.0650
  89   2.0000      -6.058373      -164.8567
  90   2.0000      -6.056639      -164.8095
  91   2.0000      -6.041803      -164.4058
  92   2.0000      -6.037573      -164.2907
  93   2.0000      -6.033354      -164.1759
  94   2.0000      -6.019457      -163.7977
  95   2.0000      -6.015241      -163.6830
  96   2.0000      -6.011938      -163.5932
  97   2.0000      -6.010893      -163.5647
  98   2.0000      -6.006659      -163.4495
  99   2.0000      -6.004199      -163.3826
 100   2.0000      -6.002906      -163.3474
 101   2.0000      -6.000084      -163.2706
 102   2.0000      -5.997242      -163.1933
 103   2.0000      -5.994391      -163.1157
 104   2.0000      -5.990442      -163.0082
 105   2.0000      -5.987803      -162.9364
 106   2.0000      -5.985600      -162.8765
 107   2.0000      -5.983424      -162.8173
 108   2.0000      -5.978652      -162.6874
 109   2.0000      -2.745593       -74.7114
 110   2.0000      -2.741463       -74.5990
 111   2.0000      -2.741353       -74.5960
 112   2.0000      -2.729739       -74.2800
 113   2.0000      -2.729735       -74.2799
 114   2.0000      -1.163622       -31.6638
 115   2.0000      -1.137739       -30.9595
 116   2.0000      -1.128704       -30.7136
 117   2.0000      -1.105347       -30.0780
 118   2.0000      -1.023192       -27.8425
 119   2.0000      -1.013966       -27.5914
 120   2.0000      -0.999394       -27.1949
 121   2.0000      -0.994532       -27.0626
 122   2.0000      -0.989278       -26.9196
 123   2.0000      -0.977843       -26.6085
 124   2.0000      -0.971954       -26.4482
 125   2.0000      -0.968150       -26.3447
 126   2.0000      -0.964058       -26.2334
 127   2.0000      -0.953624       -25.9494
 128   2.0000      -0.942604       -25.6496
 129   2.0000      -0.942296       -25.6412
 130   2.0000      -0.919401       -25.0182
 131   2.0000      -0.908704       -24.7271
 132   2.0000      -0.904830       -24.6217
 133   2.0000      -0.902317       -24.5533
 134   2.0000      -0.891018       -24.2458
 135   2.0000      -0.886343       -24.1186
 136   2.0000      -0.878913       -23.9164
 137   2.0000      -0.870878       -23.6978
 138   2.0000      -0.867643       -23.6098
 139   2.0000      -0.858274       -23.3548
 140   2.0000      -0.852937       -23.2096
 141   2.0000      -0.849242       -23.1091
 142   2.0000      -0.845815       -23.0158
 143   2.0000      -0.838775       -22.8242
 144   2.0000      -0.829963       -22.5845
 145   2.0000      -0.828311       -22.5395
 146   2.0000      -0.823447       -22.4071
 147   2.0000      -0.817858       -22.2550
 148   2.0000      -0.807778       -21.9807
 149   2.0000      -0.802757       -21.8441
 150   2.0000      -0.799246       -21.7486
 151   2.0000      -0.791397       -21.5350
 152   2.0000      -0.785866       -21.3845
 153   2.0000      -0.780267       -21.2322
 154   2.0000      -0.772452       -21.0195
 155   2.0000      -0.762681       -20.7536
 156   2.0000      -0.754734       -20.5373
 157   2.0000      -0.750433       -20.4203
 158   2.0000      -0.744639       -20.2627
 159   2.0000      -0.723654       -19.6916
 160   2.0000      -0.710282       -19.3277
 161   2.0000      -0.707274       -19.2459
 162   2.0000      -0.702343       -19.1117
 163   2.0000      -0.694998       -18.9119
 164   2.0000      -0.691573       -18.8187
 165   2.0000      -0.689430       -18.7604
 166   2.0000      -0.687486       -18.7074
 167   2.0000      -0.680704       -18.5229
 168   2.0000      -0.677124       -18.4255
 169   2.0000      -0.673765       -18.3341
 170   2.0000      -0.666972       -18.1492
 171   2.0000      -0.658043       -17.9063
 172   2.0000      -0.653388       -17.7796
 173   2.0000      -0.641719       -17.4621
 174   2.0000      -0.635749       -17.2996
 175   2.0000      -0.629133       -17.1196
 176   2.0000      -0.622380       -16.9358
 177   2.0000      -0.621645       -16.9158
 178   2.0000      -0.618832       -16.8393
 179   2.0000      -0.614145       -16.7117
 180   2.0000      -0.611986       -16.6530
 181   2.0000      -0.609459       -16.5842
 182   2.0000      -0.602537       -16.3959
 183   2.0000      -0.599456       -16.3120
 184   2.0000      -0.598795       -16.2940
 185   2.0000      -0.597868       -16.2688
 186   2.0000      -0.590430       -16.0664
 187   2.0000      -0.586256       -15.9528
 188   2.0000      -0.584173       -15.8962
 189   2.0000      -0.577183       -15.7060
 190   2.0000      -0.567469       -15.4416
 191   2.0000      -0.566363       -15.4115
 192   2.0000      -0.560853       -15.2616
 193   2.0000      -0.549512       -14.9530
 194   2.0000      -0.545394       -14.8409
 195   2.0000      -0.544034       -14.8039
 196   2.0000      -0.541280       -14.7290
 197   2.0000      -0.540295       -14.7022
 198   2.0000      -0.537891       -14.6368
 199   2.0000      -0.537794       -14.6341
 200   2.0000      -0.532552       -14.4915
 201   2.0000      -0.529284       -14.4026
 202   2.0000      -0.527880       -14.3643
 203   2.0000      -0.525187       -14.2911
 204   2.0000      -0.523524       -14.2458
 205   2.0000      -0.521914       -14.2020
 206   2.0000      -0.520892       -14.1742
 207   2.0000      -0.518641       -14.1129
 208   2.0000      -0.510805       -13.8997
 209   2.0000      -0.508725       -13.8431
 210   2.0000      -0.507555       -13.8113
 211   2.0000      -0.504263       -13.7217
 212   2.0000      -0.503672       -13.7056
 213   2.0000      -0.497452       -13.5364
 214   2.0000      -0.497078       -13.5262
 215   2.0000      -0.496493       -13.5103
 216   2.0000      -0.493979       -13.4418
 217   2.0000      -0.491683       -13.3794
 218   2.0000      -0.489356       -13.3160
 219   2.0000      -0.486678       -13.2432
 220   2.0000      -0.482312       -13.1244
 221   2.0000      -0.480063       -13.0632
 222   2.0000      -0.479804       -13.0561
 223   2.0000      -0.477496       -12.9933
 224   2.0000      -0.477111       -12.9828
 225   2.0000      -0.475852       -12.9486
 226   2.0000      -0.471147       -12.8206
 227   2.0000      -0.467904       -12.7323
 228   2.0000      -0.466795       -12.7022
 229   2.0000      -0.463546       -12.6137
 230   2.0000      -0.459758       -12.5107
 231   2.0000      -0.457387       -12.4461
 232   2.0000      -0.454512       -12.3679
 233   2.0000      -0.451999       -12.2995
 234   2.0000      -0.451093       -12.2749
 235   2.0000      -0.449160       -12.2223
 236   2.0000      -0.448668       -12.2089
 237   2.0000      -0.447058       -12.1651
 238   2.0000      -0.446639       -12.1537
 239   2.0000      -0.445061       -12.1107
 240   2.0000      -0.443891       -12.0789
 241   2.0000      -0.443192       -12.0599
 242   2.0000      -0.440347       -11.9825
 243   2.0000      -0.438365       -11.9285
 244   2.0000      -0.436331       -11.8732
 245   2.0000      -0.434269       -11.8171
 246   2.0000      -0.430853       -11.7241
 247   2.0000      -0.428997       -11.6736
 248   2.0000      -0.427369       -11.6293
 249   2.0000      -0.424622       -11.5546
 250   2.0000      -0.423330       -11.5194
 251   2.0000      -0.421857       -11.4793
 252   2.0000      -0.420361       -11.4386
 253   2.0000      -0.417678       -11.3656
 254   2.0000      -0.417341       -11.3564
 255   2.0000      -0.415642       -11.3102
 256   2.0000      -0.409978       -11.1561
 257   2.0000      -0.408936       -11.1277
 258   2.0000      -0.407382       -11.0854
 259   2.0000      -0.405060       -11.0222
 260   2.0000      -0.404449       -11.0056
 261   2.0000      -0.403224       -10.9723
 262   2.0000      -0.401125       -10.9152
 263   2.0000      -0.395472       -10.7613
 264   2.0000      -0.390832       -10.6351
 265   2.0000      -0.388101       -10.5608
 266   2.0000      -0.383695       -10.4409
 267   2.0000      -0.382758       -10.4154
 268   2.0000      -0.376059       -10.2331
 269   2.0000      -0.376043       -10.2327
 270   2.0000      -0.375142       -10.2081
 271   2.0000      -0.371049       -10.0967
 272   2.0000      -0.368359       -10.0236
 273   2.0000      -0.366587        -9.9754
 274   2.0000      -0.366109        -9.9623
 275   2.0000      -0.346955        -9.4411
 276   2.0000      -0.339626        -9.2417
 277   2.0000      -0.332345        -9.0436
 278   2.0000      -0.328579        -8.9411
 279   2.0000      -0.321000        -8.7348
 280   2.0000      -0.320010        -8.7079
 281   2.0000      -0.315573        -8.5872
 282   2.0000      -0.312767        -8.5108
 283   2.0000      -0.311244        -8.4694
 284   2.0000      -0.305427        -8.3111
 285   2.0000      -0.293894        -7.9973
 286   2.0000      -0.286309        -7.7909
 287   2.0000      -0.285097        -7.7579
 288   2.0000      -0.277136        -7.5413
 289   2.0000      -0.261480        -7.1152
 290   2.0000      -0.255520        -6.9530
 291   2.0000      -0.237680        -6.4676
 292   2.0000      -0.190303        -5.1784
 293   0.0000      -0.084958        -2.3118
 294   0.0000      -0.071212        -1.9378
 295   0.0000      -0.054090        -1.4719
 296   0.0000      -0.034750        -0.9456
 297   0.0000      -0.014667        -0.3991

MULLIKEN ATOMIC CHARGES
-----------------------
   0 C :    0.309080
   1 C :   -0.350559
   2 C :   -0.185139
   3 N :    0.147726
   4 C :   -0.187579
   5 N :    0.159197
   6 C :    0.016125
   7 C :   -0.019093
   8 C :   -0.068564
   9 C :    0.120637
  10 C :   -0.092143
  11 C :   -0.020365
  12 S :    0.186646
  13 C :   -0.123003
  14 C :    0.039094
  15 Br:    0.025343
  16 C :    0.127489
  17 O :   -0.131136
  18 C :   -0.094693
  19 C :   -0.043072
  20 C :    0.044201
  21 C :   -0.053550
  22 S :    0.144634
  23 C :   -0.145352
  24 C :    0.136912
  25 C :   -0.129113
  26 C :    0.002686
  27 C :    0.067411
  28 C :   -0.120407
  29 C :    0.075160
  30 C :    0.002594
  31 C :    0.085313
  32 C :    0.042955
  33 C :   -0.097064
  34 S :    0.121920
  35 C :   -0.144051
  36 C :   -0.060583
  37 C :    0.053542
  38 C :   -0.158926
  39 S :    0.108834
  40 C :   -0.130332
  41 C :   -0.077329
  42 C :    0.109391
  43 C :    0.109698
  44 C :   -0.053496
  45 C :    0.004616
  46 C :   -0.001399
  47 C :    0.013872
  48 C :   -0.014863
  49 C :   -0.020898
  50 C :    0.033080
  51 C :    0.025015
  52 C :   -0.056710
  53 S :    0.062306
  54 C :   -0.027529
  55 C :    0.032639
  56 C :    0.021436
  57 C :    0.027231
  58 S :    0.105326
  59 C :   -0.109047
  60 C :    0.027990
  61 C :    0.122852
  62 O :   -0.323475
  63 C :    0.208573
  64 C :    0.228197
  65 O :   -0.329083
  66 C :    0.179771
  67 C :   -0.208185
  68 C :    0.077480
  69 C :    0.038198
  70 N :   -0.305356
  71 S :    0.464726
  72 N :   -0.260764
  73 H :   -0.008748
  74 H :   -0.005977
  75 H :   -0.001861
  76 H :    0.035367
  77 H :    0.022965
  78 H :    0.000296
  79 H :    0.009227
  80 H :    0.020583
  81 H :    0.029215
  82 H :   -0.018618
  83 H :   -0.014388
  84 H :    0.011927
  85 H :    0.016473
  86 H :    0.013961
  87 H :    0.025065
  88 H :    0.017507
  89 H :    0.011670
  90 H :    0.003372
  91 H :    0.009167
  92 H :    0.005440
  93 H :    0.029682
  94 H :    0.031779
  95 H :    0.007371
  96 H :   -0.022162
  97 H :   -0.023713
  98 H :    0.001248
  99 H :   -0.024117
 100 H :   -0.019547
 101 H :   -0.018604
 102 H :   -0.022481
 103 H :   -0.016858
 104 H :   -0.008734
 105 H :    0.029621
 106 H :    0.013750
 107 H :    0.026040
 108 H :    0.028730
 109 H :    0.036886
 110 H :    0.034464
 111 H :   -0.033036
Sum of atomic charges:   -0.0000000

LOEWDIN ATOMIC CHARGES
----------------------
   0 C :    0.077531
   1 C :   -0.140332
   2 C :   -0.017566
   3 N :   -0.054396
   4 C :   -0.021190
   5 N :   -0.047326
   6 C :   -0.022534
   7 C :   -0.050306
   8 C :    0.022522
   9 C :   -0.031165
  10 C :   -0.143353
  11 C :   -0.009345
  12 S :    0.431934
  13 C :   -0.270269
  14 C :   -0.070210
  15 Br:    0.137868
  16 C :    0.080068
  17 O :   -0.130951
  18 C :   -0.096892
  19 C :    0.083737
  20 C :   -0.075936
  21 C :   -0.125834
  22 S :    0.440003
  23 C :   -0.178550
  24 C :   -0.036973
  25 C :   -0.022658
  26 C :   -0.032446
  27 C :   -0.051452
  28 C :   -0.016516
  29 C :   -0.030898
  30 C :   -0.054299
  31 C :   -0.041508
  32 C :   -0.062160
  33 C :   -0.164289
  34 S :    0.408815
  35 C :   -0.176352
  36 C :   -0.023465
  37 C :   -0.042465
  38 C :   -0.172797
  39 S :    0.424952
  40 C :   -0.197909
  41 C :   -0.055027
  42 C :   -0.046171
  43 C :   -0.061310
  44 C :   -0.017068
  45 C :   -0.040765
  46 C :   -0.037786
  47 C :   -0.025533
  48 C :   -0.062600
  49 C :   -0.144502
  50 C :   -0.041350
  51 C :   -0.032220
  52 C :   -0.182132
  53 S :    0.363275
  54 C :   -0.187563
  55 C :   -0.036980
  56 C :   -0.032207
  57 C :   -0.137065
  58 S :    0.411166
  59 C :   -0.054839
  60 C :   -0.059467
  61 C :    0.048099
  62 O :   -0.100033
  63 C :    0.078836
  64 C :    0.043097
  65 O :   -0.095929
  66 C :    0.079020
  67 C :   -0.089085
  68 C :   -0.051009
  69 C :   -0.043370
  70 N :   -0.294449
  71 S :    0.635959
  72 N :   -0.291042
  73 H :    0.041564
  74 H :    0.041003
  75 H :    0.039345
  76 H :    0.043715
  77 H :    0.026146
  78 H :    0.026075
  79 H :    0.027516
  80 H :    0.023388
  81 H :    0.029936
  82 H :    0.009075
  83 H :    0.020219
  84 H :    0.030698
  85 H :    0.019821
  86 H :    0.017123
  87 H :    0.024831
  88 H :    0.023897
  89 H :    0.034770
  90 H :    0.030355
  91 H :    0.018882
  92 H :    0.030499
  93 H :    0.032999
  94 H :    0.035586
  95 H :    0.027727
  96 H :    0.026353
  97 H :    0.024721
  98 H :    0.019515
  99 H :    0.029572
 100 H :    0.030659
 101 H :    0.029900
 102 H :    0.027326
 103 H :    0.030286
 104 H :    0.034966
 105 H :    0.015041
 106 H :    0.014389
 107 H :    0.020957
 108 H :    0.018336
 109 H :    0.029001
 110 H :    0.021115
 111 H :    0.037654

  Mayer bond orders larger than 0.100000
B(  0-C ,  1-C ) :   1.6445 B(  0-C ,  6-C ) :   1.0149 B(  0-C , 18-C ) :   1.0393
B(  1-C ,  2-C ) :   1.1383 B(  1-C ,  4-C ) :   1.1520 B(  2-C ,  3-N ) :   2.9683
B(  4-C ,  5-N ) :   2.9612 B(  6-C ,  7-C ) :   1.2716 B(  6-C , 11-C ) :   1.3999
B(  7-C ,  8-C ) :   1.4270 B(  7-C , 16-C ) :   0.9411 B(  8-C ,  9-C ) :   1.2449
B(  8-C , 73-H ) :   1.0169 B(  9-C , 10-C ) :   1.3012 B(  9-C , 14-C ) :   1.1634
B( 10-C , 11-C ) :   1.3395 B( 10-C , 12-S ) :   1.0851 B( 11-C , 74-H ) :   0.9792
B( 12-S , 13-C ) :   1.0856 B( 13-C , 14-C ) :   1.6184 B( 13-C , 15-Br) :   1.0197
B( 14-C , 75-H ) :   1.0002 B( 16-C , 17-O ) :   2.2478 B( 16-C , 18-C ) :   0.9190
B( 18-C , 19-C ) :   1.7066 B( 19-C , 20-C ) :   1.0228 B( 19-C , 76-H ) :   0.9182
B( 20-C , 21-C ) :   1.5765 B( 20-C , 24-C ) :   1.1641 B( 21-C , 22-S ) :   1.1561
B( 21-C , 77-H ) :   0.9632 B( 22-S , 23-C ) :   1.0701 B( 23-C , 24-C ) :   1.3744
B( 23-C , 35-C ) :   1.3707 B( 24-C , 25-C ) :   1.2625 B( 25-C , 26-C ) :   1.0549
B( 25-C , 28-C ) :   1.5122 B( 26-C , 27-C ) :   1.1042 B( 26-C , 78-H ) :   0.9141
B( 26-C , 79-H ) :   0.9158 B( 27-C , 80-H ) :   0.9536 B( 27-C , 81-H ) :   0.9620
B( 27-C , 82-H ) :   0.9532 B( 28-C , 29-C ) :   1.0849 B( 28-C , 31-C ) :   1.2450
B( 29-C , 30-C ) :   1.1080 B( 29-C , 83-H ) :   0.9129 B( 29-C , 84-H ) :   0.9045
B( 30-C , 85-H ) :   0.9600 B( 30-C , 86-H ) :   0.9622 B( 30-C , 87-H ) :   0.9601
B( 31-C , 32-C ) :   1.1360 B( 31-C , 35-C ) :   1.3875 B( 32-C , 33-C ) :   1.6049
B( 32-C , 36-C ) :   1.0435 B( 33-C , 34-S ) :   1.1155 B( 33-C , 88-H ) :   0.9655
B( 34-S , 35-C ) :   1.0769 B( 36-C , 37-C ) :   1.7444 B( 36-C , 89-H ) :   0.9605
B( 37-C , 38-C ) :   1.1294 B( 37-C , 90-H ) :   0.9459 B( 38-C , 39-S ) :   1.1376
B( 38-C , 43-C ) :   1.4498 B( 39-S , 40-C ) :   1.1356 B( 40-C , 41-C ) :   1.5943
B( 40-C , 91-H ) :   0.9681 B( 41-C , 42-C ) :   1.0911 B( 41-C , 43-C ) :   1.2385
B( 42-C , 92-H ) :   0.9482 B( 42-C , 93-H ) :   0.9444 B( 42-C , 94-H ) :   0.9450
B( 43-C , 44-C ) :   1.0990 B( 44-C , 45-C ) :   1.6939 B( 44-C , 95-H ) :   0.9442
B( 45-C , 46-C ) :   1.1350 B( 45-C , 96-H ) :   0.9751 B( 46-C , 47-C ) :   1.6414
B( 46-C , 97-H ) :   0.9785 B( 47-C , 48-C ) :   1.1758 B( 47-C , 98-H ) :   0.9614
B( 48-C , 49-C ) :   1.5444 B( 48-C , 99-H ) :   0.9836 B( 49-C , 50-C ) :   1.1499
B( 49-C , 53-S ) :   1.0334 B( 50-C , 51-C ) :   1.5781 B( 50-C ,100-H ) :   0.9984
B( 51-C , 52-C ) :   1.1967 B( 51-C ,101-H ) :   0.9928 B( 52-C , 53-S ) :   1.0397
B( 52-C , 54-C ) :   1.5074 B( 54-C , 55-C ) :   1.1767 B( 54-C , 58-S ) :   1.0122
B( 55-C , 56-C ) :   1.5961 B( 55-C ,102-H ) :   0.9924 B( 56-C , 57-C ) :   1.1308
B( 56-C ,103-H ) :   1.0007 B( 57-C , 58-S ) :   1.0428 B( 57-C , 59-C ) :   1.5614
B( 59-C , 60-C ) :   1.1636 B( 59-C ,104-H ) :   0.9497 B( 60-C , 61-C ) :   1.4304
B( 60-C , 67-C ) :   0.1127 B( 60-C , 69-C ) :   1.1480 B( 61-C , 62-O ) :   1.1852
B( 61-C , 64-C ) :   1.1729 B( 62-O , 63-C ) :   0.9317 B( 63-C ,105-H ) :   0.9745
B( 63-C ,106-H ) :   0.9741 B( 63-C ,107-H ) :   0.9769 B( 64-C , 65-O ) :   1.1330
B( 64-C , 67-C ) :   1.3670 B( 65-O , 66-C ) :   0.9577 B( 66-C ,108-H ) :   0.9690
B( 66-C ,109-H ) :   0.9773 B( 66-C ,110-H ) :   0.9692 B( 67-C , 68-C ) :   1.1418
B( 67-C ,111-H ) :   1.0396 B( 68-C , 69-C ) :   1.1523 B( 68-C , 72-N ) :   1.5506
B( 69-C , 70-N ) :   1.5215 B( 70-N , 71-S ) :   1.2345 B( 70-N , 72-N ) :   0.1408
B( 71-S , 72-N ) :   1.2410

-----------------------------------------------------------------------------
         ABSORPTION SPECTRUM VIA TRANSITION ELECTRIC DIPOLE MOMENTS
-----------------------------------------------------------------------------
State   Energy  Wavelength   fosc         T2         TX        TY        TZ
        (cm-1)    (nm)                  (au**2)     (au)      (au)      (au)
-----------------------------------------------------------------------------
   0   12495.1    800.3   0.813681750  21.43826   1.08677   4.11559  -1.82185
   1   14459.8    691.6   0.000094252   0.00215   0.02849  -0.01460  -0.03349
   2   18563.5    538.7   0.239033504   4.23911   0.26745  -0.46476   1.98786
   3   20941.7    477.5   0.263351451   4.13998   1.09957   1.45397   0.90382
   4   21394.2    467.4   0.027358207   0.42098   0.24186   0.54559   0.25460
   5   22006.6    454.4   0.125835618   1.88246   0.39358   0.92043   0.93828
   6   22185.8    450.7   0.130949540   1.94315   0.14265   0.25025   1.36388
   7   24209.2    413.1   0.591513283   8.04377  -0.31641  -2.35454  -1.54913
   8   25408.1    393.6   0.004828163   0.06256   0.13145  -0.05951   0.20430
   9   25833.7    387.1   0.080674970   1.02808   0.55160  -0.35056   0.77520
  10   26429.6    378.4   0.004594911   0.05723  -0.00815  -0.11350  -0.21044
  11   28364.4    352.6   0.025274167   0.29335   0.05266  -0.37994   0.38238
  12   28537.5    350.4   0.348921494   4.02519  -1.15850  -0.06197  -1.63683
  13   28717.8    348.2   0.374566751   4.29391   0.14045   0.12948  -2.06335
  14   29379.9    340.4   0.013064393   0.14639   0.04094   0.02627   0.37951
  15   29891.5    334.5   0.019324344   0.21283   0.13959  -0.16381   0.40806
  16   30027.0    333.0   0.011930583   0.13081   0.11785  -0.19985   0.27744
  17   30102.5    332.2   0.165414760   1.80904  -0.42355   1.14832   0.55768
  18   30522.9    327.6   0.038855960   0.41909  -0.24455  -0.33035   0.50016
  19   30777.5    324.9   0.020168156   0.21573   0.11770   0.15165  -0.42294
  20   30887.4    323.8   0.159408834   1.69905  -0.23360   0.39722  -1.21930
  21   31230.1    320.2   0.081543529   0.85959   0.46785   0.59561  -0.53474
  22   31926.0    313.2   0.026657868   0.27489   0.13185   0.13600   0.48888
  23   31949.7    313.0   0.023691685   0.24412  -0.19562  -0.18769  -0.41307
  24   32599.8    306.8   0.112770439   1.13882   0.68370  -0.28477   0.76830
  25   33085.3    302.2   0.254960540   2.53696  -1.01442   1.21554  -0.17430
  26   33208.0    301.1   0.026451686   0.26223   0.35524  -0.36494   0.05347
  27   33422.2    299.2   0.001975754   0.01946   0.07339   0.07978   0.08781
  28   33520.8    298.3   0.146614355   1.43992  -0.85859  -0.67526  -0.49675
  29   33699.5    296.7   0.200075242   1.95454  -0.67751  -0.79455  -0.92964
  30   34145.0    292.9   0.136687437   1.31788  -0.91174   0.61053  -0.33745
  31   34208.5    292.3   0.523996639   5.04278  -0.34185  -0.74110   2.09205
  32   34473.4    290.1   0.043956748   0.41978  -0.51547  -0.03245   0.39117
  33   34557.9    289.4   0.008739643   0.08326   0.00719   0.16068   0.23955
  34   34971.5    285.9   0.016832867   0.15846   0.24941   0.17576  -0.25566
  35   35089.5    285.0   0.003178120   0.02982  -0.03964   0.07157  -0.15207
  36   35496.2    281.7   0.037503320   0.34783  -0.37522  -0.45285  -0.04433
  37   36308.0    275.4   0.094276763   0.85483   0.25142   0.87153   0.17903
  38   36369.2    275.0   0.014374117   0.13011  -0.03697   0.33763   0.12145
  39   36474.1    274.2   0.005220729   0.04712  -0.16544  -0.03823   0.13524
  40   36569.9    273.4   0.005751338   0.05178   0.00640  -0.22737  -0.00605
  41   37189.6    268.9   0.100339407   0.88823  -0.36567   0.42572   0.75715
  42   37356.1    267.7   0.172491159   1.52013  -0.99795  -0.31779  -0.65056
  43   37791.3    264.6   0.078409251   0.68305   0.54270  -0.32431   0.53230
  44   38101.0    262.5   0.121105146   1.04641   0.30125  -0.87695  -0.43198
  45   38549.0    259.4   0.012472275   0.10651  -0.30914  -0.00530   0.10448
  46   38876.0    257.2   0.086870635   0.73564  -0.16439  -0.54840   0.63865
  47   39025.0    256.2   0.185676446   1.56635  -0.08358  -0.84066  -0.92339
  48   39422.4    253.7   0.031332157   0.26165   0.12157  -0.46987  -0.16153
  49   39567.5    252.7   0.168322268   1.40048  -0.12233   1.16566  -0.16359
  50   39936.1    250.4   0.037981741   0.31310   0.17929   0.28997   0.44371
  51   39971.5    250.2   0.042980341   0.35399   0.43623   0.32279  -0.24394
  52   40259.5    248.4   0.135870348   1.11105   0.98007   0.05029   0.38468
  53   40264.4    248.4   0.106207940   0.86838   0.63398  -0.27976   0.62305

FINAL SINGLE POINT ENERGY     -8035.218593237461

DIPOLE MOMENT
-------------
                                X             Y             Z
Electronic contribution:     11.45043     -89.46013    -201.82732
Nuclear contribution   :    -11.74810      89.69928     201.97253
                        -----------------------------------------
Total Dipole Moment    :     -0.29767       0.23915       0.14521
                        -----------------------------------------
Magnitude (a.u.)       :      0.40852
Magnitude (Debye)      :      1.03836

Rotational constants in cm-1:     0.000860     0.000327     0.000263
Rotational constants in MHz :    25.785489     9.801006     7.891097

                             ****ORCA TERMINATED NORMALLY****
TOTAL RUN TIME: 0 days 0 hours 13 minutes 24 seconds 361 msec
