                         Program Version 4.2.0 -  RELEASE  -
|  1> # ORCA input file
|  2> # SCF done       -188.834228880456          0.000242036240
|  3> ! CAM-B3LYP def2-SVP def2/J RIJCOSX Grid4 TightSCF
|  4> %maxcore 5000
|  5> %tddft
|  6>     Mode sTDDFT
|  7>     Ethresh 5.0
|  8>     maxcore 5000
|  9> end
| 10>
| 11> %pal
| 12>   nprocs 6
| 13>   end
| 14> * xyz 0 1
| 15>    C       -4.59474         0.85246         2.72323
| 16>    C       -5.12717         1.38044         1.57381
| 17>    C       -6.07785         2.42068         1.54842
| 18>    N       -6.84514         3.27096         1.46352
| 19>    C       -4.83679         0.93515         0.26758
| 20>    N       -4.67982         0.60988        -0.82292
| 21>    C       -4.98832         1.21349         4.08112
| 22>    C       -4.32855         0.34728         4.98556
| 23>    C       -4.50637         0.42205         6.34478
| 24>    C       -5.37570         1.40208         6.83670
| 25>    C       -6.02241         2.26946         5.92592
| 26>    C       -5.84490         2.19140         4.54964
| 27>    S       -7.04030         3.41487         6.74665
| 28>    C       -6.59078         2.71951         8.28084
| 29>    C       -5.72419         1.68362         8.18636
| 30>   Br       -7.30627         3.42845         9.86334
| 31>    C       -3.45737        -0.57965         4.23313
| 32>    O       -2.71263        -1.40892         4.71627
| 33>    C       -3.62517        -0.21790         2.81297
| 34>    C       -2.85924        -0.67777         1.77193
| 35>    C       -1.95857        -1.76028         1.75768
| 36>    S       -0.57223        -1.61865         0.69174
| 37>    C        0.08877        -3.07208         1.31100
| 38>    C       -0.70192        -3.67651         2.24118
| 39>    C       -0.36061        -4.95640         2.92423
| 40>    C       -1.90588        -2.95386         2.47990
| 41>    C       -2.97236        -3.49309         3.27600
| 42>    C       -4.28094        -3.35153         2.98701
| 43>    C       -5.35680        -3.89826         3.76132
| 44>    C       -5.24174        -4.31090         5.03600
| 45>    C       -6.35223        -4.85233         5.79880
| 46>    C       -7.56796        -4.23839         5.77120
| 47>    S       -8.76928        -4.97399         6.75820
| 48>    C       -7.63232        -6.20642         7.21097
| 49>    C       -6.36005        -6.02328         6.64631
| 50>    C       -5.32798        -6.93927         6.96315
| 51>    C       -3.96428        -6.71947         6.36746
| 52>    C       -3.07839        -5.83542         7.24808
| 53>    C       -5.58170        -8.01983         7.80070
| 54>    C       -4.44892        -8.80776         8.40643
| 55>    C       -4.34889        -8.49124         9.90154
| 56>    C       -6.90865        -8.28353         8.22654
| 57>    C       -7.46168        -9.38943         8.97881
| 58>    C       -8.74305        -9.13472         9.38628
| 59>    S       -9.40360        -7.66819         8.79190
| 60>    C       -7.89742        -7.31552         7.99521
| 61>    C       -6.92732       -10.71369         9.17511
| 62>    C       -6.23777       -11.40248         8.23362
| 63>    C       -5.78633       -12.72895         8.40414
| 64>    C       -5.03096       -13.40213         7.48256
| 65>    C       -4.57780       -14.74427         7.55971
| 66>    C       -3.83425       -15.14516         6.49413
| 67>    C       -3.63993       -14.13822         5.51836
| 68>    S       -4.45265       -12.66587         5.99025
| 69>    C       -2.91940       -14.22790         4.34337
| 70>    C       -2.26525       -15.36053         3.80922
| 71>    C       -1.64999       -15.12797         2.61883
| 72>    C       -1.76639       -13.79172         2.15021
| 73>    S       -2.70683       -12.84628         3.28728
| 74>    C       -1.24172       -13.33324         0.96889
| 75>    C       -1.26723       -12.02012         0.46003
| 76>    S       -0.73201       -11.71943        -1.18966
| 77>    C       -0.99833       -10.02264        -1.11351
| 78>    C       -1.47862        -9.67489         0.12576
| 79>    C       -1.62742       -10.79872         1.00195
| 80>    O       -2.06048       -10.39704         2.21614
| 81>    C       -2.20189        -9.04996         2.12566
| 82>    N       -2.63072        -8.36384         3.27401
| 83>    O       -2.75299        -7.15052         3.17271
| 84>    O       -2.83847        -8.99902         4.28713
| 85>    C       -1.86932        -8.54593         0.89366
| 86>    H       -3.99133        -0.25397         7.00902
| 87>    H       -6.35762         2.87789         3.89684
| 88>    H       -5.34353         1.14044         9.03198
| 89>    H       -2.86388        -0.09084         0.85969
| 90>    H        1.04069        -3.40937         0.94783
| 91>    H        0.51572        -5.41160         2.46936
| 92>    H       -1.19950        -5.64861         2.87269
| 93>    H       -0.14762        -4.76704         3.97618
| 94>    H       -2.66845        -4.12990         4.09205
| 95>    H       -4.56433        -2.81970         2.08644
| 96>    H       -6.31415        -3.98277         3.26262
| 97>    H       -4.29957        -4.18463         5.54471
| 98>    H       -7.81600        -3.33843         5.24234
| 99>    H       -4.08741        -6.25959         5.38603
|100>    H       -3.47231        -7.67662         6.19746
|101>    H       -3.58089        -4.90244         7.49644
|102>    H       -2.14812        -5.60402         6.73339
|103>    H       -2.83582        -6.33815         8.18120
|104>    H       -3.50565        -8.55158         7.93360
|105>    H       -4.58799        -9.87881         8.28778
|106>    H       -4.23956        -7.42028        10.06038
|107>    H       -3.48758        -8.99627        10.33323
|108>    H       -5.24089        -8.82337        10.42756
|109>    H       -9.37400        -9.79468         9.95042
|110>    H       -7.21358       -11.21553        10.09122
|111>    H       -6.03905       -10.94105         7.27432
|112>    H       -6.04538       -13.24648         9.31870
|113>    H       -4.82316       -15.36829         8.40114
|114>    H       -3.41197       -16.12803         6.38564
|115>    H       -2.27277       -16.31224         4.30955
|116>    H       -1.10749       -15.86830         2.05786
|117>    H       -0.75727       -14.06582         0.33731
|118>    H       -0.78697        -9.40494        -1.96044
|119>    H       -1.90214        -7.51690         0.60131
|120> *
|121>
|122>                          ****END OF INPUT****

CARTESIAN COORDINATES (ANGSTROEM)
---------------------------------
  C     -4.594740    0.852460    2.723230
  C     -5.127170    1.380440    1.573810
  C     -6.077850    2.420680    1.548420
  N     -6.845140    3.270960    1.463520
  C     -4.836790    0.935150    0.267580
  N     -4.679820    0.609880   -0.822920
  C     -4.988320    1.213490    4.081120
  C     -4.328550    0.347280    4.985560
  C     -4.506370    0.422050    6.344780
  C     -5.375700    1.402080    6.836700
  C     -6.022410    2.269460    5.925920
  C     -5.844900    2.191400    4.549640
  S     -7.040300    3.414870    6.746650
  C     -6.590780    2.719510    8.280840
  C     -5.724190    1.683620    8.186360
  Br    -7.306270    3.428450    9.863340
  C     -3.457370   -0.579650    4.233130
  O     -2.712630   -1.408920    4.716270
  C     -3.625170   -0.217900    2.812970
  C     -2.859240   -0.677770    1.771930
  C     -1.958570   -1.760280    1.757680
  S     -0.572230   -1.618650    0.691740
  C      0.088770   -3.072080    1.311000
  C     -0.701920   -3.676510    2.241180
  C     -0.360610   -4.956400    2.924230
  C     -1.905880   -2.953860    2.479900
  C     -2.972360   -3.493090    3.276000
  C     -4.280940   -3.351530    2.987010
  C     -5.356800   -3.898260    3.761320
  C     -5.241740   -4.310900    5.036000
  C     -6.352230   -4.852330    5.798800
  C     -7.567960   -4.238390    5.771200
  S     -8.769280   -4.973990    6.758200
  C     -7.632320   -6.206420    7.210970
  C     -6.360050   -6.023280    6.646310
  C     -5.327980   -6.939270    6.963150
  C     -3.964280   -6.719470    6.367460
  C     -3.078390   -5.835420    7.248080
  C     -5.581700   -8.019830    7.800700
  C     -4.448920   -8.807760    8.406430
  C     -4.348890   -8.491240    9.901540
  C     -6.908650   -8.283530    8.226540
  C     -7.461680   -9.389430    8.978810
  C     -8.743050   -9.134720    9.386280
  S     -9.403600   -7.668190    8.791900
  C     -7.897420   -7.315520    7.995210
  C     -6.927320  -10.713690    9.175110
  C     -6.237770  -11.402480    8.233620
  C     -5.786330  -12.728950    8.404140
  C     -5.030960  -13.402130    7.482560
  C     -4.577800  -14.744270    7.559710
  C     -3.834250  -15.145160    6.494130
  C     -3.639930  -14.138220    5.518360
  S     -4.452650  -12.665870    5.990250
  C     -2.919400  -14.227900    4.343370
  C     -2.265250  -15.360530    3.809220
  C     -1.649990  -15.127970    2.618830
  C     -1.766390  -13.791720    2.150210
  S     -2.706830  -12.846280    3.287280
  C     -1.241720  -13.333240    0.968890
  C     -1.267230  -12.020120    0.460030
  S     -0.732010  -11.719430   -1.189660
  C     -0.998330  -10.022640   -1.113510
  C     -1.478620   -9.674890    0.125760
  C     -1.627420  -10.798720    1.001950
  O     -2.060480  -10.397040    2.216140
  C     -2.201890   -9.049960    2.125660
  N     -2.630720   -8.363840    3.274010
  O     -2.752990   -7.150520    3.172710
  O     -2.838470   -8.999020    4.287130
  C     -1.869320   -8.545930    0.893660
  H     -3.991330   -0.253970    7.009020
  H     -6.357620    2.877890    3.896840
  H     -5.343530    1.140440    9.031980
  H     -2.863880   -0.090840    0.859690
  H      1.040690   -3.409370    0.947830
  H      0.515720   -5.411600    2.469360
  H     -1.199500   -5.648610    2.872690
  H     -0.147620   -4.767040    3.976180
  H     -2.668450   -4.129900    4.092050
  H     -4.564330   -2.819700    2.086440
  H     -6.314150   -3.982770    3.262620
  H     -4.299570   -4.184630    5.544710
  H     -7.816000   -3.338430    5.242340
  H     -4.087410   -6.259590    5.386030
  H     -3.472310   -7.676620    6.197460
  H     -3.580890   -4.902440    7.496440
  H     -2.148120   -5.604020    6.733390
  H     -2.835820   -6.338150    8.181200
  H     -3.505650   -8.551580    7.933600
  H     -4.587990   -9.878810    8.287780
  H     -4.239560   -7.420280   10.060380
  H     -3.487580   -8.996270   10.333230
  H     -5.240890   -8.823370   10.427560
  H     -9.374000   -9.794680    9.950420
  H     -7.213580  -11.215530   10.091220
  H     -6.039050  -10.941050    7.274320
  H     -6.045380  -13.246480    9.318700
  H     -4.823160  -15.368290    8.401140
  H     -3.411970  -16.128030    6.385640
  H     -2.272770  -16.312240    4.309550
  H     -1.107490  -15.868300    2.057860
  H     -0.757270  -14.065820    0.337310
  H     -0.786970   -9.404940   -1.960440
  H     -1.902140   -7.516900    0.601310

 Total Charge           Charge          ....    0
 Multiplicity           Mult            ....    1
 Number of Electrons    NEL             ....  570
 Basis Dimension        Dim             .... 1210

ORBITAL ENERGIES
----------------

  NO   OCC          E(Eh)            E(eV)
   0   2.0000    -482.880102    -13139.8356
   1   2.0000     -88.976605     -2421.1765
   2   2.0000     -88.968868     -2420.9660
   3   2.0000     -88.956527     -2420.6302
   4   2.0000     -88.945390     -2420.3271
   5   2.0000     -88.941262     -2420.2148
   6   2.0000     -88.940072     -2420.1824
   7   2.0000     -88.938997     -2420.1531
   8   2.0000     -62.557793     -1702.2841
   9   2.0000     -56.391739     -1534.4972
  10   2.0000     -56.389034     -1534.4236
  11   2.0000     -56.389001     -1534.4227
  12   2.0000     -19.311457      -525.4914
  13   2.0000     -19.258051      -524.0382
  14   2.0000     -19.254923      -523.9531
  15   2.0000     -19.205819      -522.6169
  16   2.0000     -14.666963      -399.1083
  17   2.0000     -14.406723      -392.0269
  18   2.0000     -14.406358      -392.0169
  19   2.0000     -10.393724      -282.8276
  20   2.0000     -10.354782      -281.7679
  21   2.0000     -10.352322      -281.7010
  22   2.0000     -10.348543      -281.5982
  23   2.0000     -10.332173      -281.1527
  24   2.0000     -10.331506      -281.1346
  25   2.0000     -10.320714      -280.8409
  26   2.0000     -10.319407      -280.8053
  27   2.0000     -10.317663      -280.7579
  28   2.0000     -10.315723      -280.7051
  29   2.0000     -10.313546      -280.6459
  30   2.0000     -10.310106      -280.5522
  31   2.0000     -10.310063      -280.5511
  32   2.0000     -10.309794      -280.5438
  33   2.0000     -10.309630      -280.5393
  34   2.0000     -10.302782      -280.3529
  35   2.0000     -10.302569      -280.3472
  36   2.0000     -10.302050      -280.3330
  37   2.0000     -10.301969      -280.3308
  38   2.0000     -10.299903      -280.2746
  39   2.0000     -10.299706      -280.2692
  40   2.0000     -10.299049      -280.2514
  41   2.0000     -10.297731      -280.2155
  42   2.0000     -10.292286      -280.0673
  43   2.0000     -10.290085      -280.0074
  44   2.0000     -10.289420      -279.9893
  45   2.0000     -10.289287      -279.9857
  46   2.0000     -10.289220      -279.9839
  47   2.0000     -10.287767      -279.9444
  48   2.0000     -10.286401      -279.9072
  49   2.0000     -10.286371      -279.9064
  50   2.0000     -10.286073      -279.8983
  51   2.0000     -10.285389      -279.8797
  52   2.0000     -10.284294      -279.8499
  53   2.0000     -10.283624      -279.8316
  54   2.0000     -10.283337      -279.8238
  55   2.0000     -10.281058      -279.7618
  56   2.0000     -10.280830      -279.7556
  57   2.0000     -10.278203      -279.6841
  58   2.0000     -10.276836      -279.6469
  59   2.0000     -10.275666      -279.6151
  60   2.0000     -10.271555      -279.5032
  61   2.0000     -10.270006      -279.4611
  62   2.0000     -10.269115      -279.4368
  63   2.0000     -10.268954      -279.4325
  64   2.0000     -10.267220      -279.3853
  65   2.0000     -10.267036      -279.3803
  66   2.0000     -10.266310      -279.3605
  67   2.0000     -10.262569      -279.2587
  68   2.0000     -10.262477      -279.2562
  69   2.0000     -10.262466      -279.2559
  70   2.0000     -10.260964      -279.2150
  71   2.0000     -10.246154      -278.8120
  72   2.0000     -10.244823      -278.7758
  73   2.0000     -10.242381      -278.7093
  74   2.0000     -10.241736      -278.6918
  75   2.0000      -8.787202      -239.1119
  76   2.0000      -8.071558      -219.6383
  77   2.0000      -8.064778      -219.4538
  78   2.0000      -8.052582      -219.1219
  79   2.0000      -8.041509      -218.8206
  80   2.0000      -8.037495      -218.7114
  81   2.0000      -8.036309      -218.6791
  82   2.0000      -8.035156      -218.6477
  83   2.0000      -6.623464      -180.2336
  84   2.0000      -6.608957      -179.8389
  85   2.0000      -6.608758      -179.8334
  86   2.0000      -6.040904      -164.3814
  87   2.0000      -6.036562      -164.2632
  88   2.0000      -6.034502      -164.2071
  89   2.0000      -6.033890      -164.1905
  90   2.0000      -6.030181      -164.0896
  91   2.0000      -6.026021      -163.9764
  92   2.0000      -6.021853      -163.8629
  93   2.0000      -6.017670      -163.7491
  94   2.0000      -6.014724      -163.6690
  95   2.0000      -6.011004      -163.5677
  96   2.0000      -6.006993      -163.4586
  97   2.0000      -6.006799      -163.4533
  98   2.0000      -6.006047      -163.4329
  99   2.0000      -6.004927      -163.4024
 100   2.0000      -6.003205      -163.3555
 101   2.0000      -6.002811      -163.3448
 102   2.0000      -6.002048      -163.3240
 103   2.0000      -6.000800      -163.2901
 104   2.0000      -5.999137      -163.2448
 105   2.0000      -5.997153      -163.1908
 106   2.0000      -5.995929      -163.1575
 107   2.0000      -2.739368       -74.5420
 108   2.0000      -2.735230       -74.4294
 109   2.0000      -2.735145       -74.4271
 110   2.0000      -2.723592       -74.1127
 111   2.0000      -2.723568       -74.1120
 112   2.0000      -1.337223       -36.3877
 113   2.0000      -1.233893       -33.5759
 114   2.0000      -1.152703       -31.3667
 115   2.0000      -1.119634       -30.4668
 116   2.0000      -1.014930       -27.6176
 117   2.0000      -1.005393       -27.3581
 118   2.0000      -0.998482       -27.1701
 119   2.0000      -0.992328       -27.0026
 120   2.0000      -0.990810       -26.9613
 121   2.0000      -0.989551       -26.9271
 122   2.0000      -0.985377       -26.8135
 123   2.0000      -0.980249       -26.6739
 124   2.0000      -0.970017       -26.3955
 125   2.0000      -0.962686       -26.1960
 126   2.0000      -0.943213       -25.6661
 127   2.0000      -0.935163       -25.4471
 128   2.0000      -0.912771       -24.8378
 129   2.0000      -0.908724       -24.7276
 130   2.0000      -0.905129       -24.6298
 131   2.0000      -0.900893       -24.5146
 132   2.0000      -0.900468       -24.5030
 133   2.0000      -0.896584       -24.3973
 134   2.0000      -0.882082       -24.0027
 135   2.0000      -0.878024       -23.8922
 136   2.0000      -0.874239       -23.7892
 137   2.0000      -0.866225       -23.5712
 138   2.0000      -0.862080       -23.4584
 139   2.0000      -0.850344       -23.1390
 140   2.0000      -0.847976       -23.0746
 141   2.0000      -0.839754       -22.8509
 142   2.0000      -0.834668       -22.7125
 143   2.0000      -0.826797       -22.4983
 144   2.0000      -0.821637       -22.3579
 145   2.0000      -0.819845       -22.3091
 146   2.0000      -0.816111       -22.2075
 147   2.0000      -0.806870       -21.9561
 148   2.0000      -0.795654       -21.6509
 149   2.0000      -0.792287       -21.5592
 150   2.0000      -0.781192       -21.2573
 151   2.0000      -0.776500       -21.1297
 152   2.0000      -0.762853       -20.7583
 153   2.0000      -0.757602       -20.6154
 154   2.0000      -0.752129       -20.4665
 155   2.0000      -0.742910       -20.2156
 156   2.0000      -0.727879       -19.8066
 157   2.0000      -0.712497       -19.3880
 158   2.0000      -0.712110       -19.3775
 159   2.0000      -0.705247       -19.1907
 160   2.0000      -0.698978       -19.0202
 161   2.0000      -0.695518       -18.9260
 162   2.0000      -0.685245       -18.6465
 163   2.0000      -0.683304       -18.5936
 164   2.0000      -0.681781       -18.5522
 165   2.0000      -0.671480       -18.2719
 166   2.0000      -0.670714       -18.2511
 167   2.0000      -0.659175       -17.9371
 168   2.0000      -0.654671       -17.8145
 169   2.0000      -0.651098       -17.7173
 170   2.0000      -0.650942       -17.7130
 171   2.0000      -0.649232       -17.6665
 172   2.0000      -0.636534       -17.3210
 173   2.0000      -0.632922       -17.2227
 174   2.0000      -0.631684       -17.1890
 175   2.0000      -0.630305       -17.1515
 176   2.0000      -0.622245       -16.9321
 177   2.0000      -0.619756       -16.8644
 178   2.0000      -0.616807       -16.7842
 179   2.0000      -0.613354       -16.6902
 180   2.0000      -0.611451       -16.6384
 181   2.0000      -0.607150       -16.5214
 182   2.0000      -0.600726       -16.3466
 183   2.0000      -0.596712       -16.2374
 184   2.0000      -0.589121       -16.0308
 185   2.0000      -0.587709       -15.9924
 186   2.0000      -0.576768       -15.6947
 187   2.0000      -0.573573       -15.6077
 188   2.0000      -0.570299       -15.5186
 189   2.0000      -0.564071       -15.3492
 190   2.0000      -0.559082       -15.2134
 191   2.0000      -0.557697       -15.1757
 192   2.0000      -0.545456       -14.8426
 193   2.0000      -0.542256       -14.7555
 194   2.0000      -0.539321       -14.6757
 195   2.0000      -0.534692       -14.5497
 196   2.0000      -0.531896       -14.4736
 197   2.0000      -0.528770       -14.3886
 198   2.0000      -0.527190       -14.3456
 199   2.0000      -0.523590       -14.2476
 200   2.0000      -0.523526       -14.2459
 201   2.0000      -0.519833       -14.1454
 202   2.0000      -0.517846       -14.0913
 203   2.0000      -0.517589       -14.0843
 204   2.0000      -0.513600       -13.9758
 205   2.0000      -0.509004       -13.8507
 206   2.0000      -0.504861       -13.7380
 207   2.0000      -0.502652       -13.6778
 208   2.0000      -0.500834       -13.6284
 209   2.0000      -0.499008       -13.5787
 210   2.0000      -0.495605       -13.4861
 211   2.0000      -0.494947       -13.4682
 212   2.0000      -0.494058       -13.4440
 213   2.0000      -0.491812       -13.3829
 214   2.0000      -0.489047       -13.3077
 215   2.0000      -0.485918       -13.2225
 216   2.0000      -0.485087       -13.1999
 217   2.0000      -0.480740       -13.0816
 218   2.0000      -0.479218       -13.0402
 219   2.0000      -0.475297       -12.9335
 220   2.0000      -0.474423       -12.9097
 221   2.0000      -0.472590       -12.8598
 222   2.0000      -0.468533       -12.7494
 223   2.0000      -0.467799       -12.7295
 224   2.0000      -0.465801       -12.6751
 225   2.0000      -0.461322       -12.5532
 226   2.0000      -0.459174       -12.4948
 227   2.0000      -0.458203       -12.4683
 228   2.0000      -0.456083       -12.4106
 229   2.0000      -0.451330       -12.2813
 230   2.0000      -0.449301       -12.2261
 231   2.0000      -0.448894       -12.2150
 232   2.0000      -0.444671       -12.1001
 233   2.0000      -0.442191       -12.0326
 234   2.0000      -0.440773       -11.9940
 235   2.0000      -0.440371       -11.9831
 236   2.0000      -0.438611       -11.9352
 237   2.0000      -0.436761       -11.8849
 238   2.0000      -0.435595       -11.8531
 239   2.0000      -0.435315       -11.8455
 240   2.0000      -0.432227       -11.7615
 241   2.0000      -0.430645       -11.7184
 242   2.0000      -0.430301       -11.7091
 243   2.0000      -0.425390       -11.5754
 244   2.0000      -0.422264       -11.4904
 245   2.0000      -0.419295       -11.4096
 246   2.0000      -0.418287       -11.3822
 247   2.0000      -0.416577       -11.3356
 248   2.0000      -0.415353       -11.3023
 249   2.0000      -0.414390       -11.2761
 250   2.0000      -0.413970       -11.2647
 251   2.0000      -0.410357       -11.1664
 252   2.0000      -0.405825       -11.0431
 253   2.0000      -0.404647       -11.0110
 254   2.0000      -0.402883       -10.9630
 255   2.0000      -0.400015       -10.8850
 256   2.0000      -0.398731       -10.8500
 257   2.0000      -0.392155       -10.6711
 258   2.0000      -0.390452       -10.6247
 259   2.0000      -0.389000       -10.5852
 260   2.0000      -0.386831       -10.5262
 261   2.0000      -0.382409       -10.4059
 262   2.0000      -0.378263       -10.2931
 263   2.0000      -0.372050       -10.1240
 264   2.0000      -0.370303       -10.0764
 265   2.0000      -0.369402       -10.0519
 266   2.0000      -0.367414        -9.9979
 267   2.0000      -0.363638        -9.8951
 268   2.0000      -0.347985        -9.4691
 269   2.0000      -0.341531        -9.2935
 270   2.0000      -0.337898        -9.1947
 271   2.0000      -0.334585        -9.1045
 272   2.0000      -0.326050        -8.8723
 273   2.0000      -0.323337        -8.7984
 274   2.0000      -0.319972        -8.7069
 275   2.0000      -0.314111        -8.5474
 276   2.0000      -0.308285        -8.3889
 277   2.0000      -0.308076        -8.3832
 278   2.0000      -0.289109        -7.8671
 279   2.0000      -0.283626        -7.7178
 280   2.0000      -0.278786        -7.5861
 281   2.0000      -0.268852        -7.3158
 282   2.0000      -0.255222        -6.9449
 283   2.0000      -0.243859        -6.6358
 284   2.0000      -0.206387        -5.6161
 285   0.0000      -0.084086        -2.2881
 286   0.0000      -0.081590        -2.2202
 287   0.0000      -0.067865        -1.8467
 288   0.0000      -0.055761        -1.5173
 289   0.0000      -0.015112        -0.4112

MULLIKEN ATOMIC CHARGES
-----------------------
   0 C :    0.304905
   1 C :   -0.350659
   2 C :   -0.184825
   3 N :    0.144554
   4 C :   -0.214055
   5 N :    0.158852
   6 C :    0.017101
   7 C :   -0.017286
   8 C :   -0.073961
   9 C :    0.117268
  10 C :   -0.092549
  11 C :   -0.024891
  12 S :    0.181140
  13 C :   -0.123501
  14 C :    0.039407
  15 Br:    0.018721
  16 C :    0.165161
  17 O :   -0.151554
  18 C :   -0.107812
  19 C :    0.018293
  20 C :   -0.193018
  21 S :    0.130891
  22 C :   -0.106969
  23 C :   -0.099745
  24 C :    0.109096
  25 C :    0.172139
  26 C :    0.001054
  27 C :    0.014731
  28 C :   -0.019017
  29 C :   -0.009430
  30 C :    0.068561
  31 C :   -0.119797
  32 S :    0.116634
  33 C :   -0.139361
  34 C :    0.116710
  35 C :   -0.117314
  36 C :   -0.005893
  37 C :    0.035254
  38 C :   -0.127360
  39 C :    0.078337
  40 C :    0.021075
  41 C :    0.095725
  42 C :    0.052612
  43 C :   -0.098688
  44 S :    0.125315
  45 C :   -0.149803
  46 C :   -0.044502
  47 C :    0.014193
  48 C :   -0.021695
  49 C :   -0.021265
  50 C :    0.043487
  51 C :    0.022561
  52 C :   -0.046632
  53 S :    0.085118
  54 C :   -0.051046
  55 C :    0.034527
  56 C :    0.027022
  57 C :   -0.027542
  58 S :    0.098201
  59 C :    0.028133
  60 C :   -0.224397
  61 S :    0.149275
  62 C :   -0.140644
  63 C :    0.125556
  64 C :    0.192440
  65 O :   -0.189178
  66 C :    0.242676
  67 N :    0.292229
  68 O :   -0.238335
  69 O :   -0.206655
  70 C :   -0.080971
  71 H :   -0.013626
  72 H :   -0.006933
  73 H :   -0.004392
  74 H :    0.024981
  75 H :    0.020596
  76 H :   -0.000399
  77 H :    0.034346
  78 H :    0.035772
  79 H :   -0.002768
  80 H :   -0.001396
  81 H :   -0.012916
  82 H :    0.017535
  83 H :    0.015770
  84 H :    0.012618
  85 H :    0.018192
  86 H :    0.011756
  87 H :    0.011462
  88 H :    0.002081
  89 H :   -0.007033
  90 H :   -0.003701
  91 H :    0.010342
  92 H :    0.007868
  93 H :    0.012192
  94 H :    0.015139
  95 H :   -0.009392
  96 H :    0.026626
  97 H :   -0.016755
  98 H :   -0.013232
  99 H :   -0.016134
 100 H :   -0.015222
 101 H :   -0.016054
 102 H :   -0.023739
 103 H :    0.031669
 104 H :    0.016144
Sum of atomic charges:   -0.0000000

LOEWDIN ATOMIC CHARGES
----------------------
   0 C :    0.077325
   1 C :   -0.149135
   2 C :   -0.018374
   3 N :   -0.060151
   4 C :   -0.026486
   5 N :   -0.057276
   6 C :   -0.022358
   7 C :   -0.045838
   8 C :    0.018597
   9 C :   -0.033407
  10 C :   -0.146230
  11 C :   -0.011237
  12 S :    0.428780
  13 C :   -0.272925
  14 C :   -0.070448
  15 Br:    0.133257
  16 C :    0.082092
  17 O :   -0.134490
  18 C :   -0.106343
  19 C :    0.053981
  20 C :   -0.185364
  21 S :    0.441318
  22 C :   -0.169665
  23 C :   -0.055470
  24 C :   -0.052963
  25 C :   -0.005802
  26 C :   -0.006603
  27 C :   -0.013649
  28 C :   -0.036932
  29 C :    0.002504
  30 C :   -0.059254
  31 C :   -0.169450
  32 S :    0.404277
  33 C :   -0.179591
  34 C :   -0.041743
  35 C :   -0.014639
  36 C :   -0.036632
  37 C :   -0.053623
  38 C :   -0.019697
  39 C :   -0.029471
  40 C :   -0.047994
  41 C :   -0.043195
  42 C :   -0.065212
  43 C :   -0.166628
  44 S :    0.412416
  45 C :   -0.177694
  46 C :   -0.009905
  47 C :   -0.038906
  48 C :   -0.046034
  49 C :   -0.150442
  50 C :   -0.027923
  51 C :   -0.036571
  52 C :   -0.169956
  53 S :    0.376297
  54 C :   -0.190836
  55 C :   -0.027503
  56 C :   -0.042412
  57 C :   -0.137866
  58 S :    0.392970
  59 C :   -0.100858
  60 C :   -0.194313
  61 S :    0.474094
  62 C :   -0.193266
  63 C :   -0.081810
  64 C :    0.006292
  65 O :    0.000347
  66 C :    0.021975
  67 N :    0.282557
  68 O :   -0.204029
  69 O :   -0.171655
  70 C :   -0.002743
  71 H :    0.039518
  72 H :    0.040412
  73 H :    0.038408
  74 H :    0.044133
  75 H :    0.024188
  76 H :    0.028882
  77 H :    0.030354
  78 H :    0.040253
  79 H :    0.031514
  80 H :    0.028391
  81 H :    0.027240
  82 H :    0.031872
  83 H :    0.022204
  84 H :    0.026128
  85 H :    0.022645
  86 H :    0.019371
  87 H :    0.022777
  88 H :    0.021894
  89 H :    0.025803
  90 H :    0.026612
  91 H :    0.021078
  92 H :    0.022295
  93 H :    0.021814
  94 H :    0.022078
  95 H :    0.029040
  96 H :    0.027988
  97 H :    0.031942
  98 H :    0.033321
  99 H :    0.030813
 100 H :    0.031113
 101 H :    0.031297
 102 H :    0.032248
 103 H :    0.028479
 104 H :    0.047810

  Mayer bond orders larger than 0.100000
B(  0-C ,  1-C ) :   1.6217 B(  0-C ,  6-C ) :   1.0004 B(  0-C , 18-C ) :   1.0825
B(  1-C ,  2-C ) :   1.1427 B(  1-C ,  4-C ) :   1.1466 B(  2-C ,  3-N ) :   2.9703
B(  4-C ,  5-N ) :   2.9933 B(  6-C ,  7-C ) :   1.2744 B(  6-C , 11-C ) :   1.4126
B(  7-C ,  8-C ) :   1.4327 B(  7-C , 16-C ) :   0.9377 B(  8-C ,  9-C ) :   1.2425
B(  8-C , 71-H ) :   1.0159 B(  9-C , 10-C ) :   1.3114 B(  9-C , 14-C ) :   1.1617
B( 10-C , 11-C ) :   1.3279 B( 10-C , 12-S ) :   1.0816 B( 11-C , 72-H ) :   0.9796
B( 12-S , 13-C ) :   1.0865 B( 13-C , 14-C ) :   1.6184 B( 13-C , 15-Br) :   1.0162
B( 14-C , 73-H ) :   1.0001 B( 16-C , 17-O ) :   2.1852 B( 16-C , 18-C ) :   0.9673
B( 18-C , 19-C ) :   1.5653 B( 19-C , 20-C ) :   1.2111 B( 19-C , 74-H ) :   0.9275
B( 20-C , 21-S ) :   1.1003 B( 20-C , 25-C ) :   1.3959 B( 21-S , 22-C ) :   1.1699
B( 22-C , 23-C ) :   1.5532 B( 22-C , 75-H ) :   0.9670 B( 23-C , 24-C ) :   1.0923
B( 23-C , 25-C ) :   1.2649 B( 24-C , 76-H ) :   0.9445 B( 24-C , 77-H ) :   0.9264
B( 24-C , 78-H ) :   0.9378 B( 25-C , 26-C ) :   1.0995 B( 26-C , 27-C ) :   1.7595
B( 26-C , 79-H ) :   0.9356 B( 27-C , 28-C ) :   1.1051 B( 27-C , 80-H ) :   0.9665
B( 28-C , 29-C ) :   1.7911 B( 28-C , 81-H ) :   0.9764 B( 29-C , 30-C ) :   1.0039
B( 29-C , 82-H ) :   0.9354 B( 30-C , 31-C ) :   1.6203 B( 30-C , 34-C ) :   1.1550
B( 31-C , 32-S ) :   1.1079 B( 31-C , 83-H ) :   0.9650 B( 32-S , 33-C ) :   1.0745
B( 33-C , 34-C ) :   1.3680 B( 33-C , 45-C ) :   1.3787 B( 34-C , 35-C ) :   1.2658
B( 35-C , 36-C ) :   1.0439 B( 35-C , 38-C ) :   1.5106 B( 36-C , 37-C ) :   1.1000
B( 36-C , 84-H ) :   0.9139 B( 36-C , 85-H ) :   0.9088 B( 37-C , 86-H ) :   0.9580
B( 37-C , 87-H ) :   0.9647 B( 37-C , 88-H ) :   0.9594 B( 38-C , 39-C ) :   1.0881
B( 38-C , 41-C ) :   1.2498 B( 39-C , 40-C ) :   1.1068 B( 39-C , 89-H ) :   0.9113
B( 39-C , 90-H ) :   0.9060 B( 40-C , 91-H ) :   0.9612 B( 40-C , 92-H ) :   0.9669
B( 40-C , 93-H ) :   0.9663 B( 41-C , 42-C ) :   1.1306 B( 41-C , 45-C ) :   1.3844
B( 42-C , 43-C ) :   1.5833 B( 42-C , 46-C ) :   1.0401 B( 43-C , 44-S ) :   1.1260
B( 43-C , 94-H ) :   0.9678 B( 44-S , 45-C ) :   1.0703 B( 46-C , 47-C ) :   1.7041
B( 46-C , 95-H ) :   0.9685 B( 47-C , 48-C ) :   1.1388 B( 47-C , 96-H ) :   0.9612
B( 48-C , 49-C ) :   1.5910 B( 48-C , 97-H ) :   0.9837 B( 49-C , 50-C ) :   1.1330
B( 49-C , 53-S ) :   1.0202 B( 50-C , 51-C ) :   1.6003 B( 50-C , 98-H ) :   0.9987
B( 51-C , 52-C ) :   1.1801 B( 51-C , 99-H ) :   0.9933 B( 52-C , 53-S ) :   1.0555
B( 52-C , 54-C ) :   1.5135 B( 54-C , 55-C ) :   1.1843 B( 54-C , 58-S ) :   1.0312
B( 55-C , 56-C ) :   1.5946 B( 55-C ,100-H ) :   0.9930 B( 56-C , 57-C ) :   1.1391
B( 56-C ,101-H ) :   0.9999 B( 57-C , 58-S ) :   1.0536 B( 57-C , 59-C ) :   1.6005
B( 59-C , 60-C ) :   1.1483 B( 59-C ,102-H ) :   0.9438 B( 60-C , 61-S ) :   1.1362
B( 60-C , 62-C ) :   0.1078 B( 60-C , 64-C ) :   1.4323 B( 61-S , 62-C ) :   1.1788
B( 62-C , 63-C ) :   1.4282 B( 62-C ,103-H ) :   0.9770 B( 63-C , 64-C ) :   1.2273
B( 63-C , 70-C ) :   1.0696 B( 64-C , 65-O ) :   1.0887 B( 65-O , 66-C ) :   1.1263
B( 66-C , 67-N ) :   0.9297 B( 66-C , 70-C ) :   1.5560 B( 67-N , 68-O ) :   1.4773
B( 67-N , 69-O ) :   1.5064 B( 68-O , 69-O ) :   0.2635 B( 70-C ,104-H ) :   1.0266

-----------------------------------------------------------------------------
         ABSORPTION SPECTRUM VIA TRANSITION ELECTRIC DIPOLE MOMENTS
-----------------------------------------------------------------------------
State   Energy  Wavelength   fosc         T2         TX        TY        TZ
        (cm-1)    (nm)                  (au**2)     (au)      (au)      (au)
-----------------------------------------------------------------------------
   0   11596.9    862.3   0.129616980   3.67955   0.90182   0.35148  -1.65612
   1   15978.6    625.8   0.900703144  18.55742  -2.41530   0.66884   3.50377
   2   17791.5    562.1   0.251894775   4.66103  -0.29587  -2.04971   0.61006
   3   18075.2    553.2   0.049092105   0.89414  -0.14615  -0.87508   0.32714
   4   20997.9    476.2   0.001963276   0.03078   0.06938  -0.15775  -0.03289
   5   23344.0    428.4   0.067420662   0.95081  -0.78333  -0.54114   0.21066
   6   23500.3    425.5   0.057893006   0.81102  -0.06378   0.69016  -0.57500
   7   23954.7    417.5   0.359355822   4.93867  -1.74504   1.20035   0.67280
   8   24454.5    408.9   0.002116227   0.02849   0.00637   0.16452  -0.03716
   9   25035.2    399.4   0.004900161   0.06444   0.08665  -0.23756   0.02224
  10   25451.0    392.9   0.026763577   0.34619   0.01035  -0.54548   0.22031
  11   26454.5    378.0   0.014833957   0.18460  -0.14006   0.27700  -0.29708
  12   26630.7    375.5   0.250914270   3.10183   0.48404  -1.69293   0.03886
  13   26948.5    371.1   0.015612561   0.19073   0.02315  -0.12722   0.41714
  14   27063.3    369.5   0.177759255   2.16235   0.34580  -1.41644   0.19096
  15   27637.2    361.8   0.177809817   2.11805  -0.65409   0.78701   1.03481
  16   28150.1    355.2   0.114726753   1.34171   0.54890  -0.35461   0.95639
  17   28458.7    351.4   0.151185302   1.74892   0.22200  -1.23837   0.40751
  18   29881.6    334.7   0.302313810   3.33066  -0.92587   0.64058   1.43634
  19   30190.1    331.2   0.071086700   0.77517  -0.42248  -0.02174   0.77215
  20   30427.2    328.7   0.344462064   3.72696   0.79476  -1.71365  -0.39841
  21   30702.8    325.7   0.006460805   0.06928   0.06371   0.25530   0.00606
  22   31464.1    317.8   0.027985261   0.29281   0.09751   0.53165  -0.02555
  23   31934.2    313.1   0.022475534   0.23170  -0.45633  -0.01206   0.15271
  24   32235.4    310.2   0.024314949   0.24832   0.11165   0.47425  -0.10462
  25   32379.8    308.8   0.002062668   0.02097   0.08149  -0.09414  -0.07395
  26   32610.1    306.7   0.009221476   0.09309   0.03277   0.10484   0.28466
  27   32888.9    304.1   0.058479476   0.58537   0.40665  -0.30124  -0.57381
  28   33011.3    302.9   0.400561611   3.99468  -0.12007  -0.10005  -1.99255
  29   33515.3    298.4   0.227035804   2.23012  -0.42631   1.41397   0.22149
  30   33880.9    295.2   0.030650929   0.29783   0.08192   0.43014  -0.32573
  31   34075.2    293.5   0.023712471   0.22909  -0.25394  -0.03502   0.40421
  32   34119.9    293.1   0.025251642   0.24364   0.19203   0.23819  -0.38734
  33   34682.9    288.3   0.545615692   5.17901   1.44512   0.27250  -1.73678
  34   35111.0    284.8   0.020931286   0.19626  -0.06915   0.40008   0.17723
  35   35394.0    282.5   0.407891241   3.79394  -0.61031   0.56792   1.76038
  36   35457.4    282.0   0.121675025   1.12972  -0.37697   0.83037  -0.54598
  37   35896.3    278.6   0.042894697   0.39340  -0.44518  -0.11708   0.42603
  38   35993.7    277.8   0.222706251   2.03696  -0.74175   0.53292   1.09671
  39   36220.8    276.1   0.047827526   0.43471   0.32434  -0.14717  -0.55484
  40   36559.0    273.5   0.017707765   0.15946  -0.16521   0.23886   0.27406
  41   36745.2    272.1   0.011264269   0.10092  -0.22671   0.16460   0.14977
  42   36816.1    271.6   0.024359635   0.21783   0.21992  -0.39565  -0.11367
  43   36959.0    270.6   0.009060190   0.08070  -0.05368  -0.27851  -0.01593
  44   37118.8    269.4   0.037054442   0.32864  -0.07895   0.09932   0.55906
  45   37569.4    266.2   0.040332950   0.35343  -0.40050  -0.43793   0.03524
  46   37762.7    264.8   0.163569468   1.42598  -0.87737   0.80776  -0.06108
  47   38178.4    261.9   0.027532721   0.23741  -0.40734  -0.07462   0.25675
  48   38402.0    260.4   0.000526911   0.00452   0.04541   0.04707   0.01545
  49   38491.1    259.8   0.155964576   1.33396  -0.99563   0.33819   0.47781
  50   38655.8    258.7   0.097873878   0.83354   0.27665   0.37994  -0.78272
  51   38910.7    257.0   0.032962505   0.27889   0.27075  -0.37745   0.25123
  52   38973.5    256.6   0.084971738   0.71776  -0.49678  -0.24057   0.64272
  53   39411.0    253.7   0.005715252   0.04774  -0.06836  -0.10763   0.17744
  54   39617.7    252.4   0.007200404   0.05983  -0.22541   0.06375   0.07044
  55   39761.1    251.5   0.055928288   0.46307  -0.17226   0.15780  -0.63914
  56   39880.8    250.7   0.137039008   1.13124  -0.04420   1.01998  -0.29822
  57   40174.7    248.9   0.000101233   0.00083   0.02417   0.01379   0.00743

FINAL SINGLE POINT ENERGY     -7976.472147135928

DIPOLE MOMENT
-------------
                                X             Y             Z
Electronic contribution:    -50.18596     137.23872      25.82363
Nuclear contribution   :     52.16710    -140.95129     -24.83784
                        -----------------------------------------
Total Dipole Moment    :      1.98114      -3.71256       0.98579
                        -----------------------------------------
Magnitude (a.u.)       :      4.32202
Magnitude (Debye)      :     10.98569

Rotational constants in cm-1:     0.000999     0.000402     0.000305
Rotational constants in MHz :    29.941319    12.063193     9.155331

                             ****ORCA TERMINATED NORMALLY****
TOTAL RUN TIME: 0 days 0 hours 11 minutes 6 seconds 157 msec
