                         Program Version 4.2.0 -  RELEASE  -
|  1> # ORCA input file
|  2> # SCF done       -187.659169594476          0.000993568142
|  3> ! CAM-B3LYP def2-SVP def2/J RIJCOSX Grid4 TightSCF
|  4> %maxcore 5000
|  5> %tddft
|  6>     Mode sTDDFT
|  7>     Ethresh 5.0
|  8>     maxcore 5000
|  9> end
| 10>
| 11> %pal
| 12>   nprocs 6
| 13>   end
| 14> * xyz 0 1
| 15>    C       -3.16600        -7.46128        -3.60465
| 16>    C       -3.87208        -8.00317        -2.55900
| 17>    C       -3.83422        -9.36839        -2.20409
| 18>    N       -3.85628       -10.46397        -1.86145
| 19>    C       -4.71367        -7.30881        -1.66750
| 20>    N       -5.39093        -6.82930        -0.87139
| 21>    C       -2.23588        -8.19871        -4.45479
| 22>    C       -1.65704        -7.29853        -5.38257
| 23>    C       -0.72558        -7.68533        -6.31420
| 24>    C       -0.34426        -9.03117        -6.33371
| 25>    C       -0.92832        -9.92573        -5.40554
| 26>    C       -1.87048        -9.53212        -4.46289
| 27>    S       -0.31560       -11.53967        -5.60179
| 28>    C        0.70083       -10.99887        -6.91108
| 29>    C        0.59003        -9.67752        -7.18778
| 30>   Br        1.81520       -12.22733        -7.78607
| 31>    C       -2.22327        -5.95456        -5.16925
| 32>    O       -1.95301        -4.95301        -5.80615
| 33>    C       -3.17225        -6.08304        -4.05628
| 34>    C       -3.94565        -5.07861        -3.52951
| 35>    C       -4.07112        -3.73162        -3.89929
| 36>    S       -3.43886        -3.01811        -5.36267
| 37>    C       -4.33332        -1.58978        -5.07845
| 38>    C       -5.06406        -1.60070        -3.92453
| 39>    C       -5.89997        -0.45918        -3.44872
| 40>    C       -4.90024        -2.81619        -3.21476
| 41>    C       -5.51123        -3.04628        -1.93812
| 42>    C       -4.96742        -3.75957        -0.92542
| 43>    C       -5.58734        -4.04484         0.32938
| 44>    C       -6.89767        -3.85197         0.60576
| 45>    C       -7.58105        -4.17569         1.81504
| 46>    O       -8.93046        -4.36039         1.68866
| 47>    C       -9.43316        -4.75923         2.83994
| 48>    C       -8.43957        -4.83755         3.78829
| 49>    N       -8.59672        -5.21738         5.13352
| 50>    O       -9.72027        -5.43334         5.53360
| 51>    O       -7.58256        -5.29661         5.81486
| 52>    C       -7.21926        -4.43543         3.14106
| 53>    N       -6.04667        -4.30571         3.82193
| 54>    C       -4.97371        -3.55661         3.49614
| 55>    C       -3.85436        -3.47367         4.27505
| 56>    C       -2.69177        -2.70881         4.00386
| 57>    C       -1.73397        -2.80030         4.96540
| 58>    C       -2.08360        -3.63730         6.05104
| 59>    S       -3.67080        -4.32121         5.81198
| 60>    C       -1.32955        -3.91666         7.17757
| 61>    C       -0.03788        -3.44404         7.49039
| 62>    C        0.43589        -3.89608         8.68696
| 63>    C       -0.45835        -4.74237         9.37994
| 64>    S       -1.92059        -4.96166         8.45298
| 65>    C       -0.23504        -5.33828        10.60721
| 66>    C       -1.17092        -6.12708        11.26389
| 67>    C       -1.02966        -6.79095        12.46506
| 68>    C        0.12462        -7.11048        13.25651
| 69>    C        1.41918        -7.27315        12.81570
| 70>    C        2.49747        -7.61579        13.65297
| 71>    N        3.42045        -7.87202        14.28764
| 72>    C        1.81340        -7.23081        11.46463
| 73>    N        2.19498        -7.25646        10.38116
| 74>    C       -0.34712        -7.45862        14.59801
| 75>    C       -1.76115        -7.54260        14.57177
| 76>    C       -2.23991        -7.18197        13.21899
| 77>    O       -3.38545        -7.17067        12.82173
| 78>    C       -2.50125        -7.88885        15.67443
| 79>    C       -1.81419        -8.15388        16.86489
| 80>    C       -0.40436        -8.05370        16.88415
| 81>    C        0.34632        -7.71180        15.76456
| 82>    S        0.24048        -8.40994        18.45861
| 83>    C       -1.37242        -8.69099        19.05878
| 84>    C       -2.34446        -8.52365        18.13201
| 85>   Br       -1.62026        -9.17135        20.85563
| 86>    H       -0.30471        -6.97284        -7.00613
| 87>    H       -2.28287       -10.25407        -3.77849
| 88>    H        1.14407        -9.17807        -7.96138
| 89>    H       -4.59630        -5.35937        -2.71057
| 90>    H       -4.27008        -0.78163        -5.78224
| 91>    H       -5.83312         0.37236        -4.14468
| 92>    H       -5.56635        -0.12379        -2.46781
| 93>    H       -6.94432        -0.75946        -3.36742
| 94>    H       -6.45671        -2.54464        -1.78398
| 95>    H       -3.95739        -4.13106        -1.03496
| 96>    H       -4.95160        -4.51018         1.06758
| 97>    H       -7.56425        -3.50731        -0.17231
| 98>    H      -10.48199        -4.97164         2.90984
| 99>    H       -6.07148        -4.72473         4.75687
|100>    H       -5.03084        -2.98396         2.58302
|101>    H       -2.60456        -2.11963         3.10837
|102>    H       -0.78949        -2.28904         4.92771
|103>    H        0.50656        -2.78951         6.83390
|104>    H        1.40171        -3.65286         9.09214
|105>    H        0.71802        -5.13294        11.07239
|106>    H       -2.17243        -6.16363        10.84423
|107>    H       -3.57684        -7.95269        15.62318
|108>    H        1.41959        -7.64499        15.83016
|109>    H       -3.39262        -8.65422        18.33046
|110> *
|111>
|112>                          ****END OF INPUT****

CARTESIAN COORDINATES (ANGSTROEM)
---------------------------------
  C     -3.166000   -7.461280   -3.604650
  C     -3.872080   -8.003170   -2.559000
  C     -3.834220   -9.368390   -2.204090
  N     -3.856280  -10.463970   -1.861450
  C     -4.713670   -7.308810   -1.667500
  N     -5.390930   -6.829300   -0.871390
  C     -2.235880   -8.198710   -4.454790
  C     -1.657040   -7.298530   -5.382570
  C     -0.725580   -7.685330   -6.314200
  C     -0.344260   -9.031170   -6.333710
  C     -0.928320   -9.925730   -5.405540
  C     -1.870480   -9.532120   -4.462890
  S     -0.315600  -11.539670   -5.601790
  C      0.700830  -10.998870   -6.911080
  C      0.590030   -9.677520   -7.187780
  Br     1.815200  -12.227330   -7.786070
  C     -2.223270   -5.954560   -5.169250
  O     -1.953010   -4.953010   -5.806150
  C     -3.172250   -6.083040   -4.056280
  C     -3.945650   -5.078610   -3.529510
  C     -4.071120   -3.731620   -3.899290
  S     -3.438860   -3.018110   -5.362670
  C     -4.333320   -1.589780   -5.078450
  C     -5.064060   -1.600700   -3.924530
  C     -5.899970   -0.459180   -3.448720
  C     -4.900240   -2.816190   -3.214760
  C     -5.511230   -3.046280   -1.938120
  C     -4.967420   -3.759570   -0.925420
  C     -5.587340   -4.044840    0.329380
  C     -6.897670   -3.851970    0.605760
  C     -7.581050   -4.175690    1.815040
  O     -8.930460   -4.360390    1.688660
  C     -9.433160   -4.759230    2.839940
  C     -8.439570   -4.837550    3.788290
  N     -8.596720   -5.217380    5.133520
  O     -9.720270   -5.433340    5.533600
  O     -7.582560   -5.296610    5.814860
  C     -7.219260   -4.435430    3.141060
  N     -6.046670   -4.305710    3.821930
  C     -4.973710   -3.556610    3.496140
  C     -3.854360   -3.473670    4.275050
  C     -2.691770   -2.708810    4.003860
  C     -1.733970   -2.800300    4.965400
  C     -2.083600   -3.637300    6.051040
  S     -3.670800   -4.321210    5.811980
  C     -1.329550   -3.916660    7.177570
  C     -0.037880   -3.444040    7.490390
  C      0.435890   -3.896080    8.686960
  C     -0.458350   -4.742370    9.379940
  S     -1.920590   -4.961660    8.452980
  C     -0.235040   -5.338280   10.607210
  C     -1.170920   -6.127080   11.263890
  C     -1.029660   -6.790950   12.465060
  C      0.124620   -7.110480   13.256510
  C      1.419180   -7.273150   12.815700
  C      2.497470   -7.615790   13.652970
  N      3.420450   -7.872020   14.287640
  C      1.813400   -7.230810   11.464630
  N      2.194980   -7.256460   10.381160
  C     -0.347120   -7.458620   14.598010
  C     -1.761150   -7.542600   14.571770
  C     -2.239910   -7.181970   13.218990
  O     -3.385450   -7.170670   12.821730
  C     -2.501250   -7.888850   15.674430
  C     -1.814190   -8.153880   16.864890
  C     -0.404360   -8.053700   16.884150
  C      0.346320   -7.711800   15.764560
  S      0.240480   -8.409940   18.458610
  C     -1.372420   -8.690990   19.058780
  C     -2.344460   -8.523650   18.132010
  Br    -1.620260   -9.171350   20.855630
  H     -0.304710   -6.972840   -7.006130
  H     -2.282870  -10.254070   -3.778490
  H      1.144070   -9.178070   -7.961380
  H     -4.596300   -5.359370   -2.710570
  H     -4.270080   -0.781630   -5.782240
  H     -5.833120    0.372360   -4.144680
  H     -5.566350   -0.123790   -2.467810
  H     -6.944320   -0.759460   -3.367420
  H     -6.456710   -2.544640   -1.783980
  H     -3.957390   -4.131060   -1.034960
  H     -4.951600   -4.510180    1.067580
  H     -7.564250   -3.507310   -0.172310
  H    -10.481990   -4.971640    2.909840
  H     -6.071480   -4.724730    4.756870
  H     -5.030840   -2.983960    2.583020
  H     -2.604560   -2.119630    3.108370
  H     -0.789490   -2.289040    4.927710
  H      0.506560   -2.789510    6.833900
  H      1.401710   -3.652860    9.092140
  H      0.718020   -5.132940   11.072390
  H     -2.172430   -6.163630   10.844230
  H     -3.576840   -7.952690   15.623180
  H      1.419590   -7.644990   15.830160
  H     -3.392620   -8.654220   18.330460

 Total Charge           Charge          ....    0
 Multiplicity           Mult            ....    1
 Number of Electrons    NEL             ....  574
 Basis Dimension        Dim             .... 1170

ORBITAL ENERGIES
----------------

  NO   OCC          E(Eh)            E(eV)
   0   2.0000    -482.888344    -13140.0599
   1   2.0000    -482.871744    -13139.6082
   2   2.0000     -88.978577     -2421.2302
   3   2.0000     -88.966642     -2420.9054
   4   2.0000     -88.965246     -2420.8674
   5   2.0000     -88.958591     -2420.6863
   6   2.0000     -88.953121     -2420.5375
   7   2.0000     -62.566040     -1702.5085
   8   2.0000     -62.549432     -1702.0566
   9   2.0000     -56.399995     -1534.7219
  10   2.0000     -56.397272     -1534.6478
  11   2.0000     -56.397241     -1534.6469
  12   2.0000     -56.383366     -1534.2694
  13   2.0000     -56.380685     -1534.1964
  14   2.0000     -56.380645     -1534.1953
  15   2.0000     -19.335174      -526.1368
  16   2.0000     -19.266625      -524.2715
  17   2.0000     -19.264571      -524.2156
  18   2.0000     -19.223386      -523.0949
  19   2.0000     -19.187992      -522.1318
  20   2.0000     -14.675875      -399.3509
  21   2.0000     -14.487740      -394.2315
  22   2.0000     -14.424922      -392.5221
  23   2.0000     -14.417360      -392.3163
  24   2.0000     -14.392217      -391.6321
  25   2.0000     -14.389391      -391.5552
  26   2.0000     -10.381207      -282.4870
  27   2.0000     -10.372123      -282.2398
  28   2.0000     -10.363664      -282.0096
  29   2.0000     -10.362500      -281.9780
  30   2.0000     -10.362120      -281.9676
  31   2.0000     -10.353543      -281.7342
  32   2.0000     -10.349311      -281.6191
  33   2.0000     -10.346774      -281.5500
  34   2.0000     -10.344624      -281.4915
  35   2.0000     -10.341944      -281.4186
  36   2.0000     -10.338846      -281.3343
  37   2.0000     -10.335167      -281.2342
  38   2.0000     -10.328982      -281.0659
  39   2.0000     -10.328659      -281.0571
  40   2.0000     -10.326751      -281.0052
  41   2.0000     -10.320945      -280.8472
  42   2.0000     -10.320466      -280.8342
  43   2.0000     -10.319978      -280.8209
  44   2.0000     -10.319353      -280.8039
  45   2.0000     -10.316220      -280.7186
  46   2.0000     -10.314967      -280.6845
  47   2.0000     -10.313126      -280.6344
  48   2.0000     -10.311478      -280.5896
  49   2.0000     -10.311069      -280.5784
  50   2.0000     -10.309318      -280.5308
  51   2.0000     -10.309115      -280.5253
  52   2.0000     -10.307231      -280.4740
  53   2.0000     -10.306745      -280.4608
  54   2.0000     -10.306490      -280.4538
  55   2.0000     -10.305811      -280.4354
  56   2.0000     -10.304686      -280.4048
  57   2.0000     -10.300837      -280.3000
  58   2.0000     -10.299894      -280.2744
  59   2.0000     -10.299738      -280.2701
  60   2.0000     -10.298246      -280.2295
  61   2.0000     -10.298140      -280.2266
  62   2.0000     -10.297709      -280.2149
  63   2.0000     -10.297276      -280.2031
  64   2.0000     -10.296411      -280.1796
  65   2.0000     -10.295692      -280.1600
  66   2.0000     -10.293656      -280.1046
  67   2.0000     -10.293254      -280.0937
  68   2.0000     -10.289580      -279.9937
  69   2.0000     -10.287802      -279.9453
  70   2.0000     -10.286819      -279.9186
  71   2.0000     -10.284664      -279.8599
  72   2.0000     -10.284638      -279.8592
  73   2.0000     -10.283185      -279.8197
  74   2.0000     -10.280811      -279.7551
  75   2.0000     -10.280548      -279.7479
  76   2.0000     -10.270383      -279.4713
  77   2.0000     -10.269801      -279.4555
  78   2.0000     -10.264956      -279.3237
  79   2.0000      -8.795463      -239.3367
  80   2.0000      -8.778833      -238.8842
  81   2.0000      -8.074609      -219.7213
  82   2.0000      -8.061462      -219.3635
  83   2.0000      -8.060824      -219.3462
  84   2.0000      -8.054536      -219.1751
  85   2.0000      -8.049323      -219.0332
  86   2.0000      -6.631770      -180.4596
  87   2.0000      -6.617204      -180.0633
  88   2.0000      -6.616982      -180.0572
  89   2.0000      -6.615051      -180.0047
  90   2.0000      -6.600594      -179.6113
  91   2.0000      -6.600434      -179.6069
  92   2.0000      -6.044300      -164.4738
  93   2.0000      -6.040006      -164.3569
  94   2.0000      -6.035825      -164.2431
  95   2.0000      -6.031231      -164.1181
  96   2.0000      -6.030174      -164.0894
  97   2.0000      -6.027182      -164.0080
  98   2.0000      -6.025497      -163.9621
  99   2.0000      -6.024257      -163.9284
 100   2.0000      -6.023221      -163.9002
 101   2.0000      -6.022311      -163.8754
 102   2.0000      -6.019961      -163.8115
 103   2.0000      -6.018916      -163.7830
 104   2.0000      -6.015763      -163.6972
 105   2.0000      -6.014936      -163.6747
 106   2.0000      -6.010460      -163.5529
 107   2.0000      -2.747651       -74.7674
 108   2.0000      -2.743538       -74.6555
 109   2.0000      -2.743402       -74.6518
 110   2.0000      -2.731806       -74.3362
 111   2.0000      -2.731790       -74.3358
 112   2.0000      -2.730943       -74.3127
 113   2.0000      -2.726852       -74.2014
 114   2.0000      -2.726777       -74.1994
 115   2.0000      -2.715262       -73.8860
 116   2.0000      -2.715249       -73.8857
 117   2.0000      -1.344741       -36.5923
 118   2.0000      -1.256581       -34.1933
 119   2.0000      -1.164758       -31.6947
 120   2.0000      -1.139001       -30.9938
 121   2.0000      -1.102510       -30.0008
 122   2.0000      -1.092428       -29.7265
 123   2.0000      -1.027347       -27.9555
 124   2.0000      -1.018830       -27.7238
 125   2.0000      -1.008061       -27.4307
 126   2.0000      -1.002841       -27.2887
 127   2.0000      -1.002452       -27.2781
 128   2.0000      -1.000264       -27.2186
 129   2.0000      -0.992934       -27.0191
 130   2.0000      -0.990948       -26.9651
 131   2.0000      -0.984438       -26.7879
 132   2.0000      -0.969930       -26.3931
 133   2.0000      -0.966651       -26.3039
 134   2.0000      -0.965667       -26.2771
 135   2.0000      -0.946481       -25.7551
 136   2.0000      -0.941312       -25.6144
 137   2.0000      -0.923436       -25.1280
 138   2.0000      -0.913562       -24.8593
 139   2.0000      -0.912163       -24.8212
 140   2.0000      -0.909327       -24.7441
 141   2.0000      -0.901947       -24.5432
 142   2.0000      -0.889482       -24.2040
 143   2.0000      -0.888552       -24.1787
 144   2.0000      -0.884728       -24.0747
 145   2.0000      -0.879885       -23.9429
 146   2.0000      -0.870547       -23.6888
 147   2.0000      -0.866030       -23.5659
 148   2.0000      -0.860125       -23.4052
 149   2.0000      -0.857894       -23.3445
 150   2.0000      -0.845757       -23.0142
 151   2.0000      -0.839041       -22.8315
 152   2.0000      -0.833123       -22.6704
 153   2.0000      -0.832626       -22.6569
 154   2.0000      -0.826243       -22.4832
 155   2.0000      -0.810070       -22.0431
 156   2.0000      -0.808562       -22.0021
 157   2.0000      -0.793239       -21.5851
 158   2.0000      -0.787445       -21.4275
 159   2.0000      -0.766585       -20.8598
 160   2.0000      -0.762572       -20.7506
 161   2.0000      -0.759059       -20.6550
 162   2.0000      -0.746607       -20.3162
 163   2.0000      -0.739462       -20.1218
 164   2.0000      -0.731705       -19.9107
 165   2.0000      -0.726195       -19.7608
 166   2.0000      -0.715717       -19.4756
 167   2.0000      -0.700525       -19.0622
 168   2.0000      -0.695903       -18.9365
 169   2.0000      -0.694441       -18.8967
 170   2.0000      -0.685950       -18.6657
 171   2.0000      -0.680094       -18.5063
 172   2.0000      -0.672369       -18.2961
 173   2.0000      -0.666381       -18.1331
 174   2.0000      -0.664597       -18.0846
 175   2.0000      -0.661092       -17.9892
 176   2.0000      -0.656586       -17.8666
 177   2.0000      -0.652204       -17.7474
 178   2.0000      -0.647917       -17.6307
 179   2.0000      -0.646110       -17.5815
 180   2.0000      -0.641177       -17.4473
 181   2.0000      -0.637074       -17.3357
 182   2.0000      -0.630984       -17.1700
 183   2.0000      -0.627248       -17.0683
 184   2.0000      -0.623848       -16.9758
 185   2.0000      -0.621707       -16.9175
 186   2.0000      -0.613031       -16.6814
 187   2.0000      -0.610842       -16.6218
 188   2.0000      -0.603554       -16.4235
 189   2.0000      -0.601943       -16.3797
 190   2.0000      -0.599681       -16.3181
 191   2.0000      -0.594690       -16.1823
 192   2.0000      -0.591471       -16.0947
 193   2.0000      -0.587458       -15.9856
 194   2.0000      -0.578900       -15.7527
 195   2.0000      -0.574666       -15.6375
 196   2.0000      -0.573823       -15.6145
 197   2.0000      -0.567191       -15.4341
 198   2.0000      -0.563605       -15.3365
 199   2.0000      -0.556129       -15.1330
 200   2.0000      -0.554046       -15.0764
 201   2.0000      -0.547587       -14.9006
 202   2.0000      -0.546381       -14.8678
 203   2.0000      -0.539187       -14.6720
 204   2.0000      -0.537237       -14.6190
 205   2.0000      -0.532200       -14.4819
 206   2.0000      -0.530789       -14.4435
 207   2.0000      -0.526442       -14.3252
 208   2.0000      -0.524627       -14.2758
 209   2.0000      -0.523852       -14.2547
 210   2.0000      -0.521508       -14.1910
 211   2.0000      -0.520699       -14.1689
 212   2.0000      -0.516586       -14.0570
 213   2.0000      -0.515622       -14.0308
 214   2.0000      -0.513070       -13.9613
 215   2.0000      -0.510365       -13.8877
 216   2.0000      -0.507449       -13.8084
 217   2.0000      -0.503404       -13.6983
 218   2.0000      -0.501856       -13.6562
 219   2.0000      -0.501370       -13.6430
 220   2.0000      -0.498676       -13.5697
 221   2.0000      -0.497601       -13.5404
 222   2.0000      -0.493727       -13.4350
 223   2.0000      -0.488724       -13.2988
 224   2.0000      -0.487086       -13.2543
 225   2.0000      -0.484486       -13.1835
 226   2.0000      -0.478559       -13.0222
 227   2.0000      -0.477906       -13.0045
 228   2.0000      -0.475340       -12.9347
 229   2.0000      -0.474646       -12.9158
 230   2.0000      -0.472580       -12.8596
 231   2.0000      -0.468797       -12.7566
 232   2.0000      -0.466990       -12.7074
 233   2.0000      -0.465420       -12.6647
 234   2.0000      -0.464079       -12.6282
 235   2.0000      -0.462536       -12.5862
 236   2.0000      -0.457010       -12.4359
 237   2.0000      -0.454102       -12.3568
 238   2.0000      -0.451041       -12.2734
 239   2.0000      -0.450660       -12.2631
 240   2.0000      -0.448028       -12.1915
 241   2.0000      -0.446985       -12.1631
 242   2.0000      -0.443660       -12.0726
 243   2.0000      -0.440511       -11.9869
 244   2.0000      -0.436056       -11.8657
 245   2.0000      -0.435162       -11.8414
 246   2.0000      -0.433205       -11.7881
 247   2.0000      -0.427215       -11.6251
 248   2.0000      -0.426855       -11.6153
 249   2.0000      -0.425966       -11.5911
 250   2.0000      -0.422491       -11.4966
 251   2.0000      -0.422123       -11.4866
 252   2.0000      -0.420587       -11.4447
 253   2.0000      -0.415648       -11.3104
 254   2.0000      -0.414471       -11.2783
 255   2.0000      -0.410810       -11.1787
 256   2.0000      -0.409268       -11.1367
 257   2.0000      -0.408237       -11.1087
 258   2.0000      -0.404077       -10.9955
 259   2.0000      -0.402527       -10.9533
 260   2.0000      -0.399182       -10.8623
 261   2.0000      -0.395798       -10.7702
 262   2.0000      -0.394651       -10.7390
 263   2.0000      -0.392766       -10.6877
 264   2.0000      -0.387024       -10.5315
 265   2.0000      -0.385581       -10.4922
 266   2.0000      -0.382094       -10.3973
 267   2.0000      -0.377588       -10.2747
 268   2.0000      -0.376460       -10.2440
 269   2.0000      -0.368591       -10.0299
 270   2.0000      -0.361402        -9.8342
 271   2.0000      -0.356050        -9.6886
 272   2.0000      -0.354217        -9.6387
 273   2.0000      -0.349493        -9.5102
 274   2.0000      -0.339243        -9.2313
 275   2.0000      -0.337349        -9.1797
 276   2.0000      -0.330326        -8.9886
 277   2.0000      -0.323480        -8.8023
 278   2.0000      -0.318712        -8.6726
 279   2.0000      -0.311847        -8.4858
 280   2.0000      -0.300385        -8.1739
 281   2.0000      -0.296621        -8.0715
 282   2.0000      -0.295479        -8.0404
 283   2.0000      -0.287176        -7.8145
 284   2.0000      -0.275197        -7.4885
 285   2.0000      -0.266986        -7.2651
 286   2.0000      -0.219070        -5.9612
 287   0.0000      -0.103181        -2.8077
 288   0.0000      -0.093616        -2.5474
 289   0.0000      -0.067359        -1.8329
 290   0.0000      -0.063836        -1.7371
 291   0.0000      -0.051528        -1.4022

MULLIKEN ATOMIC CHARGES
-----------------------
   0 C :    0.331273
   1 C :   -0.362407
   2 C :   -0.191037
   3 N :    0.150964
   4 C :   -0.195128
   5 N :    0.145109
   6 C :    0.008619
   7 C :   -0.012429
   8 C :   -0.071604
   9 C :    0.118318
  10 C :   -0.093758
  11 C :   -0.017279
  12 S :    0.189098
  13 C :   -0.123372
  14 C :    0.038139
  15 Br:    0.026583
  16 C :    0.155488
  17 O :   -0.174616
  18 C :   -0.099983
  19 C :   -0.047643
  20 C :   -0.126190
  21 S :    0.197653
  22 C :   -0.093974
  23 C :   -0.088600
  24 C :    0.118749
  25 C :    0.121669
  26 C :   -0.028740
  27 C :   -0.004068
  28 C :    0.003505
  29 C :    0.007845
  30 C :    0.033519
  31 O :   -0.156199
  32 C :    0.084451
  33 C :    0.116567
  34 N :    0.288256
  35 O :   -0.225907
  36 O :   -0.263009
  37 C :    0.034563
  38 N :   -0.004440
  39 C :    0.050530
  40 C :   -0.068076
  41 C :    0.052983
  42 C :    0.017541
  43 C :   -0.027791
  44 S :    0.094704
  45 C :   -0.066708
  46 C :    0.035499
  47 C :    0.035803
  48 C :   -0.013776
  49 S :    0.108806
  50 C :   -0.008729
  51 C :    0.021051
  52 C :   -0.134008
  53 C :    0.291399
  54 C :   -0.353483
  55 C :   -0.179472
  56 N :    0.131760
  57 C :   -0.219942
  58 N :    0.153962
  59 C :    0.008430
  60 C :   -0.003510
  61 C :    0.137390
  62 O :   -0.159802
  63 C :   -0.081177
  64 C :    0.116391
  65 C :   -0.089504
  66 C :   -0.030942
  67 S :    0.174235
  68 C :   -0.123550
  69 C :    0.035886
  70 Br:    0.009579
  71 H :   -0.009906
  72 H :   -0.006745
  73 H :   -0.002288
  74 H :    0.018388
  75 H :    0.023734
  76 H :    0.013338
  77 H :    0.029702
  78 H :    0.032200
  79 H :   -0.005543
  80 H :    0.006953
  81 H :    0.006219
  82 H :    0.001242
  83 H :    0.037295
  84 H :    0.155640
  85 H :    0.028587
  86 H :   -0.004728
  87 H :   -0.009079
  88 H :   -0.006990
  89 H :   -0.001993
  90 H :    0.004346
  91 H :    0.013066
  92 H :   -0.014475
  93 H :   -0.007906
  94 H :   -0.006521
Sum of atomic charges:   -0.0000000

LOEWDIN ATOMIC CHARGES
----------------------
   0 C :    0.080947
   1 C :   -0.151432
   2 C :   -0.019603
   3 N :   -0.055772
   4 C :   -0.016283
   5 N :   -0.059847
   6 C :   -0.022298
   7 C :   -0.049972
   8 C :    0.021448
   9 C :   -0.032071
  10 C :   -0.144523
  11 C :   -0.008321
  12 S :    0.434958
  13 C :   -0.270816
  14 C :   -0.070765
  15 Br:    0.138915
  16 C :    0.081522
  17 O :   -0.164493
  18 C :   -0.116029
  19 C :    0.055254
  20 C :   -0.188182
  21 S :    0.510424
  22 C :   -0.169311
  23 C :   -0.067964
  24 C :   -0.045160
  25 C :   -0.021922
  26 C :   -0.023435
  27 C :   -0.007126
  28 C :   -0.025217
  29 C :   -0.024109
  30 C :   -0.003369
  31 O :    0.051407
  32 C :    0.094615
  33 C :   -0.098037
  34 N :    0.294828
  35 O :   -0.188133
  36 O :   -0.211652
  37 C :   -0.002818
  38 N :    0.056816
  39 C :    0.030519
  40 C :   -0.203078
  41 C :   -0.008180
  42 C :   -0.052066
  43 C :   -0.140307
  44 S :    0.382585
  45 C :   -0.204566
  46 C :   -0.007447
  47 C :   -0.043291
  48 C :   -0.098480
  49 S :    0.401989
  50 C :   -0.076890
  51 C :    0.052042
  52 C :   -0.114406
  53 C :    0.068665
  54 C :   -0.159125
  55 C :   -0.019985
  56 N :   -0.070956
  57 C :   -0.024110
  58 N :   -0.066840
  59 C :   -0.014876
  60 C :   -0.050048
  61 C :    0.077313
  62 O :   -0.159698
  63 C :    0.016561
  64 C :   -0.038078
  65 C :   -0.145689
  66 C :   -0.017981
  67 S :    0.423995
  68 C :   -0.276668
  69 C :   -0.070978
  70 Br:    0.126291
  71 H :    0.041052
  72 H :    0.041248
  73 H :    0.039061
  74 H :    0.048184
  75 H :    0.025292
  76 H :    0.035028
  77 H :    0.036364
  78 H :    0.035823
  79 H :    0.028139
  80 H :    0.033674
  81 H :    0.031946
  82 H :    0.037577
  83 H :    0.042405
  84 H :    0.076231
  85 H :    0.039410
  86 H :    0.036403
  87 H :    0.034084
  88 H :    0.034250
  89 H :    0.038660
  90 H :    0.036837
  91 H :    0.034135
  92 H :    0.038957
  93 H :    0.039349
  94 H :    0.037202

  Mayer bond orders larger than 0.100000
B(  0-C ,  1-C ) :   1.6030 B(  0-C ,  6-C ) :   1.0002 B(  0-C , 18-C ) :   1.0867
B(  1-C ,  2-C ) :   1.1455 B(  1-C ,  4-C ) :   1.1514 B(  2-C ,  3-N ) :   2.9679
B(  4-C ,  5-N ) :   2.9597 B(  6-C ,  7-C ) :   1.2743 B(  6-C , 11-C ) :   1.4123
B(  7-C ,  8-C ) :   1.4251 B(  7-C , 16-C ) :   0.9530 B(  8-C ,  9-C ) :   1.2424
B(  8-C , 71-H ) :   1.0168 B(  9-C , 10-C ) :   1.3075 B(  9-C , 14-C ) :   1.1634
B( 10-C , 11-C ) :   1.3291 B( 10-C , 12-S ) :   1.0869 B( 11-C , 72-H ) :   0.9789
B( 12-S , 13-C ) :   1.0879 B( 13-C , 14-C ) :   1.6157 B( 13-C , 15-Br) :   1.0209
B( 14-C , 73-H ) :   1.0006 B( 16-C , 17-O ) :   2.1537 B( 16-C , 18-C ) :   0.9669
B( 18-C , 19-C ) :   1.5197 B( 19-C , 20-C ) :   1.2688 B( 19-C , 74-H ) :   0.9338
B( 20-C , 21-S ) :   1.1147 B( 20-C , 25-C ) :   1.3296 B( 21-S , 22-C ) :   1.1744
B( 22-C , 23-C ) :   1.5265 B( 22-C , 75-H ) :   0.9626 B( 23-C , 24-C ) :   1.0937
B( 23-C , 25-C ) :   1.2861 B( 24-C , 76-H ) :   0.9498 B( 24-C , 77-H ) :   0.9448
B( 24-C , 78-H ) :   0.9421 B( 25-C , 26-C ) :   1.1150 B( 26-C , 27-C ) :   1.6958
B( 26-C , 79-H ) :   0.9413 B( 27-C , 28-C ) :   1.1419 B( 27-C , 80-H ) :   0.9806
B( 28-C , 29-C ) :   1.6953 B( 28-C , 81-H ) :   0.9670 B( 29-C , 30-C ) :   1.1508
B( 29-C , 82-H ) :   0.9298 B( 30-C , 31-O ) :   1.0920 B( 30-C , 37-C ) :   1.3959
B( 31-O , 32-C ) :   1.2345 B( 32-C , 33-C ) :   1.4283 B( 32-C , 83-H ) :   1.0130
B( 33-C , 34-N ) :   0.9482 B( 33-C , 37-C ) :   1.2433 B( 34-N , 35-O ) :   1.5618
B( 34-N , 36-O ) :   1.4640 B( 35-O , 36-O ) :   0.2608 B( 36-O , 84-H ) :   0.1066
B( 37-C , 38-N ) :   1.2105 B( 38-N , 39-C ) :   1.2079 B( 38-N , 84-H ) :   0.8484
B( 39-C , 40-C ) :   1.5644 B( 39-C , 85-H ) :   0.9576 B( 40-C , 41-C ) :   1.1660
B( 40-C , 44-S ) :   1.0106 B( 41-C , 42-C ) :   1.5906 B( 41-C , 86-H ) :   0.9948
B( 42-C , 43-C ) :   1.1995 B( 42-C , 87-H ) :   0.9929 B( 43-C , 44-S ) :   1.0855
B( 43-C , 45-C ) :   1.4699 B( 45-C , 46-C ) :   1.2233 B( 45-C , 49-S ) :   1.0354
B( 46-C , 47-C ) :   1.5384 B( 46-C , 88-H ) :   0.9939 B( 47-C , 48-C ) :   1.1879
B( 47-C , 89-H ) :   1.0012 B( 48-C , 49-S ) :   1.0926 B( 48-C , 50-C ) :   1.4818
B( 50-C , 51-C ) :   1.2416 B( 50-C , 90-H ) :   0.9621 B( 51-C , 52-C ) :   1.5060
B( 51-C , 91-H ) :   0.9403 B( 52-C , 53-C ) :   1.0998 B( 52-C , 61-C ) :   0.9711
B( 53-C , 54-C ) :   1.5882 B( 53-C , 59-C ) :   1.0008 B( 54-C , 55-C ) :   1.1351
B( 54-C , 57-C ) :   1.1689 B( 55-C , 56-N ) :   2.9731 B( 57-C , 58-N ) :   3.0111
B( 59-C , 60-C ) :   1.2779 B( 59-C , 66-C ) :   1.4241 B( 60-C , 61-C ) :   0.9156
B( 60-C , 63-C ) :   1.4356 B( 61-C , 62-O ) :   2.2424 B( 63-C , 64-C ) :   1.2408
B( 63-C , 92-H ) :   1.0167 B( 64-C , 65-C ) :   1.3201 B( 64-C , 69-C ) :   1.1601
B( 65-C , 66-C ) :   1.3163 B( 65-C , 67-S ) :   1.0804 B( 66-C , 93-H ) :   0.9822
B( 67-S , 68-C ) :   1.0845 B( 68-C , 69-C ) :   1.6211 B( 68-C , 70-Br) :   1.0103
B( 69-C , 94-H ) :   1.0005

-----------------------------------------------------------------------------
         ABSORPTION SPECTRUM VIA TRANSITION ELECTRIC DIPOLE MOMENTS
-----------------------------------------------------------------------------
State   Energy  Wavelength   fosc         T2         TX        TY        TZ
        (cm-1)    (nm)                  (au**2)     (au)      (au)      (au)
-----------------------------------------------------------------------------
   0   12285.8    813.9   1.592537011  42.67371  -2.37759   1.30832  -5.94214
   1   15585.5    641.6   0.152197094   3.21485  -1.21455   1.24725  -0.42904
   2   19160.2    521.9   0.079292577   1.36241  -0.50740  -0.63110   0.84064
   3   20337.0    491.7   0.427089653   6.91367   1.30689  -2.00172  -1.09492
   4   22010.6    454.3   0.048151265   0.72020  -0.19962   0.03362  -0.82415
   5   23263.0    429.9   0.005644295   0.07988   0.11996  -0.25587   0.00378
   6   23894.5    418.5   0.039494230   0.54414   0.62369  -0.22440   0.32371
   7   25284.2    395.5   0.253840449   3.30512   0.16081   1.63696  -0.77435
   8   25600.7    390.6   0.066516504   0.85537  -0.27893   0.12228  -0.87328
   9   25944.0    385.4   0.070588480   0.89572  -0.78984   0.32473   0.40796
  10   26938.8    371.2   0.132848916   1.62351  -0.33219   1.19337  -0.29840
  11   27382.4    365.2   0.093301277   1.12174  -0.56837   0.03635   0.89296
  12   27959.0    357.7   0.128220028   1.50976  -0.97154   0.29917   0.69020
  13   28205.2    354.5   0.002981651   0.03480   0.00887   0.11086  -0.14978
  14   28635.2    349.2   0.305463612   3.51184   1.08965  -0.87962  -1.24530
  15   28939.9    345.5   0.173400891   1.97256   1.09034  -0.50686  -0.72581
  16   29406.1    340.1   0.030937730   0.34636  -0.42216  -0.36000   0.19632
  17   29578.1    338.1   0.041952037   0.46694  -0.44202  -0.49822   0.15273
  18   30034.0    333.0   0.261149553   2.86254   1.11572   0.99777  -0.78877
  19   30492.0    328.0   0.011767532   0.12705   0.02146  -0.25850  -0.24447
  20   31692.0    315.5   0.049999169   0.51939   0.41292  -0.51114  -0.29600
  21   32153.3    311.0   0.040206139   0.41166   0.43362  -0.47142   0.03739
  22   32267.7    309.9   0.181881356   1.85565  -0.57659  -0.66572   1.03924
  23   32405.9    308.6   0.109723098   1.11468  -0.72250  -0.00135   0.76986
  24   32576.2    307.0   0.063866745   0.64543  -0.47847   0.61260  -0.20304
  25   32755.1    305.3   0.307033746   3.08591   0.66373   1.00075  -1.28213
  26   32872.3    304.2   0.004340191   0.04347   0.12920  -0.09100   0.13599
  27   33073.6    302.4   0.015075291   0.15006   0.06443  -0.24921   0.28948
  28   33198.7    301.2   0.676352480   6.70699  -1.53548  -0.14567   2.08040
  29   33469.7    298.8   0.248076778   2.44011  -0.80739  -0.22136   1.31880
  30   34212.9    292.3   0.159921824   1.53884  -0.77981   0.36800   0.89181
  31   34656.8    288.5   0.093212344   0.88544  -0.31829  -0.60998   0.64191
  32   35279.5    283.5   0.065362961   0.60994   0.36732   0.19364  -0.66145
  33   35654.2    280.5   0.083727204   0.77309  -0.53870  -0.26448   0.64261
  34   35916.0    278.4   0.021586196   0.19786  -0.02706  -0.42910  -0.11405
  35   36080.1    277.2   0.014215464   0.12971  -0.35765   0.02275  -0.03575
  36   36564.8    273.5   0.059320153   0.53409  -0.33022  -0.65174  -0.01653
  37   36687.8    272.6   0.087779408   0.78767   0.83775  -0.21227  -0.20197
  38   36884.8    271.1   0.056012223   0.49993   0.57687  -0.36974  -0.17448
  39   37424.8    267.2   0.022910848   0.20154  -0.40897   0.14528  -0.11478
  40   37748.6    264.9   0.063543164   0.55417   0.25577   0.16576  -0.67917
  41   38057.3    262.8   0.010219680   0.08840   0.01617  -0.25073  -0.15898
  42   38244.0    261.5   0.040144811   0.34557   0.13297   0.32482  -0.47158
  43   38341.5    260.8   0.059949206   0.51474   0.10965  -0.55425   0.44218
  44   38576.7    259.2   0.132661265   1.13213  -0.84268  -0.44504   0.47324
  45   38928.3    256.9   0.031465930   0.26610   0.24852   0.35098  -0.28487
  46   39119.4    255.6   0.002518864   0.02120  -0.09346   0.11007   0.01862
  47   39190.3    255.2   0.016016395   0.13454   0.18488   0.22886  -0.21906
  48   39344.9    254.2   0.014393559   0.12044   0.08389   0.01082   0.33657
  49   39840.3    251.0   0.011114287   0.09184   0.01482  -0.18314   0.24100
  50   40203.1    248.7   0.168793082   1.38220   1.09438   0.15869  -0.39917

FINAL SINGLE POINT ENERGY     -9873.311439893379

DIPOLE MOMENT
-------------
                                X             Y             Z
Electronic contribution:     67.01569    -120.75253      69.91022
Nuclear contribution   :    -69.28159     124.92748     -76.09456
                        -----------------------------------------
Total Dipole Moment    :     -2.26591       4.17496      -6.18433
                        -----------------------------------------
Magnitude (a.u.)       :      7.79811
Magnitude (Debye)      :     19.82123

Rotational constants in cm-1:     0.000860     0.000169     0.000151
Rotational constants in MHz :    25.788893     5.063472     4.536272

                             ****ORCA TERMINATED NORMALLY****
TOTAL RUN TIME: 0 days 0 hours 13 minutes 43 seconds 557 msec
