                         Program Version 4.2.0 -  RELEASE  -
|  1> # ORCA input file
|  2> # SCF done       -188.839960956112          0.000799031976
|  3> ! CAM-B3LYP def2-SVP def2/J RIJCOSX Grid4 TightSCF
|  4> %maxcore 5000
|  5> %tddft
|  6>     Mode sTDDFT
|  7>     Ethresh 5.0
|  8>     maxcore 5000
|  9> end
| 10>
| 11> %pal
| 12>   nprocs 6
| 13>   end
| 14> * xyz 0 1
| 15>    C       -4.41131         6.32594        -6.70465
| 16>    C       -4.80517         7.10634        -7.75978
| 17>    C       -3.95870         8.01194        -8.43329
| 18>    N       -3.31877         8.76932        -9.01191
| 19>    C       -6.09329         7.10190        -8.33489
| 20>    N       -7.11237         7.14979        -8.86254
| 21>    C       -3.06907         6.26654        -6.14321
| 22>    C       -3.03453         5.26066        -5.14612
| 23>    C       -1.89982         4.96663        -4.42951
| 24>    C       -0.74277         5.70085        -4.70887
| 25>    C       -0.78637         6.70448        -5.70675
| 26>    C       -1.93290         7.00103        -6.43203
| 27>    S        0.75143         7.49284        -5.88781
| 28>    C        1.42244         6.47906        -4.63773
| 29>    C        0.54272         5.59393        -4.11146
| 30>   Br        3.21953         6.68735        -4.14411
| 31>    C       -4.36467         4.62979        -5.03091
| 32>    O       -4.67007         3.72585        -4.28506
| 33>    C       -5.23586         5.37151        -5.98017
| 34>    C       -6.59279         5.31452        -6.00663
| 35>    C       -7.41339         4.32260        -5.36624
| 36>    C       -7.10057         2.99280        -5.44993
| 37>    S       -8.30295         1.94401        -4.84435
| 38>    C       -9.27641         3.31181        -4.38343
| 39>    C       -8.68727         4.53763        -4.71520
| 40>    C       -9.33153         5.73760        -4.33348
| 41>    C       -8.61921         7.03895        -4.60122
| 42>    C       -9.07709         7.71375        -5.89662
| 43>    C      -10.56949         5.69802        -3.69859
| 44>    C      -11.32069         6.97231        -3.41368
| 45>    C      -12.54525         7.10349        -4.32263
| 46>    C      -11.16340         4.45295        -3.36661
| 47>    C      -12.40864         4.12940        -2.69742
| 48>    C      -12.61053         2.78062        -2.62919
| 49>    S      -11.35575         1.82630        -3.30088
| 50>    C      -10.49715         3.27033        -3.73325
| 51>    C      -13.36332         5.02549        -2.08297
| 52>    C      -14.68627         4.78125        -2.00852
| 53>    C      -15.61451         5.63350        -1.34459
| 54>    S      -15.06029         7.10746        -0.60883
| 55>    C      -16.65421         7.48533        -0.09508
| 56>    C      -17.57884         6.56306        -0.46153
| 57>    C      -19.01013         6.70610        -0.06008
| 58>    C      -16.99794         5.47474        -1.19837
| 59>    C      -17.66194         4.32616        -1.72652
| 60>    C      -18.99395         4.11795        -1.90164
| 61>    C      -19.56382         2.94249        -2.45282
| 62>    C      -18.89565         1.83908        -2.90733
| 63>    C      -19.53238         0.72061        -3.45766
| 64>    C      -18.87612        -0.38043        -3.95435
| 65>    C      -19.46030        -1.52841        -4.53789
| 66>    C      -18.56327        -2.46037        -4.96513
| 67>    C      -17.21455        -2.10422        -4.74124
| 68>    S      -17.12395        -0.54064        -3.96277
| 69>    C      -16.08633        -2.83034        -5.06993
| 70>    C      -16.02897        -4.08319        -5.72096
| 71>    C      -14.76512        -4.54293        -5.92298
| 72>    C      -13.74571        -3.68145        -5.44086
| 73>    S      -14.46651        -2.25659        -4.71360
| 74>    C      -12.39944        -3.91207        -5.53123
| 75>    C      -11.35665        -3.09137        -5.06787
| 76>    S      -11.56000        -1.56847        -4.21601
| 77>    C       -9.87343        -1.29175        -4.04742
| 78>    C       -9.15474        -2.31337        -4.62219
| 79>    C       -9.99570        -3.31853        -5.18859
| 80>    O       -9.26237        -4.30591        -5.74503
| 81>    C       -7.96605        -3.94237        -5.54287
| 82>    N       -6.95962        -4.80367        -6.03452
| 83>    O       -5.80784        -4.45317        -5.84952
| 84>    O       -7.30323        -5.82069        -6.59904
| 85>    C       -7.82735        -2.75522        -4.87347
| 86>    H       -1.90568         4.19411        -3.67659
| 87>    H       -1.91688         7.77729        -7.17864
| 88>    H        0.78829         4.89445        -3.33340
| 89>    H       -7.12264         6.05122        -6.59381
| 90>    H       -6.23225         2.57014        -5.91540
| 91>    H       -7.54644         6.83822        -4.65049
| 92>    H       -8.76140         7.72558        -3.76469
| 93>    H       -9.03643         7.02503        -6.73763
| 94>    H       -8.44246         8.56826        -6.12204
| 95>    H      -10.10118         8.06473        -5.80832
| 96>    H      -10.68689         7.83954        -3.57634
| 97>    H      -11.62590         7.00216        -2.36855
| 98>    H      -12.24169         7.09044        -5.36715
| 99>    H      -13.05966         8.04034        -4.12122
|100>    H      -13.24411         6.28738        -4.16238
|101>    H      -13.43343         2.27696        -2.16134
|102>    H      -12.98519         5.92073        -1.61431
|103>    H      -15.08703         3.90513        -2.49776
|104>    H      -16.81788         8.38405         0.46706
|105>    H      -19.10805         7.51323         0.66288
|106>    H      -19.37477         5.78618         0.39316
|107>    H      -19.63320         6.94746        -0.92082
|108>    H      -17.00053         3.53313        -2.04331
|109>    H      -19.69904         4.88858        -1.63747
|110>    H      -20.64452         2.93085        -2.52828
|111>    H      -17.81553         1.80055        -2.86480
|112>    H      -20.61375         0.71551        -3.50969
|113>    H      -20.52805        -1.62734        -4.62622
|114>    H      -18.83444        -3.38960        -5.43283
|115>    H      -16.91742        -4.60651        -6.02513
|116>    H      -14.52374        -5.47385        -6.40443
|117>    H      -12.08151        -4.82590        -6.01601
|118>    H       -9.52259        -0.41204        -3.55129
|119>    H       -6.90334        -2.28417        -4.61011
|120> *
|121>
|122>                          ****END OF INPUT****

CARTESIAN COORDINATES (ANGSTROEM)
---------------------------------
  C     -4.411310    6.325940   -6.704650
  C     -4.805170    7.106340   -7.759780
  C     -3.958700    8.011940   -8.433290
  N     -3.318770    8.769320   -9.011910
  C     -6.093290    7.101900   -8.334890
  N     -7.112370    7.149790   -8.862540
  C     -3.069070    6.266540   -6.143210
  C     -3.034530    5.260660   -5.146120
  C     -1.899820    4.966630   -4.429510
  C     -0.742770    5.700850   -4.708870
  C     -0.786370    6.704480   -5.706750
  C     -1.932900    7.001030   -6.432030
  S      0.751430    7.492840   -5.887810
  C      1.422440    6.479060   -4.637730
  C      0.542720    5.593930   -4.111460
  Br     3.219530    6.687350   -4.144110
  C     -4.364670    4.629790   -5.030910
  O     -4.670070    3.725850   -4.285060
  C     -5.235860    5.371510   -5.980170
  C     -6.592790    5.314520   -6.006630
  C     -7.413390    4.322600   -5.366240
  C     -7.100570    2.992800   -5.449930
  S     -8.302950    1.944010   -4.844350
  C     -9.276410    3.311810   -4.383430
  C     -8.687270    4.537630   -4.715200
  C     -9.331530    5.737600   -4.333480
  C     -8.619210    7.038950   -4.601220
  C     -9.077090    7.713750   -5.896620
  C    -10.569490    5.698020   -3.698590
  C    -11.320690    6.972310   -3.413680
  C    -12.545250    7.103490   -4.322630
  C    -11.163400    4.452950   -3.366610
  C    -12.408640    4.129400   -2.697420
  C    -12.610530    2.780620   -2.629190
  S    -11.355750    1.826300   -3.300880
  C    -10.497150    3.270330   -3.733250
  C    -13.363320    5.025490   -2.082970
  C    -14.686270    4.781250   -2.008520
  C    -15.614510    5.633500   -1.344590
  S    -15.060290    7.107460   -0.608830
  C    -16.654210    7.485330   -0.095080
  C    -17.578840    6.563060   -0.461530
  C    -19.010130    6.706100   -0.060080
  C    -16.997940    5.474740   -1.198370
  C    -17.661940    4.326160   -1.726520
  C    -18.993950    4.117950   -1.901640
  C    -19.563820    2.942490   -2.452820
  C    -18.895650    1.839080   -2.907330
  C    -19.532380    0.720610   -3.457660
  C    -18.876120   -0.380430   -3.954350
  C    -19.460300   -1.528410   -4.537890
  C    -18.563270   -2.460370   -4.965130
  C    -17.214550   -2.104220   -4.741240
  S    -17.123950   -0.540640   -3.962770
  C    -16.086330   -2.830340   -5.069930
  C    -16.028970   -4.083190   -5.720960
  C    -14.765120   -4.542930   -5.922980
  C    -13.745710   -3.681450   -5.440860
  S    -14.466510   -2.256590   -4.713600
  C    -12.399440   -3.912070   -5.531230
  C    -11.356650   -3.091370   -5.067870
  S    -11.560000   -1.568470   -4.216010
  C     -9.873430   -1.291750   -4.047420
  C     -9.154740   -2.313370   -4.622190
  C     -9.995700   -3.318530   -5.188590
  O     -9.262370   -4.305910   -5.745030
  C     -7.966050   -3.942370   -5.542870
  N     -6.959620   -4.803670   -6.034520
  O     -5.807840   -4.453170   -5.849520
  O     -7.303230   -5.820690   -6.599040
  C     -7.827350   -2.755220   -4.873470
  H     -1.905680    4.194110   -3.676590
  H     -1.916880    7.777290   -7.178640
  H      0.788290    4.894450   -3.333400
  H     -7.122640    6.051220   -6.593810
  H     -6.232250    2.570140   -5.915400
  H     -7.546440    6.838220   -4.650490
  H     -8.761400    7.725580   -3.764690
  H     -9.036430    7.025030   -6.737630
  H     -8.442460    8.568260   -6.122040
  H    -10.101180    8.064730   -5.808320
  H    -10.686890    7.839540   -3.576340
  H    -11.625900    7.002160   -2.368550
  H    -12.241690    7.090440   -5.367150
  H    -13.059660    8.040340   -4.121220
  H    -13.244110    6.287380   -4.162380
  H    -13.433430    2.276960   -2.161340
  H    -12.985190    5.920730   -1.614310
  H    -15.087030    3.905130   -2.497760
  H    -16.817880    8.384050    0.467060
  H    -19.108050    7.513230    0.662880
  H    -19.374770    5.786180    0.393160
  H    -19.633200    6.947460   -0.920820
  H    -17.000530    3.533130   -2.043310
  H    -19.699040    4.888580   -1.637470
  H    -20.644520    2.930850   -2.528280
  H    -17.815530    1.800550   -2.864800
  H    -20.613750    0.715510   -3.509690
  H    -20.528050   -1.627340   -4.626220
  H    -18.834440   -3.389600   -5.432830
  H    -16.917420   -4.606510   -6.025130
  H    -14.523740   -5.473850   -6.404430
  H    -12.081510   -4.825900   -6.016010
  H     -9.522590   -0.412040   -3.551290
  H     -6.903340   -2.284170   -4.610110

 Total Charge           Charge          ....    0
 Multiplicity           Mult            ....    1
 Number of Electrons    NEL             ....  570
 Basis Dimension        Dim             .... 1210

ORBITAL ENERGIES
----------------

  NO   OCC          E(Eh)            E(eV)
   0   2.0000    -482.887616    -13140.0401
   1   2.0000     -88.977790     -2421.2088
   2   2.0000     -88.970555     -2421.0119
   3   2.0000     -88.966722     -2420.9076
   4   2.0000     -88.958781     -2420.6915
   5   2.0000     -88.949293     -2420.4333
   6   2.0000     -88.945951     -2420.3424
   7   2.0000     -88.943703     -2420.2812
   8   2.0000     -62.565318     -1702.4888
   9   2.0000     -56.399275     -1534.7023
  10   2.0000     -56.396549     -1534.6281
  11   2.0000     -56.396517     -1534.6272
  12   2.0000     -19.304035      -525.2895
  13   2.0000     -19.239274      -523.5273
  14   2.0000     -19.236973      -523.4646
  15   2.0000     -19.218040      -522.9494
  16   2.0000     -14.650740      -398.6669
  17   2.0000     -14.418711      -392.3531
  18   2.0000     -14.417540      -392.3212
  19   2.0000     -10.381976      -282.5079
  20   2.0000     -10.370455      -282.1944
  21   2.0000     -10.361536      -281.9517
  22   2.0000     -10.345080      -281.5039
  23   2.0000     -10.344062      -281.4762
  24   2.0000     -10.340179      -281.3706
  25   2.0000     -10.328442      -281.0512
  26   2.0000     -10.321568      -280.8641
  27   2.0000     -10.321439      -280.8606
  28   2.0000     -10.320380      -280.8318
  29   2.0000     -10.313500      -280.6446
  30   2.0000     -10.311856      -280.5999
  31   2.0000     -10.311103      -280.5794
  32   2.0000     -10.310745      -280.5696
  33   2.0000     -10.310718      -280.5689
  34   2.0000     -10.308671      -280.5132
  35   2.0000     -10.308071      -280.4969
  36   2.0000     -10.307743      -280.4879
  37   2.0000     -10.307145      -280.4717
  38   2.0000     -10.305756      -280.4339
  39   2.0000     -10.305138      -280.4171
  40   2.0000     -10.304974      -280.4126
  41   2.0000     -10.304483      -280.3992
  42   2.0000     -10.303883      -280.3829
  43   2.0000     -10.299992      -280.2770
  44   2.0000     -10.299024      -280.2507
  45   2.0000     -10.298594      -280.2390
  46   2.0000     -10.297602      -280.2120
  47   2.0000     -10.295298      -280.1493
  48   2.0000     -10.293838      -280.1096
  49   2.0000     -10.291914      -280.0572
  50   2.0000     -10.287303      -279.9318
  51   2.0000     -10.286921      -279.9213
  52   2.0000     -10.286441      -279.9083
  53   2.0000     -10.286311      -279.9048
  54   2.0000     -10.286042      -279.8974
  55   2.0000     -10.285468      -279.8818
  56   2.0000     -10.285008      -279.8693
  57   2.0000     -10.284583      -279.8577
  58   2.0000     -10.282312      -279.7959
  59   2.0000     -10.281430      -279.7719
  60   2.0000     -10.280993      -279.7601
  61   2.0000     -10.280043      -279.7342
  62   2.0000     -10.279860      -279.7292
  63   2.0000     -10.279638      -279.7232
  64   2.0000     -10.278950      -279.7044
  65   2.0000     -10.277504      -279.6651
  66   2.0000     -10.276783      -279.6455
  67   2.0000     -10.274686      -279.5884
  68   2.0000     -10.273557      -279.5577
  69   2.0000     -10.270574      -279.4765
  70   2.0000     -10.269939      -279.4593
  71   2.0000     -10.268062      -279.4082
  72   2.0000     -10.266724      -279.3718
  73   2.0000     -10.256167      -279.0845
  74   2.0000     -10.252343      -278.9804
  75   2.0000      -8.794740      -239.3170
  76   2.0000      -8.073880      -219.7014
  77   2.0000      -8.064755      -219.4531
  78   2.0000      -8.062780      -219.3994
  79   2.0000      -8.054717      -219.1800
  80   2.0000      -8.045184      -218.9206
  81   2.0000      -8.041974      -218.8332
  82   2.0000      -8.039957      -218.7784
  83   2.0000      -6.631063      -180.4404
  84   2.0000      -6.616462      -180.0431
  85   2.0000      -6.616256      -180.0375
  86   2.0000      -6.043577      -164.4541
  87   2.0000      -6.039287      -164.3374
  88   2.0000      -6.035066      -164.2225
  89   2.0000      -6.034061      -164.1952
  90   2.0000      -6.032196      -164.1444
  91   2.0000      -6.029724      -164.0771
  92   2.0000      -6.027893      -164.0273
  93   2.0000      -6.027227      -164.0092
  94   2.0000      -6.024677      -163.9398
  95   2.0000      -6.024238      -163.9279
  96   2.0000      -6.019987      -163.8122
  97   2.0000      -6.016448      -163.7159
  98   2.0000      -6.014428      -163.6609
  99   2.0000      -6.011768      -163.5885
 100   2.0000      -6.010252      -163.5473
 101   2.0000      -6.009667      -163.5314
 102   2.0000      -6.007693      -163.4776
 103   2.0000      -6.007474      -163.4717
 104   2.0000      -6.005761      -163.4251
 105   2.0000      -6.002839      -163.3456
 106   2.0000      -6.000829      -163.2908
 107   2.0000      -2.746929       -74.7477
 108   2.0000      -2.742846       -74.6366
 109   2.0000      -2.742671       -74.6319
 110   2.0000      -2.731078       -74.3164
 111   2.0000      -2.731060       -74.3159
 112   2.0000      -1.321699       -35.9652
 113   2.0000      -1.223559       -33.2947
 114   2.0000      -1.137781       -30.9606
 115   2.0000      -1.133861       -30.8539
 116   2.0000      -1.025696       -27.9106
 117   2.0000      -1.016145       -27.6507
 118   2.0000      -1.010730       -27.5034
 119   2.0000      -0.996726       -27.1223
 120   2.0000      -0.996184       -27.1075
 121   2.0000      -0.992400       -27.0046
 122   2.0000      -0.988873       -26.9086
 123   2.0000      -0.983379       -26.7591
 124   2.0000      -0.979393       -26.6506
 125   2.0000      -0.970865       -26.4186
 126   2.0000      -0.945536       -25.7293
 127   2.0000      -0.931396       -25.3446
 128   2.0000      -0.930586       -25.3225
 129   2.0000      -0.915406       -24.9095
 130   2.0000      -0.911871       -24.8133
 131   2.0000      -0.910920       -24.7874
 132   2.0000      -0.902045       -24.5459
 133   2.0000      -0.896729       -24.4012
 134   2.0000      -0.888707       -24.1829
 135   2.0000      -0.884513       -24.0688
 136   2.0000      -0.876729       -23.8570
 137   2.0000      -0.872105       -23.7312
 138   2.0000      -0.870979       -23.7006
 139   2.0000      -0.858274       -23.3548
 140   2.0000      -0.853455       -23.2237
 141   2.0000      -0.850528       -23.1441
 142   2.0000      -0.842525       -22.9263
 143   2.0000      -0.832580       -22.6556
 144   2.0000      -0.829354       -22.5679
 145   2.0000      -0.826833       -22.4993
 146   2.0000      -0.822371       -22.3779
 147   2.0000      -0.817471       -22.2445
 148   2.0000      -0.800549       -21.7841
 149   2.0000      -0.794499       -21.6194
 150   2.0000      -0.788719       -21.4621
 151   2.0000      -0.779030       -21.1985
 152   2.0000      -0.766629       -20.8610
 153   2.0000      -0.762699       -20.7541
 154   2.0000      -0.759024       -20.6541
 155   2.0000      -0.748545       -20.3690
 156   2.0000      -0.732760       -19.9394
 157   2.0000      -0.722332       -19.6557
 158   2.0000      -0.714890       -19.4531
 159   2.0000      -0.706456       -19.2236
 160   2.0000      -0.704776       -19.1779
 161   2.0000      -0.702207       -19.1080
 162   2.0000      -0.700337       -19.0571
 163   2.0000      -0.696065       -18.9409
 164   2.0000      -0.691432       -18.8148
 165   2.0000      -0.679902       -18.5011
 166   2.0000      -0.678301       -18.4575
 167   2.0000      -0.669156       -18.2087
 168   2.0000      -0.660943       -17.9852
 169   2.0000      -0.652326       -17.7507
 170   2.0000      -0.646230       -17.5848
 171   2.0000      -0.641714       -17.4619
 172   2.0000      -0.637833       -17.3563
 173   2.0000      -0.635716       -17.2987
 174   2.0000      -0.633913       -17.2496
 175   2.0000      -0.631186       -17.1755
 176   2.0000      -0.626146       -17.0383
 177   2.0000      -0.622413       -16.9367
 178   2.0000      -0.620113       -16.8741
 179   2.0000      -0.619783       -16.8651
 180   2.0000      -0.609652       -16.5895
 181   2.0000      -0.603030       -16.4093
 182   2.0000      -0.601744       -16.3743
 183   2.0000      -0.596741       -16.2381
 184   2.0000      -0.590953       -16.0806
 185   2.0000      -0.590059       -16.0563
 186   2.0000      -0.585463       -15.9313
 187   2.0000      -0.581007       -15.8100
 188   2.0000      -0.580174       -15.7873
 189   2.0000      -0.570288       -15.5183
 190   2.0000      -0.560640       -15.2558
 191   2.0000      -0.556276       -15.1370
 192   2.0000      -0.550728       -14.9861
 193   2.0000      -0.549799       -14.9608
 194   2.0000      -0.548182       -14.9168
 195   2.0000      -0.544542       -14.8177
 196   2.0000      -0.541736       -14.7414
 197   2.0000      -0.541145       -14.7253
 198   2.0000      -0.537366       -14.6225
 199   2.0000      -0.536438       -14.5972
 200   2.0000      -0.529904       -14.4194
 201   2.0000      -0.526563       -14.3285
 202   2.0000      -0.523621       -14.2484
 203   2.0000      -0.518599       -14.1118
 204   2.0000      -0.514862       -14.0101
 205   2.0000      -0.512809       -13.9542
 206   2.0000      -0.512207       -13.9379
 207   2.0000      -0.510523       -13.8920
 208   2.0000      -0.508685       -13.8420
 209   2.0000      -0.503264       -13.6945
 210   2.0000      -0.502019       -13.6606
 211   2.0000      -0.499984       -13.6053
 212   2.0000      -0.497640       -13.5415
 213   2.0000      -0.496717       -13.5164
 214   2.0000      -0.496142       -13.5007
 215   2.0000      -0.493873       -13.4390
 216   2.0000      -0.490010       -13.3339
 217   2.0000      -0.489485       -13.3196
 218   2.0000      -0.488518       -13.2933
 219   2.0000      -0.486195       -13.2300
 220   2.0000      -0.482379       -13.1262
 221   2.0000      -0.479385       -13.0447
 222   2.0000      -0.478847       -13.0301
 223   2.0000      -0.473731       -12.8909
 224   2.0000      -0.473217       -12.8769
 225   2.0000      -0.466788       -12.7019
 226   2.0000      -0.466088       -12.6829
 227   2.0000      -0.463281       -12.6065
 228   2.0000      -0.461427       -12.5561
 229   2.0000      -0.460006       -12.5174
 230   2.0000      -0.458006       -12.4630
 231   2.0000      -0.455785       -12.4025
 232   2.0000      -0.453104       -12.3296
 233   2.0000      -0.450963       -12.2713
 234   2.0000      -0.450504       -12.2589
 235   2.0000      -0.450172       -12.2498
 236   2.0000      -0.449139       -12.2217
 237   2.0000      -0.446376       -12.1465
 238   2.0000      -0.445829       -12.1316
 239   2.0000      -0.441920       -12.0252
 240   2.0000      -0.441370       -12.0103
 241   2.0000      -0.438452       -11.9309
 242   2.0000      -0.435879       -11.8609
 243   2.0000      -0.432963       -11.7815
 244   2.0000      -0.429722       -11.6933
 245   2.0000      -0.427924       -11.6444
 246   2.0000      -0.427135       -11.6229
 247   2.0000      -0.425030       -11.5656
 248   2.0000      -0.423124       -11.5138
 249   2.0000      -0.422890       -11.5074
 250   2.0000      -0.415441       -11.3047
 251   2.0000      -0.412866       -11.2346
 252   2.0000      -0.411500       -11.1975
 253   2.0000      -0.410382       -11.1671
 254   2.0000      -0.409231       -11.1357
 255   2.0000      -0.404273       -11.0008
 256   2.0000      -0.403246       -10.9729
 257   2.0000      -0.395291       -10.7564
 258   2.0000      -0.392791       -10.6884
 259   2.0000      -0.390640       -10.6298
 260   2.0000      -0.386965       -10.5299
 261   2.0000      -0.385002       -10.4764
 262   2.0000      -0.383589       -10.4380
 263   2.0000      -0.379865       -10.3367
 264   2.0000      -0.376907       -10.2562
 265   2.0000      -0.375444       -10.2164
 266   2.0000      -0.375242       -10.2108
 267   2.0000      -0.366685        -9.9780
 268   2.0000      -0.358783        -9.7630
 269   2.0000      -0.355819        -9.6823
 270   2.0000      -0.340368        -9.2619
 271   2.0000      -0.337349        -9.1797
 272   2.0000      -0.336957        -9.1691
 273   2.0000      -0.328520        -8.9395
 274   2.0000      -0.326716        -8.8904
 275   2.0000      -0.320011        -8.7080
 276   2.0000      -0.318147        -8.6572
 277   2.0000      -0.310756        -8.4561
 278   2.0000      -0.296228        -8.0608
 279   2.0000      -0.295184        -8.0324
 280   2.0000      -0.288375        -7.8471
 281   2.0000      -0.272331        -7.4105
 282   2.0000      -0.266515        -7.2522
 283   2.0000      -0.246154        -6.6982
 284   2.0000      -0.203418        -5.5353
 285   0.0000      -0.087582        -2.3832
 286   0.0000      -0.083099        -2.2612
 287   0.0000      -0.058536        -1.5928
 288   0.0000      -0.057420        -1.5625
 289   0.0000      -0.035689        -0.9712

MULLIKEN ATOMIC CHARGES
-----------------------
   0 C :    0.301931
   1 C :   -0.342893
   2 C :   -0.187432
   3 N :    0.151660
   4 C :   -0.200933
   5 N :    0.165522
   6 C :    0.020205
   7 C :   -0.019626
   8 C :   -0.073537
   9 C :    0.120186
  10 C :   -0.086271
  11 C :   -0.026468
  12 S :    0.187838
  13 C :   -0.121720
  14 C :    0.036914
  15 Br:    0.026397
  16 C :    0.130836
  17 O :   -0.139438
  18 C :   -0.087247
  19 C :   -0.055230
  20 C :    0.054277
  21 C :   -0.035780
  22 S :    0.132223
  23 C :   -0.134789
  24 C :    0.110217
  25 C :   -0.109564
  26 C :   -0.005106
  27 C :    0.034529
  28 C :   -0.115528
  29 C :    0.048981
  30 C :    0.019328
  31 C :    0.116839
  32 C :    0.072509
  33 C :   -0.108900
  34 S :    0.100249
  35 C :   -0.138117
  36 C :   -0.054265
  37 C :    0.018022
  38 C :   -0.132955
  39 S :    0.087080
  40 C :   -0.107134
  41 C :   -0.095696
  42 C :    0.116892
  43 C :    0.150599
  44 C :   -0.022452
  45 C :    0.009314
  46 C :    0.006709
  47 C :    0.013128
  48 C :   -0.007228
  49 C :   -0.026087
  50 C :    0.039552
  51 C :    0.023317
  52 C :   -0.041092
  53 S :    0.061300
  54 C :   -0.041099
  55 C :    0.026992
  56 C :    0.035033
  57 C :   -0.024078
  58 S :    0.060587
  59 C :   -0.015394
  60 C :   -0.183814
  61 S :    0.136544
  62 C :   -0.133921
  63 C :    0.130463
  64 C :    0.189964
  65 O :   -0.186298
  66 C :    0.235406
  67 N :    0.272170
  68 O :   -0.252949
  69 O :   -0.232110
  70 C :   -0.074351
  71 H :   -0.007979
  72 H :   -0.004899
  73 H :   -0.001650
  74 H :    0.027409
  75 H :    0.032879
  76 H :    0.007603
  77 H :    0.014833
  78 H :    0.036265
  79 H :    0.019373
  80 H :    0.007604
  81 H :   -0.008293
  82 H :    0.002030
  83 H :    0.014844
  84 H :    0.014920
  85 H :    0.030906
  86 H :    0.024258
  87 H :    0.011925
  88 H :   -0.009488
  89 H :    0.011557
  90 H :    0.004836
  91 H :    0.030387
  92 H :    0.038438
  93 H :   -0.031079
  94 H :   -0.036410
  95 H :   -0.018392
  96 H :   -0.003650
  97 H :   -0.016467
  98 H :   -0.012266
  99 H :   -0.014903
 100 H :   -0.014364
 101 H :   -0.011629
 102 H :    0.002705
 103 H :    0.024435
 104 H :    0.010048
Sum of atomic charges:   -0.0000000

LOEWDIN ATOMIC CHARGES
----------------------
   0 C :    0.076786
   1 C :   -0.140537
   2 C :   -0.018333
   3 N :   -0.052036
   4 C :   -0.021992
   5 N :   -0.048035
   6 C :   -0.022358
   7 C :   -0.050909
   8 C :    0.022540
   9 C :   -0.031234
  10 C :   -0.143257
  11 C :   -0.008886
  12 S :    0.433749
  13 C :   -0.270239
  14 C :   -0.070126
  15 Br:    0.139178
  16 C :    0.080815
  17 O :   -0.136583
  18 C :   -0.098247
  19 C :    0.079073
  20 C :   -0.076048
  21 C :   -0.113524
  22 S :    0.442671
  23 C :   -0.178814
  24 C :   -0.036511
  25 C :   -0.021019
  26 C :   -0.032421
  27 C :   -0.051710
  28 C :   -0.011943
  29 C :   -0.029270
  30 C :   -0.049475
  31 C :   -0.037693
  32 C :   -0.059386
  33 C :   -0.165056
  34 S :    0.417407
  35 C :   -0.174807
  36 C :   -0.024154
  37 C :   -0.039052
  38 C :   -0.163089
  39 S :    0.425820
  40 C :   -0.189348
  41 C :   -0.053483
  42 C :   -0.045271
  43 C :   -0.058612
  44 C :   -0.005936
  45 C :   -0.042393
  46 C :   -0.023539
  47 C :   -0.030394
  48 C :   -0.048508
  49 C :   -0.149719
  50 C :   -0.031205
  51 C :   -0.035633
  52 C :   -0.173580
  53 S :    0.363107
  54 C :   -0.182252
  55 C :   -0.034748
  56 C :   -0.033514
  57 C :   -0.150974
  58 S :    0.359365
  59 C :   -0.073308
  60 C :   -0.203900
  61 S :    0.471715
  62 C :   -0.196403
  63 C :   -0.084995
  64 C :    0.018928
  65 O :    0.000072
  66 C :    0.023481
  67 N :    0.272287
  68 O :   -0.214162
  69 O :   -0.194216
  70 C :   -0.008776
  71 H :    0.041580
  72 H :    0.041356
  73 H :    0.039511
  74 H :    0.044939
  75 H :    0.029944
  76 H :    0.027619
  77 H :    0.028841
  78 H :    0.025745
  79 H :    0.027553
  80 H :    0.024800
  81 H :    0.025652
  82 H :    0.024763
  83 H :    0.024069
  84 H :    0.025962
  85 H :    0.026420
  86 H :    0.024333
  87 H :    0.019161
  88 H :    0.029864
  89 H :    0.020894
  90 H :    0.032337
  91 H :    0.034951
  92 H :    0.034241
  93 H :    0.024322
  94 H :    0.026359
  95 H :    0.027581
  96 H :    0.017806
  97 H :    0.032853
  98 H :    0.033746
  99 H :    0.031349
 100 H :    0.031792
 101 H :    0.034085
 102 H :    0.045429
 103 H :    0.008824
 104 H :    0.045933

  Mayer bond orders larger than 0.100000
B(  0-C ,  1-C ) :   1.6484 B(  0-C ,  6-C ) :   1.0149 B(  0-C , 18-C ) :   1.0366
B(  1-C ,  2-C ) :   1.1371 B(  1-C ,  4-C ) :   1.1496 B(  2-C ,  3-N ) :   2.9723
B(  4-C ,  5-N ) :   2.9790 B(  6-C ,  7-C ) :   1.2680 B(  6-C , 11-C ) :   1.4018
B(  7-C ,  8-C ) :   1.4221 B(  7-C , 16-C ) :   0.9434 B(  8-C ,  9-C ) :   1.2460
B(  8-C , 71-H ) :   1.0181 B(  9-C , 10-C ) :   1.3012 B(  9-C , 14-C ) :   1.1629
B( 10-C , 11-C ) :   1.3333 B( 10-C , 12-S ) :   1.0857 B( 11-C , 72-H ) :   0.9819
B( 12-S , 13-C ) :   1.0864 B( 13-C , 14-C ) :   1.6172 B( 13-C , 15-Br) :   1.0208
B( 14-C , 73-H ) :   1.0013 B( 16-C , 17-O ) :   2.2376 B( 16-C , 18-C ) :   0.9279
B( 18-C , 19-C ) :   1.6723 B( 19-C , 20-C ) :   1.0486 B( 19-C , 74-H ) :   0.9289
B( 20-C , 21-C ) :   1.5768 B( 20-C , 24-C ) :   1.1401 B( 21-C , 22-S ) :   1.1605
B( 21-C , 75-H ) :   0.9585 B( 22-S , 23-C ) :   1.0596 B( 23-C , 24-C ) :   1.3816
B( 23-C , 35-C ) :   1.3765 B( 24-C , 25-C ) :   1.2800 B( 25-C , 26-C ) :   1.0504
B( 25-C , 28-C ) :   1.5096 B( 26-C , 27-C ) :   1.1030 B( 26-C , 76-H ) :   0.9169
B( 26-C , 77-H ) :   0.9181 B( 27-C , 78-H ) :   0.9521 B( 27-C , 79-H ) :   0.9639
B( 27-C , 80-H ) :   0.9594 B( 28-C , 29-C ) :   1.0719 B( 28-C , 31-C ) :   1.2474
B( 29-C , 30-C ) :   1.1024 B( 29-C , 81-H ) :   0.9087 B( 29-C , 82-H ) :   0.9235
B( 30-C , 83-H ) :   0.9552 B( 30-C , 84-H ) :   0.9662 B( 30-C , 85-H ) :   0.9643
B( 31-C , 32-C ) :   1.1383 B( 31-C , 35-C ) :   1.3742 B( 32-C , 33-C ) :   1.6176
B( 32-C , 36-C ) :   1.0279 B( 33-C , 34-S ) :   1.1109 B( 33-C , 86-H ) :   0.9621
B( 34-S , 35-C ) :   1.0782 B( 36-C , 37-C ) :   1.7308 B( 36-C , 87-H ) :   0.9613
B( 37-C , 38-C ) :   1.1442 B( 37-C , 88-H ) :   0.9663 B( 38-C , 39-S ) :   1.1362
B( 38-C , 43-C ) :   1.4033 B( 39-S , 40-C ) :   1.1243 B( 40-C , 41-C ) :   1.6312
B( 40-C , 89-H ) :   0.9642 B( 41-C , 42-C ) :   1.0974 B( 41-C , 43-C ) :   1.1939
B( 42-C , 90-H ) :   0.9445 B( 42-C , 91-H ) :   0.9442 B( 42-C , 92-H ) :   0.9382
B( 43-C , 44-C ) :   1.1508 B( 44-C , 45-C ) :   1.6575 B( 44-C , 93-H ) :   0.9487
B( 45-C , 46-C ) :   1.1493 B( 45-C , 94-H ) :   0.9738 B( 46-C , 47-C ) :   1.6264
B( 46-C , 95-H ) :   0.9775 B( 47-C , 48-C ) :   1.1842 B( 47-C , 96-H ) :   0.9606
B( 48-C , 49-C ) :   1.5410 B( 48-C , 97-H ) :   0.9842 B( 49-C , 50-C ) :   1.1510
B( 49-C , 53-S ) :   1.0273 B( 50-C , 51-C ) :   1.5814 B( 50-C , 98-H ) :   0.9992
B( 51-C , 52-C ) :   1.1926 B( 51-C , 99-H ) :   0.9934 B( 52-C , 53-S ) :   1.0467
B( 52-C , 54-C ) :   1.5106 B( 54-C , 55-C ) :   1.1869 B( 54-C , 58-S ) :   1.0355
B( 55-C , 56-C ) :   1.5914 B( 55-C ,100-H ) :   0.9928 B( 56-C , 57-C ) :   1.1423
B( 56-C ,101-H ) :   1.0002 B( 57-C , 58-S ) :   1.0344 B( 57-C , 59-C ) :   1.5681
B( 59-C , 60-C ) :   1.1754 B( 59-C ,102-H ) :   0.9725 B( 60-C , 61-S ) :   1.1040
B( 60-C , 62-C ) :   0.1077 B( 60-C , 64-C ) :   1.4425 B( 61-S , 62-C ) :   1.1844
B( 62-C , 63-C ) :   1.4193 B( 62-C ,103-H ) :   0.9660 B( 63-C , 64-C ) :   1.2288
B( 63-C , 70-C ) :   1.0609 B( 64-C , 65-O ) :   1.1179 B( 65-O , 66-C ) :   1.1250
B( 66-C , 67-N ) :   0.9185 B( 66-C , 70-C ) :   1.5704 B( 67-N , 68-O ) :   1.5310
B( 67-N , 69-O ) :   1.5139 B( 68-O , 69-O ) :   0.2784 B( 70-C ,104-H ) :   1.0273

-----------------------------------------------------------------------------
         ABSORPTION SPECTRUM VIA TRANSITION ELECTRIC DIPOLE MOMENTS
-----------------------------------------------------------------------------
State   Energy  Wavelength   fosc         T2         TX        TY        TZ
        (cm-1)    (nm)                  (au**2)     (au)      (au)      (au)
-----------------------------------------------------------------------------
   0   12929.5    773.4   0.776499981  19.77134  -2.73535   3.23197   1.35777
   1   16971.3    589.2   0.000078810   0.00153  -0.03093   0.02198  -0.00945
   2   18175.8    550.2   0.142855543   2.58749   0.53782   1.40057   0.58022
   3   20713.6    482.8   0.098171567   1.56029  -0.89494  -0.83299  -0.25595
   4   22687.3    440.8   0.791054221  11.47884  -3.00102  -1.30005   0.88466
   5   23214.5    430.8   0.002088805   0.02962   0.14449   0.03648  -0.08611
   6   23501.8    425.5   0.324334476   4.54325  -2.12754   0.08384   0.09903
   7   23659.7    422.7   0.484999524   6.74851   2.58475  -0.18534   0.18224
   8   25376.3    394.1   0.151242464   1.96210  -0.83009  -0.99597  -0.53019
   9   26785.9    373.3   0.001199767   0.01475   0.06542   0.07030   0.07432
  10   27995.9    357.2   0.531976226   6.25567  -2.03982  -1.32918  -0.57281
  11   28256.1    353.9   0.016890095   0.19679   0.39827   0.03242   0.19265
  12   28644.7    349.1   0.218666738   2.51312  -0.09316   1.33077   0.85645
  13   28741.2    347.9   0.403297346   4.61952   1.93661  -0.32439   0.87398
  14   29366.0    340.5   0.004461613   0.05002  -0.02778  -0.15453  -0.15927
  15   29911.0    334.3   0.083287951   0.91670   0.02830   0.77008   0.56822
  16   30019.5    333.1   0.019163917   0.21016  -0.38667  -0.24604  -0.01068
  17   30623.9    326.5   0.041954355   0.45102   0.41024  -0.25586   0.46611
  18   30885.7    323.8   0.006394528   0.06816   0.17670   0.14089   0.13070
  19   30945.1    323.2   0.011250461   0.11969   0.32734  -0.06840  -0.08866
  20   31013.2    322.4   0.044908993   0.47672  -0.68676   0.06045   0.03781
  21   31345.1    319.0   0.229647883   2.41195  -0.82192   1.07159   0.76686
  22   31912.4    313.4   0.177213326   1.82815  -0.98559   0.81524   0.43835
  23   32402.0    308.6   0.013733542   0.13954  -0.08668  -0.32339  -0.16566
  24   32453.3    308.1   0.001251683   0.01270  -0.10113  -0.01193  -0.04824
  25   32824.3    304.7   0.000024526   0.00025  -0.00999   0.01108   0.00483
  26   33004.9    303.0   0.105817155   1.05549  -0.44064   0.81896   0.43661
  27   33106.6    302.1   0.016442616   0.16351   0.37210  -0.04668   0.15122
  28   33949.7    294.6   0.598130648   5.80011  -2.10501   0.24636  -1.14383
  29   34130.1    293.0   0.000825617   0.00796   0.00275   0.06660  -0.05934
  30   34312.1    291.4   0.291705923   2.79881   0.74372   1.14429  -0.96762
  31   34567.2    289.3   0.081637481   0.77750  -0.81830   0.06768   0.32142
  32   34939.2    286.2   0.064192891   0.60485   0.71889   0.23538  -0.18068
  33   35070.4    285.1   0.016590635   0.15574  -0.34483   0.00232   0.19191
  34   35184.1    284.2   0.012240103   0.11453  -0.12359   0.31339   0.03229
  35   35708.8    280.0   0.220823924   2.03585   0.44348  -1.30109  -0.38256
  36   36165.9    276.5   0.032317353   0.29418   0.51877   0.15112   0.04712
  37   36215.0    276.1   0.001192167   0.01084  -0.08697  -0.04701   0.03261
  38   37000.6    270.3   0.111888303   0.99552  -0.85362   0.48082   0.18884
  39   37042.2    270.0   0.063413738   0.56359  -0.37860   0.50846   0.40214
  40   37353.4    267.7   0.020002395   0.17629   0.22146  -0.35034  -0.06715
  41   37702.6    265.2   0.075236220   0.65695  -0.76983  -0.08775   0.23792
  42   38281.3    261.2   0.262509064   2.25753   1.44745   0.38425  -0.12149
  43   38359.6    260.7   0.344836036   2.95947   1.23241  -1.00635  -0.65414
  44   38566.7    259.3   0.018235911   0.15566  -0.27458   0.11221  -0.26015
  45   38654.2    258.7   0.075396592   0.64214  -0.78208  -0.17458  -0.00444
  46   38899.9    257.1   0.233929972   1.97976   1.27788  -0.03608  -0.58779
  47   39049.8    256.1   0.108760932   0.91692   0.81331  -0.24357  -0.44285
  48   39251.7    254.8   0.013024204   0.10924  -0.32184   0.04603   0.05947
  49   39307.6    254.4   0.026988847   0.22604   0.36803  -0.15503  -0.25799
  50   39524.8    253.0   0.082553489   0.68761   0.39347   0.27113  -0.67770
  51   39866.5    250.8   0.141689053   1.17005  -0.26738   1.04485   0.08270
  52   40244.7    248.5   0.025230616   0.20639   0.03244  -0.30159  -0.33820

FINAL SINGLE POINT ENERGY     -7976.485883829215

DIPOLE MOMENT
-------------
                                X             Y             Z
Electronic contribution:    220.62368       4.18566     -15.88569
Nuclear contribution   :   -222.66659      -3.28093      18.22473
                        -----------------------------------------
Total Dipole Moment    :     -2.04291       0.90472       2.33904
                        -----------------------------------------
Magnitude (a.u.)       :      3.23467
Magnitude (Debye)      :      8.22189

Rotational constants in cm-1:     0.000918     0.000307     0.000245
Rotational constants in MHz :    27.519634     9.206377     7.350519

                             ****ORCA TERMINATED NORMALLY****
TOTAL RUN TIME: 0 days 0 hours 18 minutes 56 seconds 986 msec
