                         Program Version 4.2.0 -  RELEASE  -
|  1> # ORCA input file
|  2> # SCF done       -204.011858897168          0.000804850592
|  3> ! CAM-B3LYP def2-SVP def2/J RIJCOSX Grid4 TightSCF
|  4> %maxcore 5000
|  5> %tddft
|  6>     Mode sTDDFT
|  7>     Ethresh 5.0
|  8>     maxcore 5000
|  9> end
| 10>
| 11> %pal
| 12>   nprocs 6
| 13>   end
| 14> * xyz 0 1
| 15>    C       -6.13136        -3.02465        -2.22120
| 16>    C       -7.23001        -3.40917        -2.94259
| 17>    C       -7.69555        -4.73905        -3.02852
| 18>    N       -8.11559        -5.80068        -3.14317
| 19>    C       -8.05786        -2.53588        -3.68062
| 20>    N       -8.78244        -1.88422        -4.28691
| 21>    C       -5.30728        -3.89183        -1.39115
| 22>    C       -4.33044        -3.10500        -0.73084
| 23>    C       -3.40719        -3.64137         0.13441
| 24>    C       -3.45295        -5.01954         0.36540
| 25>    C       -4.42993        -5.79969        -0.30171
| 26>    C       -5.35988        -5.25819        -1.17970
| 27>    S       -4.30489        -7.47887         0.12238
| 28>    C       -2.96211        -7.11797         1.17493
| 29>    C       -2.62376        -5.80651         1.20967
| 30>   Br       -2.13701        -8.50378         2.12900
| 31>    C       -4.47220        -1.69598        -1.13062
| 32>    O       -3.72379        -0.78731        -0.85772
| 33>    C       -5.63725        -1.66584        -2.07054
| 34>    C       -6.02343        -0.56880        -2.77104
| 35>    C       -5.66370         0.76016        -2.40934
| 36>    O       -5.60401         1.73048        -3.35630
| 37>    C       -5.43450         1.34257        -1.17680
| 38>    C       -5.42746         1.09914         0.27674
| 39>    O       -5.67306         0.11361         0.91655
| 40>    N       -5.11401         2.34687         0.80952
| 41>    C       -4.96689         3.37341        -0.11625
| 42>    O       -4.71185         4.51941         0.14670
| 43>    C       -5.20277         2.71463        -1.40783
| 44>    C       -5.30630         2.91731        -2.77650
| 45>    C       -5.15094         4.07918        -3.57885
| 46>    C       -4.84502         5.28495        -3.04257
| 47>    C       -4.67189         6.45201        -3.83213
| 48>    O       -4.36721         7.62822        -3.22082
| 49>    C       -4.73913         6.67384        -5.19935
| 50>    C       -4.99128         6.06387        -6.51318
| 51>    O       -5.27161         4.93371        -6.81360
| 52>    N       -4.82714         7.12006        -7.40822
| 53>    C       -4.48433         8.33853        -6.83302
| 54>    O       -4.24589         9.35892        -7.42795
| 55>    C       -4.45622         8.04153        -5.39877
| 56>    C       -4.23858         8.60165        -4.15316
| 57>    C       -3.96928         9.96506        -3.88895
| 58>    C       -3.75060        10.58353        -2.70559
| 59>    C       -3.56679        11.99681        -2.71116
| 60>    O       -3.60398        12.62662        -3.90990
| 61>    C       -3.39559        12.95787        -1.73195
| 62>    C       -3.26098        13.17938        -0.28520
| 63>    O       -3.24333        12.40801         0.63496
| 64>    N       -3.14511        14.56460        -0.17767
| 65>    C       -3.18810        15.26885        -1.37877
| 66>    O       -3.10426        16.46214        -1.48925
| 67>    C       -3.35133        14.21374        -2.38894
| 68>    C       -3.49295        13.96614        -3.74250
| 69>    C       -3.60867        14.79315        -4.89292
| 70>    C       -3.79181        14.23905        -6.11898
| 71>    C       -4.03481        14.98312        -7.29638
| 72>    C       -4.39546        14.50496        -8.51771
| 73>    C       -4.77111        13.19312        -9.02091
| 74>    C       -5.36942        12.15595        -8.35664
| 75>    C       -5.88316        11.00971        -9.00843
| 76>    N       -6.36563        10.08504        -9.48661
| 77>    C       -5.68810        12.09099        -6.98428
| 78>    N       -6.01391        11.95065        -5.89218
| 79>    C       -4.61328        13.23878       -10.47430
| 80>    C       -4.39204        14.57907       -10.87866
| 81>    C       -4.32375        15.43678        -9.68436
| 82>    O       -4.19381        16.63717        -9.63251
| 83>    C       -4.24106        14.94066       -12.19617
| 84>    C       -4.29717        13.92946       -13.16004
| 85>    C       -4.48965        12.58920       -12.74453
| 86>    C       -4.64788        12.22512       -11.41322
| 87>    S       -4.50488        11.49816       -14.09558
| 88>    C       -4.26102        12.83723       -15.18614
| 89>    C       -4.17068        14.04076       -14.57180
| 90>   Br       -4.15092        12.51945       -17.03053
| 91>    H       -2.67767        -3.01405         0.62163
| 92>    H       -6.08000        -5.89459        -1.66632
| 93>    H       -1.82264        -5.40932         1.80580
| 94>    H       -6.64190        -0.65833        -3.65446
| 95>    H       -5.02053         2.50010         1.80399
| 96>    H       -5.28457         3.95594        -4.64525
| 97>    H       -4.71600         5.40554        -1.97508
| 98>    H       -4.95756         7.01020        -8.40448
| 99>    H       -3.97915        10.56435        -4.78957
|100>    H       -3.73235        10.06934        -1.75806
|101>    H       -3.03895        15.02756         0.71417
|102>    H       -3.60542        15.86102        -4.73458
|103>    H       -3.76028        13.16301        -6.19922
|104>    H       -3.88432        16.05718        -7.24944
|105>    H       -4.08031        15.97061       -12.47325
|106>    H       -4.77644        11.19015       -11.14440
|107>    H       -4.02147        14.96981       -15.09093
|108> *
|109>
|110>                          ****END OF INPUT****

CARTESIAN COORDINATES (ANGSTROEM)
---------------------------------
  C     -6.131360   -3.024650   -2.221200
  C     -7.230010   -3.409170   -2.942590
  C     -7.695550   -4.739050   -3.028520
  N     -8.115590   -5.800680   -3.143170
  C     -8.057860   -2.535880   -3.680620
  N     -8.782440   -1.884220   -4.286910
  C     -5.307280   -3.891830   -1.391150
  C     -4.330440   -3.105000   -0.730840
  C     -3.407190   -3.641370    0.134410
  C     -3.452950   -5.019540    0.365400
  C     -4.429930   -5.799690   -0.301710
  C     -5.359880   -5.258190   -1.179700
  S     -4.304890   -7.478870    0.122380
  C     -2.962110   -7.117970    1.174930
  C     -2.623760   -5.806510    1.209670
  Br    -2.137010   -8.503780    2.129000
  C     -4.472200   -1.695980   -1.130620
  O     -3.723790   -0.787310   -0.857720
  C     -5.637250   -1.665840   -2.070540
  C     -6.023430   -0.568800   -2.771040
  C     -5.663700    0.760160   -2.409340
  O     -5.604010    1.730480   -3.356300
  C     -5.434500    1.342570   -1.176800
  C     -5.427460    1.099140    0.276740
  O     -5.673060    0.113610    0.916550
  N     -5.114010    2.346870    0.809520
  C     -4.966890    3.373410   -0.116250
  O     -4.711850    4.519410    0.146700
  C     -5.202770    2.714630   -1.407830
  C     -5.306300    2.917310   -2.776500
  C     -5.150940    4.079180   -3.578850
  C     -4.845020    5.284950   -3.042570
  C     -4.671890    6.452010   -3.832130
  O     -4.367210    7.628220   -3.220820
  C     -4.739130    6.673840   -5.199350
  C     -4.991280    6.063870   -6.513180
  O     -5.271610    4.933710   -6.813600
  N     -4.827140    7.120060   -7.408220
  C     -4.484330    8.338530   -6.833020
  O     -4.245890    9.358920   -7.427950
  C     -4.456220    8.041530   -5.398770
  C     -4.238580    8.601650   -4.153160
  C     -3.969280    9.965060   -3.888950
  C     -3.750600   10.583530   -2.705590
  C     -3.566790   11.996810   -2.711160
  O     -3.603980   12.626620   -3.909900
  C     -3.395590   12.957870   -1.731950
  C     -3.260980   13.179380   -0.285200
  O     -3.243330   12.408010    0.634960
  N     -3.145110   14.564600   -0.177670
  C     -3.188100   15.268850   -1.378770
  O     -3.104260   16.462140   -1.489250
  C     -3.351330   14.213740   -2.388940
  C     -3.492950   13.966140   -3.742500
  C     -3.608670   14.793150   -4.892920
  C     -3.791810   14.239050   -6.118980
  C     -4.034810   14.983120   -7.296380
  C     -4.395460   14.504960   -8.517710
  C     -4.771110   13.193120   -9.020910
  C     -5.369420   12.155950   -8.356640
  C     -5.883160   11.009710   -9.008430
  N     -6.365630   10.085040   -9.486610
  C     -5.688100   12.090990   -6.984280
  N     -6.013910   11.950650   -5.892180
  C     -4.613280   13.238780  -10.474300
  C     -4.392040   14.579070  -10.878660
  C     -4.323750   15.436780   -9.684360
  O     -4.193810   16.637170   -9.632510
  C     -4.241060   14.940660  -12.196170
  C     -4.297170   13.929460  -13.160040
  C     -4.489650   12.589200  -12.744530
  C     -4.647880   12.225120  -11.413220
  S     -4.504880   11.498160  -14.095580
  C     -4.261020   12.837230  -15.186140
  C     -4.170680   14.040760  -14.571800
  Br    -4.150920   12.519450  -17.030530
  H     -2.677670   -3.014050    0.621630
  H     -6.080000   -5.894590   -1.666320
  H     -1.822640   -5.409320    1.805800
  H     -6.641900   -0.658330   -3.654460
  H     -5.020530    2.500100    1.803990
  H     -5.284570    3.955940   -4.645250
  H     -4.716000    5.405540   -1.975080
  H     -4.957560    7.010200   -8.404480
  H     -3.979150   10.564350   -4.789570
  H     -3.732350   10.069340   -1.758060
  H     -3.038950   15.027560    0.714170
  H     -3.605420   15.861020   -4.734580
  H     -3.760280   13.163010   -6.199220
  H     -3.884320   16.057180   -7.249440
  H     -4.080310   15.970610  -12.473250
  H     -4.776440   11.190150  -11.144400
  H     -4.021470   14.969810  -15.090930

 Total Charge           Charge          ....    0
 Multiplicity           Mult            ....    1
 Number of Electrons    NEL             ....  580
 Basis Dimension        Dim             .... 1193

ORBITAL ENERGIES
----------------

  NO   OCC          E(Eh)            E(eV)
   0   2.0000    -482.889010    -13140.0780
   1   2.0000    -482.887974    -13140.0498
   2   2.0000     -88.979649     -2421.2593
   3   2.0000     -88.978643     -2421.2320
   4   2.0000     -62.566723     -1702.5271
   5   2.0000     -62.565719     -1702.4998
   6   2.0000     -56.400680     -1534.7405
   7   2.0000     -56.399673     -1534.7131
   8   2.0000     -56.397950     -1534.6662
   9   2.0000     -56.397926     -1534.6656
  10   2.0000     -56.396951     -1534.6391
  11   2.0000     -56.396915     -1534.6381
  12   2.0000     -19.325129      -525.8635
  13   2.0000     -19.324169      -525.8374
  14   2.0000     -19.316995      -525.6422
  15   2.0000     -19.225076      -523.1409
  16   2.0000     -19.224729      -523.1315
  17   2.0000     -19.222895      -523.0816
  18   2.0000     -19.222882      -523.0812
  19   2.0000     -19.221255      -523.0369
  20   2.0000     -19.218962      -522.9745
  21   2.0000     -19.216446      -522.9061
  22   2.0000     -19.214980      -522.8662
  23   2.0000     -14.464880      -393.6094
  24   2.0000     -14.464828      -393.6080
  25   2.0000     -14.459143      -393.4533
  26   2.0000     -14.421696      -392.4343
  27   2.0000     -14.421560      -392.4306
  28   2.0000     -14.419821      -392.3833
  29   2.0000     -14.415168      -392.2567
  30   2.0000     -10.412642      -283.3424
  31   2.0000     -10.412579      -283.3407
  32   2.0000     -10.411229      -283.3039
  33   2.0000     -10.409496      -283.2568
  34   2.0000     -10.406282      -283.1693
  35   2.0000     -10.405012      -283.1348
  36   2.0000     -10.378034      -282.4007
  37   2.0000     -10.375310      -282.3265
  38   2.0000     -10.375247      -282.3248
  39   2.0000     -10.373066      -282.2655
  40   2.0000     -10.371100      -282.2120
  41   2.0000     -10.370586      -282.1980
  42   2.0000     -10.370524      -282.1963
  43   2.0000     -10.369276      -282.1623
  44   2.0000     -10.363127      -281.9950
  45   2.0000     -10.361722      -281.9568
  46   2.0000     -10.350913      -281.6627
  47   2.0000     -10.349361      -281.6204
  48   2.0000     -10.348353      -281.5930
  49   2.0000     -10.347368      -281.5662
  50   2.0000     -10.330577      -281.1093
  51   2.0000     -10.329846      -281.0894
  52   2.0000     -10.329271      -281.0738
  53   2.0000     -10.323793      -280.9247
  54   2.0000     -10.323738      -280.9232
  55   2.0000     -10.323345      -280.9125
  56   2.0000     -10.319434      -280.8061
  57   2.0000     -10.317501      -280.7535
  58   2.0000     -10.316559      -280.7278
  59   2.0000     -10.314092      -280.6607
  60   2.0000     -10.313915      -280.6559
  61   2.0000     -10.312402      -280.6147
  62   2.0000     -10.312361      -280.6136
  63   2.0000     -10.311010      -280.5768
  64   2.0000     -10.310635      -280.5666
  65   2.0000     -10.310589      -280.5654
  66   2.0000     -10.309789      -280.5436
  67   2.0000     -10.309036      -280.5231
  68   2.0000     -10.308841      -280.5178
  69   2.0000     -10.308620      -280.5118
  70   2.0000     -10.307600      -280.4841
  71   2.0000     -10.305617      -280.4301
  72   2.0000     -10.304767      -280.4070
  73   2.0000     -10.304677      -280.4045
  74   2.0000     -10.303928      -280.3841
  75   2.0000     -10.303009      -280.3591
  76   2.0000     -10.302891      -280.3559
  77   2.0000     -10.302282      -280.3394
  78   2.0000     -10.301523      -280.3187
  79   2.0000     -10.300511      -280.2912
  80   2.0000     -10.300398      -280.2881
  81   2.0000     -10.299431      -280.2618
  82   2.0000     -10.297676      -280.2140
  83   2.0000     -10.296171      -280.1731
  84   2.0000      -8.796154      -239.3555
  85   2.0000      -8.795169      -239.3287
  86   2.0000      -8.075659      -219.7498
  87   2.0000      -8.074608      -219.7212
  88   2.0000      -6.632484      -180.4791
  89   2.0000      -6.631492      -180.4521
  90   2.0000      -6.617900      -180.0822
  91   2.0000      -6.617639      -180.0751
  92   2.0000      -6.616891      -180.0548
  93   2.0000      -6.616691      -180.0493
  94   2.0000      -6.045357      -164.5025
  95   2.0000      -6.044288      -164.4734
  96   2.0000      -6.041051      -164.3854
  97   2.0000      -6.040027      -164.3575
  98   2.0000      -6.036877      -164.2718
  99   2.0000      -6.035849      -164.2438
 100   2.0000      -2.748357       -74.7866
 101   2.0000      -2.747351       -74.7592
 102   2.0000      -2.744225       -74.6742
 103   2.0000      -2.744119       -74.6713
 104   2.0000      -2.743283       -74.6485
 105   2.0000      -2.743100       -74.6435
 106   2.0000      -2.732487       -74.3547
 107   2.0000      -2.732476       -74.3545
 108   2.0000      -2.731505       -74.3280
 109   2.0000      -2.731499       -74.3279
 110   2.0000      -1.242539       -33.8112
 111   2.0000      -1.240285       -33.7499
 112   2.0000      -1.239508       -33.7287
 113   2.0000      -1.167873       -31.7794
 114   2.0000      -1.167162       -31.7601
 115   2.0000      -1.161016       -31.5928
 116   2.0000      -1.148469       -31.2514
 117   2.0000      -1.147136       -31.2152
 118   2.0000      -1.140724       -31.0407
 119   2.0000      -1.138549       -30.9815
 120   2.0000      -1.134661       -30.8757
 121   2.0000      -1.054391       -28.6914
 122   2.0000      -1.054375       -28.6910
 123   2.0000      -1.048049       -28.5189
 124   2.0000      -1.028436       -27.9852
 125   2.0000      -1.026148       -27.9229
 126   2.0000      -1.018766       -27.7220
 127   2.0000      -1.016259       -27.6538
 128   2.0000      -1.000144       -27.2153
 129   2.0000      -0.996540       -27.1172
 130   2.0000      -0.995841       -27.0982
 131   2.0000      -0.992224       -26.9998
 132   2.0000      -0.957073       -26.0433
 133   2.0000      -0.953472       -25.9453
 134   2.0000      -0.948750       -25.8168
 135   2.0000      -0.944543       -25.7023
 136   2.0000      -0.935784       -25.4640
 137   2.0000      -0.935276       -25.4502
 138   2.0000      -0.930250       -25.3134
 139   2.0000      -0.928293       -25.2601
 140   2.0000      -0.914795       -24.8928
 141   2.0000      -0.913384       -24.8544
 142   2.0000      -0.911571       -24.8051
 143   2.0000      -0.898395       -24.4466
 144   2.0000      -0.890743       -24.2384
 145   2.0000      -0.889103       -24.1937
 146   2.0000      -0.886030       -24.1101
 147   2.0000      -0.872695       -23.7472
 148   2.0000      -0.857485       -23.3333
 149   2.0000      -0.838389       -22.8137
 150   2.0000      -0.833825       -22.6895
 151   2.0000      -0.832196       -22.6452
 152   2.0000      -0.816439       -22.2164
 153   2.0000      -0.794006       -21.6060
 154   2.0000      -0.784582       -21.3496
 155   2.0000      -0.782678       -21.2978
 156   2.0000      -0.778728       -21.1903
 157   2.0000      -0.774447       -21.0738
 158   2.0000      -0.773974       -21.0609
 159   2.0000      -0.771296       -20.9880
 160   2.0000      -0.768063       -20.9001
 161   2.0000      -0.764079       -20.7916
 162   2.0000      -0.759699       -20.6724
 163   2.0000      -0.743798       -20.2398
 164   2.0000      -0.722741       -19.6668
 165   2.0000      -0.717855       -19.5338
 166   2.0000      -0.714706       -19.4481
 167   2.0000      -0.709912       -19.3177
 168   2.0000      -0.706268       -19.2185
 169   2.0000      -0.702045       -19.1036
 170   2.0000      -0.696020       -18.9397
 171   2.0000      -0.694716       -18.9042
 172   2.0000      -0.686621       -18.6839
 173   2.0000      -0.675763       -18.3884
 174   2.0000      -0.669477       -18.2174
 175   2.0000      -0.661309       -17.9951
 176   2.0000      -0.648890       -17.6572
 177   2.0000      -0.635035       -17.2802
 178   2.0000      -0.634526       -17.2663
 179   2.0000      -0.629562       -17.1313
 180   2.0000      -0.626686       -17.0530
 181   2.0000      -0.625092       -17.0096
 182   2.0000      -0.616539       -16.7769
 183   2.0000      -0.612939       -16.6789
 184   2.0000      -0.607861       -16.5407
 185   2.0000      -0.606571       -16.5056
 186   2.0000      -0.605246       -16.4696
 187   2.0000      -0.603386       -16.4190
 188   2.0000      -0.600840       -16.3497
 189   2.0000      -0.599541       -16.3143
 190   2.0000      -0.597363       -16.2551
 191   2.0000      -0.596499       -16.2316
 192   2.0000      -0.593289       -16.1442
 193   2.0000      -0.591677       -16.1004
 194   2.0000      -0.587015       -15.9735
 195   2.0000      -0.579293       -15.7634
 196   2.0000      -0.575939       -15.6721
 197   2.0000      -0.572094       -15.5675
 198   2.0000      -0.567746       -15.4491
 199   2.0000      -0.560611       -15.2550
 200   2.0000      -0.559216       -15.2170
 201   2.0000      -0.556870       -15.1532
 202   2.0000      -0.554959       -15.1012
 203   2.0000      -0.553108       -15.0508
 204   2.0000      -0.551959       -15.0196
 205   2.0000      -0.550370       -14.9763
 206   2.0000      -0.547206       -14.8902
 207   2.0000      -0.546707       -14.8766
 208   2.0000      -0.544822       -14.8254
 209   2.0000      -0.541413       -14.7326
 210   2.0000      -0.539181       -14.6719
 211   2.0000      -0.533382       -14.5140
 212   2.0000      -0.531899       -14.4737
 213   2.0000      -0.529010       -14.3951
 214   2.0000      -0.528717       -14.3871
 215   2.0000      -0.526808       -14.3352
 216   2.0000      -0.521081       -14.1793
 217   2.0000      -0.519917       -14.1477
 218   2.0000      -0.518505       -14.1092
 219   2.0000      -0.516578       -14.0568
 220   2.0000      -0.514018       -13.9871
 221   2.0000      -0.513177       -13.9643
 222   2.0000      -0.511994       -13.9321
 223   2.0000      -0.509858       -13.8739
 224   2.0000      -0.508904       -13.8480
 225   2.0000      -0.501919       -13.6579
 226   2.0000      -0.501005       -13.6330
 227   2.0000      -0.499366       -13.5885
 228   2.0000      -0.497664       -13.5421
 229   2.0000      -0.495917       -13.4946
 230   2.0000      -0.489917       -13.3313
 231   2.0000      -0.488840       -13.3020
 232   2.0000      -0.488112       -13.2822
 233   2.0000      -0.485918       -13.2225
 234   2.0000      -0.481829       -13.1112
 235   2.0000      -0.481073       -13.0907
 236   2.0000      -0.478384       -13.0175
 237   2.0000      -0.473017       -12.8715
 238   2.0000      -0.467094       -12.7103
 239   2.0000      -0.462928       -12.5969
 240   2.0000      -0.462875       -12.5955
 241   2.0000      -0.460555       -12.5323
 242   2.0000      -0.454560       -12.3692
 243   2.0000      -0.454079       -12.3561
 244   2.0000      -0.451651       -12.2901
 245   2.0000      -0.451336       -12.2815
 246   2.0000      -0.449255       -12.2248
 247   2.0000      -0.448033       -12.1916
 248   2.0000      -0.445557       -12.1242
 249   2.0000      -0.443908       -12.0794
 250   2.0000      -0.442836       -12.0502
 251   2.0000      -0.439168       -11.9504
 252   2.0000      -0.433203       -11.7880
 253   2.0000      -0.430666       -11.7190
 254   2.0000      -0.428619       -11.6633
 255   2.0000      -0.427237       -11.6257
 256   2.0000      -0.423948       -11.5362
 257   2.0000      -0.418429       -11.3860
 258   2.0000      -0.414520       -11.2797
 259   2.0000      -0.410854       -11.1799
 260   2.0000      -0.404732       -11.0133
 261   2.0000      -0.395821       -10.7708
 262   2.0000      -0.390925       -10.6376
 263   2.0000      -0.390247       -10.6192
 264   2.0000      -0.388940       -10.5836
 265   2.0000      -0.385456       -10.4888
 266   2.0000      -0.382923       -10.4199
 267   2.0000      -0.381509       -10.3814
 268   2.0000      -0.378380       -10.2962
 269   2.0000      -0.378147       -10.2899
 270   2.0000      -0.377312       -10.2672
 271   2.0000      -0.374610       -10.1936
 272   2.0000      -0.372980       -10.1493
 273   2.0000      -0.371530       -10.1098
 274   2.0000      -0.368891       -10.0380
 275   2.0000      -0.366185        -9.9644
 276   2.0000      -0.358545        -9.7565
 277   2.0000      -0.356950        -9.7131
 278   2.0000      -0.356569        -9.7027
 279   2.0000      -0.350427        -9.5356
 280   2.0000      -0.346868        -9.4388
 281   2.0000      -0.344797        -9.3824
 282   2.0000      -0.337399        -9.1811
 283   2.0000      -0.319504        -8.6941
 284   2.0000      -0.318345        -8.6626
 285   2.0000      -0.317269        -8.6333
 286   2.0000      -0.298427        -8.1206
 287   2.0000      -0.297187        -8.0869
 288   2.0000      -0.287281        -7.8173
 289   2.0000      -0.261049        -7.1035
 290   0.0000      -0.109806        -2.9880
 291   0.0000      -0.103287        -2.8106
 292   0.0000      -0.080714        -2.1963
 293   0.0000      -0.069452        -1.8899
 294   0.0000      -0.066589        -1.8120

MULLIKEN ATOMIC CHARGES
-----------------------
   0 C :    0.299060
   1 C :   -0.336415
   2 C :   -0.184152
   3 N :    0.155676
   4 C :   -0.199976
   5 N :    0.169180
   6 C :    0.023364
   7 C :   -0.019686
   8 C :   -0.060180
   9 C :    0.116730
  10 C :   -0.089228
  11 C :   -0.020456
  12 S :    0.189754
  13 C :   -0.123486
  14 C :    0.040064
  15 Br:    0.028104
  16 C :    0.163893
  17 O :   -0.146441
  18 C :   -0.069234
  19 C :   -0.036877
  20 C :    0.102551
  21 O :   -0.175815
  22 C :   -0.005957
  23 C :    0.186692
  24 O :   -0.135058
  25 N :   -0.156596
  26 C :    0.195932
  27 O :   -0.146545
  28 C :   -0.102505
  29 C :    0.131367
  30 C :    0.001501
  31 C :    0.006174
  32 C :    0.122797
  33 O :   -0.185751
  34 C :   -0.077837
  35 C :    0.192027
  36 O :   -0.141603
  37 N :   -0.158247
  38 C :    0.196948
  39 O :   -0.157944
  40 C :   -0.034864
  41 C :    0.122745
  42 C :   -0.011161
  43 C :   -0.011017
  44 C :    0.092361
  45 O :   -0.210007
  46 C :   -0.031560
  47 C :    0.165073
  48 O :   -0.131919
  49 N :   -0.168269
  50 C :    0.166071
  51 O :   -0.134849
  52 C :   -0.022875
  53 C :    0.089392
  54 C :   -0.006648
  55 C :    0.027882
  56 C :    0.020663
  57 C :   -0.098070
  58 C :    0.292063
  59 C :   -0.321338
  60 C :   -0.175843
  61 N :    0.139892
  62 C :   -0.196693
  63 N :    0.159680
  64 C :   -0.004131
  65 C :   -0.001463
  66 C :    0.133605
  67 O :   -0.141768
  68 C :   -0.064645
  69 C :    0.110122
  70 C :   -0.089309
  71 C :   -0.012846
  72 S :    0.185572
  73 C :   -0.125915
  74 C :    0.042935
  75 Br:    0.026250
  76 H :   -0.007574
  77 H :   -0.005045
  78 H :   -0.001134
  79 H :    0.041767
  80 H :    0.142768
  81 H :    0.016758
  82 H :    0.016388
  83 H :    0.147734
  84 H :    0.038243
  85 H :    0.026686
  86 H :    0.141134
  87 H :    0.026011
  88 H :    0.034984
  89 H :    0.020652
  90 H :   -0.007474
  91 H :   -0.000634
  92 H :   -0.002202
Sum of atomic charges:    0.0000000

LOEWDIN ATOMIC CHARGES
----------------------
   0 C :    0.072373
   1 C :   -0.129720
   2 C :   -0.017780
   3 N :   -0.045831
   4 C :   -0.023087
   5 N :   -0.042359
   6 C :   -0.019441
   7 C :   -0.046612
   8 C :    0.027147
   9 C :   -0.030227
  10 C :   -0.141913
  11 C :   -0.008893
  12 S :    0.435692
  13 C :   -0.269949
  14 C :   -0.069740
  15 Br:    0.140910
  16 C :    0.090064
  17 O :   -0.130486
  18 C :   -0.063812
  19 C :    0.046129
  20 C :    0.048325
  21 O :    0.035985
  22 C :   -0.052966
  23 C :    0.091222
  24 O :   -0.143002
  25 N :    0.003286
  26 C :    0.090630
  27 O :   -0.153151
  28 C :   -0.096735
  29 C :    0.077148
  30 C :   -0.012440
  31 C :   -0.004628
  32 C :    0.069776
  33 O :    0.028901
  34 C :   -0.092409
  35 C :    0.091315
  36 O :   -0.149823
  37 N :    0.003949
  38 C :    0.097127
  39 O :   -0.156019
  40 C :   -0.082031
  41 C :    0.062824
  42 C :   -0.004161
  43 C :   -0.018451
  44 C :    0.081406
  45 O :    0.032642
  46 C :   -0.095817
  47 C :    0.083931
  48 O :   -0.151611
  49 N :   -0.005941
  50 C :    0.083697
  51 O :   -0.152782
  52 C :   -0.081663
  53 C :    0.063123
  54 C :    0.007243
  55 C :   -0.011293
  56 C :    0.059111
  57 C :   -0.078411
  58 C :    0.067365
  59 C :   -0.122423
  60 C :   -0.013037
  61 N :   -0.062012
  62 C :   -0.016428
  63 N :   -0.054809
  64 C :   -0.016859
  65 C :   -0.053790
  66 C :    0.082827
  67 O :   -0.139253
  68 C :    0.023855
  69 C :   -0.032894
  70 C :   -0.142252
  71 C :   -0.009913
  72 S :    0.432761
  73 C :   -0.271269
  74 C :   -0.069537
  75 Br:    0.138733
  76 H :    0.042479
  77 H :    0.041433
  78 H :    0.039698
  79 H :    0.053906
  80 H :    0.097977
  81 H :    0.045434
  82 H :    0.044767
  83 H :    0.100675
  84 H :    0.048824
  85 H :    0.050350
  86 H :    0.096363
  87 H :    0.050585
  88 H :    0.036480
  89 H :    0.046280
  90 H :    0.042058
  91 H :    0.041498
  92 H :    0.039355

  Mayer bond orders larger than 0.100000
B(  0-C ,  1-C ) :   1.6479 B(  0-C ,  6-C ) :   1.0148 B(  0-C , 18-C ) :   1.0643
B(  1-C ,  2-C ) :   1.1411 B(  1-C ,  4-C ) :   1.1413 B(  2-C ,  3-N ) :   2.9705
B(  4-C ,  5-N ) :   2.9885 B(  6-C ,  7-C ) :   1.2719 B(  6-C , 11-C ) :   1.4026
B(  7-C ,  8-C ) :   1.4245 B(  7-C , 16-C ) :   0.9461 B(  8-C ,  9-C ) :   1.2509
B(  8-C , 76-H ) :   1.0156 B(  9-C , 10-C ) :   1.2986 B(  9-C , 14-C ) :   1.1631
B( 10-C , 11-C ) :   1.3386 B( 10-C , 12-S ) :   1.0872 B( 11-C , 77-H ) :   0.9792
B( 12-S , 13-C ) :   1.0864 B( 13-C , 14-C ) :   1.6161 B( 13-C , 15-Br) :   1.0218
B( 14-C , 78-H ) :   1.0007 B( 16-C , 17-O ) :   2.2172 B( 16-C , 18-C ) :   0.9226
B( 18-C , 19-C ) :   1.6368 B( 19-C , 20-C ) :   1.1418 B( 19-C , 79-H ) :   0.9374
B( 20-C , 21-O ) :   1.1379 B( 20-C , 22-C ) :   1.4378 B( 21-O , 29-C ) :   1.1739
B( 22-C , 23-C ) :   0.8619 B( 22-C , 28-C ) :   1.3302 B( 23-C , 24-O ) :   2.2492
B( 23-C , 25-N ) :   1.0829 B( 25-N , 26-C ) :   1.1027 B( 25-N , 80-H ) :   0.9151
B( 26-C , 27-O ) :   2.1820 B( 26-C , 28-C ) :   0.8812 B( 28-C , 29-C ) :   1.3841
B( 29-C , 30-C ) :   1.1669 B( 30-C , 31-C ) :   1.5901 B( 30-C , 81-H ) :   0.9548
B( 31-C , 32-C ) :   1.1680 B( 31-C , 82-H ) :   0.9483 B( 32-C , 33-O ) :   1.1538
B( 32-C , 34-C ) :   1.4100 B( 33-O , 41-C ) :   1.1722 B( 34-C , 35-C ) :   0.8777
B( 34-C , 40-C ) :   1.2936 B( 35-C , 36-O ) :   2.1955 B( 35-C , 37-N ) :   1.0969
B( 37-N , 38-C ) :   1.0952 B( 37-N , 83-H ) :   0.9125 B( 38-C , 39-O ) :   2.1743
B( 38-C , 40-C ) :   0.8865 B( 40-C , 41-C ) :   1.4086 B( 41-C , 42-C ) :   1.1404
B( 42-C , 43-C ) :   1.6046 B( 42-C , 84-H ) :   0.9514 B( 43-C , 44-C ) :   1.1577
B( 43-C , 85-H ) :   0.9825 B( 44-C , 45-O ) :   1.1572 B( 44-C , 46-C ) :   1.3776
B( 45-O , 53-C ) :   1.1445 B( 46-C , 47-C ) :   0.8753 B( 46-C , 52-C ) :   1.2867
B( 47-C , 48-O ) :   2.2873 B( 47-C , 49-N ) :   1.0709 B( 49-N , 50-C ) :   1.0793
B( 49-N , 86-H ) :   0.9133 B( 50-C , 51-O ) :   2.2810 B( 50-C , 52-C ) :   0.8715
B( 52-C , 53-C ) :   1.3887 B( 53-C , 54-C ) :   1.1592 B( 54-C , 55-C ) :   1.6240
B( 54-C , 87-H ) :   0.9775 B( 55-C , 56-C ) :   1.0995 B( 55-C , 88-H ) :   0.9671
B( 56-C , 57-C ) :   1.6428 B( 56-C , 89-H ) :   0.9562 B( 57-C , 58-C ) :   1.0159
B( 57-C , 66-C ) :   0.9380 B( 58-C , 59-C ) :   1.6548 B( 58-C , 64-C ) :   1.0064
B( 59-C , 60-C ) :   1.1373 B( 59-C , 62-C ) :   1.1704 B( 60-C , 61-N ) :   2.9646
B( 62-C , 63-N ) :   2.9672 B( 64-C , 65-C ) :   1.2752 B( 64-C , 71-C ) :   1.4107
B( 65-C , 66-C ) :   0.9267 B( 65-C , 68-C ) :   1.4230 B( 66-C , 67-O ) :   2.2601
B( 68-C , 69-C ) :   1.2535 B( 68-C , 90-H ) :   1.0166 B( 69-C , 70-C ) :   1.3026
B( 69-C , 74-C ) :   1.1636 B( 70-C , 71-C ) :   1.3364 B( 70-C , 72-S ) :   1.0852
B( 71-C , 91-H ) :   0.9811 B( 72-S , 73-C ) :   1.0864 B( 73-C , 74-C ) :   1.6192
B( 73-C , 75-Br) :   1.0200 B( 74-C , 92-H ) :   1.0003

-----------------------------------------------------------------------------
         ABSORPTION SPECTRUM VIA TRANSITION ELECTRIC DIPOLE MOMENTS
-----------------------------------------------------------------------------
State   Energy  Wavelength   fosc         T2         TX        TY        TZ
        (cm-1)    (nm)                  (au**2)     (au)      (au)      (au)
-----------------------------------------------------------------------------
   0   17659.9    566.3   1.160751278  21.63848   0.12566   4.06860  -2.25148
   1   19869.1    503.3   0.681511727  11.29199  -0.76667  -3.15327  -0.87240
   2   24050.3    415.8   0.218787938   2.99487   0.28079   1.70683   0.05250
   3   25371.4    394.1   0.152744036   1.98196   0.85876   1.08477  -0.26033
   4   25514.8    391.9   0.175348099   2.26248  -0.43899   0.25273  -1.41630
   5   25943.5    385.5   0.239986108   3.04532   0.27396  -1.64384  -0.51773
   6   26594.4    376.0   0.077346325   0.95747  -0.19315  -0.22295  -0.93298
   7   26914.8    371.5   0.245319499   3.00065   0.64813   0.83016   1.37529
   8   27779.2    360.0   0.037600653   0.44561   0.32205  -0.11848  -0.57258
   9   28491.0    351.0   0.213239959   2.46398  -0.03409  -0.28436  -1.54336
  10   28574.0    350.0   0.042073892   0.48475  -0.44889   0.02919  -0.53141
  11   28803.7    347.2   0.180627748   2.06449  -0.20667   0.43395   1.35405
  12   29213.0    342.3   0.472677185   5.32677   0.50985  -1.21624   1.89409
  13   29457.9    339.5   0.005419989   0.06057   0.18513  -0.15176   0.05715
  14   31350.7    319.0   0.064072194   0.67282   0.07934   0.77250   0.26414
  15   32405.1    308.6   0.804574524   8.17388   0.91064  -0.29294   2.69422
  16   32575.0    307.0   0.279255552   2.82223  -1.42568   0.87911  -0.12977
  17   33056.0    302.5   0.052131828   0.51919  -0.41194   0.28077   0.52025
  18   33169.2    301.5   0.045648408   0.45307   0.54015  -0.28624   0.28174
  19   33241.3    300.8   0.423614371   4.19535  -0.44781  -0.77340   1.84300
  20   33785.5    296.0   0.007910590   0.07708  -0.20666   0.15446   0.10255
  21   33833.2    295.6   0.094076142   0.91540  -0.15869  -0.52077  -0.78678
  22   33992.8    294.2   0.061419688   0.59484  -0.26153  -0.36811  -0.62525
  23   34612.7    288.9   0.097874664   0.93091   0.20910   0.90534   0.25991
  24   35381.7    282.6   0.029644453   0.27583   0.03381   0.28307   0.44109
  25   35496.6    281.7   0.194718117   1.80591   0.10588   0.41143   1.27492
  26   36113.4    276.9   0.029418464   0.26818   0.00099   0.04772  -0.51566
  27   36439.7    274.4   0.010438765   0.09431   0.10164  -0.24213   0.15922
  28   36759.7    272.0   0.000836070   0.00749  -0.05332  -0.06654   0.01474
  29   36848.8    271.4   0.041955398   0.37484   0.17887  -0.56533   0.15246
  30   37172.9    269.0   0.023039917   0.20405  -0.18506  -0.29774  -0.28487
  31   37267.3    268.3   0.004692542   0.04145  -0.19607   0.01417   0.05299
  32   37476.1    266.8   0.003789079   0.03329  -0.01293   0.10575  -0.14811
  33   37635.0    265.7   0.017107518   0.14965  -0.24228  -0.30151   0.00633
  34   37755.8    264.9   0.076195842   0.66439   0.43139   0.59419   0.35388
  35   37814.0    264.5   0.053798946   0.46838   0.07625   0.66175   0.15699
  36   38509.4    259.7   0.028726302   0.24558   0.00569  -0.48736   0.08958
  37   38676.6    258.6   0.398164387   3.38914   0.71502   1.56104   0.66412
  38   38944.5    256.8   0.068262366   0.57705   0.07967  -0.29326  -0.69620
  39   39308.6    254.4   0.070698816   0.59211  -0.27636  -0.67966  -0.23193
  40   39436.5    253.6   0.089025618   0.74318   0.29364   0.68542   0.43261
  41   39794.8    251.3   0.047689493   0.39452  -0.34788   0.37565  -0.36386
  42   39868.4    250.8   0.027645350   0.22828   0.36624   0.19459  -0.23723
  43   40200.0    248.8   0.114206074   0.93527   0.43951   0.33651   0.79301

FINAL SINGLE POINT ENERGY     -9218.733405253030

DIPOLE MOMENT
-------------
                                X             Y             Z
Electronic contribution:     23.71202     -96.67373     -52.08738
Nuclear contribution   :    -21.07539      97.02866      51.88903
                        -----------------------------------------
Total Dipole Moment    :      2.63663       0.35493      -0.19835
                        -----------------------------------------
Magnitude (a.u.)       :      2.66779
Magnitude (Debye)      :      6.78099

Rotational constants in cm-1:     0.000949     0.000174     0.000152
Rotational constants in MHz :    28.442709     5.230351     4.559926

                             ****ORCA TERMINATED NORMALLY****
TOTAL RUN TIME: 0 days 0 hours 9 minutes 3 seconds 600 msec
