                         Program Version 4.2.0 -  RELEASE  -
|  1> # ORCA input file
|  2> # SCF done       -141.678642371027          0.000566583419
|  3> ! CAM-B3LYP def2-SVP def2/J RIJCOSX Grid4 TightSCF
|  4> %maxcore 5000
|  5> %tddft
|  6>     Mode sTDDFT
|  7>     Ethresh 5.0
|  8>     maxcore 5000
|  9> end
| 10>
| 11> %pal
| 12>   nprocs 6
| 13>   end
| 14> * xyz 0 1
| 15>    C        4.42537        -2.24749        -8.77968
| 16>    C        4.88161        -1.77606        -7.61121
| 17>    C        5.63126        -0.57442        -7.38083
| 18>    C        5.95326        -0.35697        -6.08637
| 19>    C        5.48768        -1.35830        -5.18880
| 20>    S        4.62095        -2.60170        -6.06579
| 21>    C        5.65136        -1.40101        -3.82352
| 22>    C        6.32780        -0.46713        -3.00066
| 23>    C        6.30513        -0.78309        -1.67811
| 24>    C        5.60933        -1.98053        -1.37811
| 25>    S        4.98867        -2.70086        -2.84825
| 26>    C        5.42330        -2.53293        -0.13375
| 27>    C        4.71469        -3.71796         0.08225
| 28>    O        4.15769        -4.37955        -0.95500
| 29>    C        3.55157        -5.50150        -0.47823
| 30>    C        3.71337        -5.55290         0.90149
| 31>    C        4.45990        -4.42456         1.27422
| 32>    C        4.96743        -4.06144         2.59858
| 33>    O        5.66427        -3.10149         2.81262
| 34>    O        4.63497        -4.89412         3.60691
| 35>    C        2.97262        -6.38138        -1.40826
| 36>    C        2.37460        -7.59080        -1.12953
| 37>    C        1.83326        -8.49541        -2.06866
| 38>    C        1.40089        -9.67717        -1.53130
| 39>    C        1.58631        -9.76857        -0.14140
| 40>    S        2.25377        -8.28339         0.47577
| 41>    C        1.37862       -10.84589         0.71286
| 42>    C        0.77295       -12.08374         0.44898
| 43>    C        0.75931       -12.92674         1.52929
| 44>    C        1.37235       -12.39313         2.67879
| 45>    S        1.95252       -10.78017         2.36227
| 46>    C        1.48346       -12.99885         3.92008
| 47>    C        2.18040       -12.46727         5.00423
| 48>    O        2.99544       -11.39021         4.84842
| 49>    C        3.58535       -11.12336         6.04644
| 50>    C        3.13326       -12.04292         6.99604
| 51>    C        2.24345       -12.89708         6.35301
| 52>    C        1.52320       -13.99658         7.01699
| 53>    O        1.95753       -14.59210         7.96398
| 54>    O        0.30300       -14.29588         6.51690
| 55>    C        4.50243       -10.08489         6.22477
| 56>    C        5.06805        -9.29571         5.24700
| 57>    C        5.95695        -8.21755         5.46631
| 58>    C        6.39783        -7.61293         4.32697
| 59>    C        5.89044        -8.19592         3.14546
| 60>    S        4.81527        -9.52692         3.53243
| 61>    C        6.12462        -7.80828         1.83995
| 62>    C        6.82925        -6.66403         1.38582
| 63>    C        6.74590        -6.45476         0.04858
| 64>    C        5.97520        -7.43212        -0.65435
| 65>    S        5.43795        -8.67187         0.48485
| 66>    C        5.60738        -7.42916        -1.94784
| 67>    H        4.60577        -1.71267        -9.69534
| 68>    H        3.86883        -3.16462        -8.84104
| 69>    H        5.89377         0.07313        -8.19850
| 70>    H        6.51023         0.49331        -5.73482
| 71>    H        6.80844         0.40538        -3.40528
| 72>    H        6.76093        -0.19799        -0.89929
| 73>    H        5.83796        -2.05141         0.73773
| 74>    H        3.33156        -6.32637         1.53710
| 75>    H        4.07641        -5.62479         3.31222
| 76>    H        2.99521        -6.05418        -2.43784
| 77>    H        1.79650        -8.25641        -3.11688
| 78>    H        0.98553       -10.48624        -2.10506
| 79>    H        0.35482       -12.32563        -0.51177
| 80>    H        0.33506       -13.91535         1.52320
| 81>    H        1.02107       -13.96797         4.04057
| 82>    H        3.41479       -12.08281         8.02807
| 83>    H        0.03070       -13.68546         5.81898
| 84>    H        4.80967        -9.90761         7.24537
| 85>    H        6.23621        -7.91757         6.46056
| 86>    H        7.06626        -6.77178         4.30834
| 87>    H        7.34510        -6.01195         2.06815
| 88>    H        7.18699        -5.62207        -0.47024
| 89>    H        5.93304        -6.64357        -2.60653
| 90>    H        5.02833        -8.22857        -2.37166
| 91> *
| 92>
| 93>                          ****END OF INPUT****

CARTESIAN COORDINATES (ANGSTROEM)
---------------------------------
  C      4.425370   -2.247490   -8.779680
  C      4.881610   -1.776060   -7.611210
  C      5.631260   -0.574420   -7.380830
  C      5.953260   -0.356970   -6.086370
  C      5.487680   -1.358300   -5.188800
  S      4.620950   -2.601700   -6.065790
  C      5.651360   -1.401010   -3.823520
  C      6.327800   -0.467130   -3.000660
  C      6.305130   -0.783090   -1.678110
  C      5.609330   -1.980530   -1.378110
  S      4.988670   -2.700860   -2.848250
  C      5.423300   -2.532930   -0.133750
  C      4.714690   -3.717960    0.082250
  O      4.157690   -4.379550   -0.955000
  C      3.551570   -5.501500   -0.478230
  C      3.713370   -5.552900    0.901490
  C      4.459900   -4.424560    1.274220
  C      4.967430   -4.061440    2.598580
  O      5.664270   -3.101490    2.812620
  O      4.634970   -4.894120    3.606910
  C      2.972620   -6.381380   -1.408260
  C      2.374600   -7.590800   -1.129530
  C      1.833260   -8.495410   -2.068660
  C      1.400890   -9.677170   -1.531300
  C      1.586310   -9.768570   -0.141400
  S      2.253770   -8.283390    0.475770
  C      1.378620  -10.845890    0.712860
  C      0.772950  -12.083740    0.448980
  C      0.759310  -12.926740    1.529290
  C      1.372350  -12.393130    2.678790
  S      1.952520  -10.780170    2.362270
  C      1.483460  -12.998850    3.920080
  C      2.180400  -12.467270    5.004230
  O      2.995440  -11.390210    4.848420
  C      3.585350  -11.123360    6.046440
  C      3.133260  -12.042920    6.996040
  C      2.243450  -12.897080    6.353010
  C      1.523200  -13.996580    7.016990
  O      1.957530  -14.592100    7.963980
  O      0.303000  -14.295880    6.516900
  C      4.502430  -10.084890    6.224770
  C      5.068050   -9.295710    5.247000
  C      5.956950   -8.217550    5.466310
  C      6.397830   -7.612930    4.326970
  C      5.890440   -8.195920    3.145460
  S      4.815270   -9.526920    3.532430
  C      6.124620   -7.808280    1.839950
  C      6.829250   -6.664030    1.385820
  C      6.745900   -6.454760    0.048580
  C      5.975200   -7.432120   -0.654350
  S      5.437950   -8.671870    0.484850
  C      5.607380   -7.429160   -1.947840
  H      4.605770   -1.712670   -9.695340
  H      3.868830   -3.164620   -8.841040
  H      5.893770    0.073130   -8.198500
  H      6.510230    0.493310   -5.734820
  H      6.808440    0.405380   -3.405280
  H      6.760930   -0.197990   -0.899290
  H      5.837960   -2.051410    0.737730
  H      3.331560   -6.326370    1.537100
  H      4.076410   -5.624790    3.312220
  H      2.995210   -6.054180   -2.437840
  H      1.796500   -8.256410   -3.116880
  H      0.985530  -10.486240   -2.105060
  H      0.354820  -12.325630   -0.511770
  H      0.335060  -13.915350    1.523200
  H      1.021070  -13.967970    4.040570
  H      3.414790  -12.082810    8.028070
  H      0.030700  -13.685460    5.818980
  H      4.809670   -9.907610    7.245370
  H      6.236210   -7.917570    6.460560
  H      7.066260   -6.771780    4.308340
  H      7.345100   -6.011950    2.068150
  H      7.186990   -5.622070   -0.470240
  H      5.933040   -6.643570   -2.606530
  H      5.028330   -8.228570   -2.371660

 Total Charge           Charge          ....    0
 Multiplicity           Mult            ....    1
 Number of Electrons    NEL             ....  408
 Basis Dimension        Dim             ....  872

ORBITAL ENERGIES
----------------

  NO   OCC          E(Eh)            E(eV)
   0   2.0000     -88.951532     -2420.4942
   1   2.0000     -88.946807     -2420.3657
   2   2.0000     -88.945451     -2420.3288
   3   2.0000     -88.943856     -2420.2854
   4   2.0000     -88.942558     -2420.2500
   5   2.0000     -88.942351     -2420.2444
   6   2.0000     -19.298754      -525.1458
   7   2.0000     -19.293086      -524.9916
   8   2.0000     -19.253015      -523.9012
   9   2.0000     -19.249392      -523.8026
  10   2.0000     -19.191034      -522.2146
  11   2.0000     -19.186850      -522.1007
  12   2.0000     -10.398197      -282.9493
  13   2.0000     -10.394236      -282.8415
  14   2.0000     -10.345050      -281.5031
  15   2.0000     -10.343621      -281.4642
  16   2.0000     -10.338696      -281.3302
  17   2.0000     -10.334127      -281.2059
  18   2.0000     -10.318257      -280.7740
  19   2.0000     -10.314381      -280.6686
  20   2.0000     -10.313123      -280.6343
  21   2.0000     -10.310710      -280.5687
  22   2.0000     -10.310180      -280.5543
  23   2.0000     -10.309251      -280.5290
  24   2.0000     -10.307610      -280.4843
  25   2.0000     -10.307336      -280.4769
  26   2.0000     -10.304830      -280.4087
  27   2.0000     -10.304723      -280.4058
  28   2.0000     -10.304365      -280.3960
  29   2.0000     -10.303725      -280.3786
  30   2.0000     -10.295524      -280.1555
  31   2.0000     -10.292557      -280.0747
  32   2.0000     -10.292124      -280.0629
  33   2.0000     -10.291989      -280.0593
  34   2.0000     -10.286705      -279.9155
  35   2.0000     -10.286108      -279.8992
  36   2.0000     -10.285970      -279.8955
  37   2.0000     -10.284932      -279.8672
  38   2.0000     -10.284111      -279.8449
  39   2.0000     -10.283862      -279.8381
  40   2.0000     -10.283474      -279.8276
  41   2.0000     -10.283138      -279.8184
  42   2.0000     -10.282718      -279.8070
  43   2.0000     -10.281434      -279.7721
  44   2.0000     -10.279850      -279.7289
  45   2.0000     -10.279672      -279.7241
  46   2.0000     -10.279259      -279.7129
  47   2.0000     -10.278419      -279.6900
  48   2.0000     -10.278074      -279.6806
  49   2.0000     -10.277625      -279.6684
  50   2.0000     -10.277468      -279.6641
  51   2.0000     -10.273521      -279.5567
  52   2.0000      -8.046790      -218.9643
  53   2.0000      -8.042550      -218.8489
  54   2.0000      -8.042212      -218.8397
  55   2.0000      -8.039625      -218.7693
  56   2.0000      -8.038438      -218.7370
  57   2.0000      -8.038002      -218.7251
  58   2.0000      -6.016409      -163.7148
  59   2.0000      -6.012399      -163.6057
  60   2.0000      -6.012300      -163.6030
  61   2.0000      -6.012026      -163.5955
  62   2.0000      -6.009294      -163.5212
  63   2.0000      -6.008165      -163.4905
  64   2.0000      -6.008125      -163.4894
  65   2.0000      -6.008091      -163.4885
  66   2.0000      -6.008026      -163.4867
  67   2.0000      -6.007668      -163.4770
  68   2.0000      -6.005017      -163.4048
  69   2.0000      -6.004049      -163.3785
  70   2.0000      -6.003508      -163.3638
  71   2.0000      -6.003434      -163.3617
  72   2.0000      -6.002762      -163.3435
  73   2.0000      -6.000845      -163.2913
  74   2.0000      -5.999587      -163.2571
  75   2.0000      -5.999161      -163.2455
  76   2.0000      -1.217431       -33.1280
  77   2.0000      -1.209592       -32.9147
  78   2.0000      -1.173936       -31.9444
  79   2.0000      -1.169590       -31.8262
  80   2.0000      -1.088214       -29.6118
  81   2.0000      -1.084878       -29.5210
  82   2.0000      -0.997433       -27.1415
  83   2.0000      -0.996572       -27.1181
  84   2.0000      -0.990085       -26.9416
  85   2.0000      -0.975443       -26.5432
  86   2.0000      -0.974194       -26.5092
  87   2.0000      -0.967559       -26.3286
  88   2.0000      -0.917992       -24.9798
  89   2.0000      -0.912351       -24.8263
  90   2.0000      -0.911023       -24.7902
  91   2.0000      -0.907933       -24.7061
  92   2.0000      -0.890576       -24.2338
  93   2.0000      -0.880235       -23.9524
  94   2.0000      -0.868372       -23.6296
  95   2.0000      -0.859805       -23.3965
  96   2.0000      -0.850048       -23.1310
  97   2.0000      -0.848230       -23.0815
  98   2.0000      -0.841392       -22.8954
  99   2.0000      -0.831800       -22.6344
 100   2.0000      -0.823836       -22.4177
 101   2.0000      -0.822401       -22.3787
 102   2.0000      -0.819196       -22.2915
 103   2.0000      -0.811927       -22.0937
 104   2.0000      -0.798718       -21.7342
 105   2.0000      -0.781178       -21.2569
 106   2.0000      -0.763390       -20.7729
 107   2.0000      -0.748325       -20.3630
 108   2.0000      -0.741353       -20.1732
 109   2.0000      -0.732177       -19.9236
 110   2.0000      -0.722549       -19.6616
 111   2.0000      -0.706959       -19.2373
 112   2.0000      -0.696591       -18.9552
 113   2.0000      -0.690269       -18.7832
 114   2.0000      -0.687839       -18.7171
 115   2.0000      -0.681887       -18.5551
 116   2.0000      -0.677316       -18.4307
 117   2.0000      -0.675658       -18.3856
 118   2.0000      -0.671484       -18.2720
 119   2.0000      -0.652402       -17.7528
 120   2.0000      -0.649653       -17.6780
 121   2.0000      -0.637420       -17.3451
 122   2.0000      -0.630412       -17.1544
 123   2.0000      -0.625625       -17.0241
 124   2.0000      -0.618526       -16.8309
 125   2.0000      -0.612796       -16.6750
 126   2.0000      -0.610190       -16.6041
 127   2.0000      -0.607362       -16.5272
 128   2.0000      -0.604858       -16.4590
 129   2.0000      -0.603239       -16.4150
 130   2.0000      -0.598139       -16.2762
 131   2.0000      -0.593056       -16.1379
 132   2.0000      -0.577540       -15.7157
 133   2.0000      -0.570369       -15.5205
 134   2.0000      -0.568587       -15.4720
 135   2.0000      -0.562095       -15.2954
 136   2.0000      -0.560729       -15.2582
 137   2.0000      -0.548648       -14.9295
 138   2.0000      -0.542012       -14.7489
 139   2.0000      -0.538480       -14.6528
 140   2.0000      -0.532402       -14.4874
 141   2.0000      -0.530132       -14.4256
 142   2.0000      -0.528642       -14.3851
 143   2.0000      -0.523228       -14.2378
 144   2.0000      -0.519612       -14.1394
 145   2.0000      -0.516200       -14.0465
 146   2.0000      -0.512952       -13.9581
 147   2.0000      -0.511706       -13.9242
 148   2.0000      -0.508671       -13.8417
 149   2.0000      -0.507637       -13.8135
 150   2.0000      -0.504830       -13.7371
 151   2.0000      -0.501787       -13.6543
 152   2.0000      -0.500524       -13.6199
 153   2.0000      -0.497869       -13.5477
 154   2.0000      -0.496223       -13.5029
 155   2.0000      -0.491056       -13.3623
 156   2.0000      -0.489892       -13.3306
 157   2.0000      -0.488484       -13.2923
 158   2.0000      -0.486457       -13.2372
 159   2.0000      -0.485671       -13.2158
 160   2.0000      -0.481396       -13.0994
 161   2.0000      -0.476469       -12.9654
 162   2.0000      -0.472179       -12.8486
 163   2.0000      -0.472098       -12.8464
 164   2.0000      -0.465564       -12.6686
 165   2.0000      -0.463766       -12.6197
 166   2.0000      -0.459097       -12.4927
 167   2.0000      -0.455099       -12.3839
 168   2.0000      -0.455022       -12.3818
 169   2.0000      -0.450819       -12.2674
 170   2.0000      -0.448358       -12.2004
 171   2.0000      -0.443311       -12.0631
 172   2.0000      -0.435325       -11.8458
 173   2.0000      -0.433570       -11.7980
 174   2.0000      -0.431266       -11.7353
 175   2.0000      -0.425669       -11.5830
 176   2.0000      -0.422573       -11.4988
 177   2.0000      -0.416875       -11.3437
 178   2.0000      -0.413638       -11.2557
 179   2.0000      -0.403594       -10.9823
 180   2.0000      -0.402301       -10.9472
 181   2.0000      -0.396693       -10.7946
 182   2.0000      -0.391626       -10.6567
 183   2.0000      -0.388926       -10.5832
 184   2.0000      -0.384775       -10.4703
 185   2.0000      -0.381935       -10.3930
 186   2.0000      -0.374888       -10.2012
 187   2.0000      -0.368199       -10.0192
 188   2.0000      -0.364881        -9.9289
 189   2.0000      -0.349233        -9.5031
 190   2.0000      -0.347722        -9.4620
 191   2.0000      -0.345935        -9.4134
 192   2.0000      -0.342191        -9.3115
 193   2.0000      -0.340345        -9.2613
 194   2.0000      -0.328035        -8.9263
 195   2.0000      -0.326388        -8.8815
 196   2.0000      -0.323543        -8.8041
 197   2.0000      -0.315948        -8.5974
 198   2.0000      -0.308174        -8.3858
 199   2.0000      -0.301817        -8.2128
 200   2.0000      -0.278963        -7.5910
 201   2.0000      -0.232652        -6.3308
 202   2.0000      -0.216198        -5.8830
 203   2.0000      -0.197334        -5.3697
 204   0.0000      -0.093105        -2.5335
 205   0.0000      -0.068541        -1.8651
 206   0.0000      -0.062808        -1.7091
 207   0.0000      -0.011247        -0.3060
 208   0.0000      -0.001304        -0.0355

MULLIKEN ATOMIC CHARGES
-----------------------
   0 C :   -0.024185
   1 C :   -0.065691
   2 C :    0.055330
   3 C :    0.030256
   4 C :   -0.065192
   5 S :    0.082224
   6 C :   -0.048948
   7 C :    0.032213
   8 C :    0.031231
   9 C :   -0.002294
  10 S :    0.097853
  11 C :   -0.074480
  12 C :    0.116878
  13 O :   -0.228174
  14 C :    0.177927
  15 C :   -0.110205
  16 C :   -0.013772
  17 C :    0.143461
  18 O :   -0.186674
  19 O :   -0.163217
  20 C :    0.018750
  21 C :   -0.058600
  22 C :    0.030812
  23 C :    0.027626
  24 C :   -0.038756
  25 S :    0.067860
  26 C :   -0.046729
  27 C :    0.023985
  28 C :    0.020066
  29 C :   -0.019568
  30 S :    0.120604
  31 C :   -0.125693
  32 C :    0.159184
  33 O :   -0.241718
  34 C :    0.188948
  35 C :   -0.047027
  36 C :   -0.044188
  37 C :    0.149829
  38 O :   -0.171654
  39 O :   -0.167147
  40 C :   -0.055303
  41 C :   -0.020942
  42 C :    0.024346
  43 C :    0.035628
  44 C :   -0.076770
  45 S :    0.114565
  46 C :   -0.098399
  47 C :    0.031766
  48 C :    0.054535
  49 C :   -0.112833
  50 S :    0.108473
  51 C :    0.034070
  52 H :    0.023559
  53 H :    0.023652
  54 H :   -0.008154
  55 H :   -0.009095
  56 H :   -0.013076
  57 H :   -0.005590
  58 H :    0.015256
  59 H :    0.003758
  60 H :    0.186134
  61 H :   -0.002572
  62 H :   -0.014549
  63 H :   -0.014848
  64 H :   -0.017397
  65 H :   -0.015345
  66 H :   -0.005288
  67 H :   -0.000803
  68 H :    0.175944
  69 H :   -0.006973
  70 H :   -0.012336
  71 H :   -0.005062
  72 H :    0.002926
  73 H :   -0.006012
  74 H :    0.023978
  75 H :    0.011634
Sum of atomic charges:   -0.0000000

LOEWDIN ATOMIC CHARGES
----------------------
   0 C :   -0.068751
   1 C :   -0.140270
   2 C :   -0.025867
   3 C :   -0.026690
   4 C :   -0.167632
   5 S :    0.354202
   6 C :   -0.189713
   7 C :   -0.025179
   8 C :   -0.035169
   9 C :   -0.129105
  10 S :    0.384485
  11 C :   -0.085096
  12 C :    0.067063
  13 O :    0.008964
  14 C :    0.029855
  15 C :   -0.065245
  16 C :   -0.126797
  17 C :    0.080979
  18 O :   -0.174056
  19 O :   -0.031197
  20 C :   -0.054707
  21 C :   -0.152966
  22 C :   -0.042541
  23 C :   -0.039142
  24 C :   -0.182014
  25 S :    0.411096
  26 C :   -0.188172
  27 C :   -0.038257
  28 C :   -0.045386
  29 C :   -0.147293
  30 S :    0.413155
  31 C :   -0.116072
  32 C :    0.038516
  33 O :   -0.013201
  34 C :    0.030291
  35 C :   -0.014627
  36 C :   -0.117527
  37 C :    0.079765
  38 O :   -0.155024
  39 O :   -0.037577
  40 C :   -0.080393
  41 C :   -0.154456
  42 C :   -0.037077
  43 C :   -0.035092
  44 C :   -0.195345
  45 S :    0.396139
  46 C :   -0.188030
  47 C :   -0.030117
  48 C :   -0.034330
  49 C :   -0.146761
  50 S :    0.389318
  51 C :   -0.058540
  52 H :    0.030276
  53 H :    0.027282
  54 H :    0.034903
  55 H :    0.033504
  56 H :    0.031527
  57 H :    0.036487
  58 H :    0.047249
  59 H :    0.011681
  60 H :    0.091922
  61 H :    0.043166
  62 H :    0.032362
  63 H :    0.032294
  64 H :    0.030371
  65 H :    0.031766
  66 H :    0.036170
  67 H :    0.040189
  68 H :    0.083765
  69 H :    0.044235
  70 H :    0.033380
  71 H :    0.034255
  72 H :    0.035664
  73 H :    0.034642
  74 H :    0.029763
  75 H :    0.024734

  Mayer bond orders larger than 0.100000
B(  0-C ,  1-C ) :   1.8625 B(  0-C , 52-H ) :   0.9510 B(  0-C , 53-H ) :   0.9419
B(  1-C ,  2-C ) :   1.0813 B(  1-C ,  5-S ) :   1.0054 B(  2-C ,  3-C ) :   1.6584
B(  2-C , 54-H ) :   0.9929 B(  3-C ,  4-C ) :   1.1565 B(  3-C , 55-H ) :   0.9916
B(  4-C ,  5-S ) :   1.0524 B(  4-C ,  6-C ) :   1.5487 B(  6-C ,  7-C ) :   1.1776
B(  6-C , 10-S ) :   1.0147 B(  7-C ,  8-C ) :   1.5921 B(  7-C , 56-H ) :   0.9942
B(  8-C ,  9-C ) :   1.1444 B(  8-C , 57-H ) :   1.0018 B(  9-C , 10-S ) :   1.0580
B(  9-C , 11-C ) :   1.4973 B( 11-C , 12-C ) :   1.2547 B( 11-C , 58-H ) :   0.9558
B( 12-C , 13-O ) :   1.1398 B( 12-C , 16-C ) :   1.3566 B( 13-O , 14-C ) :   1.0834
B( 14-C , 15-C ) :   1.4623 B( 14-C , 20-C ) :   1.1905 B( 15-C , 16-C ) :   1.2153
B( 15-C , 59-H ) :   0.9621 B( 16-C , 17-C ) :   0.9364 B( 17-C , 18-O ) :   2.1359
B( 17-C , 19-O ) :   1.2429 B( 19-O , 60-H ) :   0.9514 B( 20-C , 21-C ) :   1.4837
B( 20-C , 61-H ) :   0.9554 B( 21-C , 22-C ) :   1.1977 B( 21-C , 25-S ) :   1.0562
B( 22-C , 23-C ) :   1.5225 B( 22-C , 62-H ) :   1.0003 B( 23-C , 24-C ) :   1.2473
B( 23-C , 63-H ) :   0.9937 B( 24-C , 25-S ) :   1.0798 B( 24-C , 26-C ) :   1.3831
B( 26-C , 27-C ) :   1.2696 B( 26-C , 30-S ) :   1.0593 B( 27-C , 28-C ) :   1.4951
B( 27-C , 64-H ) :   0.9956 B( 28-C , 29-C ) :   1.2236 B( 28-C , 65-H ) :   0.9993
B( 29-C , 30-S ) :   1.0817 B( 29-C , 31-C ) :   1.4300 B( 31-C , 32-C ) :   1.2859
B( 31-C , 66-H ) :   0.9533 B( 32-C , 33-O ) :   1.1204 B( 32-C , 36-C ) :   1.2656
B( 33-O , 34-C ) :   1.0911 B( 34-C , 35-C ) :   1.3057 B( 34-C , 40-C ) :   1.2640
B( 35-C , 36-C ) :   1.3529 B( 35-C , 67-H ) :   1.0224 B( 36-C , 37-C ) :   0.9070
B( 37-C , 38-O ) :   2.2149 B( 37-C , 39-O ) :   1.2193 B( 39-O , 68-H ) :   0.9487
B( 40-C , 41-C ) :   1.4630 B( 40-C , 69-H ) :   0.9627 B( 41-C , 42-C ) :   1.1873
B( 41-C , 45-S ) :   1.0561 B( 42-C , 43-C ) :   1.5371 B( 42-C , 70-H ) :   1.0019
B( 43-C , 44-C ) :   1.2219 B( 43-C , 71-H ) :   0.9957 B( 44-C , 45-S ) :   1.0486
B( 44-C , 46-C ) :   1.4549 B( 46-C , 47-C ) :   1.1964 B( 46-C , 50-S ) :   1.0763
B( 47-C , 48-C ) :   1.6032 B( 47-C , 72-H ) :   0.9897 B( 48-C , 49-C ) :   1.1142
B( 48-C , 73-H ) :   0.9903 B( 49-C , 50-S ) :   1.0251 B( 49-C , 51-C ) :   1.8076
B( 51-C , 74-H ) :   0.9450 B( 51-C , 75-H ) :   0.9245

-----------------------------------------------------------------------------
         ABSORPTION SPECTRUM VIA TRANSITION ELECTRIC DIPOLE MOMENTS
-----------------------------------------------------------------------------
State   Energy  Wavelength   fosc         T2         TX        TY        TZ
        (cm-1)    (nm)                  (au**2)     (au)      (au)      (au)
-----------------------------------------------------------------------------
   0    9039.1   1106.3   0.468213356  17.05269   0.55121  -2.74743   3.03323
   1   10681.3    936.2   0.104374605   3.21696   0.39799   1.44528  -0.98476
   2   15040.2    664.9   0.181238943   3.96710  -0.90328  -1.00745   1.46158
   3   15998.0    625.1   1.100763378  22.65181  -2.25538  -3.02323   2.90261
   4   16638.3    601.0   0.153844914   3.04404   1.25001   1.20518  -0.17047
   5   19193.8    521.0   0.114498101   1.96387  -0.73631  -0.30247  -1.15336
   6   20953.6    477.2   0.540748173   8.49596  -0.89946  -2.20732   1.67770
   7   22646.3    441.6   0.327342282   4.75862  -0.91847  -0.41561  -1.93450
   8   23258.8    429.9   0.554114172   7.84310  -0.07851  -0.65339   2.72214
   9   24773.6    403.7   0.040780492   0.54192  -0.11290   0.27783  -0.67230
  10   27046.8    369.7   0.321557398   3.91397  -0.67641  -0.84329  -1.65690
  11   28135.6    355.4   0.239166788   2.79847  -0.18379   0.16118  -1.65491
  12   28316.2    353.2   0.458869725   5.33494  -0.74011  -0.94629  -1.97274
  13   28836.0    346.8   0.229035398   2.61483   0.80196   1.04615   0.93663
  14   29789.2    335.7   0.055576072   0.61419   0.27309   0.48889  -0.54827
  15   31028.8    322.3   0.005852637   0.06210  -0.12930  -0.03140   0.21070
  16   31760.8    314.9   0.002588757   0.02683   0.10376  -0.03082  -0.12295
  17   32034.2    312.2   0.112930146   1.16057   0.04062   0.23375   1.05085
  18   32452.5    308.1   0.015315246   0.15536  -0.04069  -0.25361  -0.29898
  19   32833.0    304.6   0.016104097   0.16147  -0.00357   0.39012  -0.09626
  20   32870.4    304.2   0.025427935   0.25467   0.10294  -0.02395   0.49346
  21   33034.6    302.7   0.049628324   0.49458   0.37849   0.43112   0.40677
  22   33485.6    298.6   0.036829539   0.36209  -0.33406  -0.50031   0.01364
  23   33922.2    294.8   0.015219638   0.14771  -0.00365   0.38195   0.04250
  24   34516.9    289.7   0.003580625   0.03415  -0.12823   0.08649  -0.10113
  25   34825.0    287.1   0.001579193   0.01493   0.10075   0.06541  -0.02234
  26   34968.0    286.0   0.005318027   0.05007  -0.14005  -0.17160   0.03171
  27   35544.8    281.3   0.097577270   0.90375  -0.18582  -0.46287   0.80931
  28   35778.6    279.5   0.003349741   0.03082  -0.13538   0.01262  -0.11107
  29   35812.9    279.2   0.004554799   0.04187   0.09637  -0.06848   0.16701
  30   36281.7    275.6   0.029632985   0.26888   0.27464   0.06659   0.43477
  31   36877.7    271.2   0.009516430   0.08495  -0.26936  -0.11129  -0.00363
  32   37094.4    269.6   0.077078642   0.68407   0.15570   0.52310  -0.62145
  33   37273.9    268.3   0.024056259   0.21247   0.00708  -0.24659   0.38938
  34   37454.9    267.0   0.048975539   0.43047   0.04781   0.32813  -0.56614
  35   37774.9    264.7   0.001910660   0.01665   0.08123   0.08859   0.04697
  36   37853.3    264.2   0.028970324   0.25196   0.31681   0.28445   0.26585
  37   38291.3    261.2   0.033555533   0.28850   0.05899   0.26554  -0.46315
  38   38826.8    257.6   0.004985641   0.04227  -0.05910   0.10114   0.16897
  39   38940.1    256.8   0.058455651   0.49420  -0.36364  -0.34527  -0.49270
  40   39120.3    255.6   0.050736177   0.42696  -0.02208  -0.20727  -0.61929
  41   39298.8    254.5   0.019819185   0.16603   0.19995   0.16687   0.31337
  42   39488.1    253.2   0.010270470   0.08562  -0.02898  -0.20968  -0.20204
  43   39816.0    251.2   0.007476476   0.06182   0.22648   0.09912   0.02642
  44   39937.1    250.4   0.007433568   0.06128  -0.20061  -0.03148   0.14157
  45   40211.7    248.7   0.023541007   0.19273   0.29177   0.20586   0.25538

FINAL SINGLE POINT ENERGY     -4375.876737713607

DIPOLE MOMENT
-------------
                                X             Y             Z
Electronic contribution:     -5.61173     -10.97714      16.35594
Nuclear contribution   :      5.85097      13.03561     -20.15820
                        -----------------------------------------
Total Dipole Moment    :      0.23924       2.05848      -3.80226
                        -----------------------------------------
Magnitude (a.u.)       :      4.33033
Magnitude (Debye)      :     11.00682

Rotational constants in cm-1:     0.003614     0.000688     0.000608
Rotational constants in MHz :   108.346419    20.619782    18.224801

                             ****ORCA TERMINATED NORMALLY****
TOTAL RUN TIME: 0 days 0 hours 7 minutes 49 seconds 963 msec
