                         Program Version 4.2.0 -  RELEASE  -
|  1> # ORCA input file
|  2> # SCF done       -194.857754652990          0.000362891945
|  3> ! CAM-B3LYP def2-SVP def2/J RIJCOSX Grid4 TightSCF
|  4> %maxcore 5000
|  5> %tddft
|  6>     Mode sTDDFT
|  7>     Ethresh 5.0
|  8>     maxcore 5000
|  9> end
| 10>
| 11> %pal
| 12>   nprocs 6
| 13>   end
| 14> * xyz 0 1
| 15>    C        1.34746        -5.72566        -8.11963
| 16>    C        2.60291        -5.26353        -7.82843
| 17>    F        3.62191        -6.13209        -7.75132
| 18>    C        2.88380        -3.89964        -7.57886
| 19>    F        4.13559        -3.58165        -7.24054
| 20>    C        1.90027        -2.92788        -7.59822
| 21>    C        0.60565        -3.38107        -7.93851
| 22>    C        0.33563        -4.76206        -8.18091
| 23>    N       -0.97669        -4.86638        -8.45063
| 24>    N       -1.41973        -3.64068        -8.38336
| 25>    N       -0.55047        -2.71795        -8.09363
| 26>    C       -2.79732        -3.32898        -8.60308
| 27>    C        2.15982        -1.53682        -7.28054
| 28>    N        3.18241        -0.88463        -7.77564
| 29>    C        3.03517         0.40257        -7.36669
| 30>    C        1.81176         0.56060        -6.57036
| 31>    C        1.64555         1.95738        -6.14050
| 32>    O        0.75001         2.44782        -5.48990
| 33>    C        2.84430         2.60766        -6.71277
| 34>    C        3.65893         1.61905        -7.45646
| 35>    N        4.77043         2.20683        -7.96867
| 36>    C        4.70217         3.45707        -7.59112
| 37>    C        3.52900         3.77471        -6.79556
| 38>    C        1.25832        -0.68717        -6.46266
| 39>    C        0.08177        -1.11229        -5.78138
| 40>    C       -0.09003        -2.35599        -5.28328
| 41>    C       -1.31837        -2.92547        -4.79944
| 42>    C       -2.53541        -2.30082        -4.97004
| 43>    C       -3.72891        -2.95388        -4.61227
| 44>    C       -5.05854        -2.56076        -4.70516
| 45>    C       -5.62704        -1.28029        -5.21561
| 46>    C       -5.15882        -0.06735        -4.38927
| 47>    N       -5.88166         1.11875        -4.81233
| 48>    C       -5.30853        -1.06652        -6.70431
| 49>    N       -5.68047        -2.24844        -7.47493
| 50>    C       -5.85036        -3.65890        -4.20690
| 51>    C       -7.17920        -3.78815        -4.03731
| 52>    C       -7.77934        -5.04289        -3.49721
| 53>    C       -6.79762        -6.12052        -3.18180
| 54>    C       -5.46755        -5.96170        -3.32219
| 55>    C       -4.94088        -4.74723        -3.82155
| 56>    C       -3.65618        -4.30200        -4.05905
| 57>    C       -2.39211        -4.90648        -3.85992
| 58>    C       -1.26918        -4.23847        -4.22176
| 59>    C       -8.86701        -5.44861        -4.45245
| 60>    C       -8.84459        -6.53778        -5.23132
| 61>    C       -9.92491        -6.81442        -6.13144
| 62>    N      -11.05503        -6.12804        -6.05935
| 63>    C      -11.89044        -6.68435        -6.95917
| 64>    C      -11.24933        -7.82033        -7.64052
| 65>    C      -12.16788        -8.42406        -8.62276
| 66>    O      -11.97770        -9.36526        -9.35746
| 67>    C      -13.37450        -7.58177        -8.48472
| 68>    C      -13.15810        -6.53566        -7.46126
| 69>    N      -14.25501        -5.74566        -7.34514
| 70>    C      -15.11233        -6.22320        -8.21327
| 71>    C      -14.62539        -7.36425        -8.96335
| 72>    C       -9.97302        -7.89256        -7.15116
| 73>    C       -8.94853        -8.80949        -7.54955
| 74>    C       -7.62786        -8.55742        -7.46680
| 75>    C       -6.54464        -9.42974        -7.84322
| 76>    C       -6.62669       -10.70421        -8.38395
| 77>    F       -7.81846       -11.27428        -8.62188
| 78>    C       -5.48611       -11.47000        -8.70964
| 79>    F       -5.69165       -12.69055        -9.23232
| 80>    C       -4.20289       -11.03260        -8.51586
| 81>    C       -4.07217        -9.75548        -7.96110
| 82>    C       -5.22081        -8.97315        -7.63559
| 83>    N       -4.78053        -7.81760        -7.11468
| 84>    N       -3.48070        -7.92774        -7.14080
| 85>    N       -2.99139        -9.03434        -7.62256
| 86>    C       -2.63887        -6.87929        -6.65776
| 87>    H        1.15658        -6.77084        -8.29339
| 88>    H       -3.22435        -4.07662        -9.26733
| 89>    H       -2.85970        -2.33834        -9.04739
| 90>    H       -3.35515        -3.32815        -7.66352
| 91>    H        5.47204         4.15370        -7.87466
| 92>    H        3.29524         4.73842        -6.38798
| 93>    H       -0.68420        -0.35728        -5.67335
| 94>    H        0.75934        -3.02903        -5.27874
| 95>    H       -2.57521        -1.31671        -5.40608
| 96>    H       -6.71807        -1.33110        -5.12323
| 97>    H       -4.09702         0.11170        -4.56366
| 98>    H       -5.28833        -0.30455        -3.31943
| 99>    H       -6.85478         1.06433        -4.52995
|100>    H       -5.48255         1.94919        -4.39114
|101>    H       -4.23593        -0.91410        -6.84065
|102>    H       -5.82277        -0.14835        -7.02227
|103>    H       -6.65146        -2.48552        -7.29484
|104>    H       -5.60348        -2.04777        -8.46682
|105>    H       -7.87381        -3.00087        -4.29635
|106>    H       -8.29108        -4.77423        -2.55671
|107>    H       -7.21397        -7.04144        -2.80334
|108>    H       -4.78801        -6.75901        -3.05867
|109>    H       -2.33689        -5.89234        -3.42226
|110>    H       -0.29762        -4.68989        -4.08062
|111>    H       -9.71039        -4.77677        -4.53429
|112>    H       -8.02271        -7.23581        -5.19050
|113>    H      -16.08368        -5.77210        -8.32092
|114>    H      -15.17137        -7.89181        -9.72011
|115>    H       -9.31724        -9.72341        -7.99332
|116>    H       -7.27908        -7.59805        -7.10903
|117>    H       -3.35309       -11.64030        -8.77332
|118>    H       -3.26464        -6.15287        -6.14440
|119>    H       -2.11273        -6.39800        -7.48757
|120>    H       -1.89925        -7.29541        -5.97528
|121> *
|122>
|123>                          ****END OF INPUT****

CARTESIAN COORDINATES (ANGSTROEM)
---------------------------------
  C      1.347460   -5.725660   -8.119630
  C      2.602910   -5.263530   -7.828430
  F      3.621910   -6.132090   -7.751320
  C      2.883800   -3.899640   -7.578860
  F      4.135590   -3.581650   -7.240540
  C      1.900270   -2.927880   -7.598220
  C      0.605650   -3.381070   -7.938510
  C      0.335630   -4.762060   -8.180910
  N     -0.976690   -4.866380   -8.450630
  N     -1.419730   -3.640680   -8.383360
  N     -0.550470   -2.717950   -8.093630
  C     -2.797320   -3.328980   -8.603080
  C      2.159820   -1.536820   -7.280540
  N      3.182410   -0.884630   -7.775640
  C      3.035170    0.402570   -7.366690
  C      1.811760    0.560600   -6.570360
  C      1.645550    1.957380   -6.140500
  O      0.750010    2.447820   -5.489900
  C      2.844300    2.607660   -6.712770
  C      3.658930    1.619050   -7.456460
  N      4.770430    2.206830   -7.968670
  C      4.702170    3.457070   -7.591120
  C      3.529000    3.774710   -6.795560
  C      1.258320   -0.687170   -6.462660
  C      0.081770   -1.112290   -5.781380
  C     -0.090030   -2.355990   -5.283280
  C     -1.318370   -2.925470   -4.799440
  C     -2.535410   -2.300820   -4.970040
  C     -3.728910   -2.953880   -4.612270
  C     -5.058540   -2.560760   -4.705160
  C     -5.627040   -1.280290   -5.215610
  C     -5.158820   -0.067350   -4.389270
  N     -5.881660    1.118750   -4.812330
  C     -5.308530   -1.066520   -6.704310
  N     -5.680470   -2.248440   -7.474930
  C     -5.850360   -3.658900   -4.206900
  C     -7.179200   -3.788150   -4.037310
  C     -7.779340   -5.042890   -3.497210
  C     -6.797620   -6.120520   -3.181800
  C     -5.467550   -5.961700   -3.322190
  C     -4.940880   -4.747230   -3.821550
  C     -3.656180   -4.302000   -4.059050
  C     -2.392110   -4.906480   -3.859920
  C     -1.269180   -4.238470   -4.221760
  C     -8.867010   -5.448610   -4.452450
  C     -8.844590   -6.537780   -5.231320
  C     -9.924910   -6.814420   -6.131440
  N    -11.055030   -6.128040   -6.059350
  C    -11.890440   -6.684350   -6.959170
  C    -11.249330   -7.820330   -7.640520
  C    -12.167880   -8.424060   -8.622760
  O    -11.977700   -9.365260   -9.357460
  C    -13.374500   -7.581770   -8.484720
  C    -13.158100   -6.535660   -7.461260
  N    -14.255010   -5.745660   -7.345140
  C    -15.112330   -6.223200   -8.213270
  C    -14.625390   -7.364250   -8.963350
  C     -9.973020   -7.892560   -7.151160
  C     -8.948530   -8.809490   -7.549550
  C     -7.627860   -8.557420   -7.466800
  C     -6.544640   -9.429740   -7.843220
  C     -6.626690  -10.704210   -8.383950
  F     -7.818460  -11.274280   -8.621880
  C     -5.486110  -11.470000   -8.709640
  F     -5.691650  -12.690550   -9.232320
  C     -4.202890  -11.032600   -8.515860
  C     -4.072170   -9.755480   -7.961100
  C     -5.220810   -8.973150   -7.635590
  N     -4.780530   -7.817600   -7.114680
  N     -3.480700   -7.927740   -7.140800
  N     -2.991390   -9.034340   -7.622560
  C     -2.638870   -6.879290   -6.657760
  H      1.156580   -6.770840   -8.293390
  H     -3.224350   -4.076620   -9.267330
  H     -2.859700   -2.338340   -9.047390
  H     -3.355150   -3.328150   -7.663520
  H      5.472040    4.153700   -7.874660
  H      3.295240    4.738420   -6.387980
  H     -0.684200   -0.357280   -5.673350
  H      0.759340   -3.029030   -5.278740
  H     -2.575210   -1.316710   -5.406080
  H     -6.718070   -1.331100   -5.123230
  H     -4.097020    0.111700   -4.563660
  H     -5.288330   -0.304550   -3.319430
  H     -6.854780    1.064330   -4.529950
  H     -5.482550    1.949190   -4.391140
  H     -4.235930   -0.914100   -6.840650
  H     -5.822770   -0.148350   -7.022270
  H     -6.651460   -2.485520   -7.294840
  H     -5.603480   -2.047770   -8.466820
  H     -7.873810   -3.000870   -4.296350
  H     -8.291080   -4.774230   -2.556710
  H     -7.213970   -7.041440   -2.803340
  H     -4.788010   -6.759010   -3.058670
  H     -2.336890   -5.892340   -3.422260
  H     -0.297620   -4.689890   -4.080620
  H     -9.710390   -4.776770   -4.534290
  H     -8.022710   -7.235810   -5.190500
  H    -16.083680   -5.772100   -8.320920
  H    -15.171370   -7.891810   -9.720110
  H     -9.317240   -9.723410   -7.993320
  H     -7.279080   -7.598050   -7.109030
  H     -3.353090  -11.640300   -8.773320
  H     -3.264640   -6.152870   -6.144400
  H     -2.112730   -6.398000   -7.487570
  H     -1.899250   -7.295410   -5.975280

 Total Charge           Charge          ....    0
 Multiplicity           Mult            ....    1
 Number of Electrons    NEL             ....  494
 Basis Dimension        Dim             .... 1178

ORBITAL ENERGIES
----------------

  NO   OCC          E(Eh)            E(eV)
   0   2.0000     -24.796720      -674.7531
   1   2.0000     -24.793764      -674.6726
   2   2.0000     -24.791791      -674.6189
   3   2.0000     -24.782217      -674.3584
   4   2.0000     -19.206292      -522.6298
   5   2.0000     -19.204903      -522.5920
   6   2.0000     -14.553779      -396.0285
   7   2.0000     -14.538875      -395.6229
   8   2.0000     -14.454188      -393.3185
   9   2.0000     -14.452647      -393.2765
  10   2.0000     -14.440798      -392.9541
  11   2.0000     -14.437720      -392.8703
  12   2.0000     -14.411950      -392.1691
  13   2.0000     -14.407196      -392.0397
  14   2.0000     -14.404303      -391.9610
  15   2.0000     -14.402530      -391.9128
  16   2.0000     -14.391780      -391.6203
  17   2.0000     -14.387597      -391.5064
  18   2.0000     -10.386573      -282.6330
  19   2.0000     -10.380276      -282.4617
  20   2.0000     -10.369751      -282.1753
  21   2.0000     -10.367025      -282.1011
  22   2.0000     -10.366979      -282.0998
  23   2.0000     -10.366067      -282.0750
  24   2.0000     -10.347302      -281.5644
  25   2.0000     -10.343511      -281.4612
  26   2.0000     -10.330357      -281.1033
  27   2.0000     -10.329886      -281.0905
  28   2.0000     -10.324111      -280.9333
  29   2.0000     -10.322888      -280.9001
  30   2.0000     -10.321572      -280.8643
  31   2.0000     -10.320920      -280.8465
  32   2.0000     -10.320359      -280.8313
  33   2.0000     -10.319876      -280.8181
  34   2.0000     -10.319003      -280.7943
  35   2.0000     -10.315424      -280.6970
  36   2.0000     -10.313485      -280.6442
  37   2.0000     -10.309658      -280.5401
  38   2.0000     -10.309531      -280.5366
  39   2.0000     -10.305467      -280.4260
  40   2.0000     -10.305349      -280.4228
  41   2.0000     -10.304585      -280.4020
  42   2.0000     -10.302815      -280.3539
  43   2.0000     -10.302151      -280.3358
  44   2.0000     -10.301506      -280.3182
  45   2.0000     -10.301073      -280.3064
  46   2.0000     -10.291679      -280.0508
  47   2.0000     -10.289858      -280.0013
  48   2.0000     -10.289423      -279.9894
  49   2.0000     -10.289090      -279.9804
  50   2.0000     -10.289023      -279.9786
  51   2.0000     -10.286716      -279.9158
  52   2.0000     -10.286599      -279.9126
  53   2.0000     -10.285892      -279.8933
  54   2.0000     -10.285690      -279.8879
  55   2.0000     -10.285438      -279.8810
  56   2.0000     -10.285126      -279.8725
  57   2.0000     -10.284528      -279.8562
  58   2.0000     -10.283790      -279.8361
  59   2.0000     -10.283570      -279.8302
  60   2.0000     -10.282813      -279.8096
  61   2.0000     -10.282698      -279.8064
  62   2.0000     -10.280213      -279.7388
  63   2.0000     -10.279423      -279.7173
  64   2.0000     -10.279202      -279.7113
  65   2.0000     -10.277727      -279.6712
  66   2.0000     -10.277339      -279.6606
  67   2.0000     -10.277211      -279.6571
  68   2.0000     -10.273323      -279.5513
  69   2.0000     -10.272767      -279.5362
  70   2.0000     -10.271835      -279.5108
  71   2.0000     -10.269964      -279.4599
  72   2.0000      -1.320363       -35.9289
  73   2.0000      -1.311420       -35.6856
  74   2.0000      -1.303082       -35.4587
  75   2.0000      -1.292142       -35.1610
  76   2.0000      -1.231472       -33.5101
  77   2.0000      -1.216505       -33.1028
  78   2.0000      -1.120572       -30.4923
  79   2.0000      -1.120219       -30.4827
  80   2.0000      -1.078256       -29.3408
  81   2.0000      -1.075659       -29.2702
  82   2.0000      -1.059004       -28.8170
  83   2.0000      -1.056169       -28.7398
  84   2.0000      -1.004379       -27.3305
  85   2.0000      -0.996079       -27.1047
  86   2.0000      -0.994011       -27.0484
  87   2.0000      -0.990278       -26.9468
  88   2.0000      -0.982466       -26.7343
  89   2.0000      -0.976058       -26.5599
  90   2.0000      -0.961206       -26.1558
  91   2.0000      -0.958291       -26.0764
  92   2.0000      -0.938242       -25.5309
  93   2.0000      -0.936950       -25.4957
  94   2.0000      -0.929658       -25.2973
  95   2.0000      -0.927519       -25.2391
  96   2.0000      -0.924004       -25.1434
  97   2.0000      -0.911612       -24.8062
  98   2.0000      -0.905680       -24.6448
  99   2.0000      -0.889146       -24.1949
 100   2.0000      -0.883504       -24.0414
 101   2.0000      -0.876107       -23.8401
 102   2.0000      -0.872271       -23.7357
 103   2.0000      -0.856697       -23.3119
 104   2.0000      -0.854660       -23.2565
 105   2.0000      -0.849371       -23.1126
 106   2.0000      -0.843466       -22.9519
 107   2.0000      -0.833965       -22.6933
 108   2.0000      -0.823929       -22.4203
 109   2.0000      -0.823552       -22.4100
 110   2.0000      -0.809208       -22.0197
 111   2.0000      -0.807488       -21.9729
 112   2.0000      -0.782659       -21.2972
 113   2.0000      -0.770509       -20.9666
 114   2.0000      -0.766991       -20.8709
 115   2.0000      -0.759469       -20.6662
 116   2.0000      -0.750214       -20.4144
 117   2.0000      -0.744162       -20.2497
 118   2.0000      -0.738933       -20.1074
 119   2.0000      -0.737573       -20.0704
 120   2.0000      -0.735535       -20.0149
 121   2.0000      -0.729285       -19.8448
 122   2.0000      -0.729007       -19.8373
 123   2.0000      -0.714419       -19.4403
 124   2.0000      -0.710717       -19.3396
 125   2.0000      -0.700872       -19.0717
 126   2.0000      -0.695715       -18.9314
 127   2.0000      -0.686816       -18.6892
 128   2.0000      -0.680445       -18.5158
 129   2.0000      -0.674838       -18.3633
 130   2.0000      -0.665329       -18.1045
 131   2.0000      -0.664271       -18.0757
 132   2.0000      -0.656835       -17.8734
 133   2.0000      -0.651579       -17.7304
 134   2.0000      -0.648189       -17.6381
 135   2.0000      -0.646868       -17.6022
 136   2.0000      -0.643097       -17.4996
 137   2.0000      -0.640823       -17.4377
 138   2.0000      -0.634983       -17.2788
 139   2.0000      -0.632973       -17.2241
 140   2.0000      -0.628419       -17.1001
 141   2.0000      -0.624317       -16.9885
 142   2.0000      -0.618468       -16.8294
 143   2.0000      -0.616752       -16.7827
 144   2.0000      -0.613397       -16.6914
 145   2.0000      -0.605070       -16.4648
 146   2.0000      -0.600171       -16.3315
 147   2.0000      -0.598665       -16.2905
 148   2.0000      -0.593654       -16.1541
 149   2.0000      -0.590293       -16.0627
 150   2.0000      -0.583169       -15.8688
 151   2.0000      -0.582829       -15.8596
 152   2.0000      -0.581546       -15.8247
 153   2.0000      -0.578335       -15.7373
 154   2.0000      -0.574757       -15.6399
 155   2.0000      -0.573610       -15.6087
 156   2.0000      -0.572243       -15.5715
 157   2.0000      -0.569310       -15.4917
 158   2.0000      -0.565036       -15.3754
 159   2.0000      -0.563969       -15.3464
 160   2.0000      -0.560382       -15.2488
 161   2.0000      -0.554734       -15.0951
 162   2.0000      -0.549368       -14.9491
 163   2.0000      -0.546507       -14.8712
 164   2.0000      -0.545846       -14.8532
 165   2.0000      -0.544001       -14.8030
 166   2.0000      -0.539967       -14.6933
 167   2.0000      -0.539087       -14.6693
 168   2.0000      -0.537811       -14.6346
 169   2.0000      -0.537468       -14.6252
 170   2.0000      -0.535106       -14.5610
 171   2.0000      -0.532512       -14.4904
 172   2.0000      -0.531191       -14.4544
 173   2.0000      -0.529318       -14.4035
 174   2.0000      -0.526410       -14.3243
 175   2.0000      -0.523517       -14.2456
 176   2.0000      -0.519749       -14.1431
 177   2.0000      -0.518923       -14.1206
 178   2.0000      -0.515970       -14.0403
 179   2.0000      -0.511665       -13.9231
 180   2.0000      -0.508644       -13.8409
 181   2.0000      -0.507941       -13.8218
 182   2.0000      -0.506209       -13.7746
 183   2.0000      -0.504635       -13.7318
 184   2.0000      -0.501804       -13.6548
 185   2.0000      -0.499384       -13.5889
 186   2.0000      -0.497164       -13.5285
 187   2.0000      -0.496829       -13.5194
 188   2.0000      -0.494209       -13.4481
 189   2.0000      -0.491511       -13.3747
 190   2.0000      -0.490765       -13.3544
 191   2.0000      -0.486822       -13.2471
 192   2.0000      -0.482535       -13.1304
 193   2.0000      -0.481172       -13.0934
 194   2.0000      -0.477409       -12.9910
 195   2.0000      -0.471875       -12.8404
 196   2.0000      -0.470561       -12.8046
 197   2.0000      -0.469280       -12.7698
 198   2.0000      -0.467799       -12.7295
 199   2.0000      -0.467634       -12.7250
 200   2.0000      -0.466316       -12.6891
 201   2.0000      -0.464562       -12.6414
 202   2.0000      -0.460876       -12.5411
 203   2.0000      -0.459572       -12.5056
 204   2.0000      -0.456169       -12.4130
 205   2.0000      -0.453289       -12.3346
 206   2.0000      -0.446355       -12.1459
 207   2.0000      -0.442831       -12.0500
 208   2.0000      -0.441748       -12.0206
 209   2.0000      -0.439156       -11.9500
 210   2.0000      -0.435775       -11.8580
 211   2.0000      -0.431418       -11.7395
 212   2.0000      -0.428615       -11.6632
 213   2.0000      -0.416641       -11.3374
 214   2.0000      -0.411123       -11.1872
 215   2.0000      -0.409873       -11.1532
 216   2.0000      -0.405260       -11.0277
 217   2.0000      -0.403297       -10.9743
 218   2.0000      -0.395878       -10.7724
 219   2.0000      -0.393165       -10.6986
 220   2.0000      -0.391088       -10.6420
 221   2.0000      -0.385929       -10.5017
 222   2.0000      -0.380895       -10.3647
 223   2.0000      -0.374546       -10.1919
 224   2.0000      -0.372622       -10.1396
 225   2.0000      -0.370356       -10.0779
 226   2.0000      -0.356577        -9.7029
 227   2.0000      -0.356198        -9.6926
 228   2.0000      -0.351806        -9.5731
 229   2.0000      -0.350826        -9.5465
 230   2.0000      -0.344018        -9.3612
 231   2.0000      -0.340949        -9.2777
 232   2.0000      -0.332742        -9.0544
 233   2.0000      -0.332028        -9.0349
 234   2.0000      -0.328367        -8.9353
 235   2.0000      -0.327907        -8.9228
 236   2.0000      -0.325643        -8.8612
 237   2.0000      -0.324879        -8.8404
 238   2.0000      -0.323931        -8.8146
 239   2.0000      -0.321720        -8.7544
 240   2.0000      -0.312300        -8.4981
 241   2.0000      -0.305498        -8.3130
 242   2.0000      -0.301907        -8.2153
 243   2.0000      -0.300685        -8.1821
 244   2.0000      -0.277433        -7.5493
 245   2.0000      -0.271415        -7.3856
 246   2.0000      -0.229624        -6.2484
 247   0.0000      -0.110121        -2.9965
 248   0.0000      -0.108161        -2.9432
 249   0.0000      -0.080570        -2.1924
 250   0.0000      -0.053696        -1.4611
 251   0.0000      -0.044398        -1.2081

MULLIKEN ATOMIC CHARGES
-----------------------
   0 C :   -0.135801
   1 C :    0.242696
   2 F :   -0.177375
   3 C :    0.184445
   4 F :   -0.144978
   5 C :   -0.067027
   6 C :   -0.012169
   7 C :    0.057588
   8 N :   -0.065491
   9 N :   -0.073291
  10 N :   -0.019957
  11 C :    0.118623
  12 C :   -0.044771
  13 N :   -0.014193
  14 C :    0.083784
  15 C :   -0.138788
  16 C :    0.204573
  17 O :   -0.130576
  18 C :   -0.041937
  19 C :   -0.028984
  20 N :   -0.053469
  21 C :    0.089245
  22 C :   -0.092564
  23 C :    0.057812
  24 C :   -0.018533
  25 C :    0.019801
  26 C :    0.085260
  27 C :   -0.094148
  28 C :    0.057477
  29 C :    0.020747
  30 C :   -0.089174
  31 C :    0.145111
  32 N :   -0.216500
  33 C :    0.148107
  34 N :   -0.213096
  35 C :    0.105944
  36 C :   -0.143883
  37 C :    0.188465
  38 C :   -0.060201
  39 C :    0.030203
  40 C :    0.008178
  41 C :    0.026377
  42 C :   -0.021254
  43 C :   -0.018833
  44 C :   -0.064282
  45 C :   -0.011836
  46 C :    0.033997
  47 N :   -0.054876
  48 C :    0.061149
  49 C :   -0.120861
  50 C :    0.202750
  51 O :   -0.123063
  52 C :   -0.040508
  53 C :   -0.019040
  54 N :   -0.061328
  55 C :    0.089257
  56 C :   -0.096493
  57 C :    0.023735
  58 C :   -0.005983
  59 C :   -0.054860
  60 C :    0.034809
  61 C :    0.140883
  62 F :   -0.171181
  63 C :    0.262069
  64 F :   -0.184049
  65 C :   -0.147911
  66 C :    0.048551
  67 C :   -0.050838
  68 N :   -0.062872
  69 N :   -0.084559
  70 N :   -0.059744
  71 C :    0.148479
  72 H :   -0.000460
  73 H :    0.049073
  74 H :    0.044380
  75 H :    0.096183
  76 H :    0.010280
  77 H :   -0.006016
  78 H :    0.008020
  79 H :   -0.006880
  80 H :   -0.037001
  81 H :   -0.041544
  82 H :   -0.008577
  83 H :   -0.002299
  84 H :    0.089814
  85 H :    0.097391
  86 H :   -0.021306
  87 H :    0.006911
  88 H :    0.089599
  89 H :    0.093727
  90 H :   -0.004387
  91 H :    0.052090
  92 H :   -0.001914
  93 H :   -0.036051
  94 H :   -0.034816
  95 H :   -0.026913
  96 H :    0.031088
  97 H :    0.014938
  98 H :    0.006074
  99 H :   -0.006115
 100 H :    0.025575
 101 H :    0.010064
 102 H :   -0.011227
 103 H :    0.051711
 104 H :    0.047293
 105 H :    0.032457
Sum of atomic charges:   -0.0000000

LOEWDIN ATOMIC CHARGES
----------------------
   0 C :   -0.032865
   1 C :    0.060899
   2 F :   -0.052324
   3 C :    0.085606
   4 F :   -0.031217
   5 C :   -0.074139
   6 C :   -0.045242
   7 C :   -0.053691
   8 N :   -0.083810
   9 N :    0.168687
  10 N :   -0.076907
  11 C :    0.025517
  12 C :    0.076118
  13 N :   -0.080565
  14 C :    0.048599
  15 C :   -0.053054
  16 C :    0.065713
  17 O :   -0.142173
  18 C :   -0.039174
  19 C :    0.026440
  20 N :   -0.094115
  21 C :    0.075093
  22 C :   -0.034740
  23 C :   -0.018071
  24 C :   -0.013193
  25 C :   -0.001729
  26 C :   -0.035983
  27 C :   -0.004923
  28 C :   -0.019455
  29 C :   -0.022638
  30 C :   -0.042119
  31 C :    0.029942
  32 N :   -0.115903
  33 C :    0.026651
  34 N :   -0.115110
  35 C :   -0.011842
  36 C :    0.065105
  37 C :   -0.031806
  38 C :   -0.035880
  39 C :   -0.009710
  40 C :   -0.036805
  41 C :   -0.031506
  42 C :   -0.012349
  43 C :   -0.027860
  44 C :    0.067402
  45 C :   -0.056271
  46 C :    0.080024
  47 N :   -0.110256
  48 C :    0.044933
  49 C :   -0.041659
  50 C :    0.063135
  51 O :   -0.136319
  52 C :   -0.040134
  53 C :    0.019082
  54 N :   -0.100372
  55 C :    0.071612
  56 C :   -0.039656
  57 C :   -0.028310
  58 C :   -0.010388
  59 C :   -0.008217
  60 C :   -0.057121
  61 C :    0.066947
  62 F :   -0.043260
  63 C :    0.061155
  64 F :   -0.058377
  65 C :   -0.043282
  66 C :   -0.057563
  67 C :   -0.054124
  68 N :   -0.100198
  69 N :    0.163271
  70 N :   -0.096882
  71 C :    0.016432
  72 H :    0.050985
  73 H :    0.041916
  74 H :    0.039162
  75 H :    0.044604
  76 H :    0.023801
  77 H :    0.033987
  78 H :    0.036425
  79 H :    0.026934
  80 H :    0.021396
  81 H :    0.016848
  82 H :    0.018826
  83 H :    0.004256
  84 H :    0.052075
  85 H :    0.058253
  86 H :    0.010377
  87 H :    0.005752
  88 H :    0.053531
  89 H :    0.054173
  90 H :    0.028449
  91 H :    0.070153
  92 H :    0.027260
  93 H :    0.030852
  94 H :    0.026867
  95 H :    0.026266
  96 H :    0.036181
  97 H :    0.035520
  98 H :    0.022337
  99 H :    0.033806
 100 H :    0.039651
 101 H :    0.034552
 102 H :    0.046652
 103 H :    0.039071
 104 H :    0.029576
 105 H :    0.034434

  Mayer bond orders larger than 0.100000
B(  0-C ,  1-C ) :   1.4412 B(  0-C ,  5-C ) :   0.1322 B(  0-C ,  7-C ) :   1.1455
B(  0-C , 72-H ) :   1.0482 B(  1-C ,  2-F ) :   1.1059 B(  1-C ,  3-C ) :   1.1518
B(  3-C ,  4-F ) :   1.2153 B(  3-C ,  5-C ) :   1.4285 B(  5-C ,  6-C ) :   1.2338
B(  5-C , 12-C ) :   0.9333 B(  6-C ,  7-C ) :   1.2322 B(  6-C , 10-N ) :   1.4827
B(  7-C ,  8-N ) :   1.3918 B(  8-N ,  9-N ) :   1.2503 B(  8-N , 10-N ) :   0.1590
B(  8-N ,104-H ) :   0.1026 B(  9-N , 10-N ) :   1.2420 B(  9-N , 11-C ) :   0.9365
B( 11-C , 73-H ) :   0.9609 B( 11-C , 74-H ) :   0.9647 B( 11-C , 75-H ) :   0.9497
B( 12-C , 13-N ) :   1.7225 B( 12-C , 14-C ) :   0.1250 B( 12-C , 23-C ) :   1.0469
B( 13-N , 14-C ) :   1.2937 B( 14-C , 15-C ) :   1.0470 B( 14-C , 19-C ) :   1.4547
B( 15-C , 16-C ) :   0.8931 B( 15-C , 23-C ) :   1.5540 B( 16-C , 17-O ) :   2.2951
B( 16-C , 18-C ) :   0.8923 B( 18-C , 19-C ) :   1.0468 B( 18-C , 22-C ) :   1.6317
B( 19-C , 20-N ) :   1.2973 B( 20-N , 21-C ) :   1.6747 B( 21-C , 22-C ) :   1.0609
B( 21-C , 76-H ) :   0.9885 B( 22-C , 77-H ) :   1.0095 B( 23-C , 24-C ) :   1.1161
B( 24-C , 25-C ) :   1.6865 B( 24-C , 78-H ) :   0.9568 B( 25-C , 26-C ) :   1.0838
B( 25-C , 79-H ) :   0.9647 B( 26-C , 27-C ) :   1.5300 B( 26-C , 43-C ) :   1.1123
B( 27-C , 28-C ) :   1.1277 B( 27-C , 80-H ) :   0.9862 B( 28-C , 29-C ) :   1.4718
B( 28-C , 41-C ) :   1.1301 B( 29-C , 30-C ) :   0.9993 B( 29-C , 35-C ) :   1.1180
B( 30-C , 31-C ) :   1.0489 B( 30-C , 33-C ) :   1.0397 B( 30-C , 81-H ) :   0.8848
B( 31-C , 32-N ) :   1.0926 B( 31-C , 82-H ) :   0.9312 B( 31-C , 83-H ) :   0.9484
B( 32-N , 84-H ) :   0.9711 B( 32-N , 85-H ) :   0.9676 B( 33-C , 34-N ) :   1.0620
B( 33-C , 86-H ) :   0.9337 B( 33-C , 87-H ) :   0.9374 B( 34-N , 88-H ) :   0.9659
B( 34-N , 89-H ) :   0.9622 B( 35-C , 36-C ) :   1.6777 B( 35-C , 40-C ) :   1.0466
B( 36-C , 37-C ) :   0.9538 B( 36-C , 90-H ) :   0.9641 B( 37-C , 38-C ) :   1.0098
B( 37-C , 44-C ) :   0.9267 B( 37-C , 91-H ) :   0.8389 B( 38-C , 39-C ) :   1.7149
B( 38-C , 92-H ) :   0.9643 B( 39-C , 40-C ) :   1.1302 B( 39-C , 93-H ) :   0.9906
B( 40-C , 41-C ) :   1.4283 B( 41-C , 42-C ) :   1.1344 B( 42-C , 43-C ) :   1.5881
B( 42-C , 94-H ) :   0.9920 B( 43-C , 95-H ) :   0.9936 B( 44-C , 45-C ) :   1.8160
B( 44-C , 96-H ) :   0.9660 B( 45-C , 46-C ) :   1.0886 B( 45-C , 97-H ) :   0.9450
B( 46-C , 47-N ) :   1.6167 B( 46-C , 48-C ) :   0.1029 B( 46-C , 57-C ) :   1.0031
B( 47-N , 48-C ) :   1.3437 B( 48-C , 49-C ) :   1.0431 B( 48-C , 53-C ) :   1.4258
B( 49-C , 50-C ) :   0.8895 B( 49-C , 57-C ) :   1.5810 B( 50-C , 51-O ) :   2.2955
B( 50-C , 52-C ) :   0.8978 B( 52-C , 53-C ) :   1.0534 B( 52-C , 56-C ) :   1.6148
B( 53-C , 54-N ) :   1.3079 B( 54-N , 55-C ) :   1.6592 B( 55-C , 56-C ) :   1.0750
B( 55-C , 98-H ) :   0.9888 B( 56-C , 99-H ) :   1.0109 B( 57-C , 58-C ) :   1.1001
B( 58-C , 59-C ) :   1.6518 B( 58-C ,100-H ) :   0.9625 B( 59-C , 60-C ) :   1.1289
B( 59-C ,101-H ) :   0.9723 B( 60-C , 61-C ) :   1.3619 B( 60-C , 65-C ) :   0.1320
B( 60-C , 67-C ) :   1.1716 B( 61-C , 62-F ) :   1.1293 B( 61-C , 63-C ) :   1.1845
B( 63-C , 64-F ) :   1.0995 B( 63-C , 65-C ) :   1.4417 B( 65-C , 66-C ) :   1.1430
B( 65-C ,102-H ) :   1.0464 B( 66-C , 67-C ) :   1.2321 B( 66-C , 70-N ) :   1.4516
B( 67-C , 68-N ) :   1.4746 B( 68-N , 69-N ) :   1.2429 B( 68-N , 70-N ) :   0.1599
B( 69-N , 70-N ) :   1.2423 B( 69-N , 71-C ) :   0.9306 B( 71-C ,103-H ) :   0.9577
B( 71-C ,104-H ) :   0.9380 B( 71-C ,105-H ) :   0.9567

-----------------------------------------------------------------------------
         ABSORPTION SPECTRUM VIA TRANSITION ELECTRIC DIPOLE MOMENTS
-----------------------------------------------------------------------------
State   Energy  Wavelength   fosc         T2         TX        TY        TZ
        (cm-1)    (nm)                  (au**2)     (au)      (au)      (au)
-----------------------------------------------------------------------------
   0   12108.8    825.8   0.072149155   1.96157  -1.36415  -0.29237  -0.12327
   1   13343.2    749.4   0.042902761   1.05853   0.55394   0.64324  -0.58130
   2   14964.9    668.2   0.088608292   1.94928   0.69184   1.19529  -0.20477
   3   18259.6    547.7   0.113274003   2.04228  -1.38395   0.34453  -0.09087
   4   19932.1    501.7   0.023531226   0.38866  -0.51649  -0.32510   0.12731
   5   21923.0    456.1   0.003364164   0.05052  -0.18868  -0.11908  -0.02718
   6   22076.4    453.0   0.010148692   0.15134   0.05041   0.38575   0.00012
   7   24194.3    413.3   0.041351727   0.56267  -0.61246   0.07269   0.42695
   8   24832.1    402.7   0.696895815   9.23910   2.91604   0.85435  -0.07667
   9   25229.2    396.4   0.263689080   3.44084   0.90671   1.61788   0.03434
  10   25295.0    395.3   0.327595860   4.26363  -1.67922  -1.08203  -0.52256
  11   25631.2    390.1   0.351291771   4.51205  -1.03531  -1.79166   0.47975
  12   26324.7    379.9   0.026810462   0.33529  -0.44265  -0.24147  -0.28468
  13   26353.9    379.4   0.018810461   0.23498   0.13308  -0.45015   0.12098
  14   26522.4    377.0   0.005520553   0.06852   0.09491   0.21932   0.10684
  15   26547.2    376.7   0.045326576   0.56209   0.46521   0.58382   0.06945
  16   26644.3    375.3   0.237126697   2.92990   1.58472   0.64216  -0.07861
  17   26960.9    370.9   0.084546372   1.03237  -0.99788  -0.15021  -0.11852
  18   27034.4    369.9   0.027419854   0.33391   0.10614   0.51760  -0.23395
  19   27072.5    369.4   0.078766979   0.95784   0.37212  -0.68393   0.59297
  20   27562.1    362.8   0.011930962   0.14251   0.36413   0.08527   0.05142
  21   28053.9    356.5   0.132730909   1.55760   0.78826  -0.09369   0.96305
  22   28876.8    346.3   0.286895923   3.27077  -1.55903   0.82625   0.39688
  23   29026.0    344.5   0.038279209   0.43416  -0.39011   0.32279   0.42164
  24   29449.9    339.6   0.013097680   0.14642  -0.30799   0.02106  -0.22608
  25   29852.5    335.0   0.003803680   0.04195   0.18526  -0.00237   0.08729
  26   30359.4    329.4   0.046182132   0.50079   0.57316   0.36634   0.19512
  27   30630.8    326.5   0.002022635   0.02174   0.04560   0.14015   0.00400
  28   30751.3    325.2   0.000222111   0.00238   0.03544  -0.02297  -0.02438
  29   31143.0    321.1   0.006779863   0.07167  -0.26298  -0.00552   0.04980
  30   31362.9    318.8   0.485865654   5.10006   2.21917  -0.38733   0.15909
  31   31428.2    318.2   0.128311410   1.34407   1.08883  -0.34074   0.20596
  32   32280.4    309.8   0.023770364   0.24242   0.44395  -0.13787   0.16225
  33   32379.4    308.8   0.086850318   0.88303   0.79314   0.50389  -0.00762
  34   32538.1    307.3   0.040511134   0.40988   0.03924  -0.62017   0.15403
  35   32722.1    305.6   0.034698637   0.34910   0.20670  -0.50375  -0.22937
  36   32837.6    304.5   0.065751572   0.65919   0.74321   0.05994  -0.32130
  37   33464.5    298.8   0.262507696   2.58246  -0.88767  -1.25671   0.46387
  38   34237.5    292.1   0.227550044   2.18801   0.54332   1.35554  -0.23523
  39   34368.5    291.0   0.015727110   0.15065   0.09557  -0.33996  -0.16107
  40   34689.7    288.3   0.022744850   0.21585   0.32111   0.33419  -0.03255
  41   34746.9    287.8   0.013920872   0.13189   0.27589  -0.13004  -0.19715
  42   34966.9    286.0   0.004476412   0.04215   0.16530   0.00930  -0.12138
  43   35130.5    284.7   0.076579977   0.71764   0.35471   0.75762   0.13354
  44   35557.0    281.2   0.057789787   0.53506   0.60976   0.40378  -0.01471
  45   35751.9    279.7   0.141805615   1.30578   1.13201   0.02746  -0.15357
  46   35944.7    278.2   0.105615580   0.96732   0.54102  -0.79859   0.19201
  47   36196.8    276.3   0.050710888   0.46122  -0.60330   0.29280  -0.10729
  48   36376.0    274.9   0.013852935   0.12537   0.33432  -0.06182   0.09889
  49   37183.0    268.9   0.142381421   1.26062  -1.05735  -0.31930  -0.20171
  50   37183.6    268.9   0.052766451   0.46718  -0.27467  -0.62051  -0.08183
  51   37442.3    267.1   0.107242197   0.94293   0.50280   0.28351   0.78086
  52   37620.5    265.8   0.180300909   1.57779  -0.78633  -0.59659  -0.77689
  53   37946.0    263.5   0.020607087   0.17878   0.39441   0.14321   0.05211
  54   38074.9    262.6   0.042976610   0.37159  -0.40125  -0.10066  -0.44772
  55   38284.5    261.2   0.013606006   0.11700   0.23925   0.07297  -0.23331
  56   38748.1    258.1   0.450881609   3.83079  -0.47399  -1.84705  -0.44106
  57   38874.7    257.2   0.075516702   0.63952  -0.54768  -0.43233  -0.39071
  58   38989.7    256.5   0.069260924   0.58481   0.41873   0.63876  -0.03819
  59   39394.7    253.8   0.003746834   0.03131   0.10172   0.10165   0.10311
  60   39425.5    253.6   0.003204210   0.02676   0.07917  -0.14266  -0.01172
  61   39857.8    250.9   0.035751726   0.29530   0.54341   0.00134  -0.00192
  62   39886.4    250.7   0.040252789   0.33224   0.38099   0.42444  -0.08330
  63   39913.8    250.5   0.007411032   0.06113  -0.13519   0.18389   0.09504
  64   39970.3    250.2   0.048068141   0.39591  -0.50626  -0.29747   0.22610

FINAL SINGLE POINT ENERGY     -3280.710436739443

DIPOLE MOMENT
-------------
                                X             Y             Z
Electronic contribution:     33.64964     -44.24934     -25.06947
Nuclear contribution   :    -34.84060      45.72008      26.35589
                        -----------------------------------------
Total Dipole Moment    :     -1.19096       1.47073       1.28642
                        -----------------------------------------
Magnitude (a.u.)       :      2.28830
Magnitude (Debye)      :      5.81639

Rotational constants in cm-1:     0.001642     0.000468     0.000398
Rotational constants in MHz :    49.218687    14.017267    11.931624

                             ****ORCA TERMINATED NORMALLY****
TOTAL RUN TIME: 0 days 0 hours 18 minutes 22 seconds 375 msec
