                         Program Version 4.2.0 -  RELEASE  -
|  1> # ORCA input file
|  2> # SCF done       -188.290262711320          0.002120917381
|  3> ! CAM-B3LYP def2-SVP def2/J RIJCOSX Grid4 TightSCF
|  4> %maxcore 5000
|  5> %tddft
|  6>     Mode sTDDFT
|  7>     Ethresh 5.0
|  8>     maxcore 5000
|  9> end
| 10>
| 11> %pal
| 12>   nprocs 6
| 13>   end
| 14> * xyz 0 1
| 15>    C       -4.70003        -4.20272        -9.36631
| 16>    C       -4.32032        -4.38903        -8.04065
| 17>    C       -3.08103        -4.99999        -7.74857
| 18>    C       -2.22997        -5.42085        -8.75630
| 19>    C       -2.62743        -5.22476       -10.06461
| 20>    C       -3.84831        -4.62312       -10.36508
| 21>    S       -2.86650        -5.10392        -6.02949
| 22>    C       -4.44370        -4.32164        -5.85847
| 23>    N       -5.04515        -4.02775        -6.94254
| 24>    C       -4.95248        -4.05842        -4.51501
| 25>    C       -4.65720        -2.87333        -3.83880
| 26>    C       -3.80787        -1.81802        -4.41046
| 27>    O       -3.26489        -1.79703        -5.47279
| 28>    S       -3.67039        -0.48932        -3.20350
| 29>    C       -4.65879        -1.34836        -1.97579
| 30>    O       -4.84276        -0.90538        -0.87740
| 31>    C       -5.13309        -2.61987        -2.54814
| 32>    C       -5.93864        -3.54172        -1.86857
| 33>    C       -6.23083        -4.72875        -2.54868
| 34>    C       -5.74191        -4.98390        -3.83396
| 35>    C       -6.11769        -6.29243        -4.39323
| 36>    O       -5.79173        -6.76846        -5.43848
| 37>    S       -7.17777        -7.13142        -3.20856
| 38>    C       -7.09382        -5.79018        -2.00818
| 39>    O       -7.68082        -5.81166        -0.96671
| 40>    C       -6.40813        -3.28182        -0.49956
| 41>    C       -7.28195        -2.25449        -0.25219
| 42>    C       -7.62593        -1.94783         1.07917
| 43>    C       -8.39990        -0.92105         1.61930
| 44>    C       -9.17233         0.15008         0.94625
| 45>    C       -8.25696         1.28460         0.40801
| 46>    N       -7.35734         0.80097        -0.61291
| 47>    C      -10.07344        -0.35075        -0.19851
| 48>    N      -11.09882         0.64506        -0.45025
| 49>    C       -8.28717        -1.03366         3.05850
| 50>    C       -8.76943        -0.25468         4.04660
| 51>    C       -8.42571        -0.52401         5.47065
| 52>    C       -7.68857        -1.79587         5.71247
| 53>    C       -7.21754        -2.56580         4.70797
| 54>    C       -7.45834        -2.19988         3.36650
| 55>    C       -7.05612        -2.74544         2.14982
| 56>    C       -6.21247        -3.83044         1.85226
| 57>    C       -5.89509        -4.08838         0.55158
| 58>    C       -9.65467        -0.38228         6.33539
| 59>    C      -10.13826         0.80243         6.67526
| 60>    C      -11.36992         1.02751         7.42896
| 61>    C      -11.55006         0.64605         8.76191
| 62>    C      -10.53444        -0.04320         9.57490
| 63>    O       -9.43730        -0.39819         9.25421
| 64>    S      -11.19145        -0.29486        11.22974
| 65>    C      -12.76040         0.50168        10.85456
| 66>    O      -13.64745         0.60889        11.64672
| 67>    C      -12.72780         0.95284         9.45553
| 68>    C      -13.77868         1.65093         8.85952
| 69>    C      -13.61530         2.00128         7.51893
| 70>    C      -12.43947         1.69924         6.82543
| 71>    C      -12.43842         2.11489         5.41822
| 72>    O      -11.57493         1.94270         4.60109
| 73>    S      -13.99089         2.93151         5.05528
| 74>    C      -14.63661         2.69739         6.72636
| 75>    O      -15.72468         3.05500         7.06096
| 76>    C      -14.98236         2.00629         9.60678
| 77>    N      -15.13575         3.09429        10.25292
| 78>    C      -16.35369         3.15520        10.86391
| 79>    C      -16.82158         4.20641        11.64620
| 80>    C      -18.08056         4.11112        12.19886
| 81>    C      -18.87844         2.98869        11.98432
| 82>    C      -18.43523         1.93390        11.21097
| 83>    C      -17.17120         2.02259        10.65335
| 84>    S      -16.33978         0.87566         9.65008
| 85>    H       -5.64681        -3.73601        -9.58454
| 86>    H       -1.28613        -5.88654        -8.52083
| 87>    H       -1.97990        -5.54374       -10.86745
| 88>    H       -4.12804        -4.48408       -11.39838
| 89>    H       -7.67116        -1.65882        -1.06105
| 90>    H       -9.82634         0.61773         1.68969
| 91>    H       -7.74175         1.74052         1.26757
| 92>    H       -8.92259         2.02555        -0.03847
| 93>    H       -6.54987         0.32940        -0.21997
| 94>    H       -7.03545         1.55145        -1.20901
| 95>    H      -10.47711        -1.34148         0.06797
| 96>    H       -9.47861        -0.44779        -1.10692
| 97>    H      -11.75813         0.68809         0.32004
| 98>    H      -11.61442         0.43019        -1.29502
| 99>    H       -9.40042         0.60345         3.86028
|100>    H       -7.74823         0.29763         5.76388
|101>    H       -7.52445        -2.05380         6.74721
|102>    H       -6.66009        -3.46634         4.91756
|103>    H       -5.80647        -4.43326         2.65030
|104>    H       -5.22642        -4.89825         0.30064
|105>    H      -10.15175        -1.29812         6.61710
|106>    H       -9.65024         1.70896         6.33672
|107>    H      -16.19305         5.06788        11.80395
|108>    H      -18.45736         4.91796        12.80922
|109>    H      -19.86035         2.94108        12.43059
|110>    H      -19.05065         1.06382        11.04404
|111> *
|112>
|113>                          ****END OF INPUT****

CARTESIAN COORDINATES (ANGSTROEM)
---------------------------------
  C     -4.700030   -4.202720   -9.366310
  C     -4.320320   -4.389030   -8.040650
  C     -3.081030   -4.999990   -7.748570
  C     -2.229970   -5.420850   -8.756300
  C     -2.627430   -5.224760  -10.064610
  C     -3.848310   -4.623120  -10.365080
  S     -2.866500   -5.103920   -6.029490
  C     -4.443700   -4.321640   -5.858470
  N     -5.045150   -4.027750   -6.942540
  C     -4.952480   -4.058420   -4.515010
  C     -4.657200   -2.873330   -3.838800
  C     -3.807870   -1.818020   -4.410460
  O     -3.264890   -1.797030   -5.472790
  S     -3.670390   -0.489320   -3.203500
  C     -4.658790   -1.348360   -1.975790
  O     -4.842760   -0.905380   -0.877400
  C     -5.133090   -2.619870   -2.548140
  C     -5.938640   -3.541720   -1.868570
  C     -6.230830   -4.728750   -2.548680
  C     -5.741910   -4.983900   -3.833960
  C     -6.117690   -6.292430   -4.393230
  O     -5.791730   -6.768460   -5.438480
  S     -7.177770   -7.131420   -3.208560
  C     -7.093820   -5.790180   -2.008180
  O     -7.680820   -5.811660   -0.966710
  C     -6.408130   -3.281820   -0.499560
  C     -7.281950   -2.254490   -0.252190
  C     -7.625930   -1.947830    1.079170
  C     -8.399900   -0.921050    1.619300
  C     -9.172330    0.150080    0.946250
  C     -8.256960    1.284600    0.408010
  N     -7.357340    0.800970   -0.612910
  C    -10.073440   -0.350750   -0.198510
  N    -11.098820    0.645060   -0.450250
  C     -8.287170   -1.033660    3.058500
  C     -8.769430   -0.254680    4.046600
  C     -8.425710   -0.524010    5.470650
  C     -7.688570   -1.795870    5.712470
  C     -7.217540   -2.565800    4.707970
  C     -7.458340   -2.199880    3.366500
  C     -7.056120   -2.745440    2.149820
  C     -6.212470   -3.830440    1.852260
  C     -5.895090   -4.088380    0.551580
  C     -9.654670   -0.382280    6.335390
  C    -10.138260    0.802430    6.675260
  C    -11.369920    1.027510    7.428960
  C    -11.550060    0.646050    8.761910
  C    -10.534440   -0.043200    9.574900
  O     -9.437300   -0.398190    9.254210
  S    -11.191450   -0.294860   11.229740
  C    -12.760400    0.501680   10.854560
  O    -13.647450    0.608890   11.646720
  C    -12.727800    0.952840    9.455530
  C    -13.778680    1.650930    8.859520
  C    -13.615300    2.001280    7.518930
  C    -12.439470    1.699240    6.825430
  C    -12.438420    2.114890    5.418220
  O    -11.574930    1.942700    4.601090
  S    -13.990890    2.931510    5.055280
  C    -14.636610    2.697390    6.726360
  O    -15.724680    3.055000    7.060960
  C    -14.982360    2.006290    9.606780
  N    -15.135750    3.094290   10.252920
  C    -16.353690    3.155200   10.863910
  C    -16.821580    4.206410   11.646200
  C    -18.080560    4.111120   12.198860
  C    -18.878440    2.988690   11.984320
  C    -18.435230    1.933900   11.210970
  C    -17.171200    2.022590   10.653350
  S    -16.339780    0.875660    9.650080
  H     -5.646810   -3.736010   -9.584540
  H     -1.286130   -5.886540   -8.520830
  H     -1.979900   -5.543740  -10.867450
  H     -4.128040   -4.484080  -11.398380
  H     -7.671160   -1.658820   -1.061050
  H     -9.826340    0.617730    1.689690
  H     -7.741750    1.740520    1.267570
  H     -8.922590    2.025550   -0.038470
  H     -6.549870    0.329400   -0.219970
  H     -7.035450    1.551450   -1.209010
  H    -10.477110   -1.341480    0.067970
  H     -9.478610   -0.447790   -1.106920
  H    -11.758130    0.688090    0.320040
  H    -11.614420    0.430190   -1.295020
  H     -9.400420    0.603450    3.860280
  H     -7.748230    0.297630    5.763880
  H     -7.524450   -2.053800    6.747210
  H     -6.660090   -3.466340    4.917560
  H     -5.806470   -4.433260    2.650300
  H     -5.226420   -4.898250    0.300640
  H    -10.151750   -1.298120    6.617100
  H     -9.650240    1.708960    6.336720
  H    -16.193050    5.067880   11.803950
  H    -18.457360    4.917960   12.809220
  H    -19.860350    2.941080   12.430590
  H    -19.050650    1.063820   11.044040

 Total Charge           Charge          ....    0
 Multiplicity           Mult            ....    1
 Number of Electrons    NEL             ....  526
 Basis Dimension        Dim             .... 1134

ORBITAL ENERGIES
----------------

  NO   OCC          E(Eh)            E(eV)
   0   2.0000     -88.963654     -2420.8241
   1   2.0000     -88.960755     -2420.7452
   2   2.0000     -88.958754     -2420.6908
   3   2.0000     -88.953738     -2420.5543
   4   2.0000     -88.951417     -2420.4911
   5   2.0000     -88.951195     -2420.4851
   6   2.0000     -19.258096      -524.0394
   7   2.0000     -19.257295      -524.0176
   8   2.0000     -19.254153      -523.9321
   9   2.0000     -19.252610      -523.8902
  10   2.0000     -19.246792      -523.7318
  11   2.0000     -19.244985      -523.6827
  12   2.0000     -19.244754      -523.6764
  13   2.0000     -19.242698      -523.6204
  14   2.0000     -14.413007      -392.1979
  15   2.0000     -14.405648      -391.9976
  16   2.0000     -14.369575      -391.0160
  17   2.0000     -14.365713      -390.9109
  18   2.0000     -10.419728      -283.5352
  19   2.0000     -10.418526      -283.5025
  20   2.0000     -10.416896      -283.4582
  21   2.0000     -10.415778      -283.4277
  22   2.0000     -10.409391      -283.2539
  23   2.0000     -10.408388      -283.2266
  24   2.0000     -10.406514      -283.1757
  25   2.0000     -10.405281      -283.1421
  26   2.0000     -10.350512      -281.6518
  27   2.0000     -10.348425      -281.5950
  28   2.0000     -10.348261      -281.5905
  29   2.0000     -10.344281      -281.4822
  30   2.0000     -10.343930      -281.4727
  31   2.0000     -10.343379      -281.4577
  32   2.0000     -10.341511      -281.4068
  33   2.0000     -10.339880      -281.3624
  34   2.0000     -10.337824      -281.3065
  35   2.0000     -10.334358      -281.2122
  36   2.0000     -10.333718      -281.1948
  37   2.0000     -10.333101      -281.1780
  38   2.0000     -10.330156      -281.0978
  39   2.0000     -10.328839      -281.0620
  40   2.0000     -10.302414      -280.3429
  41   2.0000     -10.302015      -280.3321
  42   2.0000     -10.297552      -280.2106
  43   2.0000     -10.296216      -280.1743
  44   2.0000     -10.295786      -280.1626
  45   2.0000     -10.295093      -280.1437
  46   2.0000     -10.294032      -280.1148
  47   2.0000     -10.292152      -280.0637
  48   2.0000     -10.280060      -279.7347
  49   2.0000     -10.276832      -279.6468
  50   2.0000     -10.274451      -279.5820
  51   2.0000     -10.273967      -279.5688
  52   2.0000     -10.272587      -279.5313
  53   2.0000     -10.270817      -279.4832
  54   2.0000     -10.268451      -279.4188
  55   2.0000     -10.267601      -279.3956
  56   2.0000     -10.266829      -279.3746
  57   2.0000     -10.266763      -279.3728
  58   2.0000     -10.266497      -279.3656
  59   2.0000     -10.265994      -279.3519
  60   2.0000     -10.265459      -279.3373
  61   2.0000     -10.264825      -279.3201
  62   2.0000     -10.263730      -279.2903
  63   2.0000     -10.263620      -279.2873
  64   2.0000     -10.261595      -279.2322
  65   2.0000     -10.257351      -279.1167
  66   2.0000     -10.255595      -279.0689
  67   2.0000     -10.254638      -279.0429
  68   2.0000     -10.253913      -279.0232
  69   2.0000     -10.252464      -278.9837
  70   2.0000      -8.062775      -219.3993
  71   2.0000      -8.059925      -219.3217
  72   2.0000      -8.055091      -219.1902
  73   2.0000      -8.052869      -219.1297
  74   2.0000      -8.050260      -219.0587
  75   2.0000      -8.047895      -218.9944
  76   2.0000      -6.031677      -164.1303
  77   2.0000      -6.028786      -164.0516
  78   2.0000      -6.028373      -164.0404
  79   2.0000      -6.025516      -163.9626
  80   2.0000      -6.024448      -163.9336
  81   2.0000      -6.023781      -163.9154
  82   2.0000      -6.021704      -163.8589
  83   2.0000      -6.020973      -163.8390
  84   2.0000      -6.020587      -163.8285
  85   2.0000      -6.019118      -163.7885
  86   2.0000      -6.018469      -163.7709
  87   2.0000      -6.017259      -163.7379
  88   2.0000      -6.016583      -163.7196
  89   2.0000      -6.015858      -163.6998
  90   2.0000      -6.013970      -163.6484
  91   2.0000      -6.013395      -163.6328
  92   2.0000      -6.011346      -163.5770
  93   2.0000      -6.009337      -163.5224
  94   2.0000      -1.180538       -32.1241
  95   2.0000      -1.177619       -32.0446
  96   2.0000      -1.176101       -32.0033
  97   2.0000      -1.173112       -31.9220
  98   2.0000      -1.170557       -31.8525
  99   2.0000      -1.168190       -31.7881
 100   2.0000      -1.165369       -31.7113
 101   2.0000      -1.163242       -31.6534
 102   2.0000      -1.070841       -29.1391
 103   2.0000      -1.063408       -28.9368
 104   2.0000      -1.034000       -28.1366
 105   2.0000      -1.023302       -27.8455
 106   2.0000      -0.980257       -26.6741
 107   2.0000      -0.977424       -26.5970
 108   2.0000      -0.969600       -26.3842
 109   2.0000      -0.956904       -26.0387
 110   2.0000      -0.952763       -25.9260
 111   2.0000      -0.948140       -25.8002
 112   2.0000      -0.942559       -25.6483
 113   2.0000      -0.937823       -25.5195
 114   2.0000      -0.936577       -25.4856
 115   2.0000      -0.926543       -25.2125
 116   2.0000      -0.920382       -25.0449
 117   2.0000      -0.917172       -24.9575
 118   2.0000      -0.894925       -24.3521
 119   2.0000      -0.891625       -24.2623
 120   2.0000      -0.885629       -24.0992
 121   2.0000      -0.871220       -23.7071
 122   2.0000      -0.863572       -23.4990
 123   2.0000      -0.853484       -23.2245
 124   2.0000      -0.851006       -23.1571
 125   2.0000      -0.833706       -22.6863
 126   2.0000      -0.829904       -22.5828
 127   2.0000      -0.826774       -22.4977
 128   2.0000      -0.821326       -22.3494
 129   2.0000      -0.820443       -22.3254
 130   2.0000      -0.814347       -22.1595
 131   2.0000      -0.813755       -22.1434
 132   2.0000      -0.802378       -21.8338
 133   2.0000      -0.798861       -21.7381
 134   2.0000      -0.771610       -20.9966
 135   2.0000      -0.761165       -20.7123
 136   2.0000      -0.748504       -20.3678
 137   2.0000      -0.742785       -20.2122
 138   2.0000      -0.739398       -20.1200
 139   2.0000      -0.732786       -19.9401
 140   2.0000      -0.721453       -19.6317
 141   2.0000      -0.711936       -19.3728
 142   2.0000      -0.704168       -19.1614
 143   2.0000      -0.692742       -18.8505
 144   2.0000      -0.683710       -18.6047
 145   2.0000      -0.683029       -18.5862
 146   2.0000      -0.676653       -18.4127
 147   2.0000      -0.674650       -18.3581
 148   2.0000      -0.669375       -18.2146
 149   2.0000      -0.667407       -18.1611
 150   2.0000      -0.661597       -18.0030
 151   2.0000      -0.658945       -17.9308
 152   2.0000      -0.651846       -17.7376
 153   2.0000      -0.643745       -17.5172
 154   2.0000      -0.637684       -17.3523
 155   2.0000      -0.636184       -17.3114
 156   2.0000      -0.632967       -17.2239
 157   2.0000      -0.629661       -17.1339
 158   2.0000      -0.620675       -16.8894
 159   2.0000      -0.617811       -16.8115
 160   2.0000      -0.613619       -16.6974
 161   2.0000      -0.607283       -16.5250
 162   2.0000      -0.589557       -16.0427
 163   2.0000      -0.587042       -15.9742
 164   2.0000      -0.586232       -15.9522
 165   2.0000      -0.581265       -15.8170
 166   2.0000      -0.578398       -15.7390
 167   2.0000      -0.573817       -15.6143
 168   2.0000      -0.573125       -15.5955
 169   2.0000      -0.570140       -15.5143
 170   2.0000      -0.568906       -15.4807
 171   2.0000      -0.566429       -15.4133
 172   2.0000      -0.565675       -15.3928
 173   2.0000      -0.564622       -15.3641
 174   2.0000      -0.559690       -15.2299
 175   2.0000      -0.555836       -15.1251
 176   2.0000      -0.555636       -15.1196
 177   2.0000      -0.553848       -15.0710
 178   2.0000      -0.549875       -14.9629
 179   2.0000      -0.548642       -14.9293
 180   2.0000      -0.547435       -14.8965
 181   2.0000      -0.545289       -14.8381
 182   2.0000      -0.544768       -14.8239
 183   2.0000      -0.540610       -14.7107
 184   2.0000      -0.539448       -14.6791
 185   2.0000      -0.538313       -14.6483
 186   2.0000      -0.537613       -14.6292
 187   2.0000      -0.531617       -14.4660
 188   2.0000      -0.529473       -14.4077
 189   2.0000      -0.528876       -14.3914
 190   2.0000      -0.523669       -14.2498
 191   2.0000      -0.520719       -14.1695
 192   2.0000      -0.518861       -14.1189
 193   2.0000      -0.517127       -14.0717
 194   2.0000      -0.514671       -14.0049
 195   2.0000      -0.514345       -13.9960
 196   2.0000      -0.511615       -13.9217
 197   2.0000      -0.509553       -13.8656
 198   2.0000      -0.508092       -13.8259
 199   2.0000      -0.505245       -13.7484
 200   2.0000      -0.503035       -13.6883
 201   2.0000      -0.501258       -13.6399
 202   2.0000      -0.499517       -13.5926
 203   2.0000      -0.495062       -13.4713
 204   2.0000      -0.492685       -13.4066
 205   2.0000      -0.488861       -13.3026
 206   2.0000      -0.486334       -13.2338
 207   2.0000      -0.482338       -13.1251
 208   2.0000      -0.477769       -13.0008
 209   2.0000      -0.476467       -12.9653
 210   2.0000      -0.473378       -12.8813
 211   2.0000      -0.473143       -12.8749
 212   2.0000      -0.471882       -12.8406
 213   2.0000      -0.470560       -12.8046
 214   2.0000      -0.465528       -12.6677
 215   2.0000      -0.461820       -12.5668
 216   2.0000      -0.457864       -12.4591
 217   2.0000      -0.451009       -12.2726
 218   2.0000      -0.444513       -12.0958
 219   2.0000      -0.438806       -11.9405
 220   2.0000      -0.436922       -11.8892
 221   2.0000      -0.435204       -11.8425
 222   2.0000      -0.428532       -11.6609
 223   2.0000      -0.423163       -11.5148
 224   2.0000      -0.421552       -11.4710
 225   2.0000      -0.415775       -11.3138
 226   2.0000      -0.415259       -11.2998
 227   2.0000      -0.409275       -11.1369
 228   2.0000      -0.404756       -11.0140
 229   2.0000      -0.402174       -10.9437
 230   2.0000      -0.393939       -10.7196
 231   2.0000      -0.388717       -10.5775
 232   2.0000      -0.388132       -10.5616
 233   2.0000      -0.386408       -10.5147
 234   2.0000      -0.378885       -10.3100
 235   2.0000      -0.378001       -10.2859
 236   2.0000      -0.377578       -10.2744
 237   2.0000      -0.376625       -10.2485
 238   2.0000      -0.372865       -10.1462
 239   2.0000      -0.371109       -10.0984
 240   2.0000      -0.364717        -9.9244
 241   2.0000      -0.364094        -9.9075
 242   2.0000      -0.363009        -9.8780
 243   2.0000      -0.362313        -9.8590
 244   2.0000      -0.361109        -9.8263
 245   2.0000      -0.358544        -9.7565
 246   2.0000      -0.354023        -9.6335
 247   2.0000      -0.353857        -9.6289
 248   2.0000      -0.352880        -9.6023
 249   2.0000      -0.351832        -9.5738
 250   2.0000      -0.345788        -9.4094
 251   2.0000      -0.344361        -9.3705
 252   2.0000      -0.344069        -9.3626
 253   2.0000      -0.328206        -8.9309
 254   2.0000      -0.317157        -8.6303
 255   2.0000      -0.302698        -8.2368
 256   2.0000      -0.298837        -8.1318
 257   2.0000      -0.298040        -8.1101
 258   2.0000      -0.294365        -8.0101
 259   2.0000      -0.292736        -7.9657
 260   2.0000      -0.291452        -7.9308
 261   2.0000      -0.289724        -7.8838
 262   2.0000      -0.214320        -5.8320
 263   0.0000      -0.112766        -3.0685
 264   0.0000      -0.101691        -2.7671
 265   0.0000      -0.069382        -1.8880
 266   0.0000      -0.066648        -1.8136
 267   0.0000      -0.052574        -1.4306

MULLIKEN ATOMIC CHARGES
-----------------------
   0 C :   -0.020130
   1 C :    0.080147
   2 C :   -0.009969
   3 C :   -0.043224
   4 C :    0.033439
   5 C :    0.018198
   6 S :    0.116394
   7 C :   -0.176383
   8 N :   -0.014103
   9 C :    0.020695
  10 C :    0.060276
  11 C :    0.043175
  12 O :   -0.102804
  13 S :    0.017380
  14 C :    0.042732
  15 O :   -0.122175
  16 C :    0.058362
  17 C :    0.000990
  18 C :    0.055397
  19 C :    0.061638
  20 C :    0.042395
  21 O :   -0.103940
  22 S :    0.015329
  23 C :    0.024896
  24 O :   -0.102275
  25 C :   -0.006297
  26 C :   -0.022036
  27 C :    0.024349
  28 C :   -0.028784
  29 C :   -0.031155
  30 C :    0.153119
  31 N :   -0.254939
  32 C :    0.124556
  33 N :   -0.220666
  34 C :    0.091290
  35 C :   -0.122597
  36 C :    0.120870
  37 C :   -0.067834
  38 C :    0.024434
  39 C :    0.011847
  40 C :    0.047471
  41 C :   -0.018891
  42 C :    0.045180
  43 C :    0.001080
  44 C :   -0.024151
  45 C :   -0.003434
  46 C :    0.048168
  47 C :    0.024692
  48 O :   -0.110424
  49 S :    0.023005
  50 C :    0.041815
  51 O :   -0.100924
  52 C :    0.073073
  53 C :    0.022154
  54 C :    0.070049
  55 C :    0.047917
  56 C :    0.036709
  57 O :   -0.125184
  58 S :    0.026122
  59 C :    0.041072
  60 O :   -0.097036
  61 C :   -0.178765
  62 N :   -0.017871
  63 C :    0.078592
  64 C :   -0.022130
  65 C :    0.019735
  66 C :    0.035871
  67 C :   -0.046059
  68 C :   -0.007766
  69 S :    0.122235
  70 H :   -0.023600
  71 H :   -0.020306
  72 H :   -0.010890
  73 H :   -0.012392
  74 H :   -0.029131
  75 H :   -0.032035
  76 H :   -0.023758
  77 H :   -0.002001
  78 H :    0.119335
  79 H :    0.094387
  80 H :   -0.010486
  81 H :    0.006831
  82 H :    0.089062
  83 H :    0.089118
  84 H :    0.003891
  85 H :    0.058234
  86 H :   -0.007016
  87 H :   -0.036718
  88 H :   -0.039313
  89 H :   -0.035439
  90 H :    0.010618
  91 H :    0.026249
  92 H :   -0.021217
  93 H :   -0.010746
  94 H :   -0.009625
  95 H :   -0.017954
Sum of atomic charges:   -0.0000000

LOEWDIN ATOMIC CHARGES
----------------------
   0 C :   -0.012600
   1 C :   -0.029145
   2 C :   -0.160430
   3 C :   -0.039234
   4 C :   -0.021770
   5 C :   -0.027584
   6 S :    0.383832
   7 C :   -0.115000
   8 N :   -0.078115
   9 C :    0.001531
  10 C :   -0.040047
  11 C :   -0.044090
  12 O :   -0.094754
  13 S :    0.303548
  14 C :   -0.035596
  15 O :   -0.103447
  16 C :   -0.050702
  17 C :    0.055812
  18 C :   -0.052105
  19 C :   -0.039088
  20 C :   -0.046322
  21 O :   -0.096882
  22 S :    0.300835
  23 C :   -0.044338
  24 O :   -0.093013
  25 C :   -0.046559
  26 C :    0.011955
  27 C :   -0.021801
  28 C :   -0.026332
  29 C :   -0.044155
  30 C :    0.030834
  31 N :   -0.111658
  32 C :    0.024528
  33 N :   -0.115733
  34 C :   -0.017821
  35 C :    0.071612
  36 C :   -0.031496
  37 C :   -0.045905
  38 C :   -0.011602
  39 C :   -0.043721
  40 C :   -0.024297
  41 C :   -0.009081
  42 C :   -0.022211
  43 C :    0.032230
  44 C :   -0.039176
  45 C :    0.043650
  46 C :   -0.052447
  47 C :   -0.044572
  48 O :   -0.105163
  49 S :    0.307847
  50 C :   -0.045181
  51 O :   -0.093439
  52 C :   -0.037500
  53 C :    0.005192
  54 C :   -0.038877
  55 C :   -0.053087
  56 C :   -0.041350
  57 O :   -0.115525
  58 S :    0.308722
  59 C :   -0.040700
  60 O :   -0.089156
  61 C :   -0.119105
  62 N :   -0.078219
  63 C :   -0.030000
  64 C :   -0.012259
  65 C :   -0.026313
  66 C :   -0.019874
  67 C :   -0.038629
  68 C :   -0.160182
  69 S :    0.387386
  70 H :    0.034799
  71 H :    0.030056
  72 H :    0.029580
  73 H :    0.029162
  74 H :    0.023788
  75 H :    0.023228
  76 H :   -0.003212
  77 H :    0.017066
  78 H :    0.049063
  79 H :    0.055314
  80 H :   -0.001372
  81 H :    0.016194
  82 H :    0.050555
  83 H :    0.053242
  84 H :    0.031238
  85 H :    0.071580
  86 H :    0.026320
  87 H :    0.029476
  88 H :    0.026800
  89 H :    0.021696
  90 H :    0.029350
  91 H :    0.037353
  92 H :    0.035375
  93 H :    0.029966
  94 H :    0.030376
  95 H :    0.030884

  Mayer bond orders larger than 0.100000
B(  0-C ,  1-C ) :   1.3362 B(  0-C ,  5-C ) :   1.4014 B(  0-C , 70-H ) :   1.0055
B(  1-C ,  2-C ) :   1.3207 B(  1-C ,  8-N ) :   1.2486 B(  2-C ,  3-C ) :   1.3513
B(  2-C ,  6-S ) :   1.0557 B(  3-C ,  4-C ) :   1.4287 B(  3-C , 71-H ) :   0.9999
B(  4-C ,  5-C ) :   1.3422 B(  4-C , 72-H ) :   0.9899 B(  5-C , 73-H ) :   0.9884
B(  6-S ,  7-C ) :   1.0681 B(  6-S ,  8-N ) :   0.1206 B(  7-C ,  8-N ) :   1.8370
B(  7-C ,  9-C ) :   0.9135 B(  9-C , 10-C ) :   1.4510 B(  9-C , 19-C ) :   1.4503
B( 10-C , 11-C ) :   0.8337 B( 10-C , 16-C ) :   1.3010 B( 11-C , 12-O ) :   2.2003
B( 11-C , 13-S ) :   1.0231 B( 12-O , 13-S ) :   0.1096 B( 13-S , 14-C ) :   1.0323
B( 13-S , 15-O ) :   0.1081 B( 14-C , 15-O ) :   2.1404 B( 14-C , 16-C ) :   0.8324
B( 16-C , 17-C ) :   1.4123 B( 17-C , 18-C ) :   1.4008 B( 17-C , 25-C ) :   0.9853
B( 18-C , 19-C ) :   1.2986 B( 18-C , 23-C ) :   0.8358 B( 19-C , 20-C ) :   0.8325
B( 20-C , 21-O ) :   2.1993 B( 20-C , 22-S ) :   1.0291 B( 21-O , 22-S ) :   0.1114
B( 22-S , 23-C ) :   1.0207 B( 22-S , 24-O ) :   0.1097 B( 23-C , 24-O ) :   2.2006
B( 25-C , 26-C ) :   1.5420 B( 25-C , 42-C ) :   1.1445 B( 26-C , 27-C ) :   1.1501
B( 26-C , 74-H ) :   0.9891 B( 27-C , 28-C ) :   1.4676 B( 27-C , 40-C ) :   1.1306
B( 28-C , 29-C ) :   1.0201 B( 28-C , 34-C ) :   1.1196 B( 29-C , 30-C ) :   1.0160
B( 29-C , 32-C ) :   1.0294 B( 29-C , 75-H ) :   0.8886 B( 30-C , 31-N ) :   1.1118
B( 30-C , 76-H ) :   0.9409 B( 30-C , 77-H ) :   0.9322 B( 31-N , 78-H ) :   0.9395
B( 31-N , 79-H ) :   0.9712 B( 32-C , 33-N ) :   1.0950 B( 32-C , 80-H ) :   0.9561
B( 32-C , 81-H ) :   0.9222 B( 33-N , 82-H ) :   0.9713 B( 33-N , 83-H ) :   0.9693
B( 34-C , 35-C ) :   1.6494 B( 34-C , 39-C ) :   1.0483 B( 35-C , 36-C ) :   0.9771
B( 35-C , 84-H ) :   0.9684 B( 36-C , 37-C ) :   0.9795 B( 36-C , 43-C ) :   0.9760
B( 36-C , 85-H ) :   0.8492 B( 37-C , 38-C ) :   1.6954 B( 37-C , 86-H ) :   0.9838
B( 38-C , 39-C ) :   1.1392 B( 38-C , 87-H ) :   0.9907 B( 39-C , 40-C ) :   1.4131
B( 40-C , 41-C ) :   1.1580 B( 41-C , 42-C ) :   1.5942 B( 41-C , 88-H ) :   0.9923
B( 42-C , 89-H ) :   0.9808 B( 43-C , 44-C ) :   1.8806 B( 43-C , 90-H ) :   0.9809
B( 44-C , 45-C ) :   1.0364 B( 44-C , 91-H ) :   0.9307 B( 45-C , 46-C ) :   1.3975
B( 45-C , 55-C ) :   1.3888 B( 46-C , 47-C ) :   0.8331 B( 46-C , 52-C ) :   1.2945
B( 47-C , 48-O ) :   2.1998 B( 47-C , 49-S ) :   1.0318 B( 48-O , 49-S ) :   0.1102
B( 49-S , 50-C ) :   1.0262 B( 49-S , 51-O ) :   0.1105 B( 50-C , 51-O ) :   2.2007
B( 50-C , 52-C ) :   0.8327 B( 52-C , 53-C ) :   1.4557 B( 53-C , 54-C ) :   1.4516
B( 53-C , 61-C ) :   0.9132 B( 54-C , 55-C ) :   1.3005 B( 54-C , 59-C ) :   0.8334
B( 55-C , 56-C ) :   0.8489 B( 56-C , 57-O ) :   2.1451 B( 56-C , 58-S ) :   1.0441
B( 57-O , 58-S ) :   0.1092 B( 58-S , 59-C ) :   1.0182 B( 58-S , 60-O ) :   0.1093
B( 59-C , 60-O ) :   2.2106 B( 61-C , 62-N ) :   1.8327 B( 61-C , 69-S ) :   1.0715
B( 62-N , 63-C ) :   1.2497 B( 62-N , 69-S ) :   0.1219 B( 63-C , 64-C ) :   1.3372
B( 63-C , 68-C ) :   1.3190 B( 64-C , 65-C ) :   1.4024 B( 64-C , 92-H ) :   1.0054
B( 65-C , 66-C ) :   1.3415 B( 65-C , 93-H ) :   0.9881 B( 66-C , 67-C ) :   1.4309
B( 66-C , 94-H ) :   0.9893 B( 67-C , 68-C ) :   1.3491 B( 67-C , 95-H ) :   1.0007
B( 68-C , 69-S ) :   1.0566

-----------------------------------------------------------------------------
         ABSORPTION SPECTRUM VIA TRANSITION ELECTRIC DIPOLE MOMENTS
-----------------------------------------------------------------------------
State   Energy  Wavelength   fosc         T2         TX        TY        TZ
        (cm-1)    (nm)                  (au**2)     (au)      (au)      (au)
-----------------------------------------------------------------------------
   0    7935.4   1260.2   0.001017522   0.04221  -0.13067  -0.12818   0.09332
   1    9397.2   1064.2   0.000080080   0.00281   0.01125  -0.01357   0.04995
   2   13509.5    740.2   0.037805594   0.92128  -0.49037   0.58037  -0.58650
   3   17728.6    564.1   0.105957080   1.96757  -0.24017   0.17369   1.37103
   4   18268.4    547.4   0.032750276   0.59019   0.40938  -0.24875  -0.60060
   5   21364.7    468.1   0.001953835   0.03011  -0.05847   0.08813  -0.13756
   6   21680.0    461.3   0.002022302   0.03071   0.05215   0.16697   0.01046
   7   23044.9    433.9   0.000545064   0.00779   0.02907  -0.00247  -0.08328
   8   23451.1    426.4   0.000805088   0.01130  -0.01356  -0.10235  -0.02537
   9   24087.4    415.2   0.000516728   0.00706   0.01550   0.06745   0.04767
  10   24190.8    413.4   0.002367568   0.03222   0.03093  -0.08575  -0.15463
  11   24418.9    409.5   0.007419935   0.10003   0.14024  -0.13759   0.24787
  12   24519.4    407.8   0.003359901   0.04511  -0.12010  -0.17490   0.00996
  13   25308.2    395.1   0.000985674   0.01282  -0.04413   0.03086   0.09961
  14   26285.6    380.4   0.000035236   0.00044   0.01495  -0.01458   0.00232
  15   27154.0    368.3   0.002077335   0.02519   0.10106  -0.10527  -0.06238
  16   27699.6    361.0   0.000060512   0.00072   0.02217  -0.01176  -0.00944
  17   27782.3    359.9   0.007210928   0.08545   0.15497  -0.17589  -0.17462
  18   27863.0    358.9   0.000288683   0.00341   0.04629   0.00763  -0.03479
  19   28110.0    355.7   0.001480411   0.01734  -0.09287   0.08362   0.04147
  20   28354.3    352.7   0.043330654   0.50310   0.29798  -0.58525  -0.26793
  21   29626.3    337.5   0.004572619   0.05081   0.14195   0.15402  -0.08331
  22   29964.9    333.7   0.153704666   1.68869   0.70876  -0.52355  -0.95512
  23   30146.6    331.7   0.000657222   0.00718  -0.00710  -0.03208   0.07809
  24   30553.7    327.3   0.017945494   0.19336  -0.28854   0.25455  -0.21286
  25   30680.2    325.9   0.037079644   0.39788   0.23952  -0.44738  -0.37465
  26   30828.2    324.4   0.011426509   0.12202  -0.12116   0.14012   0.29616
  27   30845.5    324.2   0.009816315   0.10477  -0.01462  -0.07803  -0.31379
  28   30950.8    323.1   0.015907547   0.16920  -0.37010   0.08322   0.15908
  29   31353.0    318.9   0.005729953   0.06017   0.21812  -0.10845  -0.02876
  30   31436.8    318.1   0.001786265   0.01871   0.08453  -0.10395  -0.02748
  31   31506.2    317.4   0.007755619   0.08104  -0.01106   0.25344  -0.12918
  32   31643.8    316.0   0.018514294   0.19262   0.27832  -0.21961  -0.25870
  33   32217.7    310.4   0.024024927   0.24550  -0.18549   0.22961  -0.39795
  34   32257.7    310.0   0.000703177   0.00718  -0.02288  -0.06474   0.04961
  35   32417.4    308.5   0.006808425   0.06914  -0.20600  -0.15352   0.05601
  36   33067.6    302.4   0.117012985   1.16495   0.25805  -0.15488  -1.03652
  37   33260.3    300.7   0.030346009   0.30037   0.35098  -0.20778  -0.36607
  38   33337.1    300.0   0.005274271   0.05208  -0.15449   0.15642  -0.06123
  39   33526.0    298.3   0.000591554   0.00581   0.07444   0.00764   0.01444
  40   33654.9    297.1   0.001318633   0.01290   0.05200  -0.04392   0.09092
  41   33848.3    295.4   0.019121174   0.18597   0.23880  -0.21711   0.28603
  42   34252.4    292.0   0.019998508   0.19221   0.01267  -0.06754   0.43300
  43   34374.3    290.9   0.006018210   0.05764  -0.18135   0.15731  -0.00142
  44   34403.8    290.7   0.012391419   0.11857  -0.09890  -0.10087   0.31403
  45   34660.4    288.5   0.103012930   0.97844   0.56888  -0.30145  -0.75096
  46   34730.8    287.9   0.012149544   0.11516  -0.08649  -0.13972   0.29692
  47   35092.6    285.0   0.077437198   0.72646  -0.33236  -0.76902  -0.15683
  48   35827.8    279.1   0.074433236   0.68395  -0.45711   0.33116   0.60443
  49   35931.5    278.3   0.066601269   0.61021  -0.37648   0.27521   0.62668
  50   36303.3    275.5   0.011665882   0.10579  -0.07523   0.04953   0.31253
  51   36328.9    275.3   0.000332868   0.00302   0.00366  -0.01627  -0.05233
  52   36820.5    271.6   0.000074003   0.00066  -0.01452   0.00865   0.01939
  53   37129.2    269.3   0.001412312   0.01252  -0.06446   0.05260   0.07483
  54   37309.2    268.0   0.000007482   0.00007  -0.00267   0.00037   0.00766
  55   37687.4    265.3   0.000321265   0.00281  -0.02679   0.03426   0.03025
  56   37771.6    264.7   0.010052104   0.08761  -0.11691   0.15377  -0.22428
  57   37877.2    264.0   0.001714830   0.01490  -0.03515   0.03988   0.10990
  58   38023.4    263.0   0.076599639   0.66321   0.21726  -0.30174  -0.72454
  59   38807.0    257.7   0.146045692   1.23895   0.47000  -0.54706  -0.84781
  60   39031.7    256.2   0.015586739   0.13147  -0.30804  -0.16087   0.10344
  61   39159.0    255.4   0.049472401   0.41592   0.16048  -0.10049  -0.61649
  62   39428.7    253.6   0.079023401   0.65981   0.41325  -0.28863  -0.63697
  63   39483.1    253.3   0.055901321   0.46611  -0.30644   0.24767   0.55755
  64   39516.4    253.1   0.292930981   2.44042   0.65216  -0.54715  -1.30986
  65   39579.7    252.7   0.019826769   0.16491   0.22069  -0.14587  -0.30811
  66   39625.5    252.4   0.249532267   2.07314  -0.39542   0.44528   1.31092
  67   39751.5    251.6   0.341605449   2.82909   0.63114  -0.55678  -1.45628
  68   39897.9    250.6   0.000161819   0.00134   0.01927  -0.03011   0.00755
  69   39933.7    250.4   0.000719812   0.00593  -0.02498  -0.06983  -0.02083

FINAL SINGLE POINT ENERGY     -5202.956146582990

DIPOLE MOMENT
-------------
                                X             Y             Z
Electronic contribution:      2.39634     -14.52919      12.59920
Nuclear contribution   :     -2.89922      14.90937     -11.60348
                        -----------------------------------------
Total Dipole Moment    :     -0.50289       0.38019       0.99571
                        -----------------------------------------
Magnitude (a.u.)       :      1.17851
Magnitude (Debye)      :      2.99553

Rotational constants in cm-1:     0.002786     0.000242     0.000238
Rotational constants in MHz :    83.513048     7.247770     7.129273

                             ****ORCA TERMINATED NORMALLY****
TOTAL RUN TIME: 0 days 0 hours 9 minutes 6 seconds 217 msec
