                         Program Version 4.2.0 -  RELEASE  -
|  1> # ORCA input file
|  2> # SCF done       -211.830796794687          0.000379950824
|  3> ! CAM-B3LYP def2-SVP def2/J RIJCOSX Grid4 TightSCF
|  4> %maxcore 5000
|  5> %tddft
|  6>     Mode sTDDFT
|  7>     Ethresh 5.0
|  8>     maxcore 5000
|  9> end
| 10>
| 11> %pal
| 12>   nprocs 6
| 13>   end
| 14> * xyz 0 1
| 15>    C       -2.01151        -0.81708        -0.17896
| 16>    C       -0.82838        -0.93053         0.49177
| 17>    C       -0.02292        -2.09093         0.49019
| 18>    N        0.67000        -3.00446         0.52102
| 19>    C       -0.25679         0.09883         1.27227
| 20>    N        0.24917         0.89370         1.92660
| 21>    C       -2.65933        -1.83703        -0.98802
| 22>    C       -3.85364        -1.30765        -1.55099
| 23>    C       -4.68454        -2.05169        -2.35734
| 24>    C       -4.32635        -3.37557        -2.62087
| 25>    C       -3.13357        -3.89572        -2.05619
| 26>    C       -2.29279        -3.14636        -1.24285
| 27>    S       -2.89259        -5.54995        -2.51383
| 28>    C       -4.35564        -5.53491        -3.43534
| 29>    C       -5.00248        -4.34877        -3.40830
| 30>    C       -4.01771         0.08250        -1.12704
| 31>    O       -4.89274         0.87012        -1.42152
| 32>    C       -2.86375         0.36641        -0.22289
| 33>    C       -2.75248         1.53772         0.41986
| 34>    C       -3.74311         2.59951         0.24448
| 35>    C       -4.98462         2.60025         0.88371
| 36>    C       -5.40913         1.50058         1.77067
| 37>    O       -4.77341         0.54524         2.10240
| 38>    S       -7.08247         1.81759         2.31098
| 39>    C       -7.19191         3.36506         1.41512
| 40>    O       -8.18814         4.02524         1.41532
| 41>    C       -5.91335         3.62251         0.70414
| 42>    C       -5.65397         4.73745        -0.11300
| 43>    C       -4.42364         4.71479        -0.78794
| 44>    C       -3.49825         3.68880        -0.58856
| 45>    C       -2.23949         3.80843        -1.34020
| 46>    O       -1.32671         3.03720        -1.34846
| 47>    S       -2.28173         5.33161        -2.27706
| 48>    C       -3.95893         5.70299        -1.77921
| 49>    O       -4.57661         6.61385        -2.25575
| 50>    C       -6.65168         5.84178        -0.20290
| 51>    S       -5.98563         7.54871        -0.06310
| 52>    C       -7.64457         8.13975        -0.48333
| 53>    C       -8.22551         7.20122        -1.57378
| 54>    C       -7.45307         5.86201        -1.50717
| 55>    C       -8.08778         7.99143        -2.89957
| 56>    O       -9.04476         8.55927        -3.38694
| 57>    N       -6.84695         8.08189        -3.37895
| 58>    N       -9.62336         6.99261        -1.26950
| 59>    C      -10.71631         6.89326        -2.03299
| 60>    C      -10.81311         6.57514        -3.41759
| 61>    C       -9.71481         6.08976        -4.25909
| 62>    O       -8.62147         5.71934        -3.94026
| 63>    S      -10.25424         5.98944        -5.96820
| 64>    C      -11.92084         6.45967        -5.56259
| 65>    O      -12.77249         6.59939        -6.39233
| 66>    C      -12.03078         6.63872        -4.09806
| 67>    C      -13.25841         6.86703        -3.45838
| 68>    C      -13.17781         7.07651        -2.07872
| 69>    C      -11.97247         7.10398        -1.39435
| 70>    C      -12.11595         7.36588         0.03807
| 71>    O      -11.23323         7.47619         0.85426
| 72>    S      -13.84136         7.52345         0.45956
| 73>    C      -14.37229         7.24182        -1.23086
| 74>    O      -15.51760         7.19716        -1.56327
| 75>    C      -14.54587         6.87789        -4.13046
| 76>    C      -15.06393         5.93860        -4.93816
| 77>    C      -14.55472         4.64484        -5.37554
| 78>    C      -13.74659         3.79816        -4.66897
| 79>    C      -13.31338         2.54100        -5.14531
| 80>    N      -12.91801         1.51758        -5.48102
| 81>    C      -13.28472         4.03074        -3.35841
| 82>    N      -12.88717         4.13923        -2.28643
| 83>    C      -15.18422         4.35732        -6.65297
| 84>    C      -16.22309         5.29861        -6.88256
| 85>    C      -16.26024         6.27101        -5.77922
| 86>    O      -17.03130         7.17969        -5.60194
| 87>    C      -17.00912         5.26626        -8.00968
| 88>    C      -16.75630         4.26813        -8.95513
| 89>    C      -15.70766         3.34297        -8.72322
| 90>    C      -14.91537         3.36998        -7.58335
| 91>    S      -15.56705         2.21241       -10.03133
| 92>    C      -16.88593         2.96588       -10.85719
| 93>    C      -17.41257         4.01808       -10.19251
| 94>    H       -5.58477        -1.62182        -2.76850
| 95>    H       -1.39859        -3.58716        -0.83439
| 96>    H       -4.64710        -6.43029        -3.94922
| 97>    H       -5.92662        -4.15427        -3.92150
| 98>    H       -1.92555         1.75896         1.08083
| 99>    H       -7.34359         5.75683         0.63689
|100>    H       -7.57164         9.17291        -0.81797
|101>    H       -8.25309         8.10740         0.42362
|102>    H       -6.79342         5.74790        -2.36371
|103>    H       -8.15895         5.03151        -1.51840
|104>    H       -6.04567         7.64552        -2.94879
|105>    H       -6.70872         8.60421        -4.22888
|106>    H       -9.85334         7.12366        -0.28273
|107>    H      -15.16482         7.75486        -3.96715
|108>    H      -17.79319         5.99237        -8.15784
|109>    H      -14.11967         2.65474        -7.45545
|110>    H      -17.18994         2.56925       -11.80642
|111>    H      -18.23584         4.60736       -10.55346
|112> *
|113>
|114>                          ****END OF INPUT****

CARTESIAN COORDINATES (ANGSTROEM)
---------------------------------
  C     -2.011510   -0.817080   -0.178960
  C     -0.828380   -0.930530    0.491770
  C     -0.022920   -2.090930    0.490190
  N      0.670000   -3.004460    0.521020
  C     -0.256790    0.098830    1.272270
  N      0.249170    0.893700    1.926600
  C     -2.659330   -1.837030   -0.988020
  C     -3.853640   -1.307650   -1.550990
  C     -4.684540   -2.051690   -2.357340
  C     -4.326350   -3.375570   -2.620870
  C     -3.133570   -3.895720   -2.056190
  C     -2.292790   -3.146360   -1.242850
  S     -2.892590   -5.549950   -2.513830
  C     -4.355640   -5.534910   -3.435340
  C     -5.002480   -4.348770   -3.408300
  C     -4.017710    0.082500   -1.127040
  O     -4.892740    0.870120   -1.421520
  C     -2.863750    0.366410   -0.222890
  C     -2.752480    1.537720    0.419860
  C     -3.743110    2.599510    0.244480
  C     -4.984620    2.600250    0.883710
  C     -5.409130    1.500580    1.770670
  O     -4.773410    0.545240    2.102400
  S     -7.082470    1.817590    2.310980
  C     -7.191910    3.365060    1.415120
  O     -8.188140    4.025240    1.415320
  C     -5.913350    3.622510    0.704140
  C     -5.653970    4.737450   -0.113000
  C     -4.423640    4.714790   -0.787940
  C     -3.498250    3.688800   -0.588560
  C     -2.239490    3.808430   -1.340200
  O     -1.326710    3.037200   -1.348460
  S     -2.281730    5.331610   -2.277060
  C     -3.958930    5.702990   -1.779210
  O     -4.576610    6.613850   -2.255750
  C     -6.651680    5.841780   -0.202900
  S     -5.985630    7.548710   -0.063100
  C     -7.644570    8.139750   -0.483330
  C     -8.225510    7.201220   -1.573780
  C     -7.453070    5.862010   -1.507170
  C     -8.087780    7.991430   -2.899570
  O     -9.044760    8.559270   -3.386940
  N     -6.846950    8.081890   -3.378950
  N     -9.623360    6.992610   -1.269500
  C    -10.716310    6.893260   -2.032990
  C    -10.813110    6.575140   -3.417590
  C     -9.714810    6.089760   -4.259090
  O     -8.621470    5.719340   -3.940260
  S    -10.254240    5.989440   -5.968200
  C    -11.920840    6.459670   -5.562590
  O    -12.772490    6.599390   -6.392330
  C    -12.030780    6.638720   -4.098060
  C    -13.258410    6.867030   -3.458380
  C    -13.177810    7.076510   -2.078720
  C    -11.972470    7.103980   -1.394350
  C    -12.115950    7.365880    0.038070
  O    -11.233230    7.476190    0.854260
  S    -13.841360    7.523450    0.459560
  C    -14.372290    7.241820   -1.230860
  O    -15.517600    7.197160   -1.563270
  C    -14.545870    6.877890   -4.130460
  C    -15.063930    5.938600   -4.938160
  C    -14.554720    4.644840   -5.375540
  C    -13.746590    3.798160   -4.668970
  C    -13.313380    2.541000   -5.145310
  N    -12.918010    1.517580   -5.481020
  C    -13.284720    4.030740   -3.358410
  N    -12.887170    4.139230   -2.286430
  C    -15.184220    4.357320   -6.652970
  C    -16.223090    5.298610   -6.882560
  C    -16.260240    6.271010   -5.779220
  O    -17.031300    7.179690   -5.601940
  C    -17.009120    5.266260   -8.009680
  C    -16.756300    4.268130   -8.955130
  C    -15.707660    3.342970   -8.723220
  C    -14.915370    3.369980   -7.583350
  S    -15.567050    2.212410  -10.031330
  C    -16.885930    2.965880  -10.857190
  C    -17.412570    4.018080  -10.192510
  H     -5.584770   -1.621820   -2.768500
  H     -1.398590   -3.587160   -0.834390
  H     -4.647100   -6.430290   -3.949220
  H     -5.926620   -4.154270   -3.921500
  H     -1.925550    1.758960    1.080830
  H     -7.343590    5.756830    0.636890
  H     -7.571640    9.172910   -0.817970
  H     -8.253090    8.107400    0.423620
  H     -6.793420    5.747900   -2.363710
  H     -8.158950    5.031510   -1.518400
  H     -6.045670    7.645520   -2.948790
  H     -6.708720    8.604210   -4.228880
  H     -9.853340    7.123660   -0.282730
  H    -15.164820    7.754860   -3.967150
  H    -17.793190    5.992370   -8.157840
  H    -14.119670    2.654740   -7.455450
  H    -17.189940    2.569250  -11.806420
  H    -18.235840    4.607360  -10.553460

 Total Charge           Charge          ....    0
 Multiplicity           Mult            ....    1
 Number of Electrons    NEL             ....  590
 Basis Dimension        Dim             .... 1224

ORBITAL ENERGIES
----------------

  NO   OCC          E(Eh)            E(eV)
   0   2.0000     -88.976228     -2421.1663
   1   2.0000     -88.971908     -2421.0487
   2   2.0000     -88.967370     -2420.9252
   3   2.0000     -88.966500     -2420.9016
   4   2.0000     -88.950546     -2420.4674
   5   2.0000     -88.948193     -2420.4034
   6   2.0000     -88.926671     -2419.8177
   7   2.0000     -19.266815      -524.2767
   8   2.0000     -19.262861      -524.1691
   9   2.0000     -19.260877      -524.1151
  10   2.0000     -19.258908      -524.0615
  11   2.0000     -19.245634      -523.7003
  12   2.0000     -19.243532      -523.6431
  13   2.0000     -19.239040      -523.5209
  14   2.0000     -19.237828      -523.4879
  15   2.0000     -19.234148      -523.3878
  16   2.0000     -19.212270      -522.7925
  17   2.0000     -19.185619      -522.0672
  18   2.0000     -14.450559      -393.2197
  19   2.0000     -14.429179      -392.6379
  20   2.0000     -14.426209      -392.5571
  21   2.0000     -14.425975      -392.5508
  22   2.0000     -14.417609      -392.3231
  23   2.0000     -14.417199      -392.3119
  24   2.0000     -10.428193      -283.7656
  25   2.0000     -10.423710      -283.6436
  26   2.0000     -10.422845      -283.6200
  27   2.0000     -10.420510      -283.5565
  28   2.0000     -10.405733      -283.1544
  29   2.0000     -10.403096      -283.0826
  30   2.0000     -10.402851      -283.0760
  31   2.0000     -10.402780      -283.0740
  32   2.0000     -10.383075      -282.5378
  33   2.0000     -10.379952      -282.4529
  34   2.0000     -10.368750      -282.1480
  35   2.0000     -10.362619      -281.9812
  36   2.0000     -10.356313      -281.8096
  37   2.0000     -10.354117      -281.7498
  38   2.0000     -10.353161      -281.7238
  39   2.0000     -10.352493      -281.7057
  40   2.0000     -10.345219      -281.5077
  41   2.0000     -10.344738      -281.4946
  42   2.0000     -10.344498      -281.4881
  43   2.0000     -10.343642      -281.4648
  44   2.0000     -10.343239      -281.4539
  45   2.0000     -10.343097      -281.4500
  46   2.0000     -10.342747      -281.4405
  47   2.0000     -10.336795      -281.2785
  48   2.0000     -10.331765      -281.1416
  49   2.0000     -10.327905      -281.0366
  50   2.0000     -10.327648      -281.0296
  51   2.0000     -10.324375      -280.9405
  52   2.0000     -10.323331      -280.9121
  53   2.0000     -10.321364      -280.8586
  54   2.0000     -10.321088      -280.8511
  55   2.0000     -10.320504      -280.8352
  56   2.0000     -10.320010      -280.8217
  57   2.0000     -10.319924      -280.8194
  58   2.0000     -10.319140      -280.7981
  59   2.0000     -10.317609      -280.7564
  60   2.0000     -10.316578      -280.7283
  61   2.0000     -10.314345      -280.6676
  62   2.0000     -10.314201      -280.6637
  63   2.0000     -10.314015      -280.6586
  64   2.0000     -10.313874      -280.6548
  65   2.0000     -10.313262      -280.6381
  66   2.0000     -10.312610      -280.6204
  67   2.0000     -10.311218      -280.5825
  68   2.0000     -10.310385      -280.5598
  69   2.0000     -10.306286      -280.4483
  70   2.0000     -10.303463      -280.3715
  71   2.0000     -10.303342      -280.3682
  72   2.0000     -10.301704      -280.3236
  73   2.0000     -10.297823      -280.2180
  74   2.0000     -10.297783      -280.2169
  75   2.0000     -10.295616      -280.1580
  76   2.0000     -10.290085      -280.0074
  77   2.0000     -10.288740      -279.9708
  78   2.0000     -10.284755      -279.8624
  79   2.0000      -8.072524      -219.6646
  80   2.0000      -8.071108      -219.6260
  81   2.0000      -8.066619      -219.5039
  82   2.0000      -8.062799      -219.3999
  83   2.0000      -8.049825      -219.0469
  84   2.0000      -8.047654      -218.9878
  85   2.0000      -8.022545      -218.3045
  86   2.0000      -6.042015      -164.4116
  87   2.0000      -6.040029      -164.3575
  88   2.0000      -6.037700      -164.2942
  89   2.0000      -6.036686      -164.2666
  90   2.0000      -6.035506      -164.2345
  91   2.0000      -6.034217      -164.1994
  92   2.0000      -6.032314      -164.1476
  93   2.0000      -6.032149      -164.1431
  94   2.0000      -6.032093      -164.1416
  95   2.0000      -6.028009      -164.0305
  96   2.0000      -6.027671      -164.0213
  97   2.0000      -6.024460      -163.9339
  98   2.0000      -6.018788      -163.7795
  99   2.0000      -6.016458      -163.7162
 100   2.0000      -6.015414      -163.6877
 101   2.0000      -6.013268      -163.6293
 102   2.0000      -6.010766      -163.5613
 103   2.0000      -6.008707      -163.5052
 104   2.0000      -5.993149      -163.0819
 105   2.0000      -5.989455      -162.9813
 106   2.0000      -5.981325      -162.7601
 107   2.0000      -1.190284       -32.3893
 108   2.0000      -1.185821       -32.2678
 109   2.0000      -1.184502       -32.2319
 110   2.0000      -1.181183       -32.1416
 111   2.0000      -1.169259       -31.8172
 112   2.0000      -1.166935       -31.7539
 113   2.0000      -1.164859       -31.6974
 114   2.0000      -1.162237       -31.6261
 115   2.0000      -1.149377       -31.2761
 116   2.0000      -1.129915       -30.7466
 117   2.0000      -1.128810       -30.7165
 118   2.0000      -1.064121       -28.9562
 119   2.0000      -1.038955       -28.2714
 120   2.0000      -1.030887       -28.0519
 121   2.0000      -1.022168       -27.8146
 122   2.0000      -1.018586       -27.7171
 123   2.0000      -1.009958       -27.4824
 124   2.0000      -1.006134       -27.3783
 125   2.0000      -1.004494       -27.3337
 126   2.0000      -0.996999       -27.1297
 127   2.0000      -0.996512       -27.1165
 128   2.0000      -0.993560       -27.0361
 129   2.0000      -0.984745       -26.7963
 130   2.0000      -0.984632       -26.7932
 131   2.0000      -0.967746       -26.3337
 132   2.0000      -0.962561       -26.1926
 133   2.0000      -0.951238       -25.8845
 134   2.0000      -0.935778       -25.4638
 135   2.0000      -0.933993       -25.4152
 136   2.0000      -0.927702       -25.2441
 137   2.0000      -0.918935       -25.0055
 138   2.0000      -0.905742       -24.6465
 139   2.0000      -0.895849       -24.3773
 140   2.0000      -0.892299       -24.2807
 141   2.0000      -0.884972       -24.0813
 142   2.0000      -0.881296       -23.9813
 143   2.0000      -0.870879       -23.6978
 144   2.0000      -0.867395       -23.6030
 145   2.0000      -0.851392       -23.1675
 146   2.0000      -0.847798       -23.0697
 147   2.0000      -0.836731       -22.7686
 148   2.0000      -0.833992       -22.6941
 149   2.0000      -0.823512       -22.4089
 150   2.0000      -0.821964       -22.3668
 151   2.0000      -0.814894       -22.1744
 152   2.0000      -0.797454       -21.6998
 153   2.0000      -0.793730       -21.5985
 154   2.0000      -0.781015       -21.2525
 155   2.0000      -0.771077       -20.9821
 156   2.0000      -0.767695       -20.8900
 157   2.0000      -0.758084       -20.6285
 158   2.0000      -0.747647       -20.3445
 159   2.0000      -0.738767       -20.1029
 160   2.0000      -0.732626       -19.9358
 161   2.0000      -0.722665       -19.6647
 162   2.0000      -0.718207       -19.5434
 163   2.0000      -0.709774       -19.3139
 164   2.0000      -0.704584       -19.1727
 165   2.0000      -0.701355       -19.0848
 166   2.0000      -0.695055       -18.9134
 167   2.0000      -0.691643       -18.8206
 168   2.0000      -0.686207       -18.6726
 169   2.0000      -0.680162       -18.5082
 170   2.0000      -0.678317       -18.4579
 171   2.0000      -0.672209       -18.2917
 172   2.0000      -0.664528       -18.0827
 173   2.0000      -0.661799       -18.0085
 174   2.0000      -0.655738       -17.8435
 175   2.0000      -0.654587       -17.8122
 176   2.0000      -0.645991       -17.5783
 177   2.0000      -0.637513       -17.3476
 178   2.0000      -0.634946       -17.2778
 179   2.0000      -0.631478       -17.1834
 180   2.0000      -0.628869       -17.1124
 181   2.0000      -0.626051       -17.0357
 182   2.0000      -0.625334       -17.0162
 183   2.0000      -0.624468       -16.9926
 184   2.0000      -0.619319       -16.8525
 185   2.0000      -0.612044       -16.6546
 186   2.0000      -0.606298       -16.4982
 187   2.0000      -0.598798       -16.2941
 188   2.0000      -0.596701       -16.2371
 189   2.0000      -0.594901       -16.1881
 190   2.0000      -0.588793       -16.0219
 191   2.0000      -0.582618       -15.8538
 192   2.0000      -0.581938       -15.8353
 193   2.0000      -0.577384       -15.7114
 194   2.0000      -0.574681       -15.6379
 195   2.0000      -0.569400       -15.4942
 196   2.0000      -0.566516       -15.4157
 197   2.0000      -0.564743       -15.3674
 198   2.0000      -0.563211       -15.3257
 199   2.0000      -0.560186       -15.2434
 200   2.0000      -0.557053       -15.1582
 201   2.0000      -0.554688       -15.0938
 202   2.0000      -0.554146       -15.0791
 203   2.0000      -0.551367       -15.0035
 204   2.0000      -0.549655       -14.9569
 205   2.0000      -0.548654       -14.9296
 206   2.0000      -0.547726       -14.9044
 207   2.0000      -0.544870       -14.8267
 208   2.0000      -0.544212       -14.8088
 209   2.0000      -0.542952       -14.7745
 210   2.0000      -0.540472       -14.7070
 211   2.0000      -0.537590       -14.6286
 212   2.0000      -0.537413       -14.6237
 213   2.0000      -0.531994       -14.4763
 214   2.0000      -0.531088       -14.4516
 215   2.0000      -0.530472       -14.4349
 216   2.0000      -0.528222       -14.3736
 217   2.0000      -0.525429       -14.2976
 218   2.0000      -0.524399       -14.2696
 219   2.0000      -0.521683       -14.1957
 220   2.0000      -0.519496       -14.1362
 221   2.0000      -0.518444       -14.1076
 222   2.0000      -0.517256       -14.0753
 223   2.0000      -0.512985       -13.9590
 224   2.0000      -0.510894       -13.9021
 225   2.0000      -0.508979       -13.8500
 226   2.0000      -0.503371       -13.6974
 227   2.0000      -0.502862       -13.6836
 228   2.0000      -0.501815       -13.6551
 229   2.0000      -0.501625       -13.6499
 230   2.0000      -0.497693       -13.5429
 231   2.0000      -0.496697       -13.5158
 232   2.0000      -0.493275       -13.4227
 233   2.0000      -0.491024       -13.3614
 234   2.0000      -0.488903       -13.3037
 235   2.0000      -0.487822       -13.2743
 236   2.0000      -0.485101       -13.2003
 237   2.0000      -0.479859       -13.0576
 238   2.0000      -0.475117       -12.9286
 239   2.0000      -0.471864       -12.8401
 240   2.0000      -0.469066       -12.7639
 241   2.0000      -0.468115       -12.7380
 242   2.0000      -0.464474       -12.6390
 243   2.0000      -0.462985       -12.5985
 244   2.0000      -0.462084       -12.5740
 245   2.0000      -0.457937       -12.4611
 246   2.0000      -0.454608       -12.3705
 247   2.0000      -0.453294       -12.3347
 248   2.0000      -0.451144       -12.2763
 249   2.0000      -0.446788       -12.1577
 250   2.0000      -0.446311       -12.1447
 251   2.0000      -0.444164       -12.0863
 252   2.0000      -0.443010       -12.0549
 253   2.0000      -0.442268       -12.0347
 254   2.0000      -0.437232       -11.8977
 255   2.0000      -0.434651       -11.8275
 256   2.0000      -0.432515       -11.7693
 257   2.0000      -0.432168       -11.7599
 258   2.0000      -0.428172       -11.6511
 259   2.0000      -0.426607       -11.6086
 260   2.0000      -0.420682       -11.4473
 261   2.0000      -0.418780       -11.3956
 262   2.0000      -0.417499       -11.3607
 263   2.0000      -0.407065       -11.0768
 264   2.0000      -0.405705       -11.0398
 265   2.0000      -0.395238       -10.7550
 266   2.0000      -0.393855       -10.7173
 267   2.0000      -0.390986       -10.6393
 268   2.0000      -0.389023       -10.5859
 269   2.0000      -0.380624       -10.3573
 270   2.0000      -0.379821       -10.3354
 271   2.0000      -0.377869       -10.2823
 272   2.0000      -0.375391       -10.2149
 273   2.0000      -0.373491       -10.1632
 274   2.0000      -0.370993       -10.0952
 275   2.0000      -0.369691       -10.0598
 276   2.0000      -0.364470        -9.9177
 277   2.0000      -0.363661        -9.8957
 278   2.0000      -0.359349        -9.7784
 279   2.0000      -0.357527        -9.7288
 280   2.0000      -0.352283        -9.5861
 281   2.0000      -0.349236        -9.5032
 282   2.0000      -0.346121        -9.4184
 283   2.0000      -0.341996        -9.3062
 284   2.0000      -0.340192        -9.2571
 285   2.0000      -0.335246        -9.1225
 286   2.0000      -0.332821        -9.0565
 287   2.0000      -0.331879        -9.0309
 288   2.0000      -0.324495        -8.8300
 289   2.0000      -0.319814        -8.7026
 290   2.0000      -0.312917        -8.5149
 291   2.0000      -0.303745        -8.2653
 292   2.0000      -0.296024        -8.0552
 293   2.0000      -0.295329        -8.0363
 294   2.0000      -0.284255        -7.7350
 295   0.0000      -0.115066        -3.1311
 296   0.0000      -0.095380        -2.5954
 297   0.0000      -0.094999        -2.5851
 298   0.0000      -0.085116        -2.3161
 299   0.0000      -0.072563        -1.9745

MULLIKEN ATOMIC CHARGES
-----------------------
   0 C :    0.331195
   1 C :   -0.331931
   2 C :   -0.189220
   3 N :    0.162613
   4 C :   -0.189996
   5 N :    0.163712
   6 C :    0.015255
   7 C :   -0.020585
   8 C :   -0.054252
   9 C :    0.111478
  10 C :   -0.092435
  11 C :   -0.020947
  12 S :    0.151184
  13 C :   -0.045616
  14 C :    0.026907
  15 C :    0.146932
  16 O :   -0.160056
  17 C :    0.004180
  18 C :   -0.090652
  19 C :   -0.027800
  20 C :    0.067625
  21 C :    0.041481
  22 O :   -0.119548
  23 S :    0.047208
  24 C :    0.044026
  25 O :   -0.123846
  26 C :    0.050165
  27 C :    0.026852
  28 C :    0.077047
  29 C :    0.046402
  30 C :    0.044048
  31 O :   -0.112182
  32 S :    0.049827
  33 C :    0.048441
  34 O :   -0.134640
  35 C :   -0.224801
  36 S :   -0.029758
  37 C :    0.054048
  38 C :   -0.227153
  39 C :    0.295446
  40 C :    0.026381
  41 O :   -0.230860
  42 N :   -0.031632
  43 N :   -0.027126
  44 C :    0.067466
  45 C :    0.061458
  46 C :    0.030103
  47 O :   -0.160630
  48 S :    0.026109
  49 C :    0.043160
  50 O :   -0.135901
  51 C :    0.020635
  52 C :   -0.073664
  53 C :    0.068970
  54 C :    0.034554
  55 C :    0.039511
  56 O :   -0.188447
  57 S :    0.034819
  58 C :    0.041680
  59 O :   -0.118872
  60 C :    0.022045
  61 C :   -0.083772
  62 C :    0.289661
  63 C :   -0.365920
  64 C :   -0.193377
  65 N :    0.161711
  66 C :   -0.172951
  67 N :    0.160501
  68 C :    0.017539
  69 C :   -0.000871
  70 C :    0.137172
  71 O :   -0.128750
  72 C :   -0.068040
  73 C :    0.113808
  74 C :   -0.090782
  75 C :   -0.023879
  76 S :    0.139887
  77 C :   -0.046824
  78 C :    0.023451
  79 H :   -0.007336
  80 H :   -0.003403
  81 H :    0.043046
  82 H :   -0.001361
  83 H :    0.057865
  84 H :    0.063593
  85 H :    0.067602
  86 H :    0.057946
  87 H :    0.021818
  88 H :    0.014583
  89 H :    0.124794
  90 H :    0.132903
  91 H :    0.138164
  92 H :    0.040518
  93 H :   -0.008611
  94 H :   -0.003924
  95 H :    0.038505
  96 H :   -0.005683
Sum of atomic charges:   -0.0000000

LOEWDIN ATOMIC CHARGES
----------------------
   0 C :    0.077123
   1 C :   -0.120570
   2 C :   -0.017537
   3 N :   -0.041188
   4 C :   -0.014659
   5 N :   -0.040657
   6 C :   -0.018477
   7 C :   -0.056637
   8 C :    0.030658
   9 C :   -0.032385
  10 C :   -0.141972
  11 C :   -0.005084
  12 S :    0.438458
  13 C :   -0.144210
  14 C :   -0.055260
  15 C :    0.088866
  16 O :   -0.148623
  17 C :   -0.059250
  18 C :    0.077641
  19 C :    0.038484
  20 C :   -0.036202
  21 C :   -0.045510
  22 O :   -0.107235
  23 S :    0.329931
  24 C :   -0.038396
  25 O :   -0.104269
  26 C :   -0.044691
  27 C :    0.034783
  28 C :   -0.051766
  29 C :   -0.044327
  30 C :   -0.044061
  31 O :   -0.099162
  32 S :    0.329257
  33 C :   -0.036149
  34 O :   -0.116384
  35 C :   -0.126096
  36 S :    0.242650
  37 C :   -0.112369
  38 C :   -0.023400
  39 C :   -0.027669
  40 C :    0.054135
  41 O :   -0.224509
  42 N :    0.023080
  43 N :    0.044968
  44 C :    0.101766
  45 C :   -0.077727
  46 C :   -0.031796
  47 O :   -0.125403
  48 S :    0.316210
  49 C :   -0.046899
  50 O :   -0.121780
  51 C :   -0.035269
  52 C :   -0.023807
  53 C :   -0.030437
  54 C :   -0.091130
  55 C :   -0.034901
  56 O :   -0.144442
  57 S :    0.319590
  58 C :   -0.036895
  59 O :   -0.099024
  60 C :    0.074961
  61 C :   -0.066745
  62 C :    0.079825
  63 C :   -0.142681
  64 C :   -0.018693
  65 N :   -0.051462
  66 C :   -0.014672
  67 N :   -0.058994
  68 C :   -0.015863
  69 C :   -0.048799
  70 C :    0.089234
  71 O :   -0.129091
  72 C :    0.025193
  73 C :   -0.032101
  74 C :   -0.144137
  75 C :   -0.006248
  76 S :    0.429304
  77 C :   -0.148226
  78 C :   -0.056999
  79 H :    0.042895
  80 H :    0.042108
  81 H :    0.031545
  82 H :    0.037695
  83 H :    0.054906
  84 H :    0.027368
  85 H :    0.036609
  86 H :    0.027450
  87 H :    0.022243
  88 H :    0.033611
  89 H :    0.059185
  90 H :    0.085821
  91 H :    0.066215
  92 H :    0.051630
  93 H :    0.041554
  94 H :    0.040757
  95 H :    0.029390
  96 H :    0.035829

  Mayer bond orders larger than 0.100000
B(  0-C ,  1-C ) :   1.6827 B(  0-C ,  6-C ) :   1.0199 B(  0-C , 17-C ) :   1.0118
B(  1-C ,  2-C ) :   1.1324 B(  1-C ,  4-C ) :   1.1520 B(  2-C ,  3-N ) :   2.9768
B(  4-C ,  5-N ) :   2.9701 B(  6-C ,  7-C ) :   1.2586 B(  6-C , 11-C ) :   1.4046
B(  7-C ,  8-C ) :   1.4133 B(  7-C , 15-C ) :   0.9633 B(  8-C ,  9-C ) :   1.2539
B(  8-C , 79-H ) :   1.0171 B(  9-C , 10-C ) :   1.2899 B(  9-C , 14-C ) :   1.1721
B( 10-C , 11-C ) :   1.3289 B( 10-C , 12-S ) :   1.1057 B( 11-C , 80-H ) :   0.9829
B( 12-S , 13-C ) :   1.1269 B( 13-C , 14-C ) :   1.6281 B( 13-C , 81-H ) :   0.9682
B( 14-C , 82-H ) :   0.9998 B( 15-C , 16-O ) :   2.1939 B( 15-C , 17-C ) :   0.9228
B( 17-C , 18-C ) :   1.7828 B( 18-C , 19-C ) :   0.9888 B( 18-C , 83-H ) :   0.9175
B( 19-C , 20-C ) :   1.3966 B( 19-C , 29-C ) :   1.4365 B( 20-C , 21-C ) :   0.8384
B( 20-C , 26-C ) :   1.3259 B( 21-C , 22-O ) :   2.1810 B( 21-C , 23-S ) :   1.0331
B( 22-O , 23-S ) :   0.1088 B( 23-S , 24-C ) :   1.0428 B( 23-S , 25-O ) :   0.1035
B( 24-C , 25-O ) :   2.1447 B( 24-C , 26-C ) :   0.8341 B( 26-C , 27-C ) :   1.4258
B( 27-C , 28-C ) :   1.3813 B( 27-C , 35-C ) :   0.9978 B( 28-C , 29-C ) :   1.3030
B( 28-C , 33-C ) :   0.8447 B( 29-C , 30-C ) :   0.8436 B( 30-C , 31-O ) :   2.1764
B( 30-C , 32-S ) :   1.0267 B( 31-O , 32-S ) :   0.1064 B( 32-S , 33-C ) :   1.0540
B( 32-S , 34-O ) :   0.1037 B( 33-C , 34-O ) :   2.0635 B( 35-C , 36-S ) :   0.9891
B( 35-C , 39-C ) :   0.9713 B( 35-C , 84-H ) :   0.8708 B( 36-S , 37-C ) :   1.0233
B( 37-C , 38-C ) :   0.9996 B( 37-C , 85-H ) :   0.9360 B( 37-C , 86-H ) :   0.9272
B( 38-C , 39-C ) :   1.0109 B( 38-C , 40-C ) :   0.8517 B( 38-C , 43-N ) :   0.9668
B( 39-C , 87-H ) :   0.9360 B( 39-C , 88-H ) :   0.9102 B( 40-C , 41-O ) :   2.0961
B( 40-C , 42-N ) :   1.3435 B( 42-N , 89-H ) :   0.9085 B( 42-N , 90-H ) :   0.9345
B( 43-N , 44-C ) :   1.4263 B( 43-N , 91-H ) :   0.8375 B( 44-C , 45-C ) :   1.2532
B( 44-C , 54-C ) :   1.2624 B( 45-C , 46-C ) :   0.8459 B( 45-C , 51-C ) :   1.3713
B( 46-C , 47-O ) :   2.1051 B( 46-C , 48-S ) :   1.0306 B( 48-S , 49-C ) :   1.0457
B( 48-S , 50-O ) :   0.1078 B( 49-C , 50-O ) :   2.1608 B( 49-C , 51-C ) :   0.8469
B( 51-C , 52-C ) :   1.3450 B( 52-C , 53-C ) :   1.4049 B( 52-C , 60-C ) :   0.9937
B( 53-C , 54-C ) :   1.3590 B( 53-C , 58-C ) :   0.8441 B( 54-C , 55-C ) :   0.8793
B( 55-C , 56-O ) :   2.0371 B( 55-C , 57-S ) :   1.0563 B( 56-O , 91-H ) :   0.1181
B( 57-S , 58-C ) :   1.0272 B( 57-S , 59-O ) :   0.1048 B( 58-C , 59-O ) :   2.1716
B( 60-C , 61-C ) :   1.8229 B( 60-C , 92-H ) :   0.9176 B( 61-C , 62-C ) :   0.9910
B( 61-C , 70-C ) :   0.9220 B( 62-C , 63-C ) :   1.6567 B( 62-C , 68-C ) :   1.0330
B( 63-C , 64-C ) :   1.1269 B( 63-C , 66-C ) :   1.1801 B( 64-C , 65-N ) :   2.9944
B( 66-C , 67-N ) :   2.9825 B( 68-C , 69-C ) :   1.2645 B( 68-C , 75-C ) :   1.4042
B( 69-C , 70-C ) :   0.9235 B( 69-C , 72-C ) :   1.4244 B( 70-C , 71-O ) :   2.2858
B( 72-C , 73-C ) :   1.2551 B( 72-C , 93-H ) :   1.0162 B( 73-C , 74-C ) :   1.2949
B( 73-C , 78-C ) :   1.1727 B( 74-C , 75-C ) :   1.3315 B( 74-C , 76-S ) :   1.0962
B( 75-C , 94-H ) :   0.9850 B( 76-S , 77-C ) :   1.1265 B( 77-C , 78-C ) :   1.6292
B( 77-C , 95-H ) :   0.9680 B( 78-C , 96-H ) :   1.0001

-----------------------------------------------------------------------------
         ABSORPTION SPECTRUM VIA TRANSITION ELECTRIC DIPOLE MOMENTS
-----------------------------------------------------------------------------
State   Energy  Wavelength   fosc         T2         TX        TY        TZ
        (cm-1)    (nm)                  (au**2)     (au)      (au)      (au)
-----------------------------------------------------------------------------
   0   19028.9    525.5   0.017511399   0.30296   0.35548  -0.41010  -0.09169
   1   20851.5    479.6   0.121848270   1.92379  -0.97662   0.01147   0.98482
   2   23323.2    428.8   0.005191311   0.07328  -0.25523  -0.05586   0.07080
   3   24025.5    416.2   0.001376364   0.01886  -0.00221  -0.08918   0.10441
   4   24481.9    408.5   0.142605219   1.91764   0.30344   0.76590   1.11308
   5   25313.1    395.1   0.022997584   0.29910  -0.51695  -0.05153  -0.17090
   6   27118.3    368.8   0.010099854   0.12261   0.33881  -0.08282  -0.03100
   7   27264.3    366.8   0.182746942   2.20664   0.77591   0.24073   1.24364
   8   27382.4    365.2   0.049200985   0.59153  -0.32747  -0.40114   0.56867
   9   27665.0    361.5   0.010282509   0.12236   0.12944   0.31341   0.08590
  10   28140.9    355.4   0.012672551   0.14825   0.20397   0.04535   0.32341
  11   28158.5    355.1   0.169836839   1.98563  -0.78846  -0.86019  -0.78996
  12   28903.0    346.0   0.011558298   0.13165   0.08559   0.32235  -0.14289
  13   29100.7    343.6   0.035340995   0.39981  -0.20423   0.48248   0.35399
  14   29753.0    336.1   0.010029367   0.11097  -0.07483   0.32446   0.00990
  15   29892.8    334.5   0.030075006   0.33122   0.30110  -0.26973   0.40964
  16   30364.7    329.3   0.068252185   0.73998  -0.23949  -0.26197  -0.78358
  17   30391.3    329.0   0.047128715   0.51052  -0.57738   0.08635  -0.41194
  18   30412.5    328.8   0.035626599   0.38565  -0.15543   0.59419  -0.09186
  19   30676.1    326.0   0.031989842   0.34331  -0.31881  -0.00773  -0.49154
  20   30701.2    325.7   0.002379216   0.02551  -0.08199   0.09975   0.09402
  21   30826.6    324.4   0.000769498   0.00822   0.05468  -0.06795  -0.02470
  22   31419.5    318.3   0.048863241   0.51199   0.61536  -0.22932   0.28413
  23   31475.9    317.7   0.009471556   0.09906  -0.07946   0.29880   0.05890
  24   31601.4    316.4   0.050642295   0.52757  -0.32200   0.65104  -0.00630
  25   31707.2    315.4   0.017862979   0.18547  -0.02532  -0.42425   0.06954
  26   32146.0    311.1   0.004934724   0.05054   0.08013  -0.20776   0.03084
  27   32203.5    310.5   0.003307949   0.03382   0.00586   0.17267   0.06298
  28   32427.7    308.4   0.010216313   0.10372  -0.30361   0.03542  -0.10141
  29   32519.8    307.5   0.044545482   0.45095   0.28412  -0.60644  -0.04957
  30   32788.4    305.0   0.081388953   0.81719  -0.63926   0.60151  -0.21615
  31   32824.7    304.6   0.122934986   1.23296   0.69861  -0.86299  -0.01240
  32   33037.2    302.7   0.040591465   0.40449   0.37466  -0.41734   0.29991
  33   33256.2    300.7   0.171648310   1.69919   0.83502   0.18969   0.98283
  34   33457.1    298.9   0.006606619   0.06501  -0.14769  -0.18861  -0.08730
  35   33745.1    296.3   0.599050622   5.84424   1.56423   1.04610   1.51760
  36   33837.6    295.5   0.010815206   0.10522  -0.04087  -0.30500  -0.10259
  37   33946.4    294.6   0.364274011   3.53273  -1.43069  -0.19594  -1.20311
  38   33982.9    294.3   0.087894443   0.85148   0.29417  -0.05520   0.87287
  39   34037.6    293.8   0.190775715   1.84518   0.87849   0.85738   0.58168
  40   34346.8    291.1   0.010503288   0.10067  -0.09766   0.29114   0.07984
  41   34358.0    291.1   0.037801181   0.36220  -0.04235   0.40973   0.43878
  42   34589.4    289.1   0.033554285   0.31936  -0.17495   0.44236   0.30507
  43   34838.2    287.0   0.115106361   1.08772  -0.33780   0.07414  -0.98393
  44   35065.4    285.2   0.022432492   0.21061   0.22105  -0.17989  -0.35970
  45   35266.5    283.6   0.002905276   0.02712  -0.04430   0.08013   0.13689
  46   35320.0    283.1   0.194497612   1.81288   0.97380   0.05043   0.92847
  47   35441.0    282.2   0.066648702   0.61910   0.23169  -0.09081   0.74644
  48   35777.6    279.5   0.001637168   0.01506   0.09053   0.02630   0.07859
  49   36102.4    277.0   0.048824446   0.44522  -0.05644   0.03338   0.66402
  50   36154.6    276.6   0.006459700   0.05882   0.13507  -0.17137  -0.10586
  51   36445.5    274.4   0.042773932   0.38638  -0.19380  -0.47581  -0.34989
  52   36627.9    273.0   0.017510552   0.15739   0.30635   0.24220  -0.06983
  53   36780.0    271.9   0.019713634   0.17645  -0.37280   0.04799  -0.18754
  54   36788.1    271.8   0.002063568   0.01847  -0.12581  -0.01826  -0.04802
  55   37010.7    270.2   0.006546609   0.05823   0.18540  -0.14985  -0.03747
  56   37140.5    269.2   0.069486205   0.61592  -0.15196  -0.71793  -0.27822
  57   37213.3    268.7   0.173929468   1.53869  -0.60615   1.06473   0.19397
  58   37386.6    267.5   0.131338622   1.15652   0.66596   0.67839   0.50279
  59   37526.4    266.5   0.000058000   0.00051   0.00672  -0.02147   0.00165
  60   37699.9    265.3   0.027930720   0.24390  -0.43599   0.23183   0.00815
  61   38057.6    262.8   0.239895829   2.07518   0.93091  -1.08642   0.16820
  62   38184.9    261.9   0.012650904   0.10907  -0.28956   0.15260  -0.04401
  63   38379.4    260.6   0.018065395   0.15496   0.21683  -0.01011  -0.32840
  64   38391.0    260.5   0.002907726   0.02493  -0.00608   0.10234   0.12010
  65   38801.8    257.7   0.060844303   0.51623   0.32772  -0.57782   0.27379
  66   38829.7    257.5   0.117993613   1.00039  -0.04774  -0.90262  -0.42823
  67   39105.4    255.7   0.035488905   0.29877  -0.17986  -0.20375  -0.47424
  68   39289.0    254.5   0.015420710   0.12921   0.00258  -0.34888  -0.08654
  69   39356.8    254.1   0.059476899   0.49751  -0.18228   0.57461   0.36620
  70   39509.5    253.1   0.002422036   0.02018   0.05717  -0.12281  -0.04279
  71   39750.5    251.6   0.001767323   0.01464   0.05574  -0.10301  -0.03032
  72   40016.5    249.9   0.181421160   1.49253   0.11359  -1.04013  -0.63068
  73   40174.4    248.9   0.009549181   0.07825   0.06249  -0.26880  -0.04575
  74   40210.5    248.7   0.004605293   0.03770   0.05568  -0.18162  -0.04024
  75   40273.4    248.3   0.009768602   0.07985   0.13746  -0.22627  -0.09879

FINAL SINGLE POINT ENERGY     -6045.187885657436

DIPOLE MOMENT
-------------
                                X             Y             Z
Electronic contribution:      8.56077      -2.86186      14.12305
Nuclear contribution   :     -8.67218       1.81273     -16.58313
                        -----------------------------------------
Total Dipole Moment    :     -0.11141      -1.04913      -2.46007
                        -----------------------------------------
Magnitude (a.u.)       :      2.67676
Magnitude (Debye)      :      6.80378

Rotational constants in cm-1:     0.001032     0.000366     0.000307
Rotational constants in MHz :    30.927380    10.984214     9.194639

                             ****ORCA TERMINATED NORMALLY****
TOTAL RUN TIME: 0 days 0 hours 17 minutes 18 seconds 263 msec
