                         Program Version 4.2.0 -  RELEASE  -
|  1> # ORCA input file
|  2> # SCF done       -190.956297260072          0.000600836503
|  3> ! CAM-B3LYP def2-SVP def2/J RIJCOSX Grid4 TightSCF
|  4> %maxcore 5000
|  5> %tddft
|  6>     Mode sTDDFT
|  7>     Ethresh 5.0
|  8>     maxcore 5000
|  9> end
| 10>
| 11> %pal
| 12>   nprocs 6
| 13>   end
| 14> * xyz 0 1
| 15>    C       -9.87805         1.28506         5.80176
| 16>    C      -11.08356         1.66917         5.23510
| 17>    C      -11.63449         0.96226         4.17415
| 18>    C      -10.99651        -0.15085         3.64509
| 19>    C       -9.79181        -0.54620         4.20136
| 20>    C       -9.23013         0.17326         5.28364
| 21>    C       -7.95363        -0.42318         5.63247
| 22>    C       -7.17789        -0.09967         6.71139
| 23>    C       -7.57609         0.79370         7.73277
| 24>    N       -7.82778         1.47199         8.62275
| 25>    C       -5.89116        -0.59929         7.00229
| 26>    N       -4.82092        -0.89055         7.30188
| 27>    C       -7.66850        -1.43365         4.61114
| 28>    C       -8.91617        -1.66478         3.88455
| 29>    C       -9.27704        -2.81116         3.24034
| 30>    C       -8.51066        -3.99921         3.23863
| 31>    N       -8.00206        -5.02546         3.31045
| 32>    C      -10.53265        -2.99363         2.61930
| 33>    N      -11.53728        -3.18700         2.10171
| 34>    C       -6.42195        -1.91656         4.35556
| 35>    C       -5.96986        -2.62853         3.21438
| 36>    N       -6.67128        -2.75857         2.09661
| 37>    C       -5.87958        -3.42891         1.23709
| 38>    C       -4.57386        -3.73308         1.83799
| 39>    C       -3.72635        -4.48244         0.88980
| 40>    O       -2.58859        -4.86170         1.03887
| 41>    C       -4.61404        -4.63002        -0.28059
| 42>    C       -5.91021        -3.95291        -0.03212
| 43>    N       -6.72759        -4.07521        -1.10407
| 44>    C       -6.04886        -4.78206        -1.97376
| 45>    C       -4.72100        -5.16461        -1.52168
| 46>    C       -4.61426        -3.22440         3.11005
| 47>    C       -3.65216        -3.19280         4.15295
| 48>    C       -2.34978        -3.54986         4.06354
| 49>    C       -1.50420        -3.30627         5.19855
| 50>    N       -2.06867        -2.74390         6.26220
| 51>    N       -1.43096        -2.36824         7.30485
| 52>    C       -0.11066        -2.42115         7.42848
| 53>    C        0.63037        -3.02658         6.37841
| 54>    C       -0.10215        -3.52273         5.23900
| 55>    N        0.70269        -4.04931         4.32273
| 56>    S        2.21684        -3.90085         4.82659
| 57>    N        1.93992        -3.18366         6.23116
| 58>    C        0.46901        -1.79509         8.58602
| 59>    N        1.63428        -2.13388         9.08465
| 60>    C        1.86810        -1.26949        10.10069
| 61>    C        0.76956        -0.29748        10.23338
| 62>    C        1.05396         0.66844        11.31096
| 63>    O        0.38082         1.60261        11.67925
| 64>    C        2.36902         0.21339        11.80361
| 65>    C        2.82538        -0.97209        11.03419
| 66>    N        4.04484        -1.37901        11.46769
| 67>    C        4.36600        -0.54555        12.42260
| 68>    C        3.36687         0.48010        12.67999
| 69>    C       -0.14916        -0.62590         9.27631
| 70>    C       -1.33431         0.01966         8.82131
| 71>    C       -1.64817         1.31295         9.06261
| 72>    C       -2.71925         1.97545         8.38898
| 73>    C       -3.07039         1.79592         7.08270
| 74>    C       -4.34050         2.21288         6.49203
| 75>    C       -5.26029         3.07787         7.01954
| 76>    C       -5.09857         3.82807         8.20571
| 77>    N       -5.02495         4.49304         9.13746
| 78>    C       -6.50627         3.35678         6.41983
| 79>    N       -7.54152         3.59364         5.98306
| 80>    C       -4.46934         1.50916         5.22155
| 81>    C       -3.28809         0.77168         4.98213
| 82>    C       -3.14395         0.02822         3.82053
| 83>    C       -4.17833         0.02437         2.89913
| 84>    C       -5.34150         0.74547         3.13210
| 85>    C       -5.49735         1.49310         4.28919
| 86>    C       -2.34711         1.04270         6.05495
| 87>    C       -0.99674         0.83709         5.96883
| 88>    C       -0.37493         0.01607         5.00961
| 89>    N        0.19826        -0.70520         4.32264
| 90>    C       -0.02573         1.41973         6.81399
| 91>    N        0.84068         1.91337         7.38187
| 92>    H       -9.45274         1.85806         6.60919
| 93>    H      -11.59415         2.53701         5.62213
| 94>    H      -12.57160         1.28530         3.74738
| 95>    H      -11.42667        -0.68119         2.81111
| 96>    H       -5.64426        -1.65880         5.06004
| 97>    H       -6.48038        -5.02904        -2.92813
| 98>    H       -4.01511        -5.74280        -2.08400
| 99>    H       -3.97587        -2.80902         5.11205
|100>    H       -1.90689        -3.96355         3.16950
|101>    H        5.30097        -0.65155        12.94515
|102>    H        3.44666         1.25570        13.41557
|103>    H       -1.97064        -0.57234         8.17424
|104>    H       -1.10482         1.87503         9.81330
|105>    H       -3.30021         2.66601         8.98635
|106>    H       -2.24727        -0.53640         3.62619
|107>    H       -4.07255        -0.53809         1.98403
|108>    H       -6.13286         0.73321         2.39782
|109>    H       -6.40093         2.06100         4.43962
|110> *
|111>
|112>                          ****END OF INPUT****

CARTESIAN COORDINATES (ANGSTROEM)
---------------------------------
  C     -9.878050    1.285060    5.801760
  C    -11.083560    1.669170    5.235100
  C    -11.634490    0.962260    4.174150
  C    -10.996510   -0.150850    3.645090
  C     -9.791810   -0.546200    4.201360
  C     -9.230130    0.173260    5.283640
  C     -7.953630   -0.423180    5.632470
  C     -7.177890   -0.099670    6.711390
  C     -7.576090    0.793700    7.732770
  N     -7.827780    1.471990    8.622750
  C     -5.891160   -0.599290    7.002290
  N     -4.820920   -0.890550    7.301880
  C     -7.668500   -1.433650    4.611140
  C     -8.916170   -1.664780    3.884550
  C     -9.277040   -2.811160    3.240340
  C     -8.510660   -3.999210    3.238630
  N     -8.002060   -5.025460    3.310450
  C    -10.532650   -2.993630    2.619300
  N    -11.537280   -3.187000    2.101710
  C     -6.421950   -1.916560    4.355560
  C     -5.969860   -2.628530    3.214380
  N     -6.671280   -2.758570    2.096610
  C     -5.879580   -3.428910    1.237090
  C     -4.573860   -3.733080    1.837990
  C     -3.726350   -4.482440    0.889800
  O     -2.588590   -4.861700    1.038870
  C     -4.614040   -4.630020   -0.280590
  C     -5.910210   -3.952910   -0.032120
  N     -6.727590   -4.075210   -1.104070
  C     -6.048860   -4.782060   -1.973760
  C     -4.721000   -5.164610   -1.521680
  C     -4.614260   -3.224400    3.110050
  C     -3.652160   -3.192800    4.152950
  C     -2.349780   -3.549860    4.063540
  C     -1.504200   -3.306270    5.198550
  N     -2.068670   -2.743900    6.262200
  N     -1.430960   -2.368240    7.304850
  C     -0.110660   -2.421150    7.428480
  C      0.630370   -3.026580    6.378410
  C     -0.102150   -3.522730    5.239000
  N      0.702690   -4.049310    4.322730
  S      2.216840   -3.900850    4.826590
  N      1.939920   -3.183660    6.231160
  C      0.469010   -1.795090    8.586020
  N      1.634280   -2.133880    9.084650
  C      1.868100   -1.269490   10.100690
  C      0.769560   -0.297480   10.233380
  C      1.053960    0.668440   11.310960
  O      0.380820    1.602610   11.679250
  C      2.369020    0.213390   11.803610
  C      2.825380   -0.972090   11.034190
  N      4.044840   -1.379010   11.467690
  C      4.366000   -0.545550   12.422600
  C      3.366870    0.480100   12.679990
  C     -0.149160   -0.625900    9.276310
  C     -1.334310    0.019660    8.821310
  C     -1.648170    1.312950    9.062610
  C     -2.719250    1.975450    8.388980
  C     -3.070390    1.795920    7.082700
  C     -4.340500    2.212880    6.492030
  C     -5.260290    3.077870    7.019540
  C     -5.098570    3.828070    8.205710
  N     -5.024950    4.493040    9.137460
  C     -6.506270    3.356780    6.419830
  N     -7.541520    3.593640    5.983060
  C     -4.469340    1.509160    5.221550
  C     -3.288090    0.771680    4.982130
  C     -3.143950    0.028220    3.820530
  C     -4.178330    0.024370    2.899130
  C     -5.341500    0.745470    3.132100
  C     -5.497350    1.493100    4.289190
  C     -2.347110    1.042700    6.054950
  C     -0.996740    0.837090    5.968830
  C     -0.374930    0.016070    5.009610
  N      0.198260   -0.705200    4.322640
  C     -0.025730    1.419730    6.813990
  N      0.840680    1.913370    7.381870
  H     -9.452740    1.858060    6.609190
  H    -11.594150    2.537010    5.622130
  H    -12.571600    1.285300    3.747380
  H    -11.426670   -0.681190    2.811110
  H     -5.644260   -1.658800    5.060040
  H     -6.480380   -5.029040   -2.928130
  H     -4.015110   -5.742800   -2.084000
  H     -3.975870   -2.809020    5.112050
  H     -1.906890   -3.963550    3.169500
  H      5.300970   -0.651550   12.945150
  H      3.446660    1.255700   13.415570
  H     -1.970640   -0.572340    8.174240
  H     -1.104820    1.875030    9.813300
  H     -3.300210    2.666010    8.986350
  H     -2.247270   -0.536400    3.626190
  H     -4.072550   -0.538090    1.984030
  H     -6.132860    0.733210    2.397820
  H     -6.400930    2.061000    4.439620

 Total Charge           Charge          ....    0
 Multiplicity           Mult            ....    1
 Number of Electrons    NEL             ....  510
 Basis Dimension        Dim             .... 1172

ORBITAL ENERGIES
----------------

  NO   OCC          E(Eh)            E(eV)
   0   2.0000     -89.045086     -2423.0400
   1   2.0000     -19.232252      -523.3362
   2   2.0000     -19.216793      -522.9155
   3   2.0000     -14.462281      -393.5387
   4   2.0000     -14.457123      -393.3983
   5   2.0000     -14.453805      -393.3080
   6   2.0000     -14.453116      -393.2893
   7   2.0000     -14.447674      -393.1412
   8   2.0000     -14.441173      -392.9643
   9   2.0000     -14.437303      -392.8590
  10   2.0000     -14.435061      -392.7980
  11   2.0000     -14.434237      -392.7756
  12   2.0000     -14.431934      -392.7129
  13   2.0000     -14.430312      -392.6688
  14   2.0000     -14.428086      -392.6082
  15   2.0000     -14.424628      -392.5141
  16   2.0000     -14.422771      -392.4636
  17   2.0000     -14.419280      -392.3686
  18   2.0000     -14.412029      -392.1712
  19   2.0000     -10.392068      -282.7825
  20   2.0000     -10.376245      -282.3520
  21   2.0000     -10.374800      -282.3127
  22   2.0000     -10.370536      -282.1966
  23   2.0000     -10.368883      -282.1516
  24   2.0000     -10.368339      -282.1369
  25   2.0000     -10.359418      -281.8941
  26   2.0000     -10.357926      -281.8535
  27   2.0000     -10.355777      -281.7950
  28   2.0000     -10.355543      -281.7887
  29   2.0000     -10.355194      -281.7792
  30   2.0000     -10.355125      -281.7773
  31   2.0000     -10.354127      -281.7501
  32   2.0000     -10.351975      -281.6915
  33   2.0000     -10.350489      -281.6511
  34   2.0000     -10.350015      -281.6382
  35   2.0000     -10.349441      -281.6226
  36   2.0000     -10.348734      -281.6034
  37   2.0000     -10.345487      -281.5150
  38   2.0000     -10.344333      -281.4836
  39   2.0000     -10.344194      -281.4798
  40   2.0000     -10.340832      -281.3883
  41   2.0000     -10.338811      -281.3333
  42   2.0000     -10.337870      -281.3078
  43   2.0000     -10.337731      -281.3039
  44   2.0000     -10.335689      -281.2484
  45   2.0000     -10.335218      -281.2356
  46   2.0000     -10.333583      -281.1911
  47   2.0000     -10.333265      -281.1824
  48   2.0000     -10.333233      -281.1816
  49   2.0000     -10.327321      -281.0207
  50   2.0000     -10.327042      -281.0131
  51   2.0000     -10.326026      -280.9854
  52   2.0000     -10.325607      -280.9741
  53   2.0000     -10.325443      -280.9696
  54   2.0000     -10.325408      -280.9686
  55   2.0000     -10.324149      -280.9344
  56   2.0000     -10.323327      -280.9120
  57   2.0000     -10.322578      -280.8916
  58   2.0000     -10.314002      -280.6583
  59   2.0000     -10.312953      -280.6297
  60   2.0000     -10.312688      -280.6225
  61   2.0000     -10.312264      -280.6110
  62   2.0000     -10.311653      -280.5944
  63   2.0000     -10.311526      -280.5909
  64   2.0000     -10.311273      -280.5840
  65   2.0000     -10.311221      -280.5826
  66   2.0000     -10.311125      -280.5800
  67   2.0000     -10.310910      -280.5741
  68   2.0000     -10.308636      -280.5122
  69   2.0000     -10.307481      -280.4808
  70   2.0000     -10.307054      -280.4692
  71   2.0000     -10.302001      -280.3317
  72   2.0000     -10.296892      -280.1927
  73   2.0000     -10.296545      -280.1832
  74   2.0000     -10.295033      -280.1421
  75   2.0000     -10.293777      -280.1079
  76   2.0000     -10.292125      -280.0630
  77   2.0000      -8.136634      -221.4091
  78   2.0000      -6.107599      -166.1962
  79   2.0000      -6.099794      -165.9838
  80   2.0000      -6.099558      -165.9774
  81   2.0000      -1.154514       -31.4159
  82   2.0000      -1.147332       -31.2205
  83   2.0000      -1.134785       -30.8791
  84   2.0000      -1.131563       -30.7914
  85   2.0000      -1.105008       -30.0688
  86   2.0000      -1.085335       -29.5335
  87   2.0000      -1.084725       -29.5169
  88   2.0000      -1.066773       -29.0284
  89   2.0000      -1.054185       -28.6858
  90   2.0000      -1.044184       -28.4137
  91   2.0000      -1.036311       -28.1995
  92   2.0000      -1.027610       -27.9627
  93   2.0000      -1.023763       -27.8580
  94   2.0000      -1.020012       -27.7559
  95   2.0000      -1.015562       -27.6349
  96   2.0000      -1.010366       -27.4934
  97   2.0000      -1.006018       -27.3752
  98   2.0000      -1.005910       -27.3722
  99   2.0000      -1.001346       -27.2480
 100   2.0000      -0.975341       -26.5404
 101   2.0000      -0.970268       -26.4023
 102   2.0000      -0.964349       -26.2413
 103   2.0000      -0.960023       -26.1236
 104   2.0000      -0.956030       -26.0149
 105   2.0000      -0.948371       -25.8065
 106   2.0000      -0.944198       -25.6929
 107   2.0000      -0.934748       -25.4358
 108   2.0000      -0.925994       -25.1976
 109   2.0000      -0.922323       -25.0977
 110   2.0000      -0.914093       -24.8737
 111   2.0000      -0.905332       -24.6353
 112   2.0000      -0.903006       -24.5720
 113   2.0000      -0.890789       -24.2396
 114   2.0000      -0.880169       -23.9506
 115   2.0000      -0.877878       -23.8883
 116   2.0000      -0.877228       -23.8706
 117   2.0000      -0.869181       -23.6516
 118   2.0000      -0.859611       -23.3912
 119   2.0000      -0.841305       -22.8931
 120   2.0000      -0.832378       -22.6502
 121   2.0000      -0.813510       -22.1367
 122   2.0000      -0.808073       -21.9888
 123   2.0000      -0.800584       -21.7850
 124   2.0000      -0.797400       -21.6984
 125   2.0000      -0.784882       -21.3577
 126   2.0000      -0.775829       -21.1114
 127   2.0000      -0.773024       -21.0351
 128   2.0000      -0.764490       -20.8028
 129   2.0000      -0.751858       -20.4591
 130   2.0000      -0.738939       -20.1075
 131   2.0000      -0.731786       -19.9129
 132   2.0000      -0.731225       -19.8976
 133   2.0000      -0.729048       -19.8384
 134   2.0000      -0.728831       -19.8325
 135   2.0000      -0.722607       -19.6631
 136   2.0000      -0.719168       -19.5696
 137   2.0000      -0.712173       -19.3792
 138   2.0000      -0.693283       -18.8652
 139   2.0000      -0.683799       -18.6071
 140   2.0000      -0.682257       -18.5652
 141   2.0000      -0.681101       -18.5337
 142   2.0000      -0.677368       -18.4321
 143   2.0000      -0.674695       -18.3594
 144   2.0000      -0.672693       -18.3049
 145   2.0000      -0.668326       -18.1861
 146   2.0000      -0.659430       -17.9440
 147   2.0000      -0.654244       -17.8029
 148   2.0000      -0.643148       -17.5009
 149   2.0000      -0.638233       -17.3672
 150   2.0000      -0.635737       -17.2993
 151   2.0000      -0.624993       -17.0069
 152   2.0000      -0.619724       -16.8636
 153   2.0000      -0.617773       -16.8105
 154   2.0000      -0.613451       -16.6929
 155   2.0000      -0.603215       -16.4143
 156   2.0000      -0.601715       -16.3735
 157   2.0000      -0.596347       -16.2274
 158   2.0000      -0.594975       -16.1901
 159   2.0000      -0.593686       -16.1550
 160   2.0000      -0.583083       -15.8665
 161   2.0000      -0.580927       -15.8078
 162   2.0000      -0.579448       -15.7676
 163   2.0000      -0.576700       -15.6928
 164   2.0000      -0.572089       -15.5673
 165   2.0000      -0.567488       -15.4421
 166   2.0000      -0.565147       -15.3784
 167   2.0000      -0.558867       -15.2076
 168   2.0000      -0.557018       -15.1572
 169   2.0000      -0.554499       -15.0887
 170   2.0000      -0.552825       -15.0431
 171   2.0000      -0.551042       -14.9946
 172   2.0000      -0.550554       -14.9813
 173   2.0000      -0.548915       -14.9367
 174   2.0000      -0.547238       -14.8911
 175   2.0000      -0.544022       -14.8036
 176   2.0000      -0.540918       -14.7191
 177   2.0000      -0.529073       -14.3968
 178   2.0000      -0.528159       -14.3719
 179   2.0000      -0.527637       -14.3577
 180   2.0000      -0.526173       -14.3179
 181   2.0000      -0.524942       -14.2844
 182   2.0000      -0.520932       -14.1753
 183   2.0000      -0.518486       -14.1087
 184   2.0000      -0.516205       -14.0467
 185   2.0000      -0.515557       -14.0290
 186   2.0000      -0.508794       -13.8450
 187   2.0000      -0.503988       -13.7142
 188   2.0000      -0.501840       -13.6558
 189   2.0000      -0.499522       -13.5927
 190   2.0000      -0.495881       -13.4936
 191   2.0000      -0.495256       -13.4766
 192   2.0000      -0.492328       -13.3969
 193   2.0000      -0.490223       -13.3397
 194   2.0000      -0.487345       -13.2613
 195   2.0000      -0.485774       -13.2186
 196   2.0000      -0.481065       -13.0904
 197   2.0000      -0.479206       -13.0399
 198   2.0000      -0.477624       -12.9968
 199   2.0000      -0.477331       -12.9889
 200   2.0000      -0.473192       -12.8762
 201   2.0000      -0.471464       -12.8292
 202   2.0000      -0.470190       -12.7945
 203   2.0000      -0.468239       -12.7414
 204   2.0000      -0.466988       -12.7074
 205   2.0000      -0.465004       -12.6534
 206   2.0000      -0.464704       -12.6452
 207   2.0000      -0.463407       -12.6099
 208   2.0000      -0.460744       -12.5375
 209   2.0000      -0.459925       -12.5152
 210   2.0000      -0.457673       -12.4539
 211   2.0000      -0.454414       -12.3652
 212   2.0000      -0.452732       -12.3195
 213   2.0000      -0.451269       -12.2797
 214   2.0000      -0.450015       -12.2455
 215   2.0000      -0.447636       -12.1808
 216   2.0000      -0.446552       -12.1513
 217   2.0000      -0.443780       -12.0759
 218   2.0000      -0.441521       -12.0144
 219   2.0000      -0.440974       -11.9995
 220   2.0000      -0.437642       -11.9089
 221   2.0000      -0.435179       -11.8418
 222   2.0000      -0.433713       -11.8019
 223   2.0000      -0.432215       -11.7612
 224   2.0000      -0.431008       -11.7283
 225   2.0000      -0.426143       -11.5960
 226   2.0000      -0.422145       -11.4872
 227   2.0000      -0.419623       -11.4185
 228   2.0000      -0.411936       -11.2094
 229   2.0000      -0.407106       -11.0779
 230   2.0000      -0.400586       -10.9005
 231   2.0000      -0.394840       -10.7442
 232   2.0000      -0.393921       -10.7191
 233   2.0000      -0.389080       -10.5874
 234   2.0000      -0.387332       -10.5398
 235   2.0000      -0.383822       -10.4443
 236   2.0000      -0.375780       -10.2255
 237   2.0000      -0.373333       -10.1589
 238   2.0000      -0.370076       -10.0703
 239   2.0000      -0.360882        -9.8201
 240   2.0000      -0.359844        -9.7919
 241   2.0000      -0.357196        -9.7198
 242   2.0000      -0.356615        -9.7040
 243   2.0000      -0.351343        -9.5605
 244   2.0000      -0.347738        -9.4624
 245   2.0000      -0.342265        -9.3135
 246   2.0000      -0.341601        -9.2954
 247   2.0000      -0.339152        -9.2288
 248   2.0000      -0.335528        -9.1302
 249   2.0000      -0.334483        -9.1018
 250   2.0000      -0.322334        -8.7711
 251   2.0000      -0.317113        -8.6291
 252   2.0000      -0.310525        -8.4498
 253   2.0000      -0.295750        -8.0478
 254   2.0000      -0.284319        -7.7367
 255   0.0000      -0.152652        -4.1539
 256   0.0000      -0.128242        -3.4896
 257   0.0000      -0.107565        -2.9270
 258   0.0000      -0.102399        -2.7864
 259   0.0000      -0.095442        -2.5971

MULLIKEN ATOMIC CHARGES
-----------------------
   0 C :   -0.008652
   1 C :    0.046691
   2 C :    0.054687
   3 C :   -0.038613
   4 C :    0.016635
   5 C :   -0.002198
   6 C :    0.297392
   7 C :   -0.353357
   8 C :   -0.209816
   9 N :    0.195903
  10 C :   -0.169685
  11 N :    0.188263
  12 C :   -0.005810
  13 C :    0.219417
  14 C :   -0.254404
  15 C :   -0.178350
  16 N :    0.172128
  17 C :   -0.196750
  18 N :    0.178772
  19 C :    0.012701
  20 C :    0.012550
  21 N :   -0.050173
  22 C :    0.082687
  23 C :   -0.151976
  24 C :    0.216499
  25 O :   -0.114384
  26 C :   -0.016782
  27 C :   -0.024523
  28 N :   -0.046611
  29 C :    0.104381
  30 C :   -0.086993
  31 C :    0.102498
  32 C :   -0.027202
  33 C :   -0.045012
  34 C :   -0.003806
  35 N :   -0.084392
  36 N :   -0.044853
  37 C :   -0.082581
  38 C :    0.085869
  39 C :    0.048439
  40 N :   -0.243546
  41 S :    0.558242
  42 N :   -0.212882
  43 C :   -0.005650
  44 N :    0.002434
  45 C :    0.086078
  46 C :   -0.151310
  47 C :    0.228472
  48 O :   -0.125818
  49 C :   -0.022812
  50 C :   -0.023290
  51 N :   -0.049148
  52 C :    0.096383
  53 C :   -0.091690
  54 C :    0.022914
  55 C :   -0.032462
  56 C :    0.002836
  57 C :    0.051848
  58 C :   -0.054523
  59 C :    0.296308
  60 C :   -0.353365
  61 C :   -0.180550
  62 N :    0.177583
  63 C :   -0.184802
  64 N :    0.148349
  65 C :    0.016240
  66 C :    0.017393
  67 C :   -0.026605
  68 C :    0.028727
  69 C :    0.065604
  70 C :   -0.066603
  71 C :    0.278378
  72 C :   -0.361980
  73 C :   -0.154938
  74 N :    0.129217
  75 C :   -0.194380
  76 N :    0.189430
  77 H :    0.019706
  78 H :    0.011744
  79 H :    0.010325
  80 H :    0.010564
  81 H :   -0.003776
  82 H :    0.021405
  83 H :    0.006651
  84 H :    0.032236
  85 H :    0.019809
  86 H :    0.014645
  87 H :    0.002008
  88 H :    0.062439
  89 H :    0.039948
  90 H :    0.039181
  91 H :    0.003371
  92 H :    0.003912
  93 H :    0.006122
  94 H :    0.001043
Sum of atomic charges:   -0.0000000

LOEWDIN ATOMIC CHARGES
----------------------
   0 C :    0.022444
   1 C :    0.008077
   2 C :    0.014763
   3 C :   -0.000061
   4 C :   -0.005604
   5 C :   -0.021886
   6 C :    0.078076
   7 C :   -0.119575
   8 C :   -0.021692
   9 N :   -0.025266
  10 C :   -0.017638
  11 N :   -0.030830
  12 C :    0.015792
  13 C :    0.058502
  14 C :   -0.084411
  15 C :   -0.016236
  16 N :   -0.039079
  17 C :   -0.015915
  18 N :   -0.026680
  19 C :    0.022307
  20 C :    0.059142
  21 N :   -0.078172
  22 C :    0.040282
  23 C :   -0.032052
  24 C :    0.068325
  25 O :   -0.122057
  26 C :   -0.035680
  27 C :    0.045851
  28 N :   -0.092569
  29 C :    0.096092
  30 C :   -0.022349
  31 C :   -0.024461
  32 C :    0.013026
  33 C :    0.004033
  34 C :    0.013800
  35 N :   -0.051307
  36 N :   -0.019047
  37 C :   -0.027334
  38 C :   -0.047095
  39 C :   -0.058683
  40 N :   -0.261500
  41 S :    0.699505
  42 N :   -0.248586
  43 C :    0.063839
  44 N :   -0.068971
  45 C :    0.047402
  46 C :   -0.028199
  47 C :    0.071666
  48 O :   -0.128410
  49 C :   -0.035162
  50 C :    0.039240
  51 N :   -0.091555
  52 C :    0.085341
  53 C :   -0.027864
  54 C :   -0.020941
  55 C :    0.019517
  56 C :   -0.008333
  57 C :    0.085044
  58 C :   -0.050036
  59 C :    0.076393
  60 C :   -0.129653
  61 C :   -0.022136
  62 N :   -0.029708
  63 C :   -0.007004
  64 N :   -0.057418
  65 C :   -0.013595
  66 C :   -0.003905
  67 C :    0.003750
  68 C :   -0.002774
  69 C :   -0.001834
  70 C :   -0.008364
  71 C :    0.085871
  72 C :   -0.132765
  73 C :   -0.009623
  74 N :   -0.063421
  75 C :   -0.020895
  76 N :   -0.036108
  77 H :    0.043271
  78 H :    0.041701
  79 H :    0.040192
  80 H :    0.042386
  81 H :    0.045723
  82 H :    0.029202
  83 H :    0.039383
  84 H :    0.035498
  85 H :    0.040929
  86 H :    0.026034
  87 H :    0.037055
  88 H :    0.036017
  89 H :    0.044610
  90 H :    0.051681
  91 H :    0.039835
  92 H :    0.036925
  93 H :    0.037917
  94 H :    0.037997

  Mayer bond orders larger than 0.100000
B(  0-C ,  1-C ) :   1.3788 B(  0-C ,  5-C ) :   1.3774 B(  0-C , 77-H ) :   0.9783
B(  1-C ,  2-C ) :   1.3698 B(  1-C , 78-H ) :   0.9871 B(  2-C ,  3-C ) :   1.3629
B(  2-C , 79-H ) :   0.9864 B(  3-C ,  4-C ) :   1.3844 B(  3-C , 80-H ) :   0.9880
B(  4-C ,  5-C ) :   1.2942 B(  4-C , 13-C ) :   1.0014 B(  5-C ,  6-C ) :   1.0144
B(  6-C ,  7-C ) :   1.6412 B(  6-C , 12-C ) :   1.0300 B(  7-C ,  8-C ) :   1.1595
B(  7-C , 10-C ) :   1.1354 B(  8-C ,  9-N ) :   2.9555 B( 10-C , 11-N ) :   2.9346
B( 12-C , 13-C ) :   1.0004 B( 12-C , 19-C ) :   1.6692 B( 13-C , 14-C ) :   1.7141
B( 14-C , 15-C ) :   1.1422 B( 14-C , 17-C ) :   1.1487 B( 15-C , 16-N ) :   2.9779
B( 17-C , 18-N ) :   2.9930 B( 19-C , 20-C ) :   1.1139 B( 19-C , 81-H ) :   0.9145
B( 20-C , 21-N ) :   1.5626 B( 20-C , 22-C ) :   0.1185 B( 20-C , 31-C ) :   1.0268
B( 21-N , 22-C ) :   1.3134 B( 22-C , 23-C ) :   1.0620 B( 22-C , 27-C ) :   1.4242
B( 23-C , 24-C ) :   0.8844 B( 23-C , 31-C ) :   1.5458 B( 24-C , 25-O ) :   2.2462
B( 24-C , 26-C ) :   0.9089 B( 26-C , 27-C ) :   1.0545 B( 26-C , 30-C ) :   1.6297
B( 27-C , 28-N ) :   1.3111 B( 28-N , 29-C ) :   1.6580 B( 29-C , 30-C ) :   1.0484
B( 29-C , 82-H ) :   0.9891 B( 30-C , 83-H ) :   1.0105 B( 31-C , 32-C ) :   1.0573
B( 32-C , 33-C ) :   1.6578 B( 32-C , 84-H ) :   0.9436 B( 33-C , 34-C ) :   1.1141
B( 33-C , 85-H ) :   0.9843 B( 34-C , 35-N ) :   1.5886 B( 34-C , 37-C ) :   0.1188
B( 34-C , 39-C ) :   1.0924 B( 35-N , 36-N ) :   1.2747 B( 36-N , 37-C ) :   1.6380
B( 37-C , 38-C ) :   1.1401 B( 37-C , 43-C ) :   1.0126 B( 38-C , 39-C ) :   1.1827
B( 38-C , 42-N ) :   1.5606 B( 39-C , 40-N ) :   1.5531 B( 40-N , 41-S ) :   1.2959
B( 40-N , 42-N ) :   0.1434 B( 41-S , 42-N ) :   1.2940 B( 43-C , 44-N ) :   1.7104
B( 43-C , 45-C ) :   0.1377 B( 43-C , 54-C ) :   1.0398 B( 44-N , 45-C ) :   1.3001
B( 45-C , 46-C ) :   1.0587 B( 45-C , 50-C ) :   1.4424 B( 46-C , 47-C ) :   0.8852
B( 46-C , 54-C ) :   1.5683 B( 47-C , 48-O ) :   2.2402 B( 47-C , 49-C ) :   0.9077
B( 49-C , 50-C ) :   1.0532 B( 49-C , 53-C ) :   1.6298 B( 50-C , 51-N ) :   1.2998
B( 51-N , 52-C ) :   1.6708 B( 52-C , 53-C ) :   1.0533 B( 52-C , 86-H ) :   0.9883
B( 53-C , 87-H ) :   1.0102 B( 54-C , 55-C ) :   1.1430 B( 55-C , 56-C ) :   1.6916
B( 55-C , 88-H ) :   0.9195 B( 56-C , 57-C ) :   1.1085 B( 56-C , 89-H ) :   0.9310
B( 57-C , 58-C ) :   1.6613 B( 57-C , 90-H ) :   0.9244 B( 58-C , 59-C ) :   1.0479
B( 58-C , 71-C ) :   0.9966 B( 59-C , 60-C ) :   1.6484 B( 59-C , 65-C ) :   0.9939
B( 60-C , 61-C ) :   1.1330 B( 60-C , 63-C ) :   1.1555 B( 61-C , 62-N ) :   2.9853
B( 63-C , 64-N ) :   2.9251 B( 65-C , 66-C ) :   1.3210 B( 65-C , 70-C ) :   1.3682
B( 66-C , 67-C ) :   1.3742 B( 66-C , 71-C ) :   1.0269 B( 67-C , 68-C ) :   1.3759
B( 67-C , 91-H ) :   0.9765 B( 68-C , 69-C ) :   1.3628 B( 68-C , 92-H ) :   0.9781
B( 69-C , 70-C ) :   1.3699 B( 69-C , 93-H ) :   0.9853 B( 70-C , 94-H ) :   0.9798
B( 71-C , 72-C ) :   1.6426 B( 72-C , 73-C ) :   1.1592 B( 72-C , 75-C ) :   1.1424
B( 73-C , 74-N ) :   2.9057 B( 75-C , 76-N ) :   3.0001

-----------------------------------------------------------------------------
         ABSORPTION SPECTRUM VIA TRANSITION ELECTRIC DIPOLE MOMENTS
-----------------------------------------------------------------------------
State   Energy  Wavelength   fosc         T2         TX        TY        TZ
        (cm-1)    (nm)                  (au**2)     (au)      (au)      (au)
-----------------------------------------------------------------------------
   0   14524.0    688.5   0.068988731   1.56375  -0.30831  -0.37491  -1.15245
   1   15911.7    628.5   0.004381431   0.09065  -0.17131   0.18753  -0.16167
   2   16447.8    608.0   0.030390127   0.60828   0.67905  -0.20975   0.32121
   3   17186.3    581.9   0.093721954   1.79529   0.77499   0.14712   1.08307
   4   18286.7    546.8   0.094190687   1.69569   0.65259  -0.22794  -1.10357
   5   19655.0    508.8   0.057848826   0.96894   0.68669   0.70523   0.00641
   6   19780.9    505.5   0.034825043   0.57959  -0.29752   0.63922  -0.28719
   7   20256.9    493.7   0.017441818   0.28346  -0.29890   0.11146   0.42626
   8   21028.1    475.6   0.721865437  11.30141   2.03507   0.53007   2.62277
   9   21241.8    470.8   0.160535431   2.48803   1.02948   0.29841   1.15722
  10   22438.8    445.7   0.143069100   2.09905   0.75946   0.52988   1.11422
  11   22965.7    435.4   0.020523982   0.29421  -0.38385  -0.07994  -0.37481
  12   23097.6    432.9   0.039063497   0.55677   0.00721  -0.30191  -0.68233
  13   23434.2    426.7   0.334814355   4.70360   1.85361  -0.69545   0.88549
  14   23936.0    417.8   0.009630552   0.13246   0.28609  -0.22480   0.00864
  15   24133.7    414.4   0.320091432   4.36641   1.03054  -1.16815  -1.39278
  16   24242.0    412.5   0.009439761   0.12819  -0.25905  -0.01319  -0.24680
  17   24505.7    408.1   0.182139577   2.44688   0.71598   0.10445   1.38685
  18   24802.1    403.2   0.076228939   1.01183  -0.23426   0.64677   0.73392
  19   25056.0    399.1   0.011210506   0.14730  -0.33350   0.18990  -0.00310
  20   25272.9    395.7   0.002719966   0.03543  -0.16697   0.05345  -0.06851
  21   25548.3    391.4   0.027774062   0.35789   0.01578  -0.01635  -0.59781
  22   26289.8    380.4   0.042089428   0.52706  -0.58726   0.32793   0.27321
  23   26346.9    379.6   0.043303684   0.54109  -0.11461  -0.02034  -0.72632
  24   26381.2    379.1   0.044683054   0.55760  -0.63636   0.06675  -0.38496
  25   26608.4    375.8   0.032087857   0.39701   0.42679  -0.29886  -0.35432
  26   26956.8    371.0   0.050205853   0.61314  -0.45975   0.35362   0.52605
  27   27148.5    368.3   0.062804091   0.76158  -0.45203  -0.11809  -0.73709
  28   27455.7    364.2   0.005772561   0.06922  -0.10284   0.13836  -0.19874
  29   27915.5    358.2   0.035653862   0.42047   0.17339  -0.43333  -0.45014
  30   28298.3    353.4   0.021851289   0.25421   0.24228  -0.26665   0.35271
  31   28491.8    351.0   0.290572191   3.35745  -1.57227   0.09031  -0.93662
  32   28819.6    347.0   0.057900110   0.66140  -0.38179  -0.33482  -0.63524
  33   29005.4    344.8   0.052774344   0.59899  -0.36236  -0.15473  -0.66614
  34   29125.0    343.3   0.029546822   0.33398  -0.57310   0.06895  -0.02793
  35   29454.6    339.5   0.009989857   0.11166  -0.11623  -0.13097  -0.28459
  36   29703.3    336.7   0.196795262   2.18115   0.75464   0.71032   1.05220
  37   30081.9    332.4   0.159562029   1.74623  -0.88668  -0.60381  -0.77165
  38   30367.6    329.3   0.048616067   0.52704   0.51996   0.26828   0.42978
  39   30623.1    326.6   0.041057762   0.44139  -0.06226  -0.06859  -0.65788
  40   30839.5    324.3   0.001712132   0.01828  -0.00313  -0.12626  -0.04821
  41   30995.6    322.6   0.050627379   0.53773  -0.60400   0.25611   0.32759
  42   31114.7    321.4   0.001467949   0.01553  -0.12318  -0.01115  -0.01532
  43   31235.7    320.1   0.026996959   0.28454   0.44285   0.00708  -0.29727
  44   31380.7    318.7   0.060507213   0.63477  -0.55103  -0.33842  -0.46542
  45   31757.3    314.9   0.087755474   0.90972   0.51423  -0.75795  -0.26610
  46   31782.7    314.6   0.033193282   0.34382   0.40703  -0.24320  -0.34497
  47   31911.2    313.4   0.007292546   0.07523  -0.22881   0.07967   0.12859
  48   32163.0    310.9   0.034147185   0.34952   0.51750  -0.21373   0.18983
  49   32237.3    310.2   0.015704885   0.16038   0.34441   0.02467  -0.20286
  50   32332.3    309.3   0.038124050   0.38818   0.55950  -0.13420  -0.23902
  51   32662.5    306.2   0.206023267   2.07655   0.24421  -0.74484  -1.20918
  52   32788.4    305.0   0.026540647   0.26648  -0.50352   0.10998   0.02927
  53   33049.2    302.6   0.006779502   0.06753   0.17751  -0.18977  -0.00282
  54   33146.3    301.7   0.104092284   1.03385   0.98689  -0.05253   0.23905
  55   33211.4    301.1   0.027365703   0.27127   0.51011  -0.06563  -0.08210
  56   33424.8    299.2   0.154991633   1.52656   1.18478  -0.30363   0.17513
  57   33463.4    298.8   0.196612121   1.93427   1.18089  -0.25980   0.68721
  58   33691.0    296.8   0.020823820   0.20348   0.04625   0.29769   0.33574
  59   33911.6    294.9   0.105538067   1.02456  -0.74659  -0.28659  -0.62051
  60   34377.9    290.9   0.008158830   0.07813  -0.24262   0.13386   0.03675
  61   34740.5    287.8   0.563965744   5.34432   1.50854  -1.57036  -0.77626
  62   34774.0    287.6   0.059957014   0.56762  -0.32873  -0.22697  -0.63879
  63   34920.7    286.4   0.089244498   0.84134   0.51510  -0.03945   0.75793
  64   35246.8    283.7   0.115784534   1.08145  -0.47233  -0.46204  -0.80304
  65   35286.9    283.4   0.027747071   0.25887  -0.31238  -0.21082  -0.34183
  66   35562.2    281.2   0.101137516   0.93627  -0.75695   0.56351   0.21390
  67   35732.4    279.9   0.043760049   0.40317  -0.08348   0.47993   0.40728
  68   35912.6    278.5   0.069169169   0.63408   0.33293   0.42852   0.58276
  69   36031.6    277.5   0.013979053   0.12772  -0.30557   0.12921  -0.13288
  70   36172.8    276.5   0.012602294   0.11469  -0.28311   0.16963   0.07597
  71   36206.1    276.2   0.012629868   0.11484   0.13895  -0.09977   0.29254
  72   36232.4    276.0   0.124190078   1.12840   0.48086   0.42477   0.84661
  73   36319.7    275.3   0.014084975   0.12767   0.24355  -0.08766   0.24631
  74   36512.9    273.9   0.224202193   2.02148  -0.09977  -0.90469  -1.09227
  75   36784.4    271.9   0.075737452   0.67783   0.79678   0.02766   0.20547
  76   36815.4    271.6   0.111820592   0.99993  -0.46248  -0.38644  -0.79794
  77   36954.0    270.6   0.004705343   0.04192   0.04384   0.18677  -0.07150
  78   37095.1    269.6   0.002182981   0.01937   0.02459  -0.05657   0.12478
  79   37236.3    268.6   0.001902840   0.01682   0.00011  -0.12412  -0.03766
  80   37311.2    268.0   0.011481358   0.10130  -0.16715   0.25982   0.07657
  81   37432.1    267.2   0.058613026   0.51550   0.16039  -0.49867  -0.49102
  82   37695.3    265.3   0.029803559   0.26029  -0.46052   0.12120  -0.18308
  83   37787.0    264.6   0.005967827   0.05199   0.07797  -0.21306   0.02278
  84   37848.4    264.2   0.055686556   0.48437   0.55223   0.22103   0.36133
  85   37922.4    263.7   0.006663493   0.05785   0.23391  -0.05239   0.01974
  86   37961.7    263.4   0.053419690   0.46327   0.26183   0.30764   0.54779
  87   38059.9    262.7   0.006595051   0.05705   0.08535  -0.17453   0.13894
  88   38185.2    261.9   0.010630314   0.09165   0.23825   0.03030  -0.18430
  89   38375.2    260.6   0.040750849   0.34959   0.27964  -0.00926   0.52087
  90   38468.8    260.0   0.052602485   0.45017  -0.42885   0.35387   0.37555
  91   38615.9    259.0   0.007612377   0.06490  -0.04884   0.13832   0.20828
  92   38762.2    258.0   0.020259007   0.17206   0.16554  -0.26522  -0.27261
  93   38794.5    257.8   0.092089317   0.78147   0.50141   0.42612   0.59033
  94   38944.8    256.8   0.002672431   0.02259   0.14237  -0.02040   0.04365
  95   38967.5    256.6   0.065665723   0.55477   0.68392  -0.10091   0.27720
  96   39063.2    256.0   0.213367913   1.79820  -0.01766  -0.92813  -0.96771
  97   39173.3    255.3   0.012408412   0.10428   0.28549  -0.12232   0.08840
  98   39326.3    254.3   0.019561545   0.16376   0.24395  -0.32118  -0.03301
  99   39382.7    253.9   0.056030149   0.46837  -0.43089   0.41381  -0.33387
 100   39484.0    253.3   0.022019087   0.18359  -0.12935   0.33940   0.22730
 101   39699.6    251.9   0.012083474   0.10020  -0.09604  -0.19949  -0.22624
 102   39775.5    251.4   0.020722995   0.17152  -0.13998  -0.09523  -0.37796
 103   39996.7    250.0   0.051219269   0.42158  -0.58421   0.06814  -0.27503
 104   40071.1    249.6   0.056325276   0.46275  -0.48387   0.38373  -0.28526
 105   40155.8    249.0   0.011733398   0.09619  -0.28155   0.03186  -0.12614
 106   40316.5    248.0   0.065410463   0.53412   0.46531   0.07482   0.55858

FINAL SINGLE POINT ENERGY     -3640.987269964191

DIPOLE MOMENT
-------------
                                X             Y             Z
Electronic contribution:     16.72265     -10.39677       5.50808
Nuclear contribution   :    -17.08697       9.89173      -7.92533
                        -----------------------------------------
Total Dipole Moment    :     -0.36433      -0.50504      -2.41725
                        -----------------------------------------
Magnitude (a.u.)       :      2.49618
Magnitude (Debye)      :      6.34478

Rotational constants in cm-1:     0.001445     0.000701     0.000521
Rotational constants in MHz :    43.324485    21.021204    15.622367

                             ****ORCA TERMINATED NORMALLY****
TOTAL RUN TIME: 0 days 0 hours 12 minutes 14 seconds 318 msec
