                         Program Version 4.2.0 -  RELEASE  -
|  1> # ORCA input file
|  2> # SCF done       -173.089311812888          0.000426479083
|  3> ! CAM-B3LYP def2-SVP def2/J RIJCOSX Grid4 TightSCF
|  4> %maxcore 5000
|  5> %tddft
|  6>     Mode sTDDFT
|  7>     Ethresh 5.0
|  8>     maxcore 5000
|  9> end
| 10>
| 11> %pal
| 12>   nprocs 6
| 13>   end
| 14> * xyz 0 1
| 15>    C        1.77644         3.25375        -3.94498
| 16>    C        0.81454         4.14479        -4.35600
| 17>    C        0.36383         4.26439        -5.68330
| 18>    N       -0.06346         4.39063        -6.74236
| 19>    C        0.22694         5.09111        -3.49819
| 20>    N       -0.25712         5.87984        -2.81762
| 21>    C        2.62564         2.46274        -4.83311
| 22>    C        3.75690         2.01338        -4.09244
| 23>    C        4.74795         1.27596        -4.67109
| 24>    C        4.64471         0.93614        -6.03973
| 25>    C        3.50919         1.36904        -6.78204
| 26>    C        2.50209         2.14203        -6.15673
| 27>    C        3.41486         1.01697        -8.14330
| 28>    C        4.39491         0.27558        -8.74557
| 29>    C        5.51351        -0.14890        -8.01405
| 30>    C        5.63548         0.17487        -6.68989
| 31>    C        3.62487         2.45946        -2.69247
| 32>    O        4.41156         2.30155        -1.78405
| 33>    C        2.28676         3.10297        -2.60949
| 34>    C        1.76445         3.34967        -1.36907
| 35>    C        0.43947         3.56008        -0.95573
| 36>    S        0.15125         4.17309         0.65095
| 37>    C       -0.77280         3.27483        -1.58466
| 38>    O       -0.82916         2.70327        -2.79636
| 39>    C       -1.90708         3.57025        -0.78993
| 40>    N       -3.21731         3.39781        -1.22951
| 41>    N       -3.43036         2.45194        -2.26243
| 42>    C       -1.57882         4.09087         0.45232
| 43>    C       -2.42721         4.53475         1.50643
| 44>    N       -1.93095         4.65744         2.78671
| 45>    C       -2.92852         5.08744         3.60195
| 46>    C       -3.24838         5.42354         4.91426
| 47>    C       -4.60102         5.78049         4.90456
| 48>    N       -5.09669         5.66198         3.62136
| 49>    C       -4.09055         5.24594         2.81002
| 50>    C       -3.77747         4.90070         1.49443
| 51>    C       -5.37702         6.17158         6.02736
| 52>    C       -6.69169         6.50559         6.00408
| 53>    C       -7.49285         6.85727         7.13059
| 54>    S       -8.95044         7.77413         6.87450
| 55>    C       -7.33428         6.53977         8.46453
| 56>    O       -6.34890         5.72411         8.95462
| 57>    C       -8.33983         7.07650         9.31571
| 58>    N       -8.51679         6.73536        10.60326
| 59>    N       -7.61526         6.07237        11.43316
| 60>    C       -9.27235         7.86174         8.60136
| 61>    C      -10.35915         8.62298         9.01553
| 62>    C      -10.59334         9.22852        10.24037
| 63>    C      -11.83608         9.85190        10.62051
| 64>    C      -13.05959         9.66153        10.02293
| 65>    C      -14.24697        10.29084        10.44170
| 66>    N      -15.24548        10.78043        10.73121
| 67>    C      -13.29740         8.77962         8.95067
| 68>    N      -13.57067         8.05398         8.10211
| 69>    C      -11.58917        10.65192        11.81670
| 70>    C      -10.22480        10.48624        12.18767
| 71>    C       -9.56710         9.58119        11.22609
| 72>    O       -8.38812         9.25420        11.23093
| 73>    C       -9.69094        11.11660        13.27225
| 74>    C      -10.51527        11.95888        14.05427
| 75>    C      -11.88086        12.12907        13.69030
| 76>    C      -12.40541        11.46106        12.55779
| 77>    C      -12.69185        12.97278        14.47463
| 78>    C      -12.18042        13.61952        15.56729
| 79>    C      -10.83512        13.45194        15.92428
| 80>    C      -10.02050        12.63814        15.18388
| 81>    H        5.60157         0.95323        -4.09352
| 82>    H        1.65035         2.45316        -6.74131
| 83>    H        2.55281         1.34858        -8.70363
| 84>    H        4.31353         0.01280        -9.78986
| 85>    H        6.27794        -0.73327        -8.50433
| 86>    H        6.49490        -0.14915        -6.12095
| 87>    H        2.49339         3.30151        -0.56434
| 88>    H       -1.77958         2.53731        -2.99203
| 89>    H       -3.88816         3.38177        -0.46672
| 90>    H       -4.19325         2.77468        -2.85094
| 91>    H       -3.65072         1.52082        -1.90714
| 92>    H       -0.97413         4.47412         3.03635
| 93>    H       -2.61090         5.42010         5.77540
| 94>    H       -6.03441         5.89167         3.34425
| 95>    H       -4.41010         4.98541         0.63462
| 96>    H       -4.81226         6.23016         6.94782
| 97>    H       -7.21244         6.56230         5.05775
| 98>    H       -5.92315         5.26591         8.21948
| 99>    H       -9.28793         7.15595        11.09903
|100>    H       -7.15254         6.74381        12.04771
|101>    H       -6.90915         5.61860        10.85881
|102>    H      -11.07645         8.83670         8.23067
|103>    H       -8.65215        10.97765        13.53374
|104>    H      -13.44198        11.61501        12.30280
|105>    H      -13.72783        13.09839        14.19541
|106>    H      -12.81070        14.26410        16.16175
|107>    H      -10.44630        13.97052        16.78814
|108>    H       -8.98270        12.50572        15.45412
|109> *
|110>
|111>                          ****END OF INPUT****

CARTESIAN COORDINATES (ANGSTROEM)
---------------------------------
  C      1.776440    3.253750   -3.944980
  C      0.814540    4.144790   -4.356000
  C      0.363830    4.264390   -5.683300
  N     -0.063460    4.390630   -6.742360
  C      0.226940    5.091110   -3.498190
  N     -0.257120    5.879840   -2.817620
  C      2.625640    2.462740   -4.833110
  C      3.756900    2.013380   -4.092440
  C      4.747950    1.275960   -4.671090
  C      4.644710    0.936140   -6.039730
  C      3.509190    1.369040   -6.782040
  C      2.502090    2.142030   -6.156730
  C      3.414860    1.016970   -8.143300
  C      4.394910    0.275580   -8.745570
  C      5.513510   -0.148900   -8.014050
  C      5.635480    0.174870   -6.689890
  C      3.624870    2.459460   -2.692470
  O      4.411560    2.301550   -1.784050
  C      2.286760    3.102970   -2.609490
  C      1.764450    3.349670   -1.369070
  C      0.439470    3.560080   -0.955730
  S      0.151250    4.173090    0.650950
  C     -0.772800    3.274830   -1.584660
  O     -0.829160    2.703270   -2.796360
  C     -1.907080    3.570250   -0.789930
  N     -3.217310    3.397810   -1.229510
  N     -3.430360    2.451940   -2.262430
  C     -1.578820    4.090870    0.452320
  C     -2.427210    4.534750    1.506430
  N     -1.930950    4.657440    2.786710
  C     -2.928520    5.087440    3.601950
  C     -3.248380    5.423540    4.914260
  C     -4.601020    5.780490    4.904560
  N     -5.096690    5.661980    3.621360
  C     -4.090550    5.245940    2.810020
  C     -3.777470    4.900700    1.494430
  C     -5.377020    6.171580    6.027360
  C     -6.691690    6.505590    6.004080
  C     -7.492850    6.857270    7.130590
  S     -8.950440    7.774130    6.874500
  C     -7.334280    6.539770    8.464530
  O     -6.348900    5.724110    8.954620
  C     -8.339830    7.076500    9.315710
  N     -8.516790    6.735360   10.603260
  N     -7.615260    6.072370   11.433160
  C     -9.272350    7.861740    8.601360
  C    -10.359150    8.622980    9.015530
  C    -10.593340    9.228520   10.240370
  C    -11.836080    9.851900   10.620510
  C    -13.059590    9.661530   10.022930
  C    -14.246970   10.290840   10.441700
  N    -15.245480   10.780430   10.731210
  C    -13.297400    8.779620    8.950670
  N    -13.570670    8.053980    8.102110
  C    -11.589170   10.651920   11.816700
  C    -10.224800   10.486240   12.187670
  C     -9.567100    9.581190   11.226090
  O     -8.388120    9.254200   11.230930
  C     -9.690940   11.116600   13.272250
  C    -10.515270   11.958880   14.054270
  C    -11.880860   12.129070   13.690300
  C    -12.405410   11.461060   12.557790
  C    -12.691850   12.972780   14.474630
  C    -12.180420   13.619520   15.567290
  C    -10.835120   13.451940   15.924280
  C    -10.020500   12.638140   15.183880
  H      5.601570    0.953230   -4.093520
  H      1.650350    2.453160   -6.741310
  H      2.552810    1.348580   -8.703630
  H      4.313530    0.012800   -9.789860
  H      6.277940   -0.733270   -8.504330
  H      6.494900   -0.149150   -6.120950
  H      2.493390    3.301510   -0.564340
  H     -1.779580    2.537310   -2.992030
  H     -3.888160    3.381770   -0.466720
  H     -4.193250    2.774680   -2.850940
  H     -3.650720    1.520820   -1.907140
  H     -0.974130    4.474120    3.036350
  H     -2.610900    5.420100    5.775400
  H     -6.034410    5.891670    3.344250
  H     -4.410100    4.985410    0.634620
  H     -4.812260    6.230160    6.947820
  H     -7.212440    6.562300    5.057750
  H     -5.923150    5.265910    8.219480
  H     -9.287930    7.155950   11.099030
  H     -7.152540    6.743810   12.047710
  H     -6.909150    5.618600   10.858810
  H    -11.076450    8.836700    8.230670
  H     -8.652150   10.977650   13.533740
  H    -13.441980   11.615010   12.302800
  H    -13.727830   13.098390   14.195410
  H    -12.810700   14.264100   16.161750
  H    -10.446300   13.970520   16.788140
  H     -8.982700   12.505720   15.454120

 Total Charge           Charge          ....    0
 Multiplicity           Mult            ....    1
 Number of Electrons    NEL             ....  462
 Basis Dimension        Dim             .... 1072

ORBITAL ENERGIES
----------------

  NO   OCC          E(Eh)            E(eV)
   0   2.0000     -88.961529     -2420.7663
   1   2.0000     -88.953656     -2420.5520
   2   2.0000     -19.273822      -524.4674
   3   2.0000     -19.253812      -523.9229
   4   2.0000     -19.199794      -522.4529
   5   2.0000     -19.198205      -522.4097
   6   2.0000     -14.479937      -394.0191
   7   2.0000     -14.473732      -393.8503
   8   2.0000     -14.473077      -393.8325
   9   2.0000     -14.473004      -393.8305
  10   2.0000     -14.472847      -393.8262
  11   2.0000     -14.430261      -392.6674
  12   2.0000     -14.401472      -391.8840
  13   2.0000     -14.398025      -391.7902
  14   2.0000     -14.397042      -391.7634
  15   2.0000     -14.396639      -391.7525
  16   2.0000     -10.356919      -281.8261
  17   2.0000     -10.350375      -281.6480
  18   2.0000     -10.349657      -281.6285
  19   2.0000     -10.349204      -281.6161
  20   2.0000     -10.345040      -281.5029
  21   2.0000     -10.332147      -281.1520
  22   2.0000     -10.329892      -281.0907
  23   2.0000     -10.322649      -280.8936
  24   2.0000     -10.322358      -280.8856
  25   2.0000     -10.321745      -280.8690
  26   2.0000     -10.320646      -280.8391
  27   2.0000     -10.320171      -280.8261
  28   2.0000     -10.319640      -280.8117
  29   2.0000     -10.319262      -280.8014
  30   2.0000     -10.310079      -280.5515
  31   2.0000     -10.309264      -280.5293
  32   2.0000     -10.308827      -280.5174
  33   2.0000     -10.307914      -280.4926
  34   2.0000     -10.307077      -280.4698
  35   2.0000     -10.307054      -280.4692
  36   2.0000     -10.305112      -280.4164
  37   2.0000     -10.304106      -280.3890
  38   2.0000     -10.303981      -280.3856
  39   2.0000     -10.301272      -280.3119
  40   2.0000     -10.300853      -280.3004
  41   2.0000     -10.300390      -280.2879
  42   2.0000     -10.288577      -279.9664
  43   2.0000     -10.286842      -279.9192
  44   2.0000     -10.285864      -279.8926
  45   2.0000     -10.285319      -279.8777
  46   2.0000     -10.284811      -279.8639
  47   2.0000     -10.284549      -279.8568
  48   2.0000     -10.284121      -279.8451
  49   2.0000     -10.283841      -279.8375
  50   2.0000     -10.283055      -279.8161
  51   2.0000     -10.282531      -279.8019
  52   2.0000     -10.282293      -279.7954
  53   2.0000     -10.281909      -279.7850
  54   2.0000     -10.279878      -279.7297
  55   2.0000     -10.276434      -279.6360
  56   2.0000     -10.276100      -279.6269
  57   2.0000     -10.275958      -279.6230
  58   2.0000     -10.275763      -279.6177
  59   2.0000     -10.275707      -279.6162
  60   2.0000     -10.275202      -279.6025
  61   2.0000     -10.275143      -279.6009
  62   2.0000     -10.275093      -279.5995
  63   2.0000     -10.274603      -279.5862
  64   2.0000     -10.274371      -279.5799
  65   2.0000     -10.274095      -279.5723
  66   2.0000      -8.057246      -219.2488
  67   2.0000      -8.049744      -219.0447
  68   2.0000      -6.026894      -164.0001
  69   2.0000      -6.023024      -163.8948
  70   2.0000      -6.019473      -163.7982
  71   2.0000      -6.018349      -163.7676
  72   2.0000      -6.015695      -163.6954
  73   2.0000      -6.010451      -163.5527
  74   2.0000      -1.165811       -31.7233
  75   2.0000      -1.159715       -31.5574
  76   2.0000      -1.114140       -30.3173
  77   2.0000      -1.112723       -30.2787
  78   2.0000      -1.106880       -30.1197
  79   2.0000      -1.100198       -29.9379
  80   2.0000      -1.090722       -29.6801
  81   2.0000      -1.070745       -29.1365
  82   2.0000      -1.002458       -27.2783
  83   2.0000      -1.000903       -27.2360
  84   2.0000      -0.994051       -27.0495
  85   2.0000      -0.991992       -26.9935
  86   2.0000      -0.984041       -26.7771
  87   2.0000      -0.982720       -26.7412
  88   2.0000      -0.978615       -26.6295
  89   2.0000      -0.975813       -26.5532
  90   2.0000      -0.957889       -26.0655
  91   2.0000      -0.957126       -26.0447
  92   2.0000      -0.928735       -25.2722
  93   2.0000      -0.925504       -25.1842
  94   2.0000      -0.909917       -24.7601
  95   2.0000      -0.908989       -24.7348
  96   2.0000      -0.901345       -24.5268
  97   2.0000      -0.893644       -24.3173
  98   2.0000      -0.887842       -24.1594
  99   2.0000      -0.882934       -24.0258
 100   2.0000      -0.877437       -23.8763
 101   2.0000      -0.869656       -23.6646
 102   2.0000      -0.868781       -23.6407
 103   2.0000      -0.865670       -23.5561
 104   2.0000      -0.862689       -23.4750
 105   2.0000      -0.841958       -22.9108
 106   2.0000      -0.821689       -22.3593
 107   2.0000      -0.817432       -22.2434
 108   2.0000      -0.815959       -22.2034
 109   2.0000      -0.815012       -22.1776
 110   2.0000      -0.811799       -22.0902
 111   2.0000      -0.793963       -21.6048
 112   2.0000      -0.778378       -21.1807
 113   2.0000      -0.760007       -20.6808
 114   2.0000      -0.745553       -20.2875
 115   2.0000      -0.745003       -20.2726
 116   2.0000      -0.736072       -20.0295
 117   2.0000      -0.715987       -19.4830
 118   2.0000      -0.711798       -19.3690
 119   2.0000      -0.710288       -19.3279
 120   2.0000      -0.706114       -19.2143
 121   2.0000      -0.703358       -19.1393
 122   2.0000      -0.701338       -19.0844
 123   2.0000      -0.690787       -18.7973
 124   2.0000      -0.690514       -18.7898
 125   2.0000      -0.686555       -18.6821
 126   2.0000      -0.684518       -18.6267
 127   2.0000      -0.677564       -18.4375
 128   2.0000      -0.666599       -18.1391
 129   2.0000      -0.660294       -17.9675
 130   2.0000      -0.657004       -17.8780
 131   2.0000      -0.650295       -17.6954
 132   2.0000      -0.640405       -17.4263
 133   2.0000      -0.639470       -17.4009
 134   2.0000      -0.633814       -17.2469
 135   2.0000      -0.629125       -17.1194
 136   2.0000      -0.621757       -16.9189
 137   2.0000      -0.618451       -16.8289
 138   2.0000      -0.616179       -16.7671
 139   2.0000      -0.610579       -16.6147
 140   2.0000      -0.595071       -16.1927
 141   2.0000      -0.594113       -16.1666
 142   2.0000      -0.593908       -16.1611
 143   2.0000      -0.592753       -16.1296
 144   2.0000      -0.585718       -15.9382
 145   2.0000      -0.575786       -15.6679
 146   2.0000      -0.573644       -15.6097
 147   2.0000      -0.569922       -15.5084
 148   2.0000      -0.566439       -15.4136
 149   2.0000      -0.560021       -15.2390
 150   2.0000      -0.556407       -15.1406
 151   2.0000      -0.549876       -14.9629
 152   2.0000      -0.545545       -14.8450
 153   2.0000      -0.543432       -14.7875
 154   2.0000      -0.539364       -14.6769
 155   2.0000      -0.536576       -14.6010
 156   2.0000      -0.534513       -14.5448
 157   2.0000      -0.533962       -14.5298
 158   2.0000      -0.533567       -14.5191
 159   2.0000      -0.531162       -14.4536
 160   2.0000      -0.528313       -14.3761
 161   2.0000      -0.523913       -14.2564
 162   2.0000      -0.522125       -14.2077
 163   2.0000      -0.516941       -14.0667
 164   2.0000      -0.516087       -14.0434
 165   2.0000      -0.512275       -13.9397
 166   2.0000      -0.505519       -13.7559
 167   2.0000      -0.504242       -13.7211
 168   2.0000      -0.502022       -13.6607
 169   2.0000      -0.500198       -13.6111
 170   2.0000      -0.499735       -13.5985
 171   2.0000      -0.497772       -13.5451
 172   2.0000      -0.495659       -13.4876
 173   2.0000      -0.493535       -13.4298
 174   2.0000      -0.487585       -13.2679
 175   2.0000      -0.485874       -13.2213
 176   2.0000      -0.480370       -13.0715
 177   2.0000      -0.478547       -13.0219
 178   2.0000      -0.473879       -12.8949
 179   2.0000      -0.473451       -12.8833
 180   2.0000      -0.470677       -12.8078
 181   2.0000      -0.466304       -12.6888
 182   2.0000      -0.464801       -12.6479
 183   2.0000      -0.463093       -12.6014
 184   2.0000      -0.458631       -12.4800
 185   2.0000      -0.458410       -12.4740
 186   2.0000      -0.452114       -12.3026
 187   2.0000      -0.451568       -12.2878
 188   2.0000      -0.445112       -12.1121
 189   2.0000      -0.438384       -11.9290
 190   2.0000      -0.436378       -11.8745
 191   2.0000      -0.434354       -11.8194
 192   2.0000      -0.432682       -11.7739
 193   2.0000      -0.431175       -11.7329
 194   2.0000      -0.429885       -11.6978
 195   2.0000      -0.427444       -11.6313
 196   2.0000      -0.425640       -11.5823
 197   2.0000      -0.425120       -11.5681
 198   2.0000      -0.422553       -11.4982
 199   2.0000      -0.420010       -11.4291
 200   2.0000      -0.418624       -11.3913
 201   2.0000      -0.416732       -11.3398
 202   2.0000      -0.416285       -11.3277
 203   2.0000      -0.409777       -11.1506
 204   2.0000      -0.408574       -11.1179
 205   2.0000      -0.405794       -11.0422
 206   2.0000      -0.403411       -10.9774
 207   2.0000      -0.403011       -10.9665
 208   2.0000      -0.395247       -10.7552
 209   2.0000      -0.392386       -10.6774
 210   2.0000      -0.388513       -10.5720
 211   2.0000      -0.385483       -10.4895
 212   2.0000      -0.383685       -10.4406
 213   2.0000      -0.371308       -10.1038
 214   2.0000      -0.365617        -9.9489
 215   2.0000      -0.361715        -9.8428
 216   2.0000      -0.348980        -9.4962
 217   2.0000      -0.337763        -9.1910
 218   2.0000      -0.335346        -9.1252
 219   2.0000      -0.322412        -8.7733
 220   2.0000      -0.320636        -8.7249
 221   2.0000      -0.307799        -8.3756
 222   2.0000      -0.305327        -8.3084
 223   2.0000      -0.303086        -8.2474
 224   2.0000      -0.296873        -8.0783
 225   2.0000      -0.285598        -7.7715
 226   2.0000      -0.282411        -7.6848
 227   2.0000      -0.279997        -7.6191
 228   2.0000      -0.272776        -7.4226
 229   2.0000      -0.249755        -6.7962
 230   2.0000      -0.231406        -6.2969
 231   0.0000      -0.085610        -2.3296
 232   0.0000      -0.071059        -1.9336
 233   0.0000      -0.048088        -1.3085
 234   0.0000      -0.043032        -1.1709
 235   0.0000      -0.030482        -0.8295

MULLIKEN ATOMIC CHARGES
-----------------------
   0 C :    0.298622
   1 C :   -0.322265
   2 C :   -0.185524
   3 N :    0.136240
   4 C :   -0.215745
   5 N :    0.155292
   6 C :    0.045356
   7 C :    0.014600
   8 C :   -0.088779
   9 C :    0.094721
  10 C :    0.098020
  11 C :   -0.095886
  12 C :   -0.021286
  13 C :    0.035078
  14 C :    0.032675
  15 C :   -0.018193
  16 C :    0.132698
  17 O :   -0.154516
  18 C :   -0.142861
  19 C :    0.076435
  20 C :   -0.152830
  21 S :    0.109719
  22 C :    0.104906
  23 O :   -0.163269
  24 C :    0.102923
  25 N :   -0.120331
  26 N :   -0.141074
  27 C :   -0.113900
  28 C :    0.053326
  29 N :   -0.047071
  30 C :    0.118499
  31 C :   -0.160572
  32 C :    0.072909
  33 N :   -0.035481
  34 C :    0.101529
  35 C :   -0.191792
  36 C :   -0.003445
  37 C :    0.015316
  38 C :   -0.135561
  39 S :    0.124268
  40 C :    0.070227
  41 O :   -0.218020
  42 C :    0.179561
  43 N :   -0.046342
  44 N :   -0.086635
  45 C :   -0.193779
  46 C :    0.038925
  47 C :   -0.170033
  48 C :    0.309820
  49 C :   -0.354979
  50 C :   -0.185192
  51 N :    0.137479
  52 C :   -0.216764
  53 N :    0.147756
  54 C :    0.048471
  55 C :    0.005671
  56 C :    0.111575
  57 O :   -0.193407
  58 C :   -0.093622
  59 C :    0.099709
  60 C :    0.095392
  61 C :   -0.089862
  62 C :   -0.020500
  63 C :    0.032478
  64 C :    0.034322
  65 C :   -0.020185
  66 H :   -0.017720
  67 H :   -0.012443
  68 H :   -0.015193
  69 H :   -0.009564
  70 H :   -0.010095
  71 H :   -0.021435
  72 H :    0.013496
  73 H :    0.178801
  74 H :    0.121461
  75 H :    0.142682
  76 H :    0.131756
  77 H :    0.130420
  78 H :   -0.029911
  79 H :    0.127534
  80 H :   -0.026691
  81 H :   -0.005461
  82 H :   -0.028407
  83 H :    0.187781
  84 H :    0.140344
  85 H :    0.123258
  86 H :    0.114578
  87 H :    0.020090
  88 H :   -0.024324
  89 H :   -0.011155
  90 H :   -0.011990
  91 H :   -0.008786
  92 H :   -0.010581
  93 H :   -0.023260
Sum of atomic charges:   -0.0000000

LOEWDIN ATOMIC CHARGES
----------------------
   0 C :    0.065089
   1 C :   -0.140433
   2 C :   -0.018065
   3 N :   -0.069961
   4 C :   -0.018256
   5 N :   -0.066426
   6 C :   -0.017410
   7 C :   -0.056861
   8 C :    0.028317
   9 C :   -0.012680
  10 C :   -0.006144
  11 C :    0.006882
  12 C :   -0.009651
  13 C :   -0.017240
  14 C :   -0.019182
  15 C :   -0.010912
  16 C :    0.082736
  17 O :   -0.154905
  18 C :   -0.099066
  19 C :    0.042479
  20 C :   -0.207837
  21 S :    0.415065
  22 C :    0.039910
  23 O :   -0.019466
  24 C :   -0.042690
  25 N :   -0.012921
  26 N :    0.003629
  27 C :   -0.188048
  28 C :   -0.007458
  29 N :    0.070432
  30 C :   -0.024219
  31 C :   -0.079057
  32 C :   -0.011157
  33 N :    0.070432
  34 C :   -0.013097
  35 C :   -0.112688
  36 C :   -0.027343
  37 C :   -0.071965
  38 C :   -0.176934
  39 S :    0.407571
  40 C :   -0.011982
  41 O :   -0.056765
  42 C :    0.023427
  43 N :    0.093353
  44 N :   -0.035857
  45 C :   -0.214203
  46 C :    0.040725
  47 C :   -0.144580
  48 C :    0.076736
  49 C :   -0.159246
  50 C :   -0.018447
  51 N :   -0.069239
  52 C :   -0.027032
  53 N :   -0.067734
  54 C :   -0.025180
  55 C :   -0.051095
  56 C :    0.059994
  57 O :   -0.189093
  58 C :    0.019842
  59 C :   -0.010351
  60 C :   -0.009635
  61 C :    0.015825
  62 C :   -0.006718
  63 C :   -0.019036
  64 C :   -0.017091
  65 C :   -0.013456
  66 H :    0.036998
  67 H :    0.036557
  68 H :    0.032465
  69 H :    0.031057
  70 H :    0.030555
  71 H :    0.030152
  72 H :    0.043098
  73 H :    0.051948
  74 H :    0.061023
  75 H :    0.072695
  76 H :    0.063812
  77 H :    0.083410
  78 H :    0.026894
  79 H :    0.088810
  80 H :    0.023055
  81 H :    0.034404
  82 H :    0.023368
  83 H :    0.088644
  84 H :    0.082824
  85 H :    0.063575
  86 H :    0.049740
  87 H :    0.044440
  88 H :    0.034264
  89 H :    0.037977
  90 H :    0.033547
  91 H :    0.031213
  92 H :    0.030503
  93 H :    0.029343

  Mayer bond orders larger than 0.100000
B(  0-C ,  1-C ) :   1.6137 B(  0-C ,  6-C ) :   0.9923 B(  0-C , 18-C ) :   1.0841
B(  1-C ,  2-C ) :   1.1475 B(  1-C ,  4-C ) :   1.1758 B(  2-C ,  3-N ) :   2.9751
B(  4-C ,  5-N ) :   2.9996 B(  6-C ,  7-C ) :   1.2142 B(  6-C , 11-C ) :   1.4670
B(  7-C ,  8-C ) :   1.4795 B(  7-C , 16-C ) :   0.9193 B(  8-C ,  9-C ) :   1.1774
B(  8-C , 66-H ) :   1.0158 B(  9-C , 10-C ) :   1.2625 B(  9-C , 15-C ) :   1.2465
B( 10-C , 11-C ) :   1.1940 B( 10-C , 12-C ) :   1.2445 B( 11-C , 67-H ) :   0.9928
B( 12-C , 13-C ) :   1.4868 B( 12-C , 68-H ) :   0.9966 B( 13-C , 14-C ) :   1.2629
B( 13-C , 69-H ) :   0.9882 B( 14-C , 15-C ) :   1.4873 B( 14-C , 70-H ) :   0.9885
B( 15-C , 71-H ) :   0.9969 B( 16-C , 17-O ) :   2.2565 B( 16-C , 18-C ) :   0.9502
B( 18-C , 19-C ) :   1.5965 B( 19-C , 20-C ) :   1.2004 B( 19-C , 72-H ) :   0.9224
B( 20-C , 21-S ) :   1.0698 B( 20-C , 22-C ) :   1.4097 B( 20-C , 27-C ) :   0.1188
B( 21-S , 27-C ) :   1.0829 B( 22-C , 23-O ) :   1.3146 B( 22-C , 24-C ) :   1.2119
B( 23-O , 73-H ) :   0.8775 B( 24-C , 25-N ) :   1.1379 B( 24-C , 27-C ) :   1.5328
B( 25-N , 26-N ) :   1.0176 B( 25-N , 74-H ) :   0.9034 B( 26-N , 73-H ) :   0.1687
B( 26-N , 75-H ) :   0.9626 B( 26-N , 76-H ) :   0.9588 B( 27-C , 28-C ) :   1.0591
B( 28-C , 29-N ) :   1.2242 B( 28-C , 35-C ) :   1.4115 B( 29-N , 30-C ) :   1.1551
B( 29-N , 77-H ) :   0.9275 B( 30-C , 31-C ) :   1.2543 B( 30-C , 34-C ) :   1.3286
B( 31-C , 32-C ) :   1.3509 B( 31-C , 78-H ) :   1.0408 B( 32-C , 33-N ) :   1.1955
B( 32-C , 36-C ) :   1.1802 B( 33-N , 34-C ) :   1.1713 B( 33-N , 79-H ) :   0.9307
B( 34-C , 35-C ) :   1.2595 B( 35-C , 80-H ) :   1.0140 B( 36-C , 37-C ) :   1.6089
B( 36-C , 81-H ) :   0.9504 B( 37-C , 38-C ) :   1.1247 B( 37-C , 82-H ) :   0.9478
B( 38-C , 39-S ) :   1.0864 B( 38-C , 40-C ) :   1.4955 B( 39-S , 45-C ) :   1.0320
B( 40-C , 41-O ) :   1.1639 B( 40-C , 42-C ) :   1.2110 B( 41-O , 83-H ) :   0.9391
B( 42-C , 43-N ) :   1.3280 B( 42-C , 45-C ) :   1.2813 B( 43-N , 44-N ) :   1.0285
B( 43-N , 84-H ) :   0.9266 B( 44-N , 85-H ) :   0.9587 B( 44-N , 86-H ) :   0.9613
B( 45-C , 46-C ) :   1.3892 B( 46-C , 47-C ) :   1.4208 B( 46-C , 87-H ) :   0.9212
B( 47-C , 48-C ) :   1.1128 B( 47-C , 56-C ) :   1.0077 B( 48-C , 49-C ) :   1.6056
B( 48-C , 54-C ) :   0.9781 B( 49-C , 50-C ) :   1.1500 B( 49-C , 52-C ) :   1.1433
B( 50-C , 51-N ) :   2.9627 B( 52-C , 53-N ) :   2.9992 B( 54-C , 55-C ) :   1.2129
B( 54-C , 61-C ) :   1.4664 B( 55-C , 56-C ) :   0.9357 B( 55-C , 58-C ) :   1.4838
B( 56-C , 57-O ) :   2.1641 B( 58-C , 59-C ) :   1.1673 B( 58-C , 88-H ) :   1.0158
B( 59-C , 60-C ) :   1.2630 B( 59-C , 65-C ) :   1.2495 B( 60-C , 61-C ) :   1.1898
B( 60-C , 62-C ) :   1.2468 B( 61-C , 89-H ) :   0.9905 B( 62-C , 63-C ) :   1.4827
B( 62-C , 90-H ) :   0.9967 B( 63-C , 64-C ) :   1.2652 B( 63-C , 91-H ) :   0.9889
B( 64-C , 65-C ) :   1.4827 B( 64-C , 92-H ) :   0.9890 B( 65-C , 93-H ) :   0.9968

-----------------------------------------------------------------------------
         ABSORPTION SPECTRUM VIA TRANSITION ELECTRIC DIPOLE MOMENTS
-----------------------------------------------------------------------------
State   Energy  Wavelength   fosc         T2         TX        TY        TZ
        (cm-1)    (nm)                  (au**2)     (au)      (au)      (au)
-----------------------------------------------------------------------------
   0   16961.0    589.6   2.758504380  53.54231   4.76556  -2.58634  -4.91352
   1   19864.1    503.4   0.281929521   4.67248  -0.06758  -0.85166   1.98559
   2   21942.8    455.7   0.011649215   0.17478   0.29058  -0.16512  -0.25114
   3   24370.6    410.3   0.069908815   0.94437  -0.15860  -0.68201  -0.67385
   4   25977.4    384.9   0.027833036   0.35273  -0.54122  -0.11535   0.21565
   5   26468.6    377.8   0.012978516   0.16142   0.16013  -0.11834  -0.34897
   6   27397.8    365.0   0.181057027   2.17558   1.37349  -0.21226  -0.49403
   7   28200.8    354.6   0.101172403   1.18107   0.33405  -0.92057  -0.47120
   8   28632.6    349.3   0.004608386   0.05299   0.16781  -0.13825   0.07558
   9   29002.9    344.8   0.136986026   1.55493  -0.04086   0.77132   0.97894
  10   29172.2    342.8   0.042514012   0.47978   0.42906  -0.54236  -0.03907
  11   29750.5    336.1   0.011009845   0.12183   0.18357   0.06463   0.28976
  12   29813.8    335.4   0.046445219   0.51286  -0.20699   0.22473   0.64770
  13   30351.6    329.5   0.006705516   0.07273  -0.25228  -0.09367  -0.01765
  14   30945.9    323.1   0.002880149   0.03064   0.14842   0.02778   0.08854
  15   31082.4    321.7   0.093689933   0.99233   0.35053  -0.14418  -0.92123
  16   31456.6    317.9   0.061117356   0.63963   0.62474  -0.18890  -0.46222
  17   32986.9    303.2   0.038214263   0.38138   0.61717   0.02145  -0.00452
  18   33031.6    302.7   0.034270096   0.34156  -0.35047   0.46403   0.05828
  19   33318.1    300.1   0.128426731   1.26897  -0.24627  -0.63945  -0.89411
  20   33690.3    296.8   0.082926759   0.81034  -0.39638  -0.11202  -0.80042
  21   34165.7    292.7   0.503029004   4.84706  -1.02589  -0.79582  -1.77800
  22   34289.3    291.6   0.427334808   4.10284  -1.20184   1.21229   1.09031
  23   34609.2    288.9   0.153814497   1.46313   0.49722  -1.03547  -0.37909
  24   35027.9    285.5   0.114928011   1.08016  -0.20748  -0.61186  -0.81409
  25   35318.6    283.1   0.195334119   1.82075   0.94617  -0.80680  -0.52402
  26   35514.4    281.6   0.017952996   0.16642  -0.29675   0.14943   0.23671
  27   36098.0    277.0   0.025151460   0.22938  -0.15572  -0.01567   0.45264
  28   36898.6    271.0   0.090495620   0.80741  -0.37476   0.36130   0.73241
  29   37271.9    268.3   0.126854885   1.12047   0.91583  -0.48702  -0.21102
  30   37292.6    268.1   0.103543413   0.91406   0.06472   0.33827   0.89188
  31   37575.0    266.1   0.041837969   0.36656  -0.41412  -0.09113  -0.43216
  32   37635.7    265.7   0.024190238   0.21160   0.12482  -0.34055  -0.28292
  33   38084.7    262.6   0.087689552   0.75801   0.83254  -0.25448  -0.01088
  34   38751.9    258.1   0.117869132   1.00134  -0.87505  -0.15800  -0.45899
  35   38930.2    256.9   0.038812847   0.32822   0.37021  -0.43538   0.04006
  36   39579.7    252.7   0.077247957   0.64252   0.79854  -0.02985   0.06300
  37   39967.8    250.2   0.063427000   0.52244   0.44168  -0.19656   0.53733
  38   40042.9    249.7   0.163551364   1.34464  -1.12697   0.21439  -0.16915

FINAL SINGLE POINT ENERGY     -3563.128179629992

DIPOLE MOMENT
-------------
                                X             Y             Z
Electronic contribution:     -2.78269       4.51070      -7.70546
Nuclear contribution   :      4.77452      -7.27262       8.08581
                        -----------------------------------------
Total Dipole Moment    :      1.99183      -2.76192       0.38035
                        -----------------------------------------
Magnitude (a.u.)       :      3.42641
Magnitude (Debye)      :      8.70923

Rotational constants in cm-1:     0.004377     0.000195     0.000191
Rotational constants in MHz :   131.228537     5.853213     5.740217

                             ****ORCA TERMINATED NORMALLY****
TOTAL RUN TIME: 0 days 0 hours 7 minutes 28 seconds 437 msec
