                         Program Version 4.2.0 -  RELEASE  -
|  1> # ORCA input file
|  2> # SCF done       -221.533222528092          0.000764855219
|  3> ! CAM-B3LYP def2-SVP def2/J RIJCOSX Grid4 TightSCF
|  4> %maxcore 5000
|  5> %tddft
|  6>     Mode sTDDFT
|  7>     Ethresh 5.0
|  8>     maxcore 5000
|  9> end
| 10>
| 11> %pal
| 12>   nprocs 6
| 13>   end
| 14> * xyz 0 1
| 15>    C        0.68067         1.88101        -6.32524
| 16>    C        1.10708         0.62428        -5.99182
| 17>    C        1.85726        -0.21002        -6.84787
| 18>    N        2.45182        -0.93270        -7.51139
| 19>    C        0.87305         0.02578        -4.73537
| 20>    N        0.72863        -0.48012        -3.71527
| 21>    C        0.98223         2.60249        -7.55257
| 22>    C        0.49522         3.93786        -7.43165
| 23>    C        0.63985         4.85011        -8.43877
| 24>    C        1.28609         4.46173        -9.63287
| 25>    C        1.77028         3.12689        -9.76293
| 26>    C        1.60905         2.20478        -8.70398
| 27>    C        2.40466         2.74827       -10.96338
| 28>    C        2.55443         3.64345       -11.98779
| 29>    C        2.07811         4.95683       -11.85884
| 30>    C        1.45859         5.35801       -10.70615
| 31>    C       -0.16710         4.10556        -6.13311
| 32>    O       -0.75061         5.08780        -5.72152
| 33>    C       -0.08024         2.77443        -5.46823
| 34>    C       -0.79042         2.47012        -4.35280
| 35>    C       -1.42608         3.46776        -3.54747
| 36>    C       -2.71508         3.46225        -3.11226
| 37>    C       -3.00120         4.75155        -2.51269
| 38>    C       -4.23516         5.10253        -1.94486
| 39>    N       -5.24715         5.38939        -1.48734
| 40>    C       -1.88975         5.54517        -2.59287
| 41>    C       -0.82901         4.77134        -3.17974
| 42>    C        0.50842         5.06184        -3.13113
| 43>    C        1.11895         6.38634        -2.90713
| 44>    C        2.46375         6.19961        -2.77159
| 45>    C        2.75164         4.78588        -2.90976
| 46>    C        1.58655         4.11146        -3.15807
| 47>    C        4.03438         4.22687        -2.81845
| 48>    N        5.08792         3.77672        -2.75689
| 49>    C        0.41967         7.62985        -2.98462
| 50>    C        0.83975         8.77145        -2.39804
| 51>    C        0.13703        10.00668        -2.49614
| 52>    S       -1.26979        10.16514        -3.50570
| 53>    C       -1.51939        11.81088        -3.02693
| 54>    C       -0.57387        12.20390        -2.09902
| 55>    C        0.38846        11.19694        -1.83306
| 56>    C        1.58448        11.36889        -0.94446
| 57>    F        2.68610        10.80800        -1.48183
| 58>    F        1.90569        12.64245        -0.72273
| 59>    F        1.42099        10.78193         0.25392
| 60>    C       -0.66743        13.47753        -1.30942
| 61>    F       -1.89439        14.02493        -1.36754
| 62>    F       -0.43626        13.26407        -0.00891
| 63>    F        0.18021        14.43840        -1.71127
| 64>    C       -2.60815        12.55550        -3.59877
| 65>    C       -3.88837        12.12681        -3.74607
| 66>    C       -4.68813        13.23760        -4.23228
| 67>    C       -6.04949        13.14121        -4.55529
| 68>    N       -7.15945        13.04669        -4.82878
| 69>    C       -3.89913        14.34960        -4.33692
| 70>    C       -2.55017        13.96962        -4.01946
| 71>    C       -1.40945        14.68789        -4.26342
| 72>    C       -1.27755        16.16053        -4.38979
| 73>    C        0.00808        16.41801        -4.78422
| 74>    C        0.71025        15.16443        -4.92358
| 75>    C       -0.12146        14.13506        -4.56458
| 76>    C        2.03486        15.03513        -5.36715
| 77>    N        3.11359        14.92682        -5.74217
| 78>    C       -2.26085        17.09408        -3.97119
| 79>    C       -2.16864        18.44123        -4.14805
| 80>    C       -3.16673        19.31650        -3.66653
| 81>    C       -3.13084        20.67789        -3.78245
| 82>    C       -4.12021        21.61929        -3.29064
| 83>    C       -5.33786        21.31759        -2.73558
| 84>    C       -6.25928        22.28339        -2.27801
| 85>    N       -7.05118        23.01519        -1.88427
| 86>    C       -5.86046        20.01938        -2.55923
| 87>    N       -6.35730        18.99684        -2.39506
| 88>    C       -3.60625        22.96482        -3.52042
| 89>    C       -2.35074        22.86659        -4.18626
| 90>    C       -2.01445        21.44971        -4.39556
| 91>    O       -1.02779        21.01228        -4.95011
| 92>    C       -1.63001        23.97202        -4.53656
| 93>    C       -2.13990        25.25290        -4.22909
| 94>    C       -3.39406        25.36061        -3.56098
| 95>    C       -4.11833        24.19772        -3.21209
| 96>    C       -3.89351        26.64350        -3.25744
| 97>    C       -3.18936        27.76682        -3.59648
| 98>    C       -1.95446        27.65948        -4.25362
| 99>    C       -1.44088        26.42927        -4.56349
|100>    H        0.26321         5.85595        -8.32592
|101>    H        1.97812         1.19960        -8.83342
|102>    H        2.77070         1.73665       -11.05759
|103>    H        3.04104         3.34394       -12.90359
|104>    H        2.20403         5.64916       -12.67749
|105>    H        1.08967         6.36773       -10.60172
|106>    H       -0.95487         1.43691        -4.07342
|107>    H       -3.43973         2.67969        -3.24044
|108>    H       -1.78307         6.51902        -2.15564
|109>    H        3.21520         6.95467        -2.63693
|110>    H        1.47951         3.04677        -3.24221
|111>    H       -0.49136         7.63605        -3.56990
|112>    H        1.72538         8.75721        -1.78191
|113>    H       -4.27882        11.15486        -3.50872
|114>    H       -4.20368        15.29935        -4.73149
|115>    H        0.46359        17.37827        -4.93259
|116>    H        0.11397        13.08985        -4.62330
|117>    H       -3.12092        16.70073        -3.44517
|118>    H       -1.32806        18.87153        -4.67001
|119>    H       -4.00424        18.85764        -3.15622
|120>    H       -0.68078        23.86925        -5.04126
|121>    H       -5.06239        24.31478        -2.70435
|122>    H       -4.84472        26.72116        -2.75164
|123>    H       -3.58032        28.74495        -3.35979
|124>    H       -1.41209        28.55632        -4.51293
|125>    H       -0.49056        26.34031        -5.06923
|126> *
|127>
|128>                          ****END OF INPUT****

CARTESIAN COORDINATES (ANGSTROEM)
---------------------------------
  C      0.680670    1.881010   -6.325240
  C      1.107080    0.624280   -5.991820
  C      1.857260   -0.210020   -6.847870
  N      2.451820   -0.932700   -7.511390
  C      0.873050    0.025780   -4.735370
  N      0.728630   -0.480120   -3.715270
  C      0.982230    2.602490   -7.552570
  C      0.495220    3.937860   -7.431650
  C      0.639850    4.850110   -8.438770
  C      1.286090    4.461730   -9.632870
  C      1.770280    3.126890   -9.762930
  C      1.609050    2.204780   -8.703980
  C      2.404660    2.748270  -10.963380
  C      2.554430    3.643450  -11.987790
  C      2.078110    4.956830  -11.858840
  C      1.458590    5.358010  -10.706150
  C     -0.167100    4.105560   -6.133110
  O     -0.750610    5.087800   -5.721520
  C     -0.080240    2.774430   -5.468230
  C     -0.790420    2.470120   -4.352800
  C     -1.426080    3.467760   -3.547470
  C     -2.715080    3.462250   -3.112260
  C     -3.001200    4.751550   -2.512690
  C     -4.235160    5.102530   -1.944860
  N     -5.247150    5.389390   -1.487340
  C     -1.889750    5.545170   -2.592870
  C     -0.829010    4.771340   -3.179740
  C      0.508420    5.061840   -3.131130
  C      1.118950    6.386340   -2.907130
  C      2.463750    6.199610   -2.771590
  C      2.751640    4.785880   -2.909760
  C      1.586550    4.111460   -3.158070
  C      4.034380    4.226870   -2.818450
  N      5.087920    3.776720   -2.756890
  C      0.419670    7.629850   -2.984620
  C      0.839750    8.771450   -2.398040
  C      0.137030   10.006680   -2.496140
  S     -1.269790   10.165140   -3.505700
  C     -1.519390   11.810880   -3.026930
  C     -0.573870   12.203900   -2.099020
  C      0.388460   11.196940   -1.833060
  C      1.584480   11.368890   -0.944460
  F      2.686100   10.808000   -1.481830
  F      1.905690   12.642450   -0.722730
  F      1.420990   10.781930    0.253920
  C     -0.667430   13.477530   -1.309420
  F     -1.894390   14.024930   -1.367540
  F     -0.436260   13.264070   -0.008910
  F      0.180210   14.438400   -1.711270
  C     -2.608150   12.555500   -3.598770
  C     -3.888370   12.126810   -3.746070
  C     -4.688130   13.237600   -4.232280
  C     -6.049490   13.141210   -4.555290
  N     -7.159450   13.046690   -4.828780
  C     -3.899130   14.349600   -4.336920
  C     -2.550170   13.969620   -4.019460
  C     -1.409450   14.687890   -4.263420
  C     -1.277550   16.160530   -4.389790
  C      0.008080   16.418010   -4.784220
  C      0.710250   15.164430   -4.923580
  C     -0.121460   14.135060   -4.564580
  C      2.034860   15.035130   -5.367150
  N      3.113590   14.926820   -5.742170
  C     -2.260850   17.094080   -3.971190
  C     -2.168640   18.441230   -4.148050
  C     -3.166730   19.316500   -3.666530
  C     -3.130840   20.677890   -3.782450
  C     -4.120210   21.619290   -3.290640
  C     -5.337860   21.317590   -2.735580
  C     -6.259280   22.283390   -2.278010
  N     -7.051180   23.015190   -1.884270
  C     -5.860460   20.019380   -2.559230
  N     -6.357300   18.996840   -2.395060
  C     -3.606250   22.964820   -3.520420
  C     -2.350740   22.866590   -4.186260
  C     -2.014450   21.449710   -4.395560
  O     -1.027790   21.012280   -4.950110
  C     -1.630010   23.972020   -4.536560
  C     -2.139900   25.252900   -4.229090
  C     -3.394060   25.360610   -3.560980
  C     -4.118330   24.197720   -3.212090
  C     -3.893510   26.643500   -3.257440
  C     -3.189360   27.766820   -3.596480
  C     -1.954460   27.659480   -4.253620
  C     -1.440880   26.429270   -4.563490
  H      0.263210    5.855950   -8.325920
  H      1.978120    1.199600   -8.833420
  H      2.770700    1.736650  -11.057590
  H      3.041040    3.343940  -12.903590
  H      2.204030    5.649160  -12.677490
  H      1.089670    6.367730  -10.601720
  H     -0.954870    1.436910   -4.073420
  H     -3.439730    2.679690   -3.240440
  H     -1.783070    6.519020   -2.155640
  H      3.215200    6.954670   -2.636930
  H      1.479510    3.046770   -3.242210
  H     -0.491360    7.636050   -3.569900
  H      1.725380    8.757210   -1.781910
  H     -4.278820   11.154860   -3.508720
  H     -4.203680   15.299350   -4.731490
  H      0.463590   17.378270   -4.932590
  H      0.113970   13.089850   -4.623300
  H     -3.120920   16.700730   -3.445170
  H     -1.328060   18.871530   -4.670010
  H     -4.004240   18.857640   -3.156220
  H     -0.680780   23.869250   -5.041260
  H     -5.062390   24.314780   -2.704350
  H     -4.844720   26.721160   -2.751640
  H     -3.580320   28.744950   -3.359790
  H     -1.412090   28.556320   -4.512930
  H     -0.490560   26.340310   -5.069230

 Total Charge           Charge          ....    0
 Multiplicity           Mult            ....    1
 Number of Electrons    NEL             ....  576
 Basis Dimension        Dim             .... 1324

ORBITAL ENERGIES
----------------

  NO   OCC          E(Eh)            E(eV)
   0   2.0000     -89.002562     -2421.8828
   1   2.0000     -24.819150      -675.3634
   2   2.0000     -24.815246      -675.2572
   3   2.0000     -24.815110      -675.2535
   4   2.0000     -24.813688      -675.2148
   5   2.0000     -24.812662      -675.1869
   6   2.0000     -24.808828      -675.0825
   7   2.0000     -19.241292      -523.5822
   8   2.0000     -19.220417      -523.0141
   9   2.0000     -14.433539      -392.7566
  10   2.0000     -14.430982      -392.6870
  11   2.0000     -14.427663      -392.5967
  12   2.0000     -14.424628      -392.5141
  13   2.0000     -14.422802      -392.4644
  14   2.0000     -14.419338      -392.3701
  15   2.0000     -14.419311      -392.3694
  16   2.0000     -14.416246      -392.2860
  17   2.0000     -10.541636      -286.8525
  18   2.0000     -10.537614      -286.7431
  19   2.0000     -10.390583      -282.7421
  20   2.0000     -10.370915      -282.2069
  21   2.0000     -10.362378      -281.9746
  22   2.0000     -10.358392      -281.8662
  23   2.0000     -10.356640      -281.8185
  24   2.0000     -10.351903      -281.6896
  25   2.0000     -10.345925      -281.5269
  26   2.0000     -10.344481      -281.4876
  27   2.0000     -10.344472      -281.4874
  28   2.0000     -10.344080      -281.4767
  29   2.0000     -10.342908      -281.4448
  30   2.0000     -10.342698      -281.4391
  31   2.0000     -10.342630      -281.4373
  32   2.0000     -10.341943      -281.4186
  33   2.0000     -10.337544      -281.2989
  34   2.0000     -10.335686      -281.2483
  35   2.0000     -10.335158      -281.2339
  36   2.0000     -10.335136      -281.2334
  37   2.0000     -10.333582      -281.1911
  38   2.0000     -10.332519      -281.1621
  39   2.0000     -10.331807      -281.1428
  40   2.0000     -10.327523      -281.0262
  41   2.0000     -10.326185      -280.9898
  42   2.0000     -10.325582      -280.9734
  43   2.0000     -10.323982      -280.9298
  44   2.0000     -10.323511      -280.9170
  45   2.0000     -10.322957      -280.9019
  46   2.0000     -10.322129      -280.8794
  47   2.0000     -10.322063      -280.8776
  48   2.0000     -10.321729      -280.8685
  49   2.0000     -10.320875      -280.8453
  50   2.0000     -10.319988      -280.8212
  51   2.0000     -10.319809      -280.8163
  52   2.0000     -10.319182      -280.7992
  53   2.0000     -10.319085      -280.7966
  54   2.0000     -10.317595      -280.7560
  55   2.0000     -10.317572      -280.7554
  56   2.0000     -10.317464      -280.7525
  57   2.0000     -10.316491      -280.7260
  58   2.0000     -10.315996      -280.7125
  59   2.0000     -10.314728      -280.6780
  60   2.0000     -10.313928      -280.6562
  61   2.0000     -10.313918      -280.6560
  62   2.0000     -10.313154      -280.6352
  63   2.0000     -10.312988      -280.6307
  64   2.0000     -10.312754      -280.6243
  65   2.0000     -10.312211      -280.6095
  66   2.0000     -10.312198      -280.6092
  67   2.0000     -10.311580      -280.5924
  68   2.0000     -10.307187      -280.4728
  69   2.0000     -10.304951      -280.4120
  70   2.0000     -10.302673      -280.3500
  71   2.0000     -10.300147      -280.2813
  72   2.0000     -10.299858      -280.2734
  73   2.0000     -10.299626      -280.2671
  74   2.0000     -10.299592      -280.2662
  75   2.0000     -10.299179      -280.2549
  76   2.0000     -10.298955      -280.2488
  77   2.0000     -10.298659      -280.2408
  78   2.0000     -10.298595      -280.2390
  79   2.0000     -10.295043      -280.1424
  80   2.0000     -10.290717      -280.0246
  81   2.0000     -10.288578      -279.9664
  82   2.0000     -10.288049      -279.9521
  83   2.0000     -10.287799      -279.9452
  84   2.0000     -10.287240      -279.9300
  85   2.0000      -8.097859      -220.3539
  86   2.0000      -6.067041      -165.0926
  87   2.0000      -6.062965      -164.9817
  88   2.0000      -6.060052      -164.9024
  89   2.0000      -1.409529       -38.3552
  90   2.0000      -1.403654       -38.1954
  91   2.0000      -1.311564       -35.6895
  92   2.0000      -1.308162       -35.5969
  93   2.0000      -1.305811       -35.5329
  94   2.0000      -1.301856       -35.4253
  95   2.0000      -1.156062       -31.4580
  96   2.0000      -1.134799       -30.8794
  97   2.0000      -1.043902       -28.4060
  98   2.0000      -1.036470       -28.2038
  99   2.0000      -1.032644       -28.0997
 100   2.0000      -1.028409       -27.9844
 101   2.0000      -1.020401       -27.7665
 102   2.0000      -1.017033       -27.6749
 103   2.0000      -1.016031       -27.6476
 104   2.0000      -1.015517       -27.6336
 105   2.0000      -1.010298       -27.4916
 106   2.0000      -1.003631       -27.3102
 107   2.0000      -1.002261       -27.2729
 108   2.0000      -1.000923       -27.2365
 109   2.0000      -0.995936       -27.1008
 110   2.0000      -0.994234       -27.0545
 111   2.0000      -0.992759       -27.0143
 112   2.0000      -0.987336       -26.8668
 113   2.0000      -0.973790       -26.4982
 114   2.0000      -0.942721       -25.6528
 115   2.0000      -0.940748       -25.5991
 116   2.0000      -0.936856       -25.4931
 117   2.0000      -0.926702       -25.2169
 118   2.0000      -0.922359       -25.0987
 119   2.0000      -0.914693       -24.8901
 120   2.0000      -0.902137       -24.5484
 121   2.0000      -0.900065       -24.4920
 122   2.0000      -0.898421       -24.4473
 123   2.0000      -0.896160       -24.3857
 124   2.0000      -0.894068       -24.3288
 125   2.0000      -0.888129       -24.1672
 126   2.0000      -0.883201       -24.0331
 127   2.0000      -0.872083       -23.7306
 128   2.0000      -0.856959       -23.3190
 129   2.0000      -0.851070       -23.1588
 130   2.0000      -0.843867       -22.9628
 131   2.0000      -0.839961       -22.8565
 132   2.0000      -0.831322       -22.6214
 133   2.0000      -0.830203       -22.5910
 134   2.0000      -0.817380       -22.2421
 135   2.0000      -0.815378       -22.1876
 136   2.0000      -0.805328       -21.9141
 137   2.0000      -0.794374       -21.6160
 138   2.0000      -0.790898       -21.5214
 139   2.0000      -0.789929       -21.4951
 140   2.0000      -0.779389       -21.2083
 141   2.0000      -0.764099       -20.7922
 142   2.0000      -0.761917       -20.7328
 143   2.0000      -0.744239       -20.2518
 144   2.0000      -0.741568       -20.1791
 145   2.0000      -0.738712       -20.1014
 146   2.0000      -0.736515       -20.0416
 147   2.0000      -0.731904       -19.9161
 148   2.0000      -0.720815       -19.6144
 149   2.0000      -0.719668       -19.5832
 150   2.0000      -0.712853       -19.3977
 151   2.0000      -0.710998       -19.3472
 152   2.0000      -0.706517       -19.2253
 153   2.0000      -0.704994       -19.1839
 154   2.0000      -0.697821       -18.9887
 155   2.0000      -0.694542       -18.8994
 156   2.0000      -0.690336       -18.7850
 157   2.0000      -0.688924       -18.7466
 158   2.0000      -0.688007       -18.7216
 159   2.0000      -0.685563       -18.6551
 160   2.0000      -0.683601       -18.6017
 161   2.0000      -0.675227       -18.3739
 162   2.0000      -0.669338       -18.2136
 163   2.0000      -0.666731       -18.1427
 164   2.0000      -0.657536       -17.8925
 165   2.0000      -0.654322       -17.8050
 166   2.0000      -0.652588       -17.7578
 167   2.0000      -0.651623       -17.7316
 168   2.0000      -0.648133       -17.6366
 169   2.0000      -0.636247       -17.3132
 170   2.0000      -0.630189       -17.1483
 171   2.0000      -0.626054       -17.0358
 172   2.0000      -0.621927       -16.9235
 173   2.0000      -0.616412       -16.7734
 174   2.0000      -0.613150       -16.6846
 175   2.0000      -0.613072       -16.6825
 176   2.0000      -0.608471       -16.5573
 177   2.0000      -0.597329       -16.2541
 178   2.0000      -0.595226       -16.1969
 179   2.0000      -0.592922       -16.1342
 180   2.0000      -0.578569       -15.7437
 181   2.0000      -0.574830       -15.6419
 182   2.0000      -0.571743       -15.5579
 183   2.0000      -0.570840       -15.5334
 184   2.0000      -0.569275       -15.4908
 185   2.0000      -0.562519       -15.3069
 186   2.0000      -0.561794       -15.2872
 187   2.0000      -0.560509       -15.2522
 188   2.0000      -0.560164       -15.2428
 189   2.0000      -0.558207       -15.1896
 190   2.0000      -0.557956       -15.1828
 191   2.0000      -0.556286       -15.1373
 192   2.0000      -0.552307       -15.0290
 193   2.0000      -0.550740       -14.9864
 194   2.0000      -0.548623       -14.9288
 195   2.0000      -0.544545       -14.8178
 196   2.0000      -0.542640       -14.7660
 197   2.0000      -0.541477       -14.7343
 198   2.0000      -0.539444       -14.6790
 199   2.0000      -0.538177       -14.6445
 200   2.0000      -0.536192       -14.5905
 201   2.0000      -0.535223       -14.5641
 202   2.0000      -0.532589       -14.4925
 203   2.0000      -0.529646       -14.4124
 204   2.0000      -0.527054       -14.3419
 205   2.0000      -0.526362       -14.3230
 206   2.0000      -0.525060       -14.2876
 207   2.0000      -0.523078       -14.2337
 208   2.0000      -0.521484       -14.1903
 209   2.0000      -0.520973       -14.1764
 210   2.0000      -0.519603       -14.1391
 211   2.0000      -0.519185       -14.1277
 212   2.0000      -0.518428       -14.1071
 213   2.0000      -0.516972       -14.0675
 214   2.0000      -0.513863       -13.9829
 215   2.0000      -0.512081       -13.9344
 216   2.0000      -0.510595       -13.8940
 217   2.0000      -0.509280       -13.8582
 218   2.0000      -0.508267       -13.8307
 219   2.0000      -0.507284       -13.8039
 220   2.0000      -0.505719       -13.7613
 221   2.0000      -0.505315       -13.7503
 222   2.0000      -0.503305       -13.6956
 223   2.0000      -0.499921       -13.6035
 224   2.0000      -0.499446       -13.5906
 225   2.0000      -0.499030       -13.5793
 226   2.0000      -0.497783       -13.5454
 227   2.0000      -0.495754       -13.4902
 228   2.0000      -0.495075       -13.4717
 229   2.0000      -0.488960       -13.3053
 230   2.0000      -0.487023       -13.2526
 231   2.0000      -0.483414       -13.1544
 232   2.0000      -0.481750       -13.1091
 233   2.0000      -0.477629       -12.9969
 234   2.0000      -0.472803       -12.8656
 235   2.0000      -0.466270       -12.6879
 236   2.0000      -0.464839       -12.6489
 237   2.0000      -0.464192       -12.6313
 238   2.0000      -0.459587       -12.5060
 239   2.0000      -0.458938       -12.4883
 240   2.0000      -0.456925       -12.4336
 241   2.0000      -0.454334       -12.3630
 242   2.0000      -0.453668       -12.3449
 243   2.0000      -0.451409       -12.2835
 244   2.0000      -0.450789       -12.2666
 245   2.0000      -0.449585       -12.2338
 246   2.0000      -0.448826       -12.2132
 247   2.0000      -0.448744       -12.2109
 248   2.0000      -0.447966       -12.1898
 249   2.0000      -0.446564       -12.1516
 250   2.0000      -0.445997       -12.1362
 251   2.0000      -0.444511       -12.0958
 252   2.0000      -0.442421       -12.0389
 253   2.0000      -0.441978       -12.0268
 254   2.0000      -0.437960       -11.9175
 255   2.0000      -0.435857       -11.8603
 256   2.0000      -0.435771       -11.8579
 257   2.0000      -0.435038       -11.8380
 258   2.0000      -0.429244       -11.6803
 259   2.0000      -0.428282       -11.6541
 260   2.0000      -0.425230       -11.5711
 261   2.0000      -0.425187       -11.5699
 262   2.0000      -0.423857       -11.5337
 263   2.0000      -0.421968       -11.4823
 264   2.0000      -0.421684       -11.4746
 265   2.0000      -0.419865       -11.4251
 266   2.0000      -0.416237       -11.3264
 267   2.0000      -0.409970       -11.1559
 268   2.0000      -0.408404       -11.1132
 269   2.0000      -0.392889       -10.6911
 270   2.0000      -0.392673       -10.6852
 271   2.0000      -0.377590       -10.2747
 272   2.0000      -0.372214       -10.1285
 273   2.0000      -0.370961       -10.0944
 274   2.0000      -0.364803        -9.9268
 275   2.0000      -0.362936        -9.8760
 276   2.0000      -0.349332        -9.5058
 277   2.0000      -0.342004        -9.3064
 278   2.0000      -0.339148        -9.2287
 279   2.0000      -0.338064        -9.1992
 280   2.0000      -0.333062        -9.0631
 281   2.0000      -0.326141        -8.8748
 282   2.0000      -0.319280        -8.6880
 283   2.0000      -0.315191        -8.5768
 284   2.0000      -0.306561        -8.3419
 285   2.0000      -0.298679        -8.1275
 286   2.0000      -0.286685        -7.8011
 287   2.0000      -0.280927        -7.6444
 288   0.0000      -0.144374        -3.9286
 289   0.0000      -0.138445        -3.7673
 290   0.0000      -0.104634        -2.8472
 291   0.0000      -0.096663        -2.6303
 292   0.0000      -0.077584        -2.1112

MULLIKEN ATOMIC CHARGES
-----------------------
   0 C :    0.310050
   1 C :   -0.327988
   2 C :   -0.176625
   3 N :    0.161688
   4 C :   -0.206370
   5 N :    0.173100
   6 C :    0.052975
   7 C :   -0.005261
   8 C :   -0.071987
   9 C :    0.097223
  10 C :    0.095561
  11 C :   -0.079963
  12 C :   -0.015761
  13 C :    0.040720
  14 C :    0.038201
  15 C :   -0.014633
  16 C :    0.169971
  17 O :   -0.152179
  18 C :   -0.119158
  19 C :   -0.036059
  20 C :    0.051372
  21 C :    0.027541
  22 C :   -0.109505
  23 C :   -0.133185
  24 N :    0.155302
  25 C :   -0.017329
  26 C :    0.086960
  27 C :    0.056616
  28 C :    0.075699
  29 C :   -0.015090
  30 C :   -0.099864
  31 C :   -0.016099
  32 C :   -0.132021
  33 N :    0.150531
  34 C :   -0.037672
  35 C :    0.016167
  36 C :   -0.083872
  37 S :    0.173254
  38 C :   -0.193099
  39 C :   -0.052444
  40 C :   -0.098482
  41 C :    0.515074
  42 F :   -0.168217
  43 F :   -0.140382
  44 F :   -0.155524
  45 C :    0.545064
  46 F :   -0.157355
  47 F :   -0.149287
  48 F :   -0.154201
  49 C :    0.081506
  50 C :   -0.000165
  51 C :   -0.097987
  52 C :   -0.133345
  53 N :    0.159654
  54 C :   -0.019617
  55 C :    0.046001
  56 C :    0.044285
  57 C :    0.096779
  58 C :   -0.001133
  59 C :   -0.092747
  60 C :   -0.009452
  61 C :   -0.130523
  62 N :    0.152281
  63 C :   -0.003784
  64 C :    0.005062
  65 C :   -0.041699
  66 C :   -0.067962
  67 C :    0.335617
  68 C :   -0.351668
  69 C :   -0.181310
  70 N :    0.149742
  71 C :   -0.187695
  72 N :    0.143120
  73 C :    0.044774
  74 C :   -0.004077
  75 C :    0.151483
  76 O :   -0.154562
  77 C :   -0.075451
  78 C :    0.094555
  79 C :    0.093633
  80 C :   -0.078939
  81 C :   -0.016737
  82 C :    0.036436
  83 C :    0.036311
  84 C :   -0.013200
  85 H :   -0.013661
  86 H :   -0.004500
  87 H :   -0.005146
  88 H :    0.000421
  89 H :    0.001305
  90 H :   -0.015119
  91 H :    0.044112
  92 H :    0.006858
  93 H :    0.008767
  94 H :    0.003566
  95 H :    0.009323
  96 H :    0.025018
  97 H :    0.019622
  98 H :    0.004733
  99 H :    0.013461
 100 H :    0.014570
 101 H :    0.011257
 102 H :    0.014797
 103 H :    0.026976
 104 H :    0.009096
 105 H :   -0.014246
 106 H :   -0.009014
 107 H :   -0.008279
 108 H :   -0.004279
 109 H :   -0.004399
 110 H :   -0.017882
Sum of atomic charges:   -0.0000000

LOEWDIN ATOMIC CHARGES
----------------------
   0 C :    0.071428
   1 C :   -0.126352
   2 C :   -0.018044
   3 N :   -0.038790
   4 C :   -0.024321
   5 N :   -0.041012
   6 C :   -0.025644
   7 C :   -0.058087
   8 C :    0.038270
   9 C :   -0.007475
  10 C :   -0.003480
  11 C :    0.024413
  12 C :   -0.003062
  13 C :   -0.007059
  14 C :   -0.007261
  15 C :   -0.007231
  16 C :    0.090164
  17 O :   -0.137055
  18 C :   -0.077961
  19 C :    0.070323
  20 C :   -0.033254
  21 C :    0.044554
  22 C :   -0.050834
  23 C :   -0.033688
  24 N :   -0.030327
  25 C :    0.023542
  26 C :    0.053812
  27 C :    0.036894
  28 C :   -0.035873
  29 C :    0.025799
  30 C :   -0.055254
  31 C :    0.002551
  32 C :   -0.033398
  33 N :   -0.034977
  34 C :   -0.010842
  35 C :   -0.037386
  36 C :   -0.138124
  37 S :    0.483571
  38 C :   -0.149684
  39 C :   -0.108553
  40 C :   -0.108271
  41 C :    0.163899
  42 F :   -0.061169
  43 F :   -0.038268
  44 F :   -0.059643
  45 C :    0.163293
  46 F :   -0.050829
  47 F :   -0.045911
  48 F :   -0.051415
  49 C :   -0.058357
  50 C :    0.024689
  51 C :   -0.045094
  52 C :   -0.032457
  53 N :   -0.025403
  54 C :    0.008903
  55 C :    0.038824
  56 C :    0.040434
  57 C :   -0.039895
  58 C :    0.047498
  59 C :   -0.050622
  60 C :    0.010347
  61 C :   -0.031460
  62 N :   -0.033662
  63 C :    0.022947
  64 C :   -0.016271
  65 C :    0.064409
  66 C :   -0.087845
  67 C :    0.074989
  68 C :   -0.137608
  69 C :   -0.017361
  70 N :   -0.051948
  71 C :   -0.019638
  72 N :   -0.053261
  73 C :   -0.025774
  74 C :   -0.056380
  75 C :    0.085713
  76 O :   -0.147954
  77 C :    0.033119
  78 C :   -0.008227
  79 C :   -0.005864
  80 C :    0.020322
  81 C :   -0.004852
  82 C :   -0.012408
  83 C :   -0.011450
  84 C :   -0.009261
  85 H :    0.039512
  86 H :    0.040738
  87 H :    0.036552
  88 H :    0.035647
  89 H :    0.035373
  90 H :    0.033055
  91 H :    0.052445
  92 H :    0.040786
  93 H :    0.038072
  94 H :    0.036760
  95 H :    0.036198
  96 H :    0.026789
  97 H :    0.036855
  98 H :    0.037548
  99 H :    0.040367
 100 H :    0.041776
 101 H :    0.036448
 102 H :    0.036986
 103 H :    0.033387
 104 H :    0.041946
 105 H :    0.038797
 106 H :    0.039157
 107 H :    0.035159
 108 H :    0.033470
 109 H :    0.033133
 110 H :    0.031919

  Mayer bond orders larger than 0.100000
B(  0-C ,  1-C ) :   1.6730 B(  0-C ,  6-C ) :   1.0020 B(  0-C , 18-C ) :   1.0244
B(  1-C ,  2-C ) :   1.1345 B(  1-C ,  4-C ) :   1.1478 B(  2-C ,  3-N ) :   2.9715
B(  4-C ,  5-N ) :   2.9782 B(  6-C ,  7-C ) :   1.2107 B(  6-C , 11-C ) :   1.4467
B(  7-C ,  8-C ) :   1.4625 B(  7-C , 16-C ) :   0.9622 B(  8-C ,  9-C ) :   1.1851
B(  8-C , 85-H ) :   1.0165 B(  9-C , 10-C ) :   1.2529 B(  9-C , 15-C ) :   1.2408
B( 10-C , 11-C ) :   1.2073 B( 10-C , 12-C ) :   1.2408 B( 11-C , 86-H ) :   0.9901
B( 12-C , 13-C ) :   1.4898 B( 12-C , 87-H ) :   0.9972 B( 13-C , 14-C ) :   1.2599
B( 13-C , 88-H ) :   0.9882 B( 14-C , 15-C ) :   1.4903 B( 14-C , 89-H ) :   0.9887
B( 15-C , 90-H ) :   0.9977 B( 16-C , 17-O ) :   2.1751 B( 16-C , 18-C ) :   0.9410
B( 18-C , 19-C ) :   1.6695 B( 19-C , 20-C ) :   1.0642 B( 19-C , 91-H ) :   0.9545
B( 20-C , 21-C ) :   1.5985 B( 20-C , 26-C ) :   1.0441 B( 21-C , 22-C ) :   1.0981
B( 21-C , 92-H ) :   1.0207 B( 22-C , 23-C ) :   1.0617 B( 22-C , 25-C ) :   1.6298
B( 23-C , 24-N ) :   3.0439 B( 25-C , 26-C ) :   1.0890 B( 25-C , 93-H ) :   1.0122
B( 26-C , 27-C ) :   1.4766 B( 27-C , 28-C ) :   1.0621 B( 27-C , 31-C ) :   1.1030
B( 28-C , 29-C ) :   1.6070 B( 28-C , 34-C ) :   1.0752 B( 29-C , 30-C ) :   1.0973
B( 29-C , 94-H ) :   1.0151 B( 30-C , 31-C ) :   1.6226 B( 30-C , 32-C ) :   1.0559
B( 31-C , 95-H ) :   1.0094 B( 32-C , 33-N ) :   3.0425 B( 34-C , 35-C ) :   1.6884
B( 34-C , 96-H ) :   0.9515 B( 35-C , 36-C ) :   1.1370 B( 35-C , 97-H ) :   0.9668
B( 36-C , 37-S ) :   1.1138 B( 36-C , 38-C ) :   0.1041 B( 36-C , 40-C ) :   1.5349
B( 37-S , 38-C ) :   1.1723 B( 38-C , 39-C ) :   1.5718 B( 38-C , 49-C ) :   0.9959
B( 39-C , 40-C ) :   1.2705 B( 39-C , 45-C ) :   0.9558 B( 40-C , 41-C ) :   0.9370
B( 41-C , 42-F ) :   1.1236 B( 41-C , 43-F ) :   1.1657 B( 41-C , 44-F ) :   1.1849
B( 45-C , 46-F ) :   1.1314 B( 45-C , 47-F ) :   1.1621 B( 45-C , 48-F ) :   1.1488
B( 49-C , 50-C ) :   1.6416 B( 49-C , 55-C ) :   1.0793 B( 50-C , 51-C ) :   1.0888
B( 50-C , 98-H ) :   1.0206 B( 51-C , 52-C ) :   1.0626 B( 51-C , 54-C ) :   1.6382
B( 52-C , 53-N ) :   3.0404 B( 54-C , 55-C ) :   1.0904 B( 54-C , 99-H ) :   1.0162
B( 55-C , 56-C ) :   1.4754 B( 56-C , 57-C ) :   1.0390 B( 56-C , 60-C ) :   1.1036
B( 57-C , 58-C ) :   1.5760 B( 57-C , 63-C ) :   1.0727 B( 58-C , 59-C ) :   1.1082
B( 58-C ,100-H ) :   1.0129 B( 59-C , 60-C ) :   1.6155 B( 59-C , 61-C ) :   1.0563
B( 60-C ,101-H ) :   1.0134 B( 61-C , 62-N ) :   3.0443 B( 63-C , 64-C ) :   1.5840
B( 63-C ,102-H ) :   0.9772 B( 64-C , 65-C ) :   1.1557 B( 64-C ,103-H ) :   0.9800
B( 65-C , 66-C ) :   1.5420 B( 65-C ,104-H ) :   0.9637 B( 66-C , 67-C ) :   1.0583
B( 66-C , 75-C ) :   0.9410 B( 67-C , 68-C ) :   1.6286 B( 67-C , 73-C ) :   0.9889
B( 68-C , 69-C ) :   1.1454 B( 68-C , 71-C ) :   1.1460 B( 69-C , 70-N ) :   2.9627
B( 71-C , 72-N ) :   2.9608 B( 73-C , 74-C ) :   1.2140 B( 73-C , 80-C ) :   1.4490
B( 74-C , 75-C ) :   0.9468 B( 74-C , 77-C ) :   1.4711 B( 75-C , 76-O ) :   2.1945
B( 77-C , 78-C ) :   1.1797 B( 77-C ,105-H ) :   1.0151 B( 78-C , 79-C ) :   1.2554
B( 78-C , 84-C ) :   1.2453 B( 79-C , 80-C ) :   1.2079 B( 79-C , 81-C ) :   1.2389
B( 80-C ,106-H ) :   0.9880 B( 81-C , 82-C ) :   1.4893 B( 81-C ,107-H ) :   0.9969
B( 82-C , 83-C ) :   1.2596 B( 82-C ,108-H ) :   0.9887 B( 83-C , 84-C ) :   1.4878
B( 83-C ,109-H ) :   0.9891 B( 84-C ,110-H ) :   0.9970

-----------------------------------------------------------------------------
         ABSORPTION SPECTRUM VIA TRANSITION ELECTRIC DIPOLE MOMENTS
-----------------------------------------------------------------------------
State   Energy  Wavelength   fosc         T2         TX        TY        TZ
        (cm-1)    (nm)                  (au**2)     (au)      (au)      (au)
-----------------------------------------------------------------------------
   0   12086.3    827.4   0.203584458   5.54534   0.39951  -2.31985  -0.06332
   1   13333.0    750.0   0.039989935   0.98742  -0.11130  -0.94567  -0.28414
   2   14804.1    675.5   0.019326858   0.42979  -0.18079   0.49612  -0.38855
   3   18418.6    542.9   0.059946612   1.07148  -0.33927  -0.64584  -0.73435
   4   21738.9    460.0   0.014132481   0.21402  -0.42864  -0.04225   0.16883
   5   21932.6    455.9   0.010091109   0.15147   0.03937  -0.19456   0.33476
   6   22088.2    452.7   0.053560367   0.79829  -0.59709  -0.44598  -0.49282
   7   22714.7    440.2   0.001265116   0.01834   0.02224   0.10816   0.07838
   8   22991.6    434.9   0.015705674   0.22489  -0.12295  -0.14046  -0.43594
   9   23582.5    424.0   0.980308902  13.68514  -0.85014   3.56793   0.48192
  10   24426.6    409.4   0.080008848   1.07833   0.68586   0.70499   0.33304
  11   24911.4    401.4   0.005676676   0.07502   0.24125  -0.09304  -0.09035
  12   25252.3    396.0   0.097864186   1.27585   0.73326  -0.80892  -0.28952
  13   25416.8    393.4   0.059918827   0.77610  -0.66186   0.57719   0.06996
  14   25777.0    387.9   0.016131102   0.20602   0.10420  -0.38601   0.21484
  15   26176.8    382.0   0.069672212   0.87623   0.58471  -0.61727  -0.39156
  16   26455.4    378.0   0.016072910   0.20001  -0.20542  -0.36588  -0.15474
  17   27322.5    366.0   0.148720951   1.79196   1.19720  -0.45771  -0.38621
  18   27501.8    363.6   0.067099811   0.80322   0.47093   0.52468  -0.55332
  19   27951.9    357.8   0.208901321   2.46039  -0.55366  -1.42880  -0.33523
  20   28057.0    356.4   0.288714381   3.38769   0.55968   1.72027  -0.33930
  21   28226.3    354.3   0.078816915   0.91927  -0.49024  -0.80837  -0.15959
  22   28872.5    346.3   0.091863232   1.04745   0.80003   0.19928  -0.60637
  23   29067.4    344.0   0.004303869   0.04874  -0.13879   0.15428   0.07537
  24   29313.1    341.1   0.030389574   0.34130  -0.07832  -0.42784   0.39003
  25   29539.9    338.5   0.000415005   0.00463  -0.03803   0.05617   0.00487
  26   29906.9    334.4   0.157526279   1.73403  -1.29119   0.24131  -0.09283
  27   29935.9    334.0   0.136028945   1.49594  -0.15067   1.20721  -0.12600
  28   30643.8    326.3   0.085820738   0.92199  -0.54191  -0.71500   0.34219
  29   30850.0    324.1   0.049552646   0.52880  -0.15041  -0.11084  -0.70277
  30   31106.3    321.5   0.009797116   0.10369  -0.11617  -0.19269   0.23035
  31   31349.9    319.0   0.323095883   3.39290   1.30592   0.59449  -1.15501
  32   31435.3    318.1   0.023911262   0.25042   0.05966  -0.16739   0.46780
  33   31621.0    316.2   0.389046814   4.05044   1.32256  -0.95636  -1.17756
  34   31651.6    315.9   0.057519057   0.59826   0.16222   0.73549  -0.17606
  35   31829.1    314.2   0.018852056   0.19499  -0.31160  -0.30956   0.04548
  36   32172.6    310.8   0.084084034   0.86040   0.11917  -0.72465   0.56664
  37   32254.7    310.0   0.231180747   2.35958   0.62880   0.37814  -1.34952
  38   32627.9    306.5   0.801593681   8.08798  -2.27704   1.49745  -0.81285
  39   32933.4    303.6   0.029356560   0.29346  -0.21647  -0.19298   0.45755
  40   33320.3    300.1   0.013373055   0.13213   0.17576   0.30209  -0.09988
  41   33360.5    299.8   0.000843437   0.00832  -0.07175  -0.05608  -0.00554
  42   33780.8    296.0   0.018920562   0.18439  -0.00332  -0.36446   0.22705
  43   34024.5    293.9   0.453288149   4.38589  -0.62953  -1.06411   1.69034
  44   34082.4    293.4   0.370057447   3.57449   0.56730   1.59312  -0.84535
  45   34223.8    292.2   0.474661919   4.56596   0.99804   1.84690  -0.39854
  46   34632.5    288.7   0.382865347   3.63947  -1.74338   0.62822   0.45323
  47   35156.9    284.4   0.145890733   1.36613   1.11770  -0.22408  -0.25821
  48   35757.1    279.7   0.014009050   0.12898   0.13269  -0.24575  -0.22579
  49   36193.7    276.3   0.240840737   2.19065   1.33796  -0.13361  -0.61860
  50   36362.7    275.0   0.029830068   0.27007  -0.18841  -0.47930   0.06954
  51   37016.1    270.2   0.000350573   0.00312   0.03265   0.04244   0.01583
  52   37201.6    268.8   0.001516690   0.01342  -0.05423   0.05779   0.08451
  53   37357.1    267.7   0.004912150   0.04329   0.01040  -0.05094   0.20146
  54   37437.4    267.1   0.002004338   0.01763  -0.02599   0.10838   0.07214
  55   37529.1    266.5   0.008766425   0.07690   0.14013  -0.10851  -0.21328
  56   37739.7    265.0   0.028168587   0.24572   0.35055  -0.29662  -0.18669
  57   37961.0    263.4   0.078668242   0.68224   0.17094  -0.78917  -0.17389
  58   37968.2    263.4   0.052699599   0.45694   0.31455  -0.58011  -0.14653
  59   38801.8    257.7   0.169457849   1.43775   1.03292   0.07346  -0.60452
  60   39165.3    255.3   0.065250697   0.54848   0.63116   0.10069  -0.37414
  61   39499.4    253.2   0.025957492   0.21635  -0.45181  -0.09460  -0.05717
  62   39774.6    251.4   0.069383012   0.57428  -0.55123   0.38148   0.35341
  63   39838.2    251.0   0.125392139   1.03621  -1.01320  -0.05624  -0.08041
  64   39929.0    250.4   0.082208228   0.67780   0.53604  -0.58322  -0.22430
  65   40045.0    249.7   0.025320410   0.20816   0.22431   0.13892  -0.37222
  66   40171.0    248.9   0.039306919   0.32213  -0.05338  -0.53246   0.18913
  67   40285.7    248.2   0.040780086   0.33325  -0.57211  -0.01909   0.07467

FINAL SINGLE POINT ENERGY     -4187.537221389984

DIPOLE MOMENT
-------------
                                X             Y             Z
Electronic contribution:      7.28990     -19.11915      43.47204
Nuclear contribution   :     -6.38760      20.48442     -46.69969
                        -----------------------------------------
Total Dipole Moment    :      0.90230       1.36527      -3.22765
                        -----------------------------------------
Magnitude (a.u.)       :      3.61881
Magnitude (Debye)      :      9.19830

Rotational constants in cm-1:     0.001445     0.000218     0.000213
Rotational constants in MHz :    43.317882     6.521761     6.381956

                             ****ORCA TERMINATED NORMALLY****
TOTAL RUN TIME: 0 days 0 hours 27 minutes 39 seconds 526 msec
