                         Program Version 4.2.0 -  RELEASE  -
|  1> # ORCA input file
|  2> # SCF done       -192.261544298269          0.000615565586
|  3> ! CAM-B3LYP def2-SVP def2/J RIJCOSX Grid4 TightSCF
|  4> %maxcore 5000
|  5> %tddft
|  6>     Mode sTDDFT
|  7>     Ethresh 5.0
|  8>     maxcore 5000
|  9> end
| 10>
| 11> %pal
| 12>   nprocs 6
| 13>   end
| 14> * xyz 0 1
| 15>    C      -12.71328         0.54959        -1.29963
| 16>    C      -13.48841         0.21700        -0.21927
| 17>    C      -14.76520        -0.37378        -0.31050
| 18>    N      -15.80671        -0.85568        -0.32740
| 19>    C      -13.10605         0.43336         1.12041
| 20>    N      -12.83222         0.59616         2.22320
| 21>    C      -13.07303         0.36151        -2.70283
| 22>    C      -12.02472         0.86056        -3.51947
| 23>    C      -12.07244         0.82133        -4.89223
| 24>    C      -13.20559         0.26026        -5.49007
| 25>    C      -14.24525        -0.23680        -4.66813
| 26>    C      -14.19832        -0.19447        -3.27917
| 27>    S      -15.54827        -0.89041        -5.61092
| 28>    C      -14.69236        -0.49404        -7.07736
| 29>    C      -13.49132         0.09841        -6.87293
| 30>   Br      -15.46195        -0.90035        -8.73830
| 31>    C      -10.95630         1.37698        -2.65647
| 32>    O       -9.89401         1.88584        -3.00284
| 33>    C      -11.40150         1.15523        -1.27728
| 34>    C      -10.60146         1.46640        -0.20551
| 35>    N       -9.40058         2.02321        -0.40052
| 36>    C       -8.45225         2.26742         0.54001
| 37>    S       -8.64523         1.75766         2.18925
| 38>    C       -7.03084         2.29522         2.52056
| 39>    N       -6.54572         2.14777         3.82931
| 40>    O       -5.40897         2.51603         4.05184
| 41>    O       -7.30669         1.65597         4.64173
| 42>    C       -6.39141         2.82160         1.43122
| 43>    C       -7.20187         2.83758         0.27986
| 44>    C       -6.76409         3.38210        -0.98169
| 45>    C       -7.56026         4.02301        -1.86264
| 46>    C       -7.14739         4.58671        -3.10483
| 47>    S       -8.06747         5.90807        -3.74753
| 48>    C       -7.00718         6.06002        -5.12912
| 49>    C       -6.00479         5.08614        -5.07901
| 50>    C       -6.08964         4.26477        -3.94638
| 51>    C       -5.16310         3.10997        -3.73145
| 52>    C       -4.53699         2.68161        -5.05462
| 53>    C       -3.86806         3.89327        -5.71670
| 54>    N       -3.08328         3.58542        -6.89949
| 55>    C       -4.93622         4.91985        -6.11082
| 56>    C       -7.29346         7.11699        -6.01650
| 57>    C       -6.64798         7.43949        -7.18176
| 58>    C       -6.90615         8.56068        -7.97957
| 59>    C       -7.95877         9.50061        -7.95415
| 60>    C       -9.21887         9.48483        -7.33142
| 61>    C      -10.06135        10.55277        -7.48778
| 62>    C       -9.71262        11.64282        -8.30606
| 63>    C       -8.51348        11.67420        -8.96603
| 64>    C       -7.60139        10.62379        -8.77859
| 65>    C       -6.33178        10.40407        -9.35703
| 66>    C       -5.93877         9.03948        -8.98229
| 67>    C       -4.90533         8.35287        -9.48226
| 68>    C       -5.55281        11.24284       -10.14365
| 69>    C       -5.55533        12.62006       -10.27234
| 70>    C       -6.03931        13.67849        -9.43636
| 71>    C       -6.31467        13.61258        -8.08607
| 72>    C       -6.77252        14.69981        -7.32136
| 73>    N       -7.17648        15.54539        -6.65612
| 74>    C       -6.08742        12.47761        -7.28994
| 75>    N       -5.87312        11.60045        -6.57861
| 76>    C       -5.96919        14.91910       -10.21083
| 77>    C       -5.28563        14.65581       -11.42359
| 78>    C       -4.94576        13.21722       -11.47753
| 79>    O       -4.32392        12.63754       -12.34478
| 80>    C       -5.02029        15.63309       -12.34941
| 81>    C       -5.45977        16.93292       -12.07059
| 82>    C       -6.15246        17.18237       -10.86429
| 83>    C       -6.41446        16.19320        -9.92215
| 84>    S       -6.61029        18.85352       -10.72386
| 85>    C       -5.86830        19.18949       -12.26555
| 86>    C       -5.30942        18.10819       -12.85755
| 87>   Br       -5.90309        20.93721       -12.94842
| 88>    H      -11.26035         1.20891        -5.48715
| 89>    H      -15.01534        -0.58694        -2.69731
| 90>    H      -12.83348         0.40814        -7.66424
| 91>    H      -10.89879         1.27380         0.81722
| 92>    H       -9.16031         2.18317        -1.39614
| 93>    H       -5.38689         3.20198         1.47515
| 94>    H       -5.70018         3.33109        -1.15317
| 95>    H       -8.59040         4.22692        -1.59924
| 96>    H       -5.71138         2.27994        -3.27951
| 97>    H       -4.36506         3.40211        -3.04130
| 98>    H       -5.30765         2.28198        -5.71898
| 99>    H       -3.79898         1.89596        -4.87685
|100>    H       -3.18352         4.35164        -4.99300
|101>    H       -3.64404         3.07235        -7.57265
|102>    H       -2.28444         3.00895        -6.66109
|103>    H       -5.39459         4.59643        -7.05185
|104>    H       -4.44040         5.87521        -6.29269
|105>    H       -8.09077         7.76434        -5.68238
|106>    H       -5.81329         6.83314        -7.49193
|107>    H       -9.54515         8.62514        -6.76810
|108>    H      -11.02742        10.55186        -7.00552
|109>    H      -10.41925        12.44981        -8.43148
|110>    H       -8.28352        12.47699        -9.64944
|111>    H       -4.25454         8.77469       -10.22862
|112>    H       -4.68866         7.33944        -9.19053
|113>    H       -4.83283        10.76296       -10.80087
|114>    H       -4.48749        15.40640       -13.25954
|115>    H       -6.94730        16.43222        -9.01683
|116>    H       -4.81078        18.13534       -13.80922
|117> *
|118>
|119>                          ****END OF INPUT****

CARTESIAN COORDINATES (ANGSTROEM)
---------------------------------
  C    -12.713280    0.549590   -1.299630
  C    -13.488410    0.217000   -0.219270
  C    -14.765200   -0.373780   -0.310500
  N    -15.806710   -0.855680   -0.327400
  C    -13.106050    0.433360    1.120410
  N    -12.832220    0.596160    2.223200
  C    -13.073030    0.361510   -2.702830
  C    -12.024720    0.860560   -3.519470
  C    -12.072440    0.821330   -4.892230
  C    -13.205590    0.260260   -5.490070
  C    -14.245250   -0.236800   -4.668130
  C    -14.198320   -0.194470   -3.279170
  S    -15.548270   -0.890410   -5.610920
  C    -14.692360   -0.494040   -7.077360
  C    -13.491320    0.098410   -6.872930
  Br   -15.461950   -0.900350   -8.738300
  C    -10.956300    1.376980   -2.656470
  O     -9.894010    1.885840   -3.002840
  C    -11.401500    1.155230   -1.277280
  C    -10.601460    1.466400   -0.205510
  N     -9.400580    2.023210   -0.400520
  C     -8.452250    2.267420    0.540010
  S     -8.645230    1.757660    2.189250
  C     -7.030840    2.295220    2.520560
  N     -6.545720    2.147770    3.829310
  O     -5.408970    2.516030    4.051840
  O     -7.306690    1.655970    4.641730
  C     -6.391410    2.821600    1.431220
  C     -7.201870    2.837580    0.279860
  C     -6.764090    3.382100   -0.981690
  C     -7.560260    4.023010   -1.862640
  C     -7.147390    4.586710   -3.104830
  S     -8.067470    5.908070   -3.747530
  C     -7.007180    6.060020   -5.129120
  C     -6.004790    5.086140   -5.079010
  C     -6.089640    4.264770   -3.946380
  C     -5.163100    3.109970   -3.731450
  C     -4.536990    2.681610   -5.054620
  C     -3.868060    3.893270   -5.716700
  N     -3.083280    3.585420   -6.899490
  C     -4.936220    4.919850   -6.110820
  C     -7.293460    7.116990   -6.016500
  C     -6.647980    7.439490   -7.181760
  C     -6.906150    8.560680   -7.979570
  C     -7.958770    9.500610   -7.954150
  C     -9.218870    9.484830   -7.331420
  C    -10.061350   10.552770   -7.487780
  C     -9.712620   11.642820   -8.306060
  C     -8.513480   11.674200   -8.966030
  C     -7.601390   10.623790   -8.778590
  C     -6.331780   10.404070   -9.357030
  C     -5.938770    9.039480   -8.982290
  C     -4.905330    8.352870   -9.482260
  C     -5.552810   11.242840  -10.143650
  C     -5.555330   12.620060  -10.272340
  C     -6.039310   13.678490   -9.436360
  C     -6.314670   13.612580   -8.086070
  C     -6.772520   14.699810   -7.321360
  N     -7.176480   15.545390   -6.656120
  C     -6.087420   12.477610   -7.289940
  N     -5.873120   11.600450   -6.578610
  C     -5.969190   14.919100  -10.210830
  C     -5.285630   14.655810  -11.423590
  C     -4.945760   13.217220  -11.477530
  O     -4.323920   12.637540  -12.344780
  C     -5.020290   15.633090  -12.349410
  C     -5.459770   16.932920  -12.070590
  C     -6.152460   17.182370  -10.864290
  C     -6.414460   16.193200   -9.922150
  S     -6.610290   18.853520  -10.723860
  C     -5.868300   19.189490  -12.265550
  C     -5.309420   18.108190  -12.857550
  Br    -5.903090   20.937210  -12.948420
  H    -11.260350    1.208910   -5.487150
  H    -15.015340   -0.586940   -2.697310
  H    -12.833480    0.408140   -7.664240
  H    -10.898790    1.273800    0.817220
  H     -9.160310    2.183170   -1.396140
  H     -5.386890    3.201980    1.475150
  H     -5.700180    3.331090   -1.153170
  H     -8.590400    4.226920   -1.599240
  H     -5.711380    2.279940   -3.279510
  H     -4.365060    3.402110   -3.041300
  H     -5.307650    2.281980   -5.718980
  H     -3.798980    1.895960   -4.876850
  H     -3.183520    4.351640   -4.993000
  H     -3.644040    3.072350   -7.572650
  H     -2.284440    3.008950   -6.661090
  H     -5.394590    4.596430   -7.051850
  H     -4.440400    5.875210   -6.292690
  H     -8.090770    7.764340   -5.682380
  H     -5.813290    6.833140   -7.491930
  H     -9.545150    8.625140   -6.768100
  H    -11.027420   10.551860   -7.005520
  H    -10.419250   12.449810   -8.431480
  H     -8.283520   12.476990   -9.649440
  H     -4.254540    8.774690  -10.228620
  H     -4.688660    7.339440   -9.190530
  H     -4.832830   10.762960  -10.800870
  H     -4.487490   15.406400  -13.259540
  H     -6.947300   16.432220   -9.016830
  H     -4.810780   18.135340  -13.809220

 Total Charge           Charge          ....    0
 Multiplicity           Mult            ....    1
 Number of Electrons    NEL             ....  580
 Basis Dimension        Dim             .... 1219

ORBITAL ENERGIES
----------------

  NO   OCC          E(Eh)            E(eV)
   0   2.0000    -482.894654    -13140.2316
   1   2.0000    -482.874255    -13139.6765
   2   2.0000     -88.999288     -2421.7938
   3   2.0000     -88.986256     -2421.4391
   4   2.0000     -88.969274     -2420.9770
   5   2.0000     -88.961568     -2420.7673
   6   2.0000     -62.572351     -1702.6802
   7   2.0000     -62.551995     -1702.1263
   8   2.0000     -56.406314     -1534.8938
   9   2.0000     -56.403577     -1534.8194
  10   2.0000     -56.403548     -1534.8186
  11   2.0000     -56.385930     -1534.3392
  12   2.0000     -56.383247     -1534.2661
  13   2.0000     -56.383200     -1534.2649
  14   2.0000     -19.246204      -523.7158
  15   2.0000     -19.245452      -523.6954
  16   2.0000     -19.241472      -523.5871
  17   2.0000     -19.192243      -522.2475
  18   2.0000     -14.657857      -398.8606
  19   2.0000     -14.504530      -394.6883
  20   2.0000     -14.427532      -392.5931
  21   2.0000     -14.423071      -392.4717
  22   2.0000     -14.396221      -391.7411
  23   2.0000     -14.393437      -391.6653
  24   2.0000     -14.392850      -391.6494
  25   2.0000     -10.388660      -282.6898
  26   2.0000     -10.381403      -282.4923
  27   2.0000     -10.378596      -282.4159
  28   2.0000     -10.369196      -282.1602
  29   2.0000     -10.355604      -281.7903
  30   2.0000     -10.355110      -281.7769
  31   2.0000     -10.351139      -281.6688
  32   2.0000     -10.344558      -281.4897
  33   2.0000     -10.342437      -281.4320
  34   2.0000     -10.336998      -281.2840
  35   2.0000     -10.329739      -281.0865
  36   2.0000     -10.326089      -280.9872
  37   2.0000     -10.320792      -280.8430
  38   2.0000     -10.320339      -280.8307
  39   2.0000     -10.319768      -280.8152
  40   2.0000     -10.319123      -280.7976
  41   2.0000     -10.317650      -280.7575
  42   2.0000     -10.317301      -280.7480
  43   2.0000     -10.316699      -280.7317
  44   2.0000     -10.316630      -280.7298
  45   2.0000     -10.315318      -280.6941
  46   2.0000     -10.314162      -280.6626
  47   2.0000     -10.312216      -280.6097
  48   2.0000     -10.311035      -280.5775
  49   2.0000     -10.309830      -280.5447
  50   2.0000     -10.309423      -280.5337
  51   2.0000     -10.308348      -280.5044
  52   2.0000     -10.308327      -280.5038
  53   2.0000     -10.308294      -280.5029
  54   2.0000     -10.308287      -280.5027
  55   2.0000     -10.307255      -280.4747
  56   2.0000     -10.307236      -280.4741
  57   2.0000     -10.300426      -280.2888
  58   2.0000     -10.299813      -280.2722
  59   2.0000     -10.298512      -280.2368
  60   2.0000     -10.297310      -280.2041
  61   2.0000     -10.295748      -280.1616
  62   2.0000     -10.294934      -280.1394
  63   2.0000     -10.293436      -280.0986
  64   2.0000     -10.293131      -280.0903
  65   2.0000     -10.290679      -280.0236
  66   2.0000     -10.290465      -280.0178
  67   2.0000     -10.290402      -280.0161
  68   2.0000     -10.289760      -279.9986
  69   2.0000     -10.288856      -279.9740
  70   2.0000     -10.288703      -279.9699
  71   2.0000     -10.287256      -279.9305
  72   2.0000     -10.286278      -279.9038
  73   2.0000     -10.284209      -279.8476
  74   2.0000     -10.283519      -279.8288
  75   2.0000     -10.283347      -279.8241
  76   2.0000     -10.279442      -279.7178
  77   2.0000     -10.277618      -279.6682
  78   2.0000     -10.276340      -279.6334
  79   2.0000     -10.273289      -279.5504
  80   2.0000     -10.267343      -279.3886
  81   2.0000      -8.801774      -239.5085
  82   2.0000      -8.781432      -238.9549
  83   2.0000      -8.094433      -220.2607
  84   2.0000      -8.082317      -219.9310
  85   2.0000      -8.065243      -219.4664
  86   2.0000      -8.057545      -219.2569
  87   2.0000      -6.638116      -180.6323
  88   2.0000      -6.623491      -180.2344
  89   2.0000      -6.623281      -180.2287
  90   2.0000      -6.617676      -180.0761
  91   2.0000      -6.603166      -179.6813
  92   2.0000      -6.603039      -179.6778
  93   2.0000      -6.064044      -165.0110
  94   2.0000      -6.059657      -164.8916
  95   2.0000      -6.056009      -164.7924
  96   2.0000      -6.051992      -164.6831
  97   2.0000      -6.047691      -164.5660
  98   2.0000      -6.043552      -164.4534
  99   2.0000      -6.034327      -164.2024
 100   2.0000      -6.030476      -164.0976
 101   2.0000      -6.027404      -164.0140
 102   2.0000      -6.027241      -164.0096
 103   2.0000      -6.022972      -163.8934
 104   2.0000      -6.018779      -163.7793
 105   2.0000      -2.753984       -74.9397
 106   2.0000      -2.749878       -74.8280
 107   2.0000      -2.749712       -74.8235
 108   2.0000      -2.738087       -74.5071
 109   2.0000      -2.738079       -74.5069
 110   2.0000      -2.733510       -74.3826
 111   2.0000      -2.729503       -74.2736
 112   2.0000      -2.729388       -74.2704
 113   2.0000      -2.717866       -73.9569
 114   2.0000      -2.717835       -73.9560
 115   2.0000      -1.328105       -36.1396
 116   2.0000      -1.156005       -31.4565
 117   2.0000      -1.147440       -31.2234
 118   2.0000      -1.112569       -30.2745
 119   2.0000      -1.105965       -30.0948
 120   2.0000      -1.034733       -28.1565
 121   2.0000      -1.024271       -27.8718
 122   2.0000      -1.019381       -27.7388
 123   2.0000      -1.009697       -27.4753
 124   2.0000      -1.005758       -27.3681
 125   2.0000      -1.004768       -27.3411
 126   2.0000      -1.000911       -27.2362
 127   2.0000      -1.000472       -27.2242
 128   2.0000      -0.991113       -26.9696
 129   2.0000      -0.986220       -26.8364
 130   2.0000      -0.972384       -26.4599
 131   2.0000      -0.969332       -26.3769
 132   2.0000      -0.953507       -25.9463
 133   2.0000      -0.940508       -25.5925
 134   2.0000      -0.936467       -25.4826
 135   2.0000      -0.926216       -25.2036
 136   2.0000      -0.920369       -25.0445
 137   2.0000      -0.919571       -25.0228
 138   2.0000      -0.912636       -24.8341
 139   2.0000      -0.904926       -24.6243
 140   2.0000      -0.897726       -24.4284
 141   2.0000      -0.893920       -24.3248
 142   2.0000      -0.890404       -24.2291
 143   2.0000      -0.883486       -24.0409
 144   2.0000      -0.870989       -23.7008
 145   2.0000      -0.868453       -23.6318
 146   2.0000      -0.861241       -23.4356
 147   2.0000      -0.860701       -23.4209
 148   2.0000      -0.856744       -23.3132
 149   2.0000      -0.850380       -23.1400
 150   2.0000      -0.841209       -22.8905
 151   2.0000      -0.837475       -22.7889
 152   2.0000      -0.826567       -22.4920
 153   2.0000      -0.813465       -22.1355
 154   2.0000      -0.811986       -22.0953
 155   2.0000      -0.802745       -21.8438
 156   2.0000      -0.783720       -21.3261
 157   2.0000      -0.775027       -21.0895
 158   2.0000      -0.773514       -21.0484
 159   2.0000      -0.760755       -20.7012
 160   2.0000      -0.749330       -20.3903
 161   2.0000      -0.739393       -20.1199
 162   2.0000      -0.737701       -20.0739
 163   2.0000      -0.731959       -19.9176
 164   2.0000      -0.727261       -19.7898
 165   2.0000      -0.715347       -19.4656
 166   2.0000      -0.710883       -19.3441
 167   2.0000      -0.701335       -19.0843
 168   2.0000      -0.696696       -18.9581
 169   2.0000      -0.688032       -18.7223
 170   2.0000      -0.682460       -18.5707
 171   2.0000      -0.676481       -18.4080
 172   2.0000      -0.669736       -18.2244
 173   2.0000      -0.668503       -18.1909
 174   2.0000      -0.666666       -18.1409
 175   2.0000      -0.658663       -17.9231
 176   2.0000      -0.652093       -17.7443
 177   2.0000      -0.645050       -17.5527
 178   2.0000      -0.642993       -17.4967
 179   2.0000      -0.641454       -17.4548
 180   2.0000      -0.639313       -17.3966
 181   2.0000      -0.637119       -17.3369
 182   2.0000      -0.631034       -17.1713
 183   2.0000      -0.630277       -17.1507
 184   2.0000      -0.615241       -16.7416
 185   2.0000      -0.611448       -16.6384
 186   2.0000      -0.605916       -16.4878
 187   2.0000      -0.604565       -16.4510
 188   2.0000      -0.600434       -16.3386
 189   2.0000      -0.598844       -16.2954
 190   2.0000      -0.591300       -16.0901
 191   2.0000      -0.585767       -15.9395
 192   2.0000      -0.581428       -15.8215
 193   2.0000      -0.580730       -15.8025
 194   2.0000      -0.576372       -15.6839
 195   2.0000      -0.569210       -15.4890
 196   2.0000      -0.566567       -15.4171
 197   2.0000      -0.565106       -15.3773
 198   2.0000      -0.561936       -15.2911
 199   2.0000      -0.558314       -15.1925
 200   2.0000      -0.556919       -15.1545
 201   2.0000      -0.552671       -15.0389
 202   2.0000      -0.548249       -14.9186
 203   2.0000      -0.545350       -14.8397
 204   2.0000      -0.543158       -14.7801
 205   2.0000      -0.537372       -14.6226
 206   2.0000      -0.535645       -14.5756
 207   2.0000      -0.532683       -14.4950
 208   2.0000      -0.529983       -14.4216
 209   2.0000      -0.528589       -14.3836
 210   2.0000      -0.526362       -14.3230
 211   2.0000      -0.523947       -14.2573
 212   2.0000      -0.519457       -14.1351
 213   2.0000      -0.518335       -14.1046
 214   2.0000      -0.516780       -14.0623
 215   2.0000      -0.515572       -14.0294
 216   2.0000      -0.513701       -13.9785
 217   2.0000      -0.508893       -13.8477
 218   2.0000      -0.508554       -13.8385
 219   2.0000      -0.508174       -13.8281
 220   2.0000      -0.505704       -13.7609
 221   2.0000      -0.503247       -13.6940
 222   2.0000      -0.500523       -13.6199
 223   2.0000      -0.498659       -13.5692
 224   2.0000      -0.490961       -13.3597
 225   2.0000      -0.490311       -13.3421
 226   2.0000      -0.488789       -13.3006
 227   2.0000      -0.487419       -13.2633
 228   2.0000      -0.483397       -13.1539
 229   2.0000      -0.479315       -13.0428
 230   2.0000      -0.475767       -12.9463
 231   2.0000      -0.474003       -12.8983
 232   2.0000      -0.471159       -12.8209
 233   2.0000      -0.470292       -12.7973
 234   2.0000      -0.466225       -12.6866
 235   2.0000      -0.461831       -12.5671
 236   2.0000      -0.459973       -12.5165
 237   2.0000      -0.459816       -12.5122
 238   2.0000      -0.457810       -12.4576
 239   2.0000      -0.453588       -12.3428
 240   2.0000      -0.452947       -12.3253
 241   2.0000      -0.452335       -12.3087
 242   2.0000      -0.450192       -12.2503
 243   2.0000      -0.442646       -12.0450
 244   2.0000      -0.439832       -11.9684
 245   2.0000      -0.437274       -11.8988
 246   2.0000      -0.436983       -11.8909
 247   2.0000      -0.436121       -11.8675
 248   2.0000      -0.432365       -11.7652
 249   2.0000      -0.431625       -11.7451
 250   2.0000      -0.431110       -11.7311
 251   2.0000      -0.429059       -11.6753
 252   2.0000      -0.425595       -11.5810
 253   2.0000      -0.425025       -11.5655
 254   2.0000      -0.423547       -11.5253
 255   2.0000      -0.422715       -11.5027
 256   2.0000      -0.420052       -11.4302
 257   2.0000      -0.419574       -11.4172
 258   2.0000      -0.416067       -11.3218
 259   2.0000      -0.408794       -11.1238
 260   2.0000      -0.407440       -11.0870
 261   2.0000      -0.405754       -11.0411
 262   2.0000      -0.399650       -10.8750
 263   2.0000      -0.399478       -10.8703
 264   2.0000      -0.392942       -10.6925
 265   2.0000      -0.390119       -10.6157
 266   2.0000      -0.387566       -10.5462
 267   2.0000      -0.384380       -10.4595
 268   2.0000      -0.383951       -10.4478
 269   2.0000      -0.381771       -10.3885
 270   2.0000      -0.374873       -10.2008
 271   2.0000      -0.373362       -10.1597
 272   2.0000      -0.366276        -9.9669
 273   2.0000      -0.364622        -9.9219
 274   2.0000      -0.364091        -9.9074
 275   2.0000      -0.352239        -9.5849
 276   2.0000      -0.350052        -9.5254
 277   2.0000      -0.340557        -9.2670
 278   2.0000      -0.330753        -9.0003
 279   2.0000      -0.328841        -8.9482
 280   2.0000      -0.326919        -8.8959
 281   2.0000      -0.322004        -8.7622
 282   2.0000      -0.318918        -8.6782
 283   2.0000      -0.310583        -8.4514
 284   2.0000      -0.305859        -8.3228
 285   2.0000      -0.299606        -8.1527
 286   2.0000      -0.298814        -8.1312
 287   2.0000      -0.277279        -7.5451
 288   2.0000      -0.275744        -7.5034
 289   2.0000      -0.228353        -6.2138
 290   0.0000      -0.114931        -3.1274
 291   0.0000      -0.096496        -2.6258
 292   0.0000      -0.078573        -2.1381
 293   0.0000      -0.054944        -1.4951
 294   0.0000      -0.050599        -1.3769

MULLIKEN ATOMIC CHARGES
-----------------------
   0 C :    0.329774
   1 C :   -0.341560
   2 C :   -0.186001
   3 N :    0.155722
   4 C :   -0.193996
   5 N :    0.143906
   6 C :    0.005085
   7 C :   -0.006075
   8 C :   -0.067378
   9 C :    0.113170
  10 C :   -0.091978
  11 C :   -0.015788
  12 S :    0.194938
  13 C :   -0.124621
  14 C :    0.040443
  15 Br:    0.030175
  16 C :    0.164591
  17 O :   -0.217358
  18 C :   -0.127446
  19 C :    0.021822
  20 N :   -0.013157
  21 C :   -0.120446
  22 S :    0.182911
  23 C :    0.004445
  24 N :    0.273819
  25 O :   -0.244158
  26 O :   -0.254056
  27 C :    0.015917
  28 C :    0.110099
  29 C :   -0.037375
  30 C :    0.040265
  31 C :   -0.133872
  32 S :    0.136183
  33 C :   -0.134198
  34 C :   -0.048681
  35 C :   -0.093576
  36 C :    0.110692
  37 C :    0.072743
  38 C :   -0.053000
  39 N :   -0.170329
  40 C :    0.141868
  41 C :    0.063240
  42 C :   -0.033376
  43 C :    0.131770
  44 C :    0.050735
  45 C :   -0.021071
  46 C :    0.032058
  47 C :    0.038055
  48 C :    0.008095
  49 C :    0.007646
  50 C :    0.098678
  51 C :    0.014393
  52 C :   -0.014275
  53 C :   -0.023584
  54 C :   -0.163398
  55 C :    0.267759
  56 C :   -0.378056
  57 C :   -0.185096
  58 N :    0.133353
  59 C :   -0.188695
  60 N :    0.142364
  61 C :    0.003923
  62 C :    0.011587
  63 C :    0.128312
  64 O :   -0.166417
  65 C :   -0.083755
  66 C :    0.112141
  67 C :   -0.089724
  68 C :   -0.033468
  69 S :    0.174388
  70 C :   -0.126389
  71 C :    0.041401
  72 Br:    0.009820
  73 H :   -0.011648
  74 H :   -0.003298
  75 H :   -0.003774
  76 H :    0.047768
  77 H :    0.178939
  78 H :    0.012189
  79 H :    0.003500
  80 H :   -0.001991
  81 H :    0.021408
  82 H :    0.022802
  83 H :   -0.004503
  84 H :   -0.007250
  85 H :   -0.000959
  86 H :    0.087706
  87 H :    0.092845
  88 H :    0.012668
  89 H :    0.041963
  90 H :   -0.011110
  91 H :   -0.050792
  92 H :   -0.025282
  93 H :   -0.008853
  94 H :    0.002071
  95 H :   -0.010305
  96 H :    0.044137
  97 H :    0.035598
  98 H :   -0.002150
  99 H :   -0.017421
 100 H :   -0.011110
 101 H :   -0.009083
Sum of atomic charges:   -0.0000000

LOEWDIN ATOMIC CHARGES
----------------------
   0 C :    0.078325
   1 C :   -0.146688
   2 C :   -0.020356
   3 N :   -0.050826
   4 C :   -0.020547
   5 N :   -0.051399
   6 C :   -0.018436
   7 C :   -0.052245
   8 C :    0.023651
   9 C :   -0.033848
  10 C :   -0.143436
  11 C :   -0.006620
  12 S :    0.439971
  13 C :   -0.270650
  14 C :   -0.070528
  15 Br:    0.141520
  16 C :    0.094775
  17 O :   -0.176670
  18 C :   -0.145289
  19 C :    0.109799
  20 N :    0.078203
  21 C :   -0.112658
  22 S :    0.477278
  23 C :   -0.201645
  24 N :    0.272814
  25 O :   -0.210483
  26 O :   -0.220327
  27 C :    0.001839
  28 C :   -0.087291
  29 C :   -0.024689
  30 C :   -0.035851
  31 C :   -0.164044
  32 S :    0.447701
  33 C :   -0.173080
  34 C :   -0.035858
  35 C :   -0.051558
  36 C :   -0.028278
  37 C :   -0.041205
  38 C :    0.013159
  39 N :   -0.101320
  40 C :   -0.028911
  41 C :    0.000440
  42 C :   -0.036239
  43 C :    0.046594
  44 C :   -0.019643
  45 C :   -0.001070
  46 C :   -0.023718
  47 C :    0.017038
  48 C :   -0.018216
  49 C :    0.028628
  50 C :   -0.064011
  51 C :    0.002809
  52 C :    0.051038
  53 C :    0.053542
  54 C :   -0.127689
  55 C :    0.056315
  56 C :   -0.165381
  57 C :   -0.021123
  58 N :   -0.077851
  59 C :   -0.010447
  60 N :   -0.075523
  61 C :   -0.015197
  62 C :   -0.051703
  63 C :    0.078258
  64 O :   -0.166132
  65 C :    0.016624
  66 C :   -0.039969
  67 C :   -0.146009
  68 C :   -0.020699
  69 S :    0.423579
  70 C :   -0.277611
  71 C :   -0.070500
  72 Br:    0.125991
  73 H :    0.040943
  74 H :    0.042585
  75 H :    0.038841
  76 H :    0.036392
  77 H :    0.086717
  78 H :    0.047764
  79 H :    0.035177
  80 H :    0.027968
  81 H :    0.034324
  82 H :    0.031182
  83 H :    0.020041
  84 H :    0.020673
  85 H :    0.021607
  86 H :    0.050590
  87 H :    0.055162
  88 H :    0.031368
  89 H :    0.040507
  90 H :    0.031429
  91 H :    0.027916
  92 H :    0.027609
  93 H :    0.031684
  94 H :    0.036310
  95 H :    0.035470
  96 H :    0.038198
  97 H :    0.031897
  98 H :    0.037550
  99 H :    0.038215
 100 H :    0.038718
 101 H :    0.036741

  Mayer bond orders larger than 0.100000
B(  0-C ,  1-C ) :   1.6315 B(  0-C ,  6-C ) :   1.0033 B(  0-C , 18-C ) :   1.0974
B(  1-C ,  2-C ) :   1.1416 B(  1-C ,  4-C ) :   1.1455 B(  2-C ,  3-N ) :   2.9695
B(  4-C ,  5-N ) :   2.9545 B(  6-C ,  7-C ) :   1.2715 B(  6-C , 11-C ) :   1.4252
B(  7-C ,  8-C ) :   1.4232 B(  7-C , 16-C ) :   0.9794 B(  8-C ,  9-C ) :   1.2428
B(  8-C , 73-H ) :   1.0175 B(  9-C , 10-C ) :   1.3089 B(  9-C , 14-C ) :   1.1638
B( 10-C , 11-C ) :   1.3203 B( 10-C , 12-S ) :   1.0915 B( 11-C , 74-H ) :   0.9788
B( 12-S , 13-C ) :   1.0893 B( 13-C , 14-C ) :   1.6164 B( 13-C , 15-Br) :   1.0224
B( 14-C , 75-H ) :   1.0001 B( 16-C , 17-O ) :   2.0465 B( 16-C , 18-C ) :   0.9992
B( 17-O , 77-H ) :   0.1402 B( 18-C , 19-C ) :   1.4543 B( 19-C , 20-N ) :   1.3370
B( 19-C , 76-H ) :   0.9309 B( 20-N , 21-C ) :   1.1780 B( 20-N , 77-H ) :   0.8239
B( 21-C , 22-S ) :   1.1416 B( 21-C , 28-C ) :   1.3982 B( 22-S , 23-C ) :   1.0873
B( 23-C , 24-N ) :   0.9608 B( 23-C , 27-C ) :   1.4974 B( 24-N , 25-O ) :   1.5410
B( 24-N , 26-O ) :   1.5184 B( 25-O , 26-O ) :   0.2638 B( 27-C , 28-C ) :   1.2191
B( 27-C , 78-H ) :   1.0067 B( 28-C , 29-C ) :   1.0641 B( 29-C , 30-C ) :   1.7105
B( 29-C , 79-H ) :   0.9626 B( 30-C , 31-C ) :   1.1307 B( 30-C , 80-H ) :   0.9441
B( 31-C , 32-S ) :   1.1336 B( 31-C , 35-C ) :   1.4806 B( 32-S , 33-C ) :   1.1142
B( 33-C , 34-C ) :   1.4325 B( 33-C , 41-C ) :   1.1925 B( 34-C , 35-C ) :   1.3575
B( 34-C , 40-C ) :   1.0347 B( 35-C , 36-C ) :   1.0510 B( 36-C , 37-C ) :   1.0736
B( 36-C , 81-H ) :   0.9164 B( 36-C , 82-H ) :   0.8979 B( 37-C , 38-C ) :   1.0409
B( 37-C , 83-H ) :   0.9274 B( 37-C , 84-H ) :   0.9299 B( 38-C , 39-N ) :   1.1057
B( 38-C , 40-C ) :   1.0339 B( 38-C , 85-H ) :   0.9190 B( 39-N , 86-H ) :   0.9689
B( 39-N , 87-H ) :   0.9688 B( 40-C , 88-H ) :   0.9002 B( 40-C , 89-H ) :   0.9008
B( 41-C , 42-C ) :   1.5554 B( 41-C , 90-H ) :   0.9439 B( 42-C , 43-C ) :   1.2528
B( 42-C , 91-H ) :   0.9453 B( 43-C , 44-C ) :   1.2835 B( 43-C , 51-C ) :   1.0180
B( 44-C , 45-C ) :   1.2058 B( 44-C , 49-C ) :   1.2016 B( 45-C , 46-C ) :   1.5256
B( 45-C , 92-H ) :   0.9869 B( 46-C , 47-C ) :   1.2224 B( 46-C , 93-H ) :   0.9843
B( 47-C , 48-C ) :   1.5078 B( 47-C , 94-H ) :   0.9855 B( 48-C , 49-C ) :   1.2494
B( 48-C , 95-H ) :   0.9841 B( 49-C , 50-C ) :   1.2471 B( 50-C , 51-C ) :   1.0194
B( 50-C , 53-C ) :   1.2919 B( 51-C , 52-C ) :   1.8859 B( 52-C , 96-H ) :   0.9293
B( 52-C , 97-H ) :   0.9341 B( 53-C , 54-C ) :   1.4612 B( 53-C , 98-H ) :   0.9306
B( 54-C , 55-C ) :   1.1252 B( 54-C , 63-C ) :   0.9745 B( 55-C , 56-C ) :   1.5671
B( 55-C , 61-C ) :   0.9976 B( 56-C , 57-C ) :   1.1450 B( 56-C , 59-C ) :   1.1816
B( 57-C , 58-N ) :   2.9722 B( 59-C , 60-N ) :   2.9939 B( 61-C , 62-C ) :   1.2799
B( 61-C , 68-C ) :   1.4275 B( 62-C , 63-C ) :   0.9152 B( 62-C , 65-C ) :   1.4364
B( 63-C , 64-O ) :   2.2307 B( 65-C , 66-C ) :   1.2353 B( 65-C , 99-H ) :   1.0163
B( 66-C , 67-C ) :   1.3249 B( 66-C , 71-C ) :   1.1608 B( 67-C , 68-C ) :   1.3106
B( 67-C , 69-S ) :   1.0811 B( 68-C ,100-H ) :   0.9824 B( 69-S , 70-C ) :   1.0853
B( 70-C , 71-C ) :   1.6217 B( 70-C , 72-Br) :   1.0100 B( 71-C ,101-H ) :   0.9997

-----------------------------------------------------------------------------
         ABSORPTION SPECTRUM VIA TRANSITION ELECTRIC DIPOLE MOMENTS
-----------------------------------------------------------------------------
State   Energy  Wavelength   fosc         T2         TX        TY        TZ
        (cm-1)    (nm)                  (au**2)     (au)      (au)      (au)
-----------------------------------------------------------------------------
   0    8475.2   1179.9   0.471657045  18.32110  -0.74730  -3.52352   2.31246
   1   18419.9    542.9   0.272840132   4.87637  -1.53256  -1.51245   0.49002
   2   19516.3    512.4   0.308207578   5.19903   0.33767   2.01307  -1.01615
   3   20741.7    482.1   0.074877973   1.18846  -0.14186  -0.05807   1.07934
   4   21301.3    469.5   0.082792935   1.27957   0.36669   1.05360   0.18718
   5   22001.0    454.5   0.015521551   0.23226  -0.28646  -0.38626  -0.03168
   6   23995.6    416.7   0.623255532   8.55088  -2.42063  -0.49983  -1.56255
   7   24544.1    407.4   0.660157458   8.85473   0.17940   1.95575  -2.23553
   8   25574.0    391.0   0.122483084   1.57671  -0.73465   0.30898  -0.97033
   9   26172.1    382.1   0.053141536   0.66845  -0.40356  -0.70307  -0.10623
  10   26607.0    375.8   0.165530825   2.04814  -0.79982   0.08036  -1.18405
  11   27340.7    365.8   0.004396496   0.05294  -0.05960  -0.20697  -0.08092
  12   27819.3    359.5   0.032812877   0.38830  -0.60646  -0.08790  -0.11306
  13   28032.6    356.7   0.094987642   1.11552  -0.19999   0.81353  -0.64320
  14   29048.6    344.3   0.048308157   0.54748   0.03906   0.12610   0.72805
  15   29119.0    343.4   0.024486396   0.27684  -0.18870  -0.16540  -0.46246
  16   29332.6    340.9   0.404762273   4.54282  -0.62177  -0.01031  -2.03866
  17   29761.7    336.0   0.034636484   0.38313   0.38022   0.00157  -0.48843
  18   30231.6    330.8   0.100896939   1.09873   0.18048  -0.55599  -0.87008
  19   30549.7    327.3   0.146885612   1.58288  -0.44848   1.17337   0.07028
  20   30802.1    324.7   0.389090320   4.15859  -1.04620   0.44379  -1.69325
  21   31613.9    316.3   0.476334393   4.96031   0.70748   1.60969  -1.36700
  22   32258.9    310.0   0.033718828   0.34411  -0.02764  -0.55531   0.18702
  23   32575.0    307.0   0.058900985   0.59527   0.02976   0.03734   0.77006
  24   32956.0    303.4   0.002415422   0.02413   0.05307  -0.10194  -0.10449
  25   33154.2    301.6   0.000706368   0.00701   0.00720  -0.02573  -0.07937
  26   33441.9    299.0   0.041929905   0.41277  -0.23091   0.00936  -0.59947
  27   33604.0    297.6   0.091151822   0.89300  -0.59684  -0.43680   0.58821
  28   33728.9    296.5   0.043235452   0.42200  -0.26282  -0.00627  -0.59404
  29   33967.2    294.4   0.709213134   6.87373   0.33113   0.20808  -2.59245
  30   34211.8    292.3   0.007606198   0.07319   0.01262  -0.14385   0.22878
  31   34996.3    285.7   0.008127433   0.07646   0.03888  -0.01094   0.27354
  32   35562.9    281.2   0.098924243   0.91576   0.69022  -0.47490  -0.46241
  33   35631.9    280.6   0.034902200   0.32247  -0.01319   0.10856  -0.55723
  34   35930.9    278.3   0.004127302   0.03782   0.15314   0.09185   0.07698
  35   36318.0    275.3   0.006761377   0.06129  -0.11178   0.15988   0.15242
  36   36417.9    274.6   0.142937116   1.29213  -0.67597   0.21509   0.88822
  37   36512.5    273.9   0.086648041   0.78125   0.50436  -0.42444   0.58883
  38   36731.7    272.2   0.121809868   1.09173  -0.04414  -0.39277   0.96722
  39   36900.2    271.0   0.009760616   0.08708  -0.05986   0.06390  -0.28180
  40   36980.5    270.4   0.003267933   0.02909  -0.08235  -0.14367  -0.04087
  41   37095.4    269.6   0.101134426   0.89754  -0.71994  -0.35599   0.50250
  42   37335.5    267.8   0.017573040   0.15495  -0.21971   0.28712  -0.15571
  43   37495.6    266.7   0.168624683   1.48053   0.40894   0.11773  -1.13993
  44   37760.8    264.8   0.004306877   0.03755   0.02083   0.09537  -0.16739
  45   38139.1    262.2   0.002971126   0.02565   0.05291   0.01437   0.15047
  46   38446.5    260.1   0.056002962   0.47954  -0.60309  -0.02624  -0.33931
  47   38503.6    259.7   0.069730374   0.59621  -0.49092  -0.25541  -0.53849
  48   38874.7    257.2   0.026761709   0.22663   0.18794   0.25138   0.35794
  49   39058.1    256.0   0.063511431   0.53532   0.70938   0.14347  -0.10734
  50   39501.0    253.2   0.039781544   0.33155   0.27037   0.41380  -0.29533
  51   39800.8    251.3   0.010358682   0.08568   0.10952   0.16868  -0.21268
  52   39884.2    250.7   0.012728650   0.10506   0.20822   0.12095  -0.21698
  53   40184.2    248.9   0.056941118   0.46649  -0.60958  -0.30731   0.02144

FINAL SINGLE POINT ENERGY     -9571.994856960104

DIPOLE MOMENT
-------------
                                X             Y             Z
Electronic contribution:    -85.40436      73.86529     -88.46107
Nuclear contribution   :     85.50251     -77.04616      85.09781
                        -----------------------------------------
Total Dipole Moment    :      0.09815      -3.18087      -3.36326
                        -----------------------------------------
Magnitude (a.u.)       :      4.63024
Magnitude (Debye)      :     11.76913

Rotational constants in cm-1:     0.000886     0.000200     0.000178
Rotational constants in MHz :    26.555808     6.005766     5.348539

                             ****ORCA TERMINATED NORMALLY****
TOTAL RUN TIME: 0 days 0 hours 12 minutes 36 seconds 444 msec
