                         Program Version 4.2.0 -  RELEASE  -
|  1> # ORCA input file
|  2> # SCF done       -198.192334847106          0.000237848651
|  3> ! CAM-B3LYP def2-SVP def2/J RIJCOSX Grid4 TightSCF
|  4> %maxcore 5000
|  5> %tddft
|  6>     Mode sTDDFT
|  7>     Ethresh 5.0
|  8>     maxcore 5000
|  9> end
| 10>
| 11> %pal
| 12>   nprocs 6
| 13>   end
| 14> * xyz 0 1
| 15>    C        0.71112         4.90136        -0.34362
| 16>    C        1.63070         5.22565         0.61929
| 17>    C        2.01483         4.36734         1.66996
| 18>    N        2.36306         3.71025         2.54415
| 19>    C        2.30519         6.46223         0.68232
| 20>    N        2.87206         7.45652         0.76979
| 21>    C       -0.01300         3.63624        -0.44251
| 22>    C       -0.88097         3.68831        -1.56418
| 23>    C       -1.69608         2.64097        -1.92100
| 24>    C       -1.65362         1.48463        -1.13576
| 25>    C       -0.78494         1.44057        -0.01885
| 26>    C        0.03881         2.50087         0.34245
| 27>    S       -0.88818        -0.08089         0.81083
| 28>    C       -2.07998        -0.63151        -0.33669
| 29>    C       -2.38654         0.27727        -1.29358
| 30>   Br       -2.80774        -2.35113        -0.16484
| 31>    C       -0.73251         4.99308        -2.21681
| 32>    O       -1.33411         5.40515        -3.20503
| 33>    C        0.27282         5.72755        -1.44626
| 34>    C        0.67623         6.99155        -1.80192
| 35>    N        0.17002         7.59278        -2.88355
| 36>    C        0.52057         8.81409        -3.37156
| 37>    S        1.75970         9.76528        -2.60967
| 38>    C        1.60566        10.93951        -3.87299
| 39>    N        2.42588        12.07753        -3.81125
| 40>    O        2.32161        12.89538        -4.70351
| 41>    O        3.18281        12.15217        -2.86107
| 42>    C        0.67090        10.61106        -4.81683
| 43>    C        0.01614         9.39530        -4.53831
| 44>    C       -1.00484         8.84840        -5.40341
| 45>    C       -2.04363         8.08008        -5.03164
| 46>    C       -2.97104         7.52231        -5.97375
| 47>    C       -4.01173         6.73720        -5.65351
| 48>    C       -4.37879         6.39059        -4.24303
| 49>    C       -4.90435         6.19591        -6.74618
| 50>    N       -5.98109         7.11123        -7.05535
| 51>    C       -5.87429         8.05741        -8.01240
| 52>    C       -6.73872         9.08018        -8.20451
| 53>    C       -6.62143         9.99957        -9.28032
| 54>    S       -5.27046         9.95882       -10.36668
| 55>    C       -5.89942        11.30458       -11.30350
| 56>    C       -7.10188        11.75614       -10.75185
| 57>    C       -7.49944        11.01970        -9.62911
| 58>    C       -8.76866        11.30468        -8.88554
| 59>    C       -9.74449        12.07487        -9.77941
| 60>    C      -10.30489        11.18350       -10.87587
| 61>    O      -10.39743        11.47411       -12.03814
| 62>    O      -10.73149        10.01326       -10.37970
| 63>    C      -11.29760         9.10881       -11.31783
| 64>    C       -9.04413        13.30107       -10.36162
| 65>    C       -7.89224        12.90111       -11.28365
| 66>    C       -5.12651        11.71906       -12.39747
| 67>    C       -5.41748        12.66265       -13.34805
| 68>    C       -4.49461        12.96212       -14.35682
| 69>    C       -4.58964        13.87938       -15.37621
| 70>    C       -5.51015        14.94898       -15.65188
| 71>    C       -6.26121        15.66828       -14.74981
| 72>    C       -7.11792        16.72856       -15.10586
| 73>    N       -7.84600        17.58804       -15.33161
| 74>    C       -6.20052        15.52570       -13.35383
| 75>    N       -6.17654        15.49540       -12.20410
| 76>    C       -5.35807        15.30315       -17.06449
| 77>    C       -4.23441        14.61623       -17.58590
| 78>    C       -3.67528        13.74285       -16.53231
| 79>    O       -2.69590        13.03146       -16.60882
| 80>    C       -3.80861        14.76987       -18.88157
| 81>    C       -4.53483        15.63401       -19.70903
| 82>    C       -5.66456        16.30225       -19.18446
| 83>    C       -6.08986        16.15410       -17.86898
| 84>    S       -6.42425        17.30891       -20.38099
| 85>    C       -5.22567        16.82665       -21.55197
| 86>    C       -4.30495        15.95677       -21.07520
| 87>   Br       -5.30486        17.51637       -23.29529
| 88>    H       -2.34380         2.70842        -2.78111
| 89>    H        0.68342         2.41724         1.20123
| 90>    H       -3.09901         0.10304        -2.07899
| 91>    H        1.40981         7.54347        -1.22851
| 92>    H       -0.50724         7.02593        -3.41929
| 93>    H        0.45798        11.23603        -5.66533
| 94>    H       -0.91106         9.13407        -6.44321
| 95>    H       -2.22402         7.86180        -3.99029
| 96>    H       -2.77383         7.73738        -7.01595
| 97>    H       -4.58078         7.28735        -3.65804
| 98>    H       -3.55575         5.85960        -3.76685
| 99>    H       -5.26034         5.75525        -4.21272
|100>    H       -5.34078         5.24051        -6.43942
|101>    H       -4.33056         6.03774        -7.66186
|102>    H       -6.65767         7.27193        -6.32303
|103>    H       -5.05074         7.92149        -8.70058
|104>    H       -7.57063         9.21582        -7.52884
|105>    H       -8.54554        11.90790        -7.99960
|106>    H       -9.22918        10.37373        -8.55217
|107>    H      -10.60362        12.38810        -9.17476
|108>    H      -10.54548         8.80081       -12.04696
|109>    H      -12.12683         9.58164       -11.84750
|110>    H      -11.64627         8.25370       -10.74472
|111>    H       -8.66444        13.90630        -9.53681
|112>    H       -9.75396        13.90426       -10.92770
|113>    H       -7.23704        13.76627       -11.43201
|114>    H       -8.30075        12.62005       -12.25856
|115>    H       -4.16697        11.22030       -12.48440
|116>    H       -6.37195        13.15694       -13.35045
|117>    H       -3.60378        12.34260       -14.40692
|118>    H       -2.94338        14.23998       -19.24797
|119>    H       -6.96071        16.68230       -17.51814
|120>    H       -3.49667        15.55700       -21.65997
|121> *
|122>
|123>                          ****END OF INPUT****

CARTESIAN COORDINATES (ANGSTROEM)
---------------------------------
  C      0.711120    4.901360   -0.343620
  C      1.630700    5.225650    0.619290
  C      2.014830    4.367340    1.669960
  N      2.363060    3.710250    2.544150
  C      2.305190    6.462230    0.682320
  N      2.872060    7.456520    0.769790
  C     -0.013000    3.636240   -0.442510
  C     -0.880970    3.688310   -1.564180
  C     -1.696080    2.640970   -1.921000
  C     -1.653620    1.484630   -1.135760
  C     -0.784940    1.440570   -0.018850
  C      0.038810    2.500870    0.342450
  S     -0.888180   -0.080890    0.810830
  C     -2.079980   -0.631510   -0.336690
  C     -2.386540    0.277270   -1.293580
  Br    -2.807740   -2.351130   -0.164840
  C     -0.732510    4.993080   -2.216810
  O     -1.334110    5.405150   -3.205030
  C      0.272820    5.727550   -1.446260
  C      0.676230    6.991550   -1.801920
  N      0.170020    7.592780   -2.883550
  C      0.520570    8.814090   -3.371560
  S      1.759700    9.765280   -2.609670
  C      1.605660   10.939510   -3.872990
  N      2.425880   12.077530   -3.811250
  O      2.321610   12.895380   -4.703510
  O      3.182810   12.152170   -2.861070
  C      0.670900   10.611060   -4.816830
  C      0.016140    9.395300   -4.538310
  C     -1.004840    8.848400   -5.403410
  C     -2.043630    8.080080   -5.031640
  C     -2.971040    7.522310   -5.973750
  C     -4.011730    6.737200   -5.653510
  C     -4.378790    6.390590   -4.243030
  C     -4.904350    6.195910   -6.746180
  N     -5.981090    7.111230   -7.055350
  C     -5.874290    8.057410   -8.012400
  C     -6.738720    9.080180   -8.204510
  C     -6.621430    9.999570   -9.280320
  S     -5.270460    9.958820  -10.366680
  C     -5.899420   11.304580  -11.303500
  C     -7.101880   11.756140  -10.751850
  C     -7.499440   11.019700   -9.629110
  C     -8.768660   11.304680   -8.885540
  C     -9.744490   12.074870   -9.779410
  C    -10.304890   11.183500  -10.875870
  O    -10.397430   11.474110  -12.038140
  O    -10.731490   10.013260  -10.379700
  C    -11.297600    9.108810  -11.317830
  C     -9.044130   13.301070  -10.361620
  C     -7.892240   12.901110  -11.283650
  C     -5.126510   11.719060  -12.397470
  C     -5.417480   12.662650  -13.348050
  C     -4.494610   12.962120  -14.356820
  C     -4.589640   13.879380  -15.376210
  C     -5.510150   14.948980  -15.651880
  C     -6.261210   15.668280  -14.749810
  C     -7.117920   16.728560  -15.105860
  N     -7.846000   17.588040  -15.331610
  C     -6.200520   15.525700  -13.353830
  N     -6.176540   15.495400  -12.204100
  C     -5.358070   15.303150  -17.064490
  C     -4.234410   14.616230  -17.585900
  C     -3.675280   13.742850  -16.532310
  O     -2.695900   13.031460  -16.608820
  C     -3.808610   14.769870  -18.881570
  C     -4.534830   15.634010  -19.709030
  C     -5.664560   16.302250  -19.184460
  C     -6.089860   16.154100  -17.868980
  S     -6.424250   17.308910  -20.380990
  C     -5.225670   16.826650  -21.551970
  C     -4.304950   15.956770  -21.075200
  Br    -5.304860   17.516370  -23.295290
  H     -2.343800    2.708420   -2.781110
  H      0.683420    2.417240    1.201230
  H     -3.099010    0.103040   -2.078990
  H      1.409810    7.543470   -1.228510
  H     -0.507240    7.025930   -3.419290
  H      0.457980   11.236030   -5.665330
  H     -0.911060    9.134070   -6.443210
  H     -2.224020    7.861800   -3.990290
  H     -2.773830    7.737380   -7.015950
  H     -4.580780    7.287350   -3.658040
  H     -3.555750    5.859600   -3.766850
  H     -5.260340    5.755250   -4.212720
  H     -5.340780    5.240510   -6.439420
  H     -4.330560    6.037740   -7.661860
  H     -6.657670    7.271930   -6.323030
  H     -5.050740    7.921490   -8.700580
  H     -7.570630    9.215820   -7.528840
  H     -8.545540   11.907900   -7.999600
  H     -9.229180   10.373730   -8.552170
  H    -10.603620   12.388100   -9.174760
  H    -10.545480    8.800810  -12.046960
  H    -12.126830    9.581640  -11.847500
  H    -11.646270    8.253700  -10.744720
  H     -8.664440   13.906300   -9.536810
  H     -9.753960   13.904260  -10.927700
  H     -7.237040   13.766270  -11.432010
  H     -8.300750   12.620050  -12.258560
  H     -4.166970   11.220300  -12.484400
  H     -6.371950   13.156940  -13.350450
  H     -3.603780   12.342600  -14.406920
  H     -2.943380   14.239980  -19.247970
  H     -6.960710   16.682300  -17.518140
  H     -3.496670   15.557000  -21.659970

 Total Charge           Charge          ....    0
 Multiplicity           Mult            ....    1
 Number of Electrons    NEL             ....  588
 Basis Dimension        Dim             .... 1239

ORBITAL ENERGIES
----------------

  NO   OCC          E(Eh)            E(eV)
   0   2.0000    -482.896702    -13140.2873
   1   2.0000    -482.875225    -13139.7029
   2   2.0000     -88.997314     -2421.7400
   3   2.0000     -88.988667     -2421.5047
   4   2.0000     -88.962775     -2420.8002
   5   2.0000     -88.949293     -2420.4333
   6   2.0000     -62.574415     -1702.7364
   7   2.0000     -62.552969     -1702.1528
   8   2.0000     -56.408380     -1534.9501
   9   2.0000     -56.405638     -1534.8754
  10   2.0000     -56.405610     -1534.8747
  11   2.0000     -56.386905     -1534.3657
  12   2.0000     -56.384214     -1534.2925
  13   2.0000     -56.384174     -1534.2914
  14   2.0000     -19.258956      -524.0628
  15   2.0000     -19.245827      -523.7056
  16   2.0000     -19.244370      -523.6659
  17   2.0000     -19.243823      -523.6510
  18   2.0000     -19.203140      -522.5440
  19   2.0000     -19.194376      -522.3055
  20   2.0000     -14.656074      -398.8121
  21   2.0000     -14.507116      -394.7587
  22   2.0000     -14.453532      -393.3006
  23   2.0000     -14.429212      -392.6388
  24   2.0000     -14.424845      -392.5200
  25   2.0000     -14.400643      -391.8614
  26   2.0000     -14.398333      -391.7986
  27   2.0000     -10.393293      -282.8159
  28   2.0000     -10.392262      -282.7878
  29   2.0000     -10.380779      -282.4754
  30   2.0000     -10.379377      -282.4372
  31   2.0000     -10.371460      -282.2218
  32   2.0000     -10.357177      -281.8331
  33   2.0000     -10.353794      -281.7411
  34   2.0000     -10.353281      -281.7271
  35   2.0000     -10.346265      -281.5362
  36   2.0000     -10.344923      -281.4997
  37   2.0000     -10.339494      -281.3519
  38   2.0000     -10.332410      -281.1592
  39   2.0000     -10.331348      -281.1303
  40   2.0000     -10.329103      -281.0692
  41   2.0000     -10.327817      -281.0342
  42   2.0000     -10.323804      -280.9250
  43   2.0000     -10.323259      -280.9102
  44   2.0000     -10.322558      -280.8911
  45   2.0000     -10.322070      -280.8778
  46   2.0000     -10.321691      -280.8675
  47   2.0000     -10.319743      -280.8145
  48   2.0000     -10.318534      -280.7816
  49   2.0000     -10.317559      -280.7551
  50   2.0000     -10.314762      -280.6790
  51   2.0000     -10.311301      -280.5848
  52   2.0000     -10.310952      -280.5753
  53   2.0000     -10.310415      -280.5606
  54   2.0000     -10.309831      -280.5448
  55   2.0000     -10.309722      -280.5418
  56   2.0000     -10.305327      -280.4222
  57   2.0000     -10.302415      -280.3430
  58   2.0000     -10.301174      -280.3092
  59   2.0000     -10.299113      -280.2531
  60   2.0000     -10.297012      -280.1959
  61   2.0000     -10.296710      -280.1877
  62   2.0000     -10.294665      -280.1321
  63   2.0000     -10.292787      -280.0810
  64   2.0000     -10.292467      -280.0723
  65   2.0000     -10.292181      -280.0645
  66   2.0000     -10.289892      -280.0022
  67   2.0000     -10.285971      -279.8955
  68   2.0000     -10.284810      -279.8639
  69   2.0000     -10.284347      -279.8513
  70   2.0000     -10.283899      -279.8391
  71   2.0000     -10.282215      -279.7933
  72   2.0000     -10.280427      -279.7446
  73   2.0000     -10.275700      -279.6160
  74   2.0000     -10.274929      -279.5950
  75   2.0000     -10.271521      -279.5023
  76   2.0000     -10.271312      -279.4966
  77   2.0000     -10.269933      -279.4591
  78   2.0000     -10.268194      -279.4118
  79   2.0000     -10.259396      -279.1724
  80   2.0000     -10.253385      -279.0088
  81   2.0000      -8.803843      -239.5647
  82   2.0000      -8.782408      -238.9815
  83   2.0000      -8.092420      -220.2059
  84   2.0000      -8.084687      -219.9955
  85   2.0000      -8.058809      -219.2913
  86   2.0000      -8.045329      -218.9245
  87   2.0000      -6.640213      -180.6894
  88   2.0000      -6.625558      -180.2906
  89   2.0000      -6.625323      -180.2842
  90   2.0000      -6.618668      -180.1031
  91   2.0000      -6.604148      -179.7080
  92   2.0000      -6.603993      -179.7038
  93   2.0000      -6.062061      -164.9571
  94   2.0000      -6.057632      -164.8366
  95   2.0000      -6.054349      -164.7472
  96   2.0000      -6.053991      -164.7375
  97   2.0000      -6.050068      -164.6307
  98   2.0000      -6.045938      -164.5183
  99   2.0000      -6.028493      -164.0436
 100   2.0000      -6.024245      -163.9280
 101   2.0000      -6.020019      -163.8131
 102   2.0000      -6.014536      -163.6638
 103   2.0000      -6.010815      -163.5626
 104   2.0000      -6.007157      -163.4631
 105   2.0000      -2.756053       -74.9960
 106   2.0000      -2.751955       -74.8845
 107   2.0000      -2.751811       -74.8806
 108   2.0000      -2.740156       -74.5634
 109   2.0000      -2.740135       -74.5629
 110   2.0000      -2.734504       -74.4096
 111   2.0000      -2.730472       -74.2999
 112   2.0000      -2.730377       -74.2973
 113   2.0000      -2.718826       -73.9830
 114   2.0000      -2.718799       -73.9823
 115   2.0000      -1.326420       -36.0937
 116   2.0000      -1.190667       -32.3997
 117   2.0000      -1.159617       -31.5548
 118   2.0000      -1.145782       -31.1783
 119   2.0000      -1.113600       -30.3026
 120   2.0000      -1.108667       -30.1684
 121   2.0000      -1.096137       -29.8274
 122   2.0000      -1.054197       -28.6862
 123   2.0000      -1.037012       -28.2185
 124   2.0000      -1.026047       -27.9202
 125   2.0000      -1.017927       -27.6992
 126   2.0000      -1.007702       -27.4210
 127   2.0000      -1.006549       -27.3896
 128   2.0000      -1.002970       -27.2922
 129   2.0000      -0.998426       -27.1686
 130   2.0000      -0.988766       -26.9057
 131   2.0000      -0.978770       -26.6337
 132   2.0000      -0.972703       -26.4686
 133   2.0000      -0.955590       -26.0029
 134   2.0000      -0.941279       -25.6135
 135   2.0000      -0.929175       -25.2841
 136   2.0000      -0.924178       -25.1482
 137   2.0000      -0.922452       -25.1012
 138   2.0000      -0.921634       -25.0789
 139   2.0000      -0.911499       -24.8031
 140   2.0000      -0.905281       -24.6340
 141   2.0000      -0.900228       -24.4965
 142   2.0000      -0.893735       -24.3198
 143   2.0000      -0.890508       -24.2320
 144   2.0000      -0.883856       -24.0509
 145   2.0000      -0.871314       -23.7097
 146   2.0000      -0.867457       -23.6047
 147   2.0000      -0.862153       -23.4604
 148   2.0000      -0.858073       -23.3494
 149   2.0000      -0.844574       -22.9820
 150   2.0000      -0.843643       -22.9567
 151   2.0000      -0.840707       -22.8768
 152   2.0000      -0.819953       -22.3121
 153   2.0000      -0.814576       -22.1657
 154   2.0000      -0.808898       -22.0112
 155   2.0000      -0.806428       -21.9440
 156   2.0000      -0.798197       -21.7200
 157   2.0000      -0.792990       -21.5783
 158   2.0000      -0.776752       -21.1365
 159   2.0000      -0.773312       -21.0429
 160   2.0000      -0.759438       -20.6654
 161   2.0000      -0.749362       -20.3912
 162   2.0000      -0.740427       -20.1480
 163   2.0000      -0.739626       -20.1262
 164   2.0000      -0.724325       -19.7099
 165   2.0000      -0.723453       -19.6862
 166   2.0000      -0.717799       -19.5323
 167   2.0000      -0.708163       -19.2701
 168   2.0000      -0.701584       -19.0911
 169   2.0000      -0.700438       -19.0599
 170   2.0000      -0.687467       -18.7069
 171   2.0000      -0.685818       -18.6620
 172   2.0000      -0.675743       -18.3879
 173   2.0000      -0.670755       -18.2522
 174   2.0000      -0.668073       -18.1792
 175   2.0000      -0.655159       -17.8278
 176   2.0000      -0.650637       -17.7047
 177   2.0000      -0.648335       -17.6421
 178   2.0000      -0.644073       -17.5261
 179   2.0000      -0.637822       -17.3560
 180   2.0000      -0.636989       -17.3333
 181   2.0000      -0.636503       -17.3201
 182   2.0000      -0.633006       -17.2250
 183   2.0000      -0.631871       -17.1941
 184   2.0000      -0.629171       -17.1206
 185   2.0000      -0.616679       -16.7807
 186   2.0000      -0.615663       -16.7531
 187   2.0000      -0.607566       -16.5327
 188   2.0000      -0.605092       -16.4654
 189   2.0000      -0.599824       -16.3220
 190   2.0000      -0.594368       -16.1736
 191   2.0000      -0.591736       -16.1020
 192   2.0000      -0.584553       -15.9065
 193   2.0000      -0.581781       -15.8311
 194   2.0000      -0.578505       -15.7419
 195   2.0000      -0.575076       -15.6486
 196   2.0000      -0.574163       -15.6238
 197   2.0000      -0.571313       -15.5462
 198   2.0000      -0.564574       -15.3628
 199   2.0000      -0.562263       -15.2999
 200   2.0000      -0.560438       -15.2503
 201   2.0000      -0.558158       -15.1883
 202   2.0000      -0.557307       -15.1651
 203   2.0000      -0.550760       -14.9869
 204   2.0000      -0.549175       -14.9438
 205   2.0000      -0.546971       -14.8838
 206   2.0000      -0.544349       -14.8125
 207   2.0000      -0.538365       -14.6497
 208   2.0000      -0.534827       -14.5534
 209   2.0000      -0.534304       -14.5392
 210   2.0000      -0.532174       -14.4812
 211   2.0000      -0.531498       -14.4628
 212   2.0000      -0.523743       -14.2518
 213   2.0000      -0.521879       -14.2011
 214   2.0000      -0.520950       -14.1758
 215   2.0000      -0.516459       -14.0536
 216   2.0000      -0.514201       -13.9921
 217   2.0000      -0.511949       -13.9308
 218   2.0000      -0.511609       -13.9216
 219   2.0000      -0.509220       -13.8566
 220   2.0000      -0.506677       -13.7874
 221   2.0000      -0.505365       -13.7517
 222   2.0000      -0.503886       -13.7114
 223   2.0000      -0.499534       -13.5930
 224   2.0000      -0.495253       -13.4765
 225   2.0000      -0.494309       -13.4508
 226   2.0000      -0.491583       -13.3766
 227   2.0000      -0.489718       -13.3259
 228   2.0000      -0.489402       -13.3173
 229   2.0000      -0.482820       -13.1382
 230   2.0000      -0.479198       -13.0396
 231   2.0000      -0.477652       -12.9976
 232   2.0000      -0.475251       -12.9322
 233   2.0000      -0.474980       -12.9249
 234   2.0000      -0.473489       -12.8843
 235   2.0000      -0.472755       -12.8643
 236   2.0000      -0.469977       -12.7887
 237   2.0000      -0.466543       -12.6953
 238   2.0000      -0.462198       -12.5770
 239   2.0000      -0.460789       -12.5387
 240   2.0000      -0.460397       -12.5280
 241   2.0000      -0.456274       -12.4158
 242   2.0000      -0.454615       -12.3707
 243   2.0000      -0.453907       -12.3514
 244   2.0000      -0.452406       -12.3106
 245   2.0000      -0.449158       -12.2222
 246   2.0000      -0.446800       -12.1580
 247   2.0000      -0.445259       -12.1161
 248   2.0000      -0.442000       -12.0274
 249   2.0000      -0.438919       -11.9436
 250   2.0000      -0.438844       -11.9415
 251   2.0000      -0.437391       -11.9020
 252   2.0000      -0.432956       -11.7813
 253   2.0000      -0.432423       -11.7668
 254   2.0000      -0.428941       -11.6721
 255   2.0000      -0.427772       -11.6403
 256   2.0000      -0.425361       -11.5747
 257   2.0000      -0.424772       -11.5586
 258   2.0000      -0.423681       -11.5289
 259   2.0000      -0.421593       -11.4721
 260   2.0000      -0.416067       -11.3218
 261   2.0000      -0.414335       -11.2746
 262   2.0000      -0.409063       -11.1312
 263   2.0000      -0.406155       -11.0520
 264   2.0000      -0.403746       -10.9865
 265   2.0000      -0.402158       -10.9433
 266   2.0000      -0.394787       -10.7427
 267   2.0000      -0.393484       -10.7072
 268   2.0000      -0.391038       -10.6407
 269   2.0000      -0.386725       -10.5233
 270   2.0000      -0.386268       -10.5109
 271   2.0000      -0.386115       -10.5067
 272   2.0000      -0.384239       -10.4557
 273   2.0000      -0.383887       -10.4461
 274   2.0000      -0.376184       -10.2365
 275   2.0000      -0.373703       -10.1690
 276   2.0000      -0.373364       -10.1597
 277   2.0000      -0.368870       -10.0375
 278   2.0000      -0.364962        -9.9311
 279   2.0000      -0.364247        -9.9117
 280   2.0000      -0.358086        -9.7440
 281   2.0000      -0.349971        -9.5232
 282   2.0000      -0.345903        -9.4125
 283   2.0000      -0.333442        -9.0734
 284   2.0000      -0.331625        -9.0240
 285   2.0000      -0.318369        -8.6633
 286   2.0000      -0.313829        -8.5397
 287   2.0000      -0.308142        -8.3850
 288   2.0000      -0.306413        -8.3379
 289   2.0000      -0.301060        -8.1923
 290   2.0000      -0.290066        -7.8931
 291   2.0000      -0.279978        -7.6186
 292   2.0000      -0.276504        -7.5240
 293   2.0000      -0.231271        -6.2932
 294   0.0000      -0.098172        -2.6714
 295   0.0000      -0.081579        -2.2199
 296   0.0000      -0.078559        -2.1377
 297   0.0000      -0.049083        -1.3356
 298   0.0000      -0.046035        -1.2527

MULLIKEN ATOMIC CHARGES
-----------------------
   0 C :    0.329330
   1 C :   -0.341224
   2 C :   -0.185021
   3 N :    0.153213
   4 C :   -0.194949
   5 N :    0.148761
   6 C :    0.009809
   7 C :   -0.003234
   8 C :   -0.074483
   9 C :    0.120257
  10 C :   -0.092298
  11 C :   -0.019910
  12 S :    0.196071
  13 C :   -0.123107
  14 C :    0.035345
  15 Br:    0.030750
  16 C :    0.174012
  17 O :   -0.222934
  18 C :   -0.121817
  19 C :    0.020861
  20 N :   -0.003410
  21 C :   -0.123344
  22 S :    0.175528
  23 C :    0.009053
  24 N :    0.272782
  25 O :   -0.241452
  26 O :   -0.253803
  27 C :    0.012984
  28 C :    0.122668
  29 C :   -0.040266
  30 C :    0.016126
  31 C :    0.007616
  32 C :   -0.201888
  33 C :    0.078979
  34 C :    0.200113
  35 N :   -0.137069
  36 C :    0.060504
  37 C :   -0.044542
  38 C :   -0.068179
  39 S :    0.071692
  40 C :   -0.129814
  41 C :   -0.027621
  42 C :   -0.135081
  43 C :    0.172850
  44 C :   -0.111229
  45 C :    0.171386
  46 O :   -0.203424
  47 O :   -0.303809
  48 C :    0.186427
  49 C :    0.109299
  50 C :    0.062510
  51 C :    0.054932
  52 C :   -0.015064
  53 C :    0.018019
  54 C :   -0.122062
  55 C :    0.301992
  56 C :   -0.357418
  57 C :   -0.181122
  58 N :    0.135392
  59 C :   -0.162088
  60 N :    0.128752
  61 C :   -0.000050
  62 C :   -0.001081
  63 C :    0.136498
  64 O :   -0.159273
  65 C :   -0.077107
  66 C :    0.114716
  67 C :   -0.089276
  68 C :   -0.024035
  69 S :    0.177681
  70 C :   -0.124391
  71 C :    0.037302
  72 Br:    0.012949
  73 H :   -0.014096
  74 H :   -0.003797
  75 H :   -0.003265
  76 H :    0.050803
  77 H :    0.174354
  78 H :    0.014910
  79 H :    0.001740
  80 H :   -0.005262
  81 H :   -0.027951
  82 H :    0.034373
  83 H :    0.050018
  84 H :   -0.001863
  85 H :    0.011237
  86 H :    0.019518
  87 H :    0.118925
  88 H :    0.010159
  89 H :   -0.025740
  90 H :    0.015109
  91 H :    0.021703
  92 H :    0.024122
  93 H :    0.033662
  94 H :    0.034478
  95 H :    0.029484
  96 H :    0.005969
  97 H :    0.012948
  98 H :    0.042799
  99 H :    0.052070
 100 H :   -0.009548
 101 H :    0.005372
 102 H :    0.006769
 103 H :   -0.015070
 104 H :   -0.007301
 105 H :   -0.006919
Sum of atomic charges:   -0.0000000

LOEWDIN ATOMIC CHARGES
----------------------
   0 C :    0.078156
   1 C :   -0.145543
   2 C :   -0.019997
   3 N :   -0.050240
   4 C :   -0.021365
   5 N :   -0.048789
   6 C :   -0.017658
   7 C :   -0.053152
   8 C :    0.022111
   9 C :   -0.033798
  10 C :   -0.143126
  11 C :   -0.006074
  12 S :    0.441133
  13 C :   -0.270331
  14 C :   -0.071151
  15 Br:    0.142168
  16 C :    0.098128
  17 O :   -0.178827
  18 C :   -0.146528
  19 C :    0.112416
  20 N :    0.081681
  21 C :   -0.113900
  22 S :    0.476553
  23 C :   -0.200955
  24 N :    0.272468
  25 O :   -0.207922
  26 O :   -0.220525
  27 C :    0.001962
  28 C :   -0.084552
  29 C :   -0.028470
  30 C :   -0.017930
  31 C :   -0.044216
  32 C :   -0.032748
  33 C :   -0.062502
  34 C :    0.045508
  35 N :    0.005926
  36 C :    0.052895
  37 C :   -0.142209
  38 C :   -0.126165
  39 S :    0.403775
  40 C :   -0.195389
  41 C :   -0.003877
  42 C :   -0.087369
  43 C :   -0.017116
  44 C :   -0.055181
  45 C :    0.092498
  46 O :   -0.167484
  47 O :   -0.093709
  48 C :    0.080788
  49 C :   -0.012378
  50 C :   -0.038769
  51 C :    0.023645
  52 C :   -0.057473
  53 C :    0.069013
  54 C :   -0.120594
  55 C :    0.073983
  56 C :   -0.157963
  57 C :   -0.019349
  58 N :   -0.067106
  59 C :   -0.005907
  60 N :   -0.066102
  61 C :   -0.016158
  62 C :   -0.050598
  63 C :    0.080228
  64 O :   -0.159258
  65 C :    0.018152
  66 C :   -0.037099
  67 C :   -0.145301
  68 C :   -0.015717
  69 S :    0.426029
  70 C :   -0.275462
  71 C :   -0.070721
  72 Br:    0.128459
  73 H :    0.039613
  74 H :    0.042659
  75 H :    0.038661
  76 H :    0.036385
  77 H :    0.088341
  78 H :    0.048670
  79 H :    0.034639
  80 H :    0.023699
  81 H :    0.024146
  82 H :    0.037243
  83 H :    0.040573
  84 H :    0.023318
  85 H :    0.025888
  86 H :    0.033483
  87 H :    0.079614
  88 H :    0.021130
  89 H :    0.025775
  90 H :    0.032684
  91 H :    0.027638
  92 H :    0.043561
  93 H :    0.024083
  94 H :    0.023345
  95 H :    0.023765
  96 H :    0.027605
  97 H :    0.032818
  98 H :    0.039679
  99 H :    0.039566
 100 H :    0.031924
 101 H :    0.030293
 102 H :    0.040080
 103 H :    0.039106
 104 H :    0.039723
 105 H :    0.037373

  Mayer bond orders larger than 0.100000
B(  0-C ,  1-C ) :   1.6313 B(  0-C ,  6-C ) :   1.0017 B(  0-C , 18-C ) :   1.1011
B(  1-C ,  2-C ) :   1.1425 B(  1-C ,  4-C ) :   1.1460 B(  2-C ,  3-N ) :   2.9678
B(  4-C ,  5-N ) :   2.9534 B(  6-C ,  7-C ) :   1.2719 B(  6-C , 11-C ) :   1.4235
B(  7-C ,  8-C ) :   1.4171 B(  7-C , 16-C ) :   0.9771 B(  8-C ,  9-C ) :   1.2447
B(  8-C , 73-H ) :   1.0191 B(  9-C , 10-C ) :   1.3065 B(  9-C , 14-C ) :   1.1634
B( 10-C , 11-C ) :   1.3195 B( 10-C , 12-S ) :   1.0926 B( 11-C , 74-H ) :   0.9809
B( 12-S , 13-C ) :   1.0890 B( 13-C , 14-C ) :   1.6158 B( 13-C , 15-Br) :   1.0225
B( 14-C , 75-H ) :   1.0009 B( 16-C , 17-O ) :   1.9899 B( 16-C , 18-C ) :   1.0123
B( 17-O , 77-H ) :   0.1245 B( 18-C , 19-C ) :   1.4479 B( 19-C , 20-N ) :   1.3460
B( 19-C , 76-H ) :   0.9277 B( 20-N , 21-C ) :   1.1729 B( 20-N , 77-H ) :   0.8316
B( 21-C , 22-S ) :   1.1386 B( 21-C , 28-C ) :   1.4109 B( 22-S , 23-C ) :   1.0896
B( 23-C , 24-N ) :   0.9593 B( 23-C , 27-C ) :   1.4967 B( 24-N , 25-O ) :   1.5431
B( 24-N , 26-O ) :   1.5182 B( 25-O , 26-O ) :   0.2647 B( 27-C , 28-C ) :   1.2156
B( 27-C , 78-H ) :   1.0086 B( 28-C , 29-C ) :   1.0291 B( 29-C , 30-C ) :   1.7356
B( 29-C , 79-H ) :   0.9722 B( 30-C , 31-C ) :   1.1170 B( 30-C , 80-H ) :   0.9559
B( 31-C , 32-C ) :   1.7817 B( 31-C , 81-H ) :   0.9794 B( 32-C , 33-C ) :   1.0716
B( 32-C , 34-C ) :   1.0393 B( 33-C , 82-H ) :   0.9459 B( 33-C , 83-H ) :   0.9310
B( 33-C , 84-H ) :   0.9491 B( 34-C , 35-N ) :   1.0227 B( 34-C , 85-H ) :   0.9349
B( 34-C , 86-H ) :   0.9390 B( 35-N , 36-C ) :   1.2455 B( 35-N , 87-H ) :   0.9385
B( 36-C , 37-C ) :   1.5825 B( 36-C , 88-H ) :   0.9629 B( 37-C , 38-C ) :   1.1964
B( 37-C , 89-H ) :   0.9599 B( 38-C , 39-S ) :   1.1343 B( 38-C , 42-C ) :   1.4433
B( 39-S , 40-C ) :   1.0590 B( 40-C , 41-C ) :   1.4140 B( 40-C , 51-C ) :   1.2168
B( 41-C , 42-C ) :   1.3635 B( 41-C , 50-C ) :   1.0729 B( 42-C , 43-C ) :   1.0367
B( 43-C , 44-C ) :   1.0667 B( 43-C , 90-H ) :   0.9058 B( 43-C , 91-H ) :   0.9052
B( 44-C , 45-C ) :   0.9254 B( 44-C , 49-C ) :   1.0546 B( 44-C , 92-H ) :   0.8895
B( 45-C , 46-O ) :   2.0994 B( 45-C , 47-O ) :   1.1938 B( 47-O , 48-C ) :   0.9257
B( 48-C , 93-H ) :   0.9773 B( 48-C , 94-H ) :   0.9760 B( 48-C , 95-H ) :   0.9811
B( 49-C , 50-C ) :   1.0806 B( 49-C , 96-H ) :   0.9376 B( 49-C , 97-H ) :   0.9232
B( 50-C , 98-H ) :   0.8792 B( 50-C , 99-H ) :   0.8816 B( 51-C , 52-C ) :   1.5404
B( 51-C ,100-H ) :   0.9550 B( 52-C , 53-C ) :   1.2281 B( 52-C ,101-H ) :   0.9571
B( 53-C , 54-C ) :   1.4843 B( 53-C ,102-H ) :   0.9539 B( 54-C , 55-C ) :   1.0878
B( 54-C , 63-C ) :   0.9663 B( 55-C , 56-C ) :   1.5884 B( 55-C , 61-C ) :   1.0025
B( 56-C , 57-C ) :   1.1291 B( 56-C , 59-C ) :   1.1922 B( 57-C , 58-N ) :   2.9766
B( 59-C , 60-N ) :   2.8877 B( 61-C , 62-C ) :   1.2792 B( 61-C , 68-C ) :   1.4205
B( 62-C , 63-C ) :   0.9198 B( 62-C , 65-C ) :   1.4319 B( 63-C , 64-O ) :   2.2425
B( 65-C , 66-C ) :   1.2417 B( 65-C ,103-H ) :   1.0175 B( 66-C , 67-C ) :   1.3187
B( 66-C , 71-C ) :   1.1598 B( 67-C , 68-C ) :   1.3184 B( 67-C , 69-S ) :   1.0817
B( 68-C ,104-H ) :   0.9819 B( 69-S , 70-C ) :   1.0855 B( 70-C , 71-C ) :   1.6216
B( 70-C , 72-Br) :   1.0118 B( 71-C ,105-H ) :   1.0005

-----------------------------------------------------------------------------
         ABSORPTION SPECTRUM VIA TRANSITION ELECTRIC DIPOLE MOMENTS
-----------------------------------------------------------------------------
State   Energy  Wavelength   fosc         T2         TX        TY        TZ
        (cm-1)    (nm)                  (au**2)     (au)      (au)      (au)
-----------------------------------------------------------------------------
   0   17545.7    569.9   1.502453511  28.19070  -0.06691  -3.39420   4.08236
   1   19786.5    505.4   0.023497501   0.39096  -0.38576   0.36387  -0.33128
   2   22296.2    448.5   0.584363410   8.62834   0.22331  -2.31979   1.78803
   3   23227.3    430.5   0.001526463   0.02164  -0.07025  -0.12083  -0.04582
   4   24737.0    404.3   0.182639272   2.43065   0.36360   0.37417  -1.46916
   5   24938.8    401.0   0.051451024   0.67919   0.44031   0.67019  -0.19020
   6   28239.9    354.1   0.106083701   1.23669  -0.59039  -0.19625  -0.92174
   7   28622.6    349.4   0.286586487   3.29626  -0.78502  -0.14661   1.63049
   8   29130.5    343.3   0.110103244   1.24431   0.60365   0.70417   0.61972
   9   29945.8    333.9   0.556843469   6.12170   1.04599   2.22783  -0.25372
  10   30167.5    331.5   0.095889281   1.04642  -0.18384   0.49576  -0.87570
  11   30365.5    329.3   0.135900002   1.47338  -0.39711  -1.10596   0.30418
  12   30985.6    322.7   0.014415872   0.15316   0.35545   0.15310  -0.05815
  13   31202.7    320.5   0.006688782   0.07057   0.11699  -0.23311   0.05046
  14   31353.8    318.9   0.055444617   0.58216   0.07817   0.75898  -0.00085
  15   32164.1    310.9   0.118287862   1.21072   0.95214   0.29025  -0.46894
  16   32382.9    308.8   0.067458028   0.68579  -0.48164   0.19152  -0.64586
  17   32638.6    306.4   0.088108994   0.88872   0.82801   0.24269   0.37976
  18   32749.4    305.3   0.306641081   3.08250  -0.88011  -1.51279   0.13921
  19   32963.5    303.4   0.027712863   0.27677   0.31455   0.35776   0.22325
  20   33522.7    298.3   0.051466515   0.50543  -0.14451  -0.37103   0.58897
  21   33702.1    296.7   0.036196728   0.35358   0.28281   0.25491  -0.45675
  22   33804.6    295.8   0.260960596   2.54141   0.45324   0.25274  -1.50735
  23   34078.1    293.4   0.390465803   3.77210  -1.36773  -1.15332  -0.75583
  24   34551.7    289.4   0.004776599   0.04551   0.15960   0.08053  -0.11642
  25   34692.6    288.2   0.010088572   0.09573  -0.03139   0.11211   0.28667
  26   34851.0    286.9   0.311212901   2.93980   0.56762  -0.56559  -1.51582
  27   36476.8    274.1   0.032356067   0.29202   0.45948   0.26513   0.10300
  28   36743.5    272.2   0.085586223   0.76683  -0.66914  -0.52682  -0.20381
  29   36857.2    271.3   0.522330227   4.66551   1.58953   1.40021   0.42227
  30   36955.0    270.6   0.028346891   0.25253   0.34052   0.31799   0.18828
  31   37224.3    268.6   0.079230201   0.70071   0.17338   0.02778  -0.81846
  32   38204.7    261.7   0.127329149   1.09720  -0.25409   0.69723  -0.73926
  33   38346.0    260.8   0.053390307   0.45837   0.32530  -0.31901   0.50079
  34   38776.3    257.9   0.064220520   0.54523   0.47266  -0.54976   0.13997
  35   38977.3    256.6   0.012389984   0.10465   0.16669  -0.25601   0.10641
  36   39062.9    256.0   0.003093081   0.02607   0.12291  -0.07472   0.07333
  37   39805.7    251.2   0.039254250   0.32465  -0.24234   0.27246  -0.43782
  38   40297.4    248.2   0.122582333   1.00144  -0.65330   0.33388  -0.68056

FINAL SINGLE POINT ENERGY     -9648.614072028811

DIPOLE MOMENT
-------------
                                X             Y             Z
Electronic contribution:     43.32125     -38.20292     -58.53915
Nuclear contribution   :    -45.99992      32.12992      59.86159
                        -----------------------------------------
Total Dipole Moment    :     -2.67867      -6.07300       1.32245
                        -----------------------------------------
Magnitude (a.u.)       :      6.76797
Magnitude (Debye)      :     17.20282

Rotational constants in cm-1:     0.001064     0.000152     0.000143
Rotational constants in MHz :    31.896839     4.559298     4.273017

                             ****ORCA TERMINATED NORMALLY****
TOTAL RUN TIME: 0 days 0 hours 10 minutes 16 seconds 180 msec
