                         Program Version 4.2.0 -  RELEASE  -
|  1> # ORCA input file
|  2> # SCF done       -211.368068277716          0.000853513560
|  3> ! CAM-B3LYP def2-SVP def2/J RIJCOSX Grid4 TightSCF
|  4> %maxcore 5000
|  5> %tddft
|  6>     Mode sTDDFT
|  7>     Ethresh 5.0
|  8>     maxcore 5000
|  9> end
| 10>
| 11> %pal
| 12>   nprocs 6
| 13>   end
| 14> * xyz 0 1
| 15>    C      -15.32109        -3.50793         0.33207
| 16>    C      -15.59177        -2.18460         0.54519
| 17>    F      -16.73723        -1.81983         1.13383
| 18>    C      -14.67390        -1.19054         0.15023
| 19>    F      -14.96774         0.09635         0.37255
| 20>    C      -13.49667        -1.53326        -0.45476
| 21>    C      -13.19227        -2.88765        -0.69087
| 22>    C      -14.11804        -3.89440        -0.29016
| 23>    C      -13.83137        -5.26197        -0.51551
| 24>    C      -12.65876        -5.61118        -1.12881
| 25>    C      -11.74359        -4.59509        -1.53332
| 26>    C      -11.98745        -3.26752        -1.32248
| 27>    C      -10.59128        -5.23117        -2.17048
| 28>    O       -9.60296        -4.67506        -2.64911
| 29>    C      -10.82956        -6.67271        -2.13066
| 30>    C      -12.10169        -6.91562        -1.48764
| 31>    C      -12.69011        -8.13063        -1.25373
| 32>    C      -12.11758        -9.36658        -1.61754
| 33>    N      -11.68414       -10.39161        -1.89869
| 34>    C      -13.93975        -8.29586        -0.62195
| 35>    N      -14.95135        -8.48558        -0.11438
| 36>    C       -9.91952        -7.56928        -2.64232
| 37>    N       -8.79534        -7.13121        -3.22269
| 38>    C       -7.80160        -7.88136        -3.75938
| 39>    S       -7.93184        -9.61716        -3.77494
| 40>    C       -6.41613        -9.70593        -4.60853
| 41>    N       -5.91883       -10.97795        -4.93957
| 42>    O       -4.85504       -11.02968        -5.52448
| 43>    O       -6.59834       -11.93182        -4.61124
| 44>    C       -5.85723        -8.48606        -4.85671
| 45>    C       -6.62769        -7.40393        -4.36813
| 46>    C       -6.15875        -6.06348        -4.54826
| 47>    C       -6.61323        -4.89878        -4.01833
| 48>    C       -6.04477        -3.63624        -4.28964
| 49>    S       -4.65390        -3.42173        -5.29761
| 50>    C       -4.58581        -1.70158        -5.02740
| 51>    C       -5.67159        -1.29440        -4.21559
| 52>    C       -6.48856        -2.38961        -3.80227
| 53>    C       -7.63708        -2.16202        -3.02342
| 54>    C       -7.96253        -0.87890        -2.68702
| 55>    F       -9.07189        -0.64416        -1.96356
| 56>    C       -7.17468         0.20776        -3.11450
| 57>    F       -7.55054         1.45516        -2.79425
| 58>    C       -6.04928         0.01351        -3.86946
| 59>    C       -3.53247        -0.99846        -5.62028
| 60>    C       -3.07360         0.25918        -5.30133
| 61>    C       -2.03946         0.88072        -5.99497
| 62>    C       -1.48513         2.09814        -5.64785
| 63>    C       -0.47038         2.79371        -6.33646
| 64>    C       -0.10077         3.97028        -5.74832
| 65>    C       -0.79691         4.25142        -4.55652
| 66>    S       -1.95857         2.99605        -4.21825
| 67>    C       -0.60976         5.32791        -3.69890
| 68>    C        0.26293         6.42087        -3.86775
| 69>    C        0.25397         7.29610        -2.81935
| 70>    C       -0.61873         6.92998        -1.77229
| 71>    S       -1.45003         5.44675        -2.17226
| 72>    C       -0.76759         7.58050        -0.56153
| 73>    C       -1.61859         7.14657         0.44830
| 74>    C       -1.72099         7.63082         1.73488
| 75>    C       -2.94241         7.34540         2.52363
| 76>    O       -3.82750         6.56855         2.23544
| 77>    C       -2.86646         8.23531         3.69932
| 78>    C       -3.77552         8.41851         4.69960
| 79>    C       -3.49093         9.34408         5.72934
| 80>    C       -2.26673        10.07179         5.69235
| 81>    C       -1.98916        10.99427         6.71919
| 82>    C       -2.89463        11.16716         7.72896
| 83>    C       -4.10269        10.46004         7.78443
| 84>    C       -4.38943         9.56309         6.79294
| 85>    F       -2.62887        12.04601         8.71368
| 86>    C       -1.34152         9.85868         4.64246
| 87>    C       -1.63275         8.94686         3.66567
| 88>    C       -0.86340         8.48318         2.50912
| 89>    C        0.49110         8.66957         2.34494
| 90>    C        1.28881         7.96689         1.42140
| 91>    N        2.00117         7.39026         0.72809
| 92>    C        1.27377         9.50553         3.16449
| 93>    N        1.96055        10.19198         3.77863
| 94>    H      -16.03497        -4.25501         0.64209
| 95>    H      -12.80161        -0.76296        -0.75052
| 96>    H      -14.55135        -5.99786        -0.19615
| 97>    H      -11.27637        -2.51578        -1.63026
| 98>    H      -10.07082        -8.63946        -2.59242
| 99>    H       -8.72320        -6.10337        -3.26187
|100>    H       -4.91642        -8.37547        -5.36548
|101>    H       -5.29255        -5.99802        -5.19607
|102>    H       -7.43341        -4.86535        -3.32164
|103>    H       -8.28216        -2.96801        -2.71638
|104>    H       -5.49897         0.87336        -4.20902
|105>    H       -2.98596        -1.54298        -6.38165
|106>    H       -3.48538         0.78784        -4.45464
|107>    H       -1.63546         0.39057        -6.87127
|108>    H       -0.04112         2.40820        -7.24408
|109>    H        0.65933         4.62521        -6.13328
|110>    H        0.86958         6.53897        -4.74729
|111>    H        0.86130         8.18119        -2.75861
|112>    H       -0.17771         8.47463        -0.42025
|113>    H       -2.34235         6.37678         0.19507
|114>    H       -4.70022         7.86124         4.70888
|115>    H       -1.06688        11.55387         6.71071
|116>    H       -4.77826        10.63753         8.60611
|117>    H       -5.31392         9.00590         6.81361
|118>    H       -0.42582        10.42814         4.63953
|119> *
|120>
|121>                          ****END OF INPUT****

CARTESIAN COORDINATES (ANGSTROEM)
---------------------------------
  C    -15.321090   -3.507930    0.332070
  C    -15.591770   -2.184600    0.545190
  F    -16.737230   -1.819830    1.133830
  C    -14.673900   -1.190540    0.150230
  F    -14.967740    0.096350    0.372550
  C    -13.496670   -1.533260   -0.454760
  C    -13.192270   -2.887650   -0.690870
  C    -14.118040   -3.894400   -0.290160
  C    -13.831370   -5.261970   -0.515510
  C    -12.658760   -5.611180   -1.128810
  C    -11.743590   -4.595090   -1.533320
  C    -11.987450   -3.267520   -1.322480
  C    -10.591280   -5.231170   -2.170480
  O     -9.602960   -4.675060   -2.649110
  C    -10.829560   -6.672710   -2.130660
  C    -12.101690   -6.915620   -1.487640
  C    -12.690110   -8.130630   -1.253730
  C    -12.117580   -9.366580   -1.617540
  N    -11.684140  -10.391610   -1.898690
  C    -13.939750   -8.295860   -0.621950
  N    -14.951350   -8.485580   -0.114380
  C     -9.919520   -7.569280   -2.642320
  N     -8.795340   -7.131210   -3.222690
  C     -7.801600   -7.881360   -3.759380
  S     -7.931840   -9.617160   -3.774940
  C     -6.416130   -9.705930   -4.608530
  N     -5.918830  -10.977950   -4.939570
  O     -4.855040  -11.029680   -5.524480
  O     -6.598340  -11.931820   -4.611240
  C     -5.857230   -8.486060   -4.856710
  C     -6.627690   -7.403930   -4.368130
  C     -6.158750   -6.063480   -4.548260
  C     -6.613230   -4.898780   -4.018330
  C     -6.044770   -3.636240   -4.289640
  S     -4.653900   -3.421730   -5.297610
  C     -4.585810   -1.701580   -5.027400
  C     -5.671590   -1.294400   -4.215590
  C     -6.488560   -2.389610   -3.802270
  C     -7.637080   -2.162020   -3.023420
  C     -7.962530   -0.878900   -2.687020
  F     -9.071890   -0.644160   -1.963560
  C     -7.174680    0.207760   -3.114500
  F     -7.550540    1.455160   -2.794250
  C     -6.049280    0.013510   -3.869460
  C     -3.532470   -0.998460   -5.620280
  C     -3.073600    0.259180   -5.301330
  C     -2.039460    0.880720   -5.994970
  C     -1.485130    2.098140   -5.647850
  C     -0.470380    2.793710   -6.336460
  C     -0.100770    3.970280   -5.748320
  C     -0.796910    4.251420   -4.556520
  S     -1.958570    2.996050   -4.218250
  C     -0.609760    5.327910   -3.698900
  C      0.262930    6.420870   -3.867750
  C      0.253970    7.296100   -2.819350
  C     -0.618730    6.929980   -1.772290
  S     -1.450030    5.446750   -2.172260
  C     -0.767590    7.580500   -0.561530
  C     -1.618590    7.146570    0.448300
  C     -1.720990    7.630820    1.734880
  C     -2.942410    7.345400    2.523630
  O     -3.827500    6.568550    2.235440
  C     -2.866460    8.235310    3.699320
  C     -3.775520    8.418510    4.699600
  C     -3.490930    9.344080    5.729340
  C     -2.266730   10.071790    5.692350
  C     -1.989160   10.994270    6.719190
  C     -2.894630   11.167160    7.728960
  C     -4.102690   10.460040    7.784430
  C     -4.389430    9.563090    6.792940
  F     -2.628870   12.046010    8.713680
  C     -1.341520    9.858680    4.642460
  C     -1.632750    8.946860    3.665670
  C     -0.863400    8.483180    2.509120
  C      0.491100    8.669570    2.344940
  C      1.288810    7.966890    1.421400
  N      2.001170    7.390260    0.728090
  C      1.273770    9.505530    3.164490
  N      1.960550   10.191980    3.778630
  H    -16.034970   -4.255010    0.642090
  H    -12.801610   -0.762960   -0.750520
  H    -14.551350   -5.997860   -0.196150
  H    -11.276370   -2.515780   -1.630260
  H    -10.070820   -8.639460   -2.592420
  H     -8.723200   -6.103370   -3.261870
  H     -4.916420   -8.375470   -5.365480
  H     -5.292550   -5.998020   -5.196070
  H     -7.433410   -4.865350   -3.321640
  H     -8.282160   -2.968010   -2.716380
  H     -5.498970    0.873360   -4.209020
  H     -2.985960   -1.542980   -6.381650
  H     -3.485380    0.787840   -4.454640
  H     -1.635460    0.390570   -6.871270
  H     -0.041120    2.408200   -7.244080
  H      0.659330    4.625210   -6.133280
  H      0.869580    6.538970   -4.747290
  H      0.861300    8.181190   -2.758610
  H     -0.177710    8.474630   -0.420250
  H     -2.342350    6.376780    0.195070
  H     -4.700220    7.861240    4.708880
  H     -1.066880   11.553870    6.710710
  H     -4.778260   10.637530    8.606110
  H     -5.313920    9.005900    6.813610
  H     -0.425820   10.428140    4.639530

 Total Charge           Charge          ....    0
 Multiplicity           Mult            ....    1
 Number of Electrons    NEL             ....  568
 Basis Dimension        Dim             .... 1247

ORBITAL ENERGIES
----------------

  NO   OCC          E(Eh)            E(eV)
   0   2.0000     -89.002585     -2421.8835
   1   2.0000     -88.987470     -2421.4722
   2   2.0000     -88.967688     -2420.9339
   3   2.0000     -88.961472     -2420.7647
   4   2.0000     -24.806916      -675.0305
   5   2.0000     -24.806787      -675.0270
   6   2.0000     -24.804321      -674.9599
   7   2.0000     -24.799822      -674.8375
   8   2.0000     -24.775315      -674.1706
   9   2.0000     -19.252645      -523.8911
  10   2.0000     -19.250656      -523.8370
  11   2.0000     -19.249697      -523.8109
  12   2.0000     -19.194956      -522.3213
  13   2.0000     -14.662213      -398.9791
  14   2.0000     -14.514710      -394.9654
  15   2.0000     -14.432148      -392.7187
  16   2.0000     -14.426929      -392.5767
  17   2.0000     -14.398836      -391.8122
  18   2.0000     -14.397401      -391.7732
  19   2.0000     -10.397888      -282.9409
  20   2.0000     -10.391696      -282.7724
  21   2.0000     -10.391373      -282.7636
  22   2.0000     -10.387187      -282.6497
  23   2.0000     -10.386450      -282.6297
  24   2.0000     -10.383275      -282.5433
  25   2.0000     -10.381297      -282.4895
  26   2.0000     -10.359879      -281.9066
  27   2.0000     -10.359877      -281.9066
  28   2.0000     -10.357712      -281.8477
  29   2.0000     -10.356118      -281.8043
  30   2.0000     -10.346098      -281.5316
  31   2.0000     -10.337265      -281.2913
  32   2.0000     -10.334066      -281.2042
  33   2.0000     -10.330977      -281.1202
  34   2.0000     -10.329718      -281.0859
  35   2.0000     -10.329709      -281.0857
  36   2.0000     -10.327443      -281.0240
  37   2.0000     -10.325806      -280.9795
  38   2.0000     -10.324357      -280.9400
  39   2.0000     -10.323891      -280.9274
  40   2.0000     -10.323844      -280.9261
  41   2.0000     -10.323474      -280.9160
  42   2.0000     -10.322930      -280.9012
  43   2.0000     -10.322716      -280.8954
  44   2.0000     -10.322226      -280.8821
  45   2.0000     -10.322151      -280.8800
  46   2.0000     -10.318445      -280.7792
  47   2.0000     -10.317056      -280.7414
  48   2.0000     -10.315703      -280.7045
  49   2.0000     -10.312808      -280.6258
  50   2.0000     -10.312306      -280.6121
  51   2.0000     -10.311884      -280.6006
  52   2.0000     -10.311422      -280.5881
  53   2.0000     -10.311198      -280.5820
  54   2.0000     -10.311038      -280.5776
  55   2.0000     -10.310694      -280.5683
  56   2.0000     -10.310522      -280.5636
  57   2.0000     -10.307760      -280.4884
  58   2.0000     -10.307526      -280.4820
  59   2.0000     -10.304719      -280.4057
  60   2.0000     -10.304595      -280.4023
  61   2.0000     -10.303522      -280.3731
  62   2.0000     -10.302662      -280.3497
  63   2.0000     -10.301172      -280.3091
  64   2.0000     -10.300431      -280.2890
  65   2.0000     -10.299410      -280.2612
  66   2.0000     -10.298269      -280.2302
  67   2.0000     -10.292704      -280.0787
  68   2.0000     -10.292398      -280.0704
  69   2.0000     -10.290746      -280.0254
  70   2.0000     -10.287800      -279.9453
  71   2.0000     -10.286193      -279.9016
  72   2.0000     -10.285178      -279.8739
  73   2.0000     -10.283104      -279.8175
  74   2.0000     -10.282939      -279.8130
  75   2.0000     -10.281487      -279.7735
  76   2.0000     -10.277290      -279.6593
  77   2.0000     -10.275079      -279.5991
  78   2.0000     -10.274419      -279.5811
  79   2.0000      -8.097823      -220.3530
  80   2.0000      -8.082637      -219.9397
  81   2.0000      -8.063931      -219.4307
  82   2.0000      -8.057788      -219.2636
  83   2.0000      -6.067479      -165.1045
  84   2.0000      -6.063038      -164.9837
  85   2.0000      -6.059322      -164.8825
  86   2.0000      -6.051560      -164.6713
  87   2.0000      -6.047645      -164.5648
  88   2.0000      -6.045354      -164.5024
  89   2.0000      -6.033542      -164.1810
  90   2.0000      -6.029562      -164.0727
  91   2.0000      -6.027371      -164.0131
  92   2.0000      -6.025039      -163.9496
  93   2.0000      -6.023356      -163.9038
  94   2.0000      -6.018947      -163.7839
  95   2.0000      -1.332620       -36.2624
  96   2.0000      -1.330159       -36.1955
  97   2.0000      -1.323461       -36.0132
  98   2.0000      -1.315221       -35.7890
  99   2.0000      -1.308588       -35.6085
 100   2.0000      -1.289927       -35.1007
 101   2.0000      -1.166814       -31.7506
 102   2.0000      -1.152017       -31.3480
 103   2.0000      -1.120647       -30.4944
 104   2.0000      -1.109592       -30.1935
 105   2.0000      -1.035266       -28.1710
 106   2.0000      -1.023958       -27.8633
 107   2.0000      -1.021615       -27.7996
 108   2.0000      -1.018613       -27.7179
 109   2.0000      -1.014833       -27.6150
 110   2.0000      -1.008022       -27.4297
 111   2.0000      -1.001766       -27.2594
 112   2.0000      -0.995057       -27.0769
 113   2.0000      -0.991828       -26.9890
 114   2.0000      -0.985413       -26.8144
 115   2.0000      -0.977059       -26.5871
 116   2.0000      -0.961582       -26.1660
 117   2.0000      -0.961313       -26.1587
 118   2.0000      -0.946757       -25.7626
 119   2.0000      -0.943530       -25.6748
 120   2.0000      -0.931016       -25.3342
 121   2.0000      -0.920475       -25.0474
 122   2.0000      -0.916508       -24.9395
 123   2.0000      -0.909412       -24.7464
 124   2.0000      -0.904918       -24.6241
 125   2.0000      -0.901132       -24.5211
 126   2.0000      -0.894166       -24.3315
 127   2.0000      -0.880906       -23.9707
 128   2.0000      -0.875651       -23.8277
 129   2.0000      -0.873395       -23.7663
 130   2.0000      -0.867860       -23.6157
 131   2.0000      -0.865571       -23.5534
 132   2.0000      -0.861731       -23.4489
 133   2.0000      -0.853858       -23.2346
 134   2.0000      -0.852297       -23.1922
 135   2.0000      -0.843073       -22.9412
 136   2.0000      -0.836811       -22.7708
 137   2.0000      -0.827565       -22.5192
 138   2.0000      -0.821636       -22.3578
 139   2.0000      -0.816342       -22.2138
 140   2.0000      -0.799337       -21.7511
 141   2.0000      -0.785054       -21.3624
 142   2.0000      -0.782776       -21.3004
 143   2.0000      -0.771696       -20.9989
 144   2.0000      -0.759118       -20.6567
 145   2.0000      -0.752564       -20.4783
 146   2.0000      -0.751237       -20.4422
 147   2.0000      -0.744930       -20.2706
 148   2.0000      -0.740717       -20.1559
 149   2.0000      -0.734717       -19.9927
 150   2.0000      -0.725413       -19.7395
 151   2.0000      -0.720481       -19.6053
 152   2.0000      -0.711167       -19.3519
 153   2.0000      -0.706376       -19.2215
 154   2.0000      -0.700253       -19.0549
 155   2.0000      -0.696989       -18.9660
 156   2.0000      -0.695387       -18.9225
 157   2.0000      -0.683978       -18.6120
 158   2.0000      -0.674405       -18.3515
 159   2.0000      -0.673275       -18.3207
 160   2.0000      -0.671220       -18.2648
 161   2.0000      -0.665377       -18.1058
 162   2.0000      -0.663739       -18.0613
 163   2.0000      -0.655549       -17.8384
 164   2.0000      -0.653807       -17.7910
 165   2.0000      -0.651323       -17.7234
 166   2.0000      -0.646922       -17.6036
 167   2.0000      -0.643513       -17.5109
 168   2.0000      -0.642715       -17.4892
 169   2.0000      -0.638127       -17.3643
 170   2.0000      -0.631260       -17.1775
 171   2.0000      -0.629370       -17.1260
 172   2.0000      -0.625795       -17.0287
 173   2.0000      -0.624383       -16.9903
 174   2.0000      -0.620454       -16.8834
 175   2.0000      -0.619143       -16.8477
 176   2.0000      -0.617194       -16.7947
 177   2.0000      -0.612421       -16.6648
 178   2.0000      -0.608274       -16.5520
 179   2.0000      -0.605540       -16.4776
 180   2.0000      -0.598883       -16.2964
 181   2.0000      -0.594682       -16.1821
 182   2.0000      -0.591892       -16.1062
 183   2.0000      -0.588294       -16.0083
 184   2.0000      -0.585025       -15.9193
 185   2.0000      -0.582955       -15.8630
 186   2.0000      -0.582684       -15.8556
 187   2.0000      -0.575618       -15.6634
 188   2.0000      -0.574379       -15.6296
 189   2.0000      -0.570245       -15.5171
 190   2.0000      -0.565331       -15.3834
 191   2.0000      -0.564774       -15.3683
 192   2.0000      -0.560791       -15.2599
 193   2.0000      -0.557701       -15.1758
 194   2.0000      -0.555833       -15.1250
 195   2.0000      -0.551897       -15.0179
 196   2.0000      -0.550583       -14.9821
 197   2.0000      -0.548739       -14.9319
 198   2.0000      -0.548298       -14.9199
 199   2.0000      -0.547709       -14.9039
 200   2.0000      -0.546947       -14.8832
 201   2.0000      -0.542731       -14.7685
 202   2.0000      -0.537522       -14.6267
 203   2.0000      -0.536782       -14.6066
 204   2.0000      -0.533914       -14.5285
 205   2.0000      -0.532540       -14.4912
 206   2.0000      -0.528454       -14.3800
 207   2.0000      -0.523232       -14.2379
 208   2.0000      -0.522077       -14.2064
 209   2.0000      -0.518978       -14.1221
 210   2.0000      -0.517893       -14.0926
 211   2.0000      -0.517502       -14.0819
 212   2.0000      -0.514943       -14.0123
 213   2.0000      -0.514623       -14.0036
 214   2.0000      -0.514526       -14.0010
 215   2.0000      -0.511098       -13.9077
 216   2.0000      -0.510109       -13.8808
 217   2.0000      -0.505161       -13.7461
 218   2.0000      -0.503306       -13.6956
 219   2.0000      -0.500038       -13.6067
 220   2.0000      -0.498068       -13.5531
 221   2.0000      -0.491613       -13.3775
 222   2.0000      -0.489572       -13.3219
 223   2.0000      -0.486375       -13.2349
 224   2.0000      -0.483612       -13.1597
 225   2.0000      -0.483425       -13.1547
 226   2.0000      -0.482344       -13.1252
 227   2.0000      -0.480917       -13.0864
 228   2.0000      -0.480619       -13.0783
 229   2.0000      -0.475771       -12.9464
 230   2.0000      -0.474854       -12.9214
 231   2.0000      -0.470420       -12.8008
 232   2.0000      -0.469729       -12.7820
 233   2.0000      -0.466310       -12.6889
 234   2.0000      -0.465112       -12.6563
 235   2.0000      -0.462165       -12.5761
 236   2.0000      -0.459017       -12.4905
 237   2.0000      -0.456295       -12.4164
 238   2.0000      -0.455396       -12.3920
 239   2.0000      -0.451163       -12.2768
 240   2.0000      -0.447579       -12.1792
 241   2.0000      -0.446998       -12.1634
 242   2.0000      -0.446017       -12.1367
 243   2.0000      -0.443611       -12.0713
 244   2.0000      -0.440872       -11.9967
 245   2.0000      -0.440756       -11.9936
 246   2.0000      -0.439273       -11.9532
 247   2.0000      -0.436806       -11.8861
 248   2.0000      -0.435593       -11.8531
 249   2.0000      -0.434047       -11.8110
 250   2.0000      -0.428492       -11.6599
 251   2.0000      -0.426612       -11.6087
 252   2.0000      -0.423618       -11.5272
 253   2.0000      -0.421225       -11.4621
 254   2.0000      -0.416112       -11.3230
 255   2.0000      -0.413212       -11.2441
 256   2.0000      -0.409738       -11.1495
 257   2.0000      -0.408608       -11.1188
 258   2.0000      -0.406387       -11.0584
 259   2.0000      -0.400829       -10.9071
 260   2.0000      -0.397185       -10.8080
 261   2.0000      -0.396932       -10.8011
 262   2.0000      -0.392984       -10.6936
 263   2.0000      -0.388634       -10.5753
 264   2.0000      -0.385380       -10.4867
 265   2.0000      -0.379763       -10.3339
 266   2.0000      -0.375229       -10.2105
 267   2.0000      -0.370955       -10.0942
 268   2.0000      -0.365412        -9.9434
 269   2.0000      -0.358770        -9.7626
 270   2.0000      -0.353950        -9.6315
 271   2.0000      -0.346183        -9.4201
 272   2.0000      -0.341962        -9.3053
 273   2.0000      -0.337270        -9.1776
 274   2.0000      -0.332584        -9.0501
 275   2.0000      -0.330887        -9.0039
 276   2.0000      -0.320104        -8.7105
 277   2.0000      -0.316396        -8.6096
 278   2.0000      -0.308902        -8.4057
 279   2.0000      -0.299882        -8.1602
 280   2.0000      -0.294597        -8.0164
 281   2.0000      -0.284750        -7.7484
 282   2.0000      -0.260291        -7.0829
 283   2.0000      -0.218836        -5.9548
 284   0.0000      -0.122231        -3.3261
 285   0.0000      -0.103548        -2.8177
 286   0.0000      -0.084510        -2.2996
 287   0.0000      -0.077435        -2.1071
 288   0.0000      -0.057571        -1.5666

MULLIKEN ATOMIC CHARGES
-----------------------
   0 C :   -0.106880
   1 C :    0.244893
   2 F :   -0.167093
   3 C :    0.241153
   4 F :   -0.167993
   5 C :   -0.103812
   6 C :    0.107125
   7 C :    0.113805
   8 C :   -0.079675
   9 C :    0.043493
  10 C :    0.006220
  11 C :   -0.074277
  12 C :    0.194132
  13 O :   -0.237275
  14 C :   -0.122252
  15 C :    0.332539
  16 C :   -0.341794
  17 C :   -0.195126
  18 N :    0.149463
  19 C :   -0.183631
  20 N :    0.156909
  21 C :    0.027338
  22 N :    0.004831
  23 C :   -0.133998
  24 S :    0.174639
  25 C :    0.016671
  26 N :    0.274934
  27 O :   -0.242635
  28 O :   -0.250521
  29 C :    0.000397
  30 C :    0.146998
  31 C :   -0.035136
  32 C :    0.006790
  33 C :   -0.106131
  34 S :    0.152638
  35 C :   -0.116443
  36 C :    0.145200
  37 C :    0.116221
  38 C :   -0.103920
  39 C :    0.221496
  40 F :   -0.181805
  41 C :    0.230043
  42 F :   -0.172899
  43 C :   -0.127387
  44 C :    0.038023
  45 C :   -0.023034
  46 C :    0.006652
  47 C :   -0.033011
  48 C :    0.050101
  49 C :    0.018754
  50 C :   -0.028348
  51 S :    0.095394
  52 C :   -0.058648
  53 C :    0.037002
  54 C :    0.040521
  55 C :   -0.016928
  56 S :    0.111610
  57 C :   -0.001136
  58 C :    0.014746
  59 C :   -0.127781
  60 C :    0.138296
  61 O :   -0.157805
  62 C :    0.002545
  63 C :   -0.083281
  64 C :    0.100666
  65 C :    0.101212
  66 C :   -0.097614
  67 C :    0.300100
  68 C :   -0.033984
  69 C :   -0.010924
  70 F :   -0.194493
  71 C :   -0.090055
  72 C :    0.043687
  73 C :    0.291273
  74 C :   -0.352841
  75 C :   -0.221772
  76 N :    0.156791
  77 C :   -0.175302
  78 N :    0.133677
  79 H :    0.010893
  80 H :    0.007876
  81 H :   -0.004320
  82 H :   -0.016236
  83 H :    0.052057
  84 H :    0.172911
  85 H :    0.015199
  86 H :   -0.006284
  87 H :   -0.006424
  88 H :   -0.018152
  89 H :   -0.009041
  90 H :   -0.006811
  91 H :    0.015235
  92 H :   -0.006451
  93 H :   -0.004649
  94 H :   -0.004800
  95 H :   -0.004931
  96 H :    0.002058
  97 H :    0.011223
  98 H :    0.015079
  99 H :   -0.017703
 100 H :   -0.004529
 101 H :   -0.000851
 102 H :   -0.013730
 103 H :   -0.008959
Sum of atomic charges:   -0.0000000

LOEWDIN ATOMIC CHARGES
----------------------
   0 C :   -0.028542
   1 C :    0.070571
   2 F :   -0.045250
   3 C :    0.069757
   4 F :   -0.045589
   5 C :   -0.029178
   6 C :   -0.009795
   7 C :   -0.004674
   8 C :    0.021458
   9 C :   -0.020626
  10 C :   -0.056463
  11 C :    0.037271
  12 C :    0.104928
  13 O :   -0.182949
  14 C :   -0.139858
  15 C :    0.077717
  16 C :   -0.142856
  17 C :   -0.020967
  18 N :   -0.048361
  19 C :   -0.019215
  20 N :   -0.048076
  21 C :    0.112933
  22 N :    0.086063
  23 C :   -0.112225
  24 S :    0.476850
  25 C :   -0.199679
  26 N :    0.273179
  27 O :   -0.208319
  28 O :   -0.216852
  29 C :    0.002537
  30 C :   -0.082628
  31 C :   -0.030901
  32 C :   -0.043940
  33 C :   -0.167440
  34 S :    0.480284
  35 C :   -0.172478
  36 C :   -0.037694
  37 C :   -0.040407
  38 C :   -0.032924
  39 C :    0.059478
  40 F :   -0.060444
  41 C :    0.067851
  42 F :   -0.051587
  43 C :   -0.041713
  44 C :   -0.027346
  45 C :   -0.042474
  46 C :   -0.027298
  47 C :   -0.157120
  48 C :   -0.016203
  49 C :   -0.037743
  50 C :   -0.150921
  51 S :    0.393885
  52 C :   -0.191518
  53 C :   -0.009651
  54 C :   -0.034537
  55 C :   -0.101904
  56 S :    0.405822
  57 C :   -0.066024
  58 C :    0.049213
  59 C :   -0.106834
  60 C :    0.076476
  61 O :   -0.159655
  62 C :   -0.056593
  63 C :    0.027838
  64 C :   -0.020619
  65 C :    0.001942
  66 C :   -0.043378
  67 C :    0.090003
  68 C :   -0.041759
  69 C :    0.002322
  70 F :   -0.068569
  71 C :    0.005652
  72 C :   -0.014327
  73 C :    0.067126
  74 C :   -0.154424
  75 C :   -0.023386
  76 N :   -0.065867
  77 C :   -0.019373
  78 N :   -0.066974
  79 H :    0.049049
  80 H :    0.048242
  81 H :    0.041496
  82 H :    0.039677
  83 H :    0.036731
  84 H :    0.084765
  85 H :    0.047660
  86 H :    0.026882
  87 H :    0.028488
  88 H :    0.035989
  89 H :    0.040771
  90 H :    0.032095
  91 H :    0.023766
  92 H :    0.036948
  93 H :    0.037205
  94 H :    0.035156
  95 H :    0.035494
  96 H :    0.040249
  97 H :    0.038541
  98 H :    0.034621
  99 H :    0.037266
 100 H :    0.042179
 101 H :    0.039866
 102 H :    0.033931
 103 H :    0.037909

  Mayer bond orders larger than 0.100000
B(  0-C ,  1-C ) :   1.4344 B(  0-C ,  5-C ) :   0.1075 B(  0-C ,  7-C ) :   1.1949
B(  0-C , 79-H ) :   1.0065 B(  1-C ,  2-F ) :   1.1385 B(  1-C ,  3-C ) :   1.1943
B(  3-C ,  4-F ) :   1.1371 B(  3-C ,  5-C ) :   1.4369 B(  5-C ,  6-C ) :   1.1939
B(  5-C , 80-H ) :   1.0079 B(  6-C ,  7-C ) :   1.2548 B(  6-C , 11-C ) :   1.1924
B(  7-C ,  8-C ) :   1.2063 B(  8-C ,  9-C ) :   1.4670 B(  8-C , 81-H ) :   0.9897
B(  9-C , 10-C ) :   1.2141 B(  9-C , 15-C ) :   0.9870 B( 10-C , 11-C ) :   1.4549
B( 10-C , 12-C ) :   0.9842 B( 11-C , 82-H ) :   1.0166 B( 12-C , 13-O ) :   1.9323
B( 12-C , 14-C ) :   1.0344 B( 13-O , 84-H ) :   0.1261 B( 14-C , 15-C ) :   1.0925
B( 14-C , 21-C ) :   1.4410 B( 15-C , 16-C ) :   1.6384 B( 16-C , 17-C ) :   1.1456
B( 16-C , 19-C ) :   1.1471 B( 17-C , 18-N ) :   2.9529 B( 19-C , 20-N ) :   2.9629
B( 21-C , 22-N ) :   1.3384 B( 21-C , 83-H ) :   0.9287 B( 22-N , 23-C ) :   1.1930
B( 22-N , 84-H ) :   0.8378 B( 23-C , 24-S ) :   1.1384 B( 23-C , 30-C ) :   1.3562
B( 24-S , 25-C ) :   1.0832 B( 25-C , 26-N ) :   0.9568 B( 25-C , 29-C ) :   1.5094
B( 26-N , 27-O ) :   1.5404 B( 26-N , 28-O ) :   1.5209 B( 27-O , 28-O ) :   0.2663
B( 29-C , 30-C ) :   1.1953 B( 29-C , 85-H ) :   1.0057 B( 30-C , 31-C ) :   1.1247
B( 31-C , 32-C ) :   1.6147 B( 31-C , 86-H ) :   0.9637 B( 32-C , 33-C ) :   1.2332
B( 32-C , 87-H ) :   0.9379 B( 33-C , 34-S ) :   1.1469 B( 33-C , 37-C ) :   1.2977
B( 34-S , 35-C ) :   1.1348 B( 35-C , 36-C ) :   1.2999 B( 35-C , 44-C ) :   1.2106
B( 36-C , 37-C ) :   1.2230 B( 36-C , 43-C ) :   1.1741 B( 37-C , 38-C ) :   1.1757
B( 38-C , 39-C ) :   1.4947 B( 38-C , 43-C ) :   0.1138 B( 38-C , 88-H ) :   0.9845
B( 39-C , 40-F ) :   1.1004 B( 39-C , 41-C ) :   1.1721 B( 41-C , 42-F ) :   1.1345
B( 41-C , 43-C ) :   1.4914 B( 43-C , 89-H ) :   0.9968 B( 44-C , 45-C ) :   1.5499
B( 44-C , 90-H ) :   0.9558 B( 45-C , 46-C ) :   1.2244 B( 45-C , 91-H ) :   0.9687
B( 46-C , 47-C ) :   1.4955 B( 46-C , 92-H ) :   0.9842 B( 47-C , 48-C ) :   1.1776
B( 47-C , 51-S ) :   1.0339 B( 48-C , 49-C ) :   1.5481 B( 48-C , 93-H ) :   1.0004
B( 49-C , 50-C ) :   1.2204 B( 49-C , 94-H ) :   0.9949 B( 50-C , 51-S ) :   1.0802
B( 50-C , 52-C ) :   1.4409 B( 52-C , 53-C ) :   1.2310 B( 52-C , 56-S ) :   1.0491
B( 53-C , 54-C ) :   1.5329 B( 53-C , 95-H ) :   0.9942 B( 54-C , 55-C ) :   1.1925
B( 54-C , 96-H ) :   1.0001 B( 55-C , 56-S ) :   1.0863 B( 55-C , 57-C ) :   1.4841
B( 57-C , 58-C ) :   1.2324 B( 57-C , 97-H ) :   0.9615 B( 58-C , 59-C ) :   1.5113
B( 58-C , 98-H ) :   0.9405 B( 59-C , 60-C ) :   0.9630 B( 59-C , 73-C ) :   1.0990
B( 60-C , 61-O ) :   2.2495 B( 60-C , 62-C ) :   0.9182 B( 62-C , 63-C ) :   1.4833
B( 62-C , 72-C ) :   1.2170 B( 63-C , 64-C ) :   1.1828 B( 63-C , 99-H ) :   1.0139
B( 64-C , 65-C ) :   1.2606 B( 64-C , 69-C ) :   1.2383 B( 65-C , 66-C ) :   1.2044
B( 65-C , 71-C ) :   1.1971 B( 66-C , 67-C ) :   1.4390 B( 66-C ,100-H ) :   1.0061
B( 67-C , 68-C ) :   1.2587 B( 67-C , 70-F ) :   1.0845 B( 68-C , 69-C ) :   1.4575
B( 68-C ,101-H ) :   0.9925 B( 69-C ,102-H ) :   0.9962 B( 71-C , 72-C ) :   1.4692
B( 71-C ,103-H ) :   0.9919 B( 72-C , 73-C ) :   0.9892 B( 73-C , 74-C ) :   1.5881
B( 74-C , 75-C ) :   1.1702 B( 74-C , 77-C ) :   1.1384 B( 75-C , 76-N ) :   3.0114
B( 77-C , 78-N ) :   2.9700

-----------------------------------------------------------------------------
         ABSORPTION SPECTRUM VIA TRANSITION ELECTRIC DIPOLE MOMENTS
-----------------------------------------------------------------------------
State   Energy  Wavelength   fosc         T2         TX        TY        TZ
        (cm-1)    (nm)                  (au**2)     (au)      (au)      (au)
-----------------------------------------------------------------------------
   0    8794.2   1137.1   1.446151612  54.13675  -3.09279  -6.03556  -2.85367
   1   14421.1    693.4   0.281892783   6.43518  -1.30669   0.35762   2.14472
   2   16754.9    596.8   0.191009176   3.75307   1.32602  -0.01438  -1.41228
   3   18498.6    540.6   0.621522476  11.06100  -1.61995  -1.14497   2.66942
   4   19160.2    521.9   0.042624764   0.73238  -0.32380  -0.61141   0.50370
   5   22332.9    447.8   0.134588038   1.98398   1.26814  -0.53608  -0.29734
   6   22459.8    445.2   0.053966917   0.79104   0.43372  -0.72763   0.27107
   7   24160.5    413.9   0.044123400   0.60123  -0.63214  -0.04214   0.44704
   8   24660.6    405.5   0.035935790   0.47973   0.66791  -0.11772  -0.14060
   9   25055.0    399.1   0.019375699   0.25459  -0.26985   0.03417   0.42497
  10   25331.8    394.8   0.035347418   0.45938  -0.27994   0.61206   0.07997
  11   25740.9    388.5   0.000611153   0.00782  -0.05946  -0.00031   0.06542
  12   26392.1    378.9   0.040070982   0.49984  -0.42264  -0.47324   0.31187
  13   27118.8    368.7   0.224540392   2.72584  -1.00971   0.92202   0.92531
  14   27270.7    366.7   0.036820058   0.44449  -0.40313   0.35174   0.39782
  15   28106.9    355.8   0.109717500   1.28511   0.79493   0.29703  -0.75164
  16   28806.7    347.1   0.089626749   1.02428   0.69417  -0.57430  -0.46108
  17   29060.1    344.1   0.022048907   0.24978   0.44352   0.06143  -0.22204
  18   29356.7    340.6   0.272827783   3.05955   1.15103  -1.14664  -0.64799
  19   29837.9    335.1   0.003767966   0.04157  -0.00694  -0.09891  -0.17816
  20   30124.7    332.0   0.104177765   1.13849  -0.22657   0.99815   0.30141
  21   30669.3    326.1   0.075276069   0.80803   0.33392   0.34577  -0.75959
  22   30812.9    324.5   0.063338096   0.67672   0.18748  -0.80049  -0.02789
  23   31186.4    320.7   0.657238178   6.93798   1.29367  -1.74546  -1.48922
  24   31734.2    315.1   0.114696729   1.18987   0.67282  -0.07741  -0.85509
  25   32708.1    305.7   0.036313109   0.36550   0.04868  -0.20732  -0.56582
  26   32753.2    305.3   0.148268640   1.49029   0.97930  -0.58453  -0.43541
  27   33040.2    302.7   0.131907638   1.31432  -0.25209  -1.11455  -0.09248
  28   33160.6    301.6   0.040028411   0.39739   0.32977   0.40224  -0.35617
  29   33418.5    299.2   0.003698417   0.03643   0.13796  -0.05807   0.11844
  30   33508.6    298.4   0.118352576   1.16278   0.59177  -0.87070  -0.23339
  31   33663.8    297.1   0.528128523   5.16479   0.46434  -2.18013  -0.44298
  32   33777.8    296.1   0.292715305   2.85292  -0.56825   1.53511   0.41648
  33   34081.7    293.4   0.121000626   1.16880  -0.36478   0.95591   0.34925
  34   34310.7    291.5   0.029263502   0.28078   0.23357   0.46475  -0.10116
  35   34869.5    286.8   0.016933003   0.15987  -0.24111  -0.09411   0.30476
  36   35031.4    285.5   0.162909341   1.53096  -0.45029   1.03660   0.50365
  37   35430.8    282.2   0.006192103   0.05754   0.10028  -0.01652  -0.21727
  38   35863.8    278.8   0.044219987   0.40592  -0.24059  -0.12881   0.57571
  39   36037.8    277.5   0.016197499   0.14797  -0.27733  -0.23036   0.13413
  40   36209.8    276.2   0.217265066   1.97533   1.07855   0.65061  -0.62351
  41   36367.8    275.0   0.099544463   0.90111  -0.56672  -0.63690   0.41748
  42   36722.9    272.3   0.059715568   0.53534  -0.06880   0.68090   0.25881
  43   36884.8    271.1   0.042978170   0.38360  -0.54396   0.25302   0.15389
  44   37165.3    269.1   0.090769748   0.80404  -0.67383   0.18522   0.56187
  45   37518.1    266.5   0.100376961   0.88078   0.81358   0.14959  -0.44328
  46   37564.1    266.2   0.069533294   0.60939  -0.66857  -0.02106   0.40245
  47   37709.5    265.2   0.183323701   1.60046   0.99861  -0.46668  -0.62085
  48   37762.1    264.8   0.042275430   0.36856   0.50191  -0.24204  -0.24095
  49   38188.5    261.9   0.053974265   0.46530  -0.37037   0.53832   0.19580
  50   38491.7    259.8   0.078489355   0.67130   0.53307  -0.51276  -0.35244
  51   38875.3    257.2   0.076471468   0.64759   0.35671   0.71859  -0.06310
  52   38999.3    256.4   0.000118071   0.00100   0.00020   0.00573  -0.03104
  53   39071.8    255.9   0.005570278   0.04693   0.06696   0.19952   0.05139
  54   39328.8    254.3   0.047937440   0.40127   0.54351  -0.32317  -0.03782
  55   39524.8    253.0   0.103645235   0.86329  -0.74807  -0.29146   0.46768
  56   39942.0    250.4   0.070858186   0.58403   0.34995   0.55459   0.39242
  57   40152.7    249.0   0.003517568   0.02884   0.09567   0.00570   0.14020
  58   40182.4    248.9   0.069455184   0.56904  -0.75325  -0.01944   0.03585

FINAL SINGLE POINT ENERGY     -5017.920441691388

DIPOLE MOMENT
-------------
                                X             Y             Z
Electronic contribution:    -41.28569     -19.93457      12.69101
Nuclear contribution   :     40.17912      20.07109     -16.28983
                        -----------------------------------------
Total Dipole Moment    :     -1.10658       0.13652      -3.59881
                        -----------------------------------------
Magnitude (a.u.)       :      3.76757
Magnitude (Debye)      :      9.57641

Rotational constants in cm-1:     0.000753     0.000221     0.000183
Rotational constants in MHz :    22.580703     6.631221     5.486141

                             ****ORCA TERMINATED NORMALLY****
TOTAL RUN TIME: 0 days 0 hours 11 minutes 23 seconds 328 msec
