                         Program Version 4.2.0 -  RELEASE  -
|  1> # ORCA input file
|  2> # SCF done       -171.486923972911          0.000195272585
|  3> ! CAM-B3LYP def2-SVP def2/J RIJCOSX Grid4 TightSCF
|  4> %maxcore 5000
|  5> %tddft
|  6>     Mode sTDDFT
|  7>     Ethresh 5.0
|  8>     maxcore 5000
|  9> end
| 10>
| 11> %pal
| 12>   nprocs 6
| 13>   end
| 14> * xyz 0 1
| 15>    C      -16.37819        -3.68387        -1.52736
| 16>    C      -17.56823        -4.19045        -1.08507
| 17>    F      -18.72439        -3.63802        -1.48215
| 18>    C      -17.59668        -5.29402        -0.21069
| 19>    F      -18.77865        -5.77141         0.20722
| 20>    C      -16.43383        -5.87504         0.21133
| 21>    C      -15.19250        -5.37568        -0.22614
| 22>    C      -15.16180        -4.26120        -1.11320
| 23>    C      -13.92665        -3.74894        -1.57250
| 24>    C      -12.76049        -4.34289        -1.17114
| 25>    C      -12.79997        -5.45918        -0.28500
| 26>    C      -13.97805        -5.96513         0.18588
| 27>    C      -11.43401        -5.93133        -0.05650
| 28>    O      -11.07377        -6.86313         0.66695
| 29>    C      -10.56253        -5.04528        -0.82787
| 30>    C      -11.36728        -4.05361        -1.49648
| 31>    C      -10.93047        -3.06289        -2.34309
| 32>    C      -11.78160        -2.21636        -3.07920
| 33>    N      -12.41127        -1.51101        -3.73186
| 34>    C       -9.58289        -2.78352        -2.63043
| 35>    N       -8.50606        -2.49472        -2.91284
| 36>    C       -9.21501        -5.28239        -0.96377
| 37>    N       -8.68175        -6.38593        -0.41835
| 38>    C       -7.44043        -6.92244        -0.54457
| 39>    S       -7.09513        -8.28641         0.48014
| 40>    C       -5.49053        -8.36115        -0.16822
| 41>    N       -4.64454        -9.36899         0.29571
| 42>    O       -3.51001        -9.41072        -0.14875
| 43>    O       -5.11043       -10.13977         1.12190
| 44>    C       -5.24640        -7.39335        -1.10746
| 45>    C       -6.35308        -6.55907        -1.35064
| 46>    C       -6.33332        -5.47235        -2.30399
| 47>    C       -5.22934        -4.77290        -2.61837
| 48>    C       -5.29566        -3.59422        -3.43317
| 49>    C       -4.27324        -2.80701        -3.79758
| 50>    C       -2.82409        -3.09281        -3.56896
| 51>    C       -4.57412        -1.49335        -4.49462
| 52>    N       -4.93040        -1.64628        -5.88626
| 53>    C       -6.19087        -1.81262        -6.31060
| 54>    C       -6.57965        -1.78959        -7.61756
| 55>    C       -7.91582        -1.91916        -8.04224
| 56>    C       -8.95729        -2.51356        -7.37225
| 57>    C      -10.32201        -2.46020        -7.73913
| 58>    C      -11.15285        -3.18967        -6.94336
| 59>    C      -10.48546        -3.90451        -5.92574
| 60>    S       -8.77683        -3.55968        -5.96362
| 61>    C      -11.04574        -4.79792        -5.02902
| 62>    C      -12.41353        -5.04405        -4.80332
| 63>    C      -12.66918        -6.01912        -3.88387
| 64>    C      -11.51215        -6.61963        -3.33751
| 65>    S      -10.07472        -5.86307        -4.02532
| 66>    C      -11.36816        -7.61475        -2.40563
| 67>    C      -12.36383        -8.36724        -1.75345
| 68>    S      -14.07952        -8.22809        -2.01024
| 69>    C      -14.39955        -9.40087        -0.80443
| 70>    C      -13.26215        -9.92305        -0.24861
| 71>    C      -12.08398        -9.33767        -0.79060
| 72>    O      -10.78113        -9.66236        -0.56541
| 73>    C      -10.37715        -9.98591         0.75135
| 74>    C      -11.03164       -11.24283         1.31680
| 75>    C      -12.47846       -10.99409         1.73472
| 76>    O      -13.38573       -10.93872         0.65404
| 77>    H      -16.37489        -2.83894        -2.19820
| 78>    H      -16.47147        -6.72106         0.87938
| 79>    H      -13.93472        -2.90298        -2.24080
| 80>    H      -13.98503        -6.80931         0.85847
| 81>    H       -8.57101        -4.60631        -1.50083
| 82>    H       -9.36747        -6.91248         0.15276
| 83>    H       -4.30667        -7.32214        -1.62353
| 84>    H       -7.26377        -5.21218        -2.78622
| 85>    H       -4.28381        -5.02932        -2.16334
| 86>    H       -6.29921        -3.28942        -3.69873
| 87>    H       -2.66024        -4.09231        -3.18095
| 88>    H       -2.40548        -2.37233        -2.86500
| 89>    H       -2.27382        -2.99524        -4.50486
| 90>    H       -3.70318        -0.83572        -4.43405
| 91>    H       -5.41304        -1.00792        -3.98879
| 92>    H       -4.18654        -1.67916        -6.56683
| 93>    H       -6.93172        -1.88053        -5.52768
| 94>    H       -5.83976        -1.57097        -8.37654
| 95>    H       -8.15753        -1.50976        -9.01553
| 96>    H      -10.65041        -1.87161        -8.57779
| 97>    H      -12.21593        -3.26207        -7.08203
| 98>    H      -13.17721        -4.48026        -5.30792
| 99>    H      -13.65701        -6.32330        -3.59096
|100>    H      -10.36052        -7.91192        -2.14532
|101>    H      -15.40528        -9.70016        -0.59262
|102>    H       -9.29799       -10.13571         0.66603
|103>    H      -10.57183        -9.13042         1.41271
|104>    H      -10.46402       -11.56446         2.19014
|105>    H      -11.00217       -12.03816         0.56908
|106>    H      -12.84608       -11.82507         2.34172
|107>    H      -12.53845       -10.06817         2.32610
|108> *
|109>
|110>                          ****END OF INPUT****

CARTESIAN COORDINATES (ANGSTROEM)
---------------------------------
  C    -16.378190   -3.683870   -1.527360
  C    -17.568230   -4.190450   -1.085070
  F    -18.724390   -3.638020   -1.482150
  C    -17.596680   -5.294020   -0.210690
  F    -18.778650   -5.771410    0.207220
  C    -16.433830   -5.875040    0.211330
  C    -15.192500   -5.375680   -0.226140
  C    -15.161800   -4.261200   -1.113200
  C    -13.926650   -3.748940   -1.572500
  C    -12.760490   -4.342890   -1.171140
  C    -12.799970   -5.459180   -0.285000
  C    -13.978050   -5.965130    0.185880
  C    -11.434010   -5.931330   -0.056500
  O    -11.073770   -6.863130    0.666950
  C    -10.562530   -5.045280   -0.827870
  C    -11.367280   -4.053610   -1.496480
  C    -10.930470   -3.062890   -2.343090
  C    -11.781600   -2.216360   -3.079200
  N    -12.411270   -1.511010   -3.731860
  C     -9.582890   -2.783520   -2.630430
  N     -8.506060   -2.494720   -2.912840
  C     -9.215010   -5.282390   -0.963770
  N     -8.681750   -6.385930   -0.418350
  C     -7.440430   -6.922440   -0.544570
  S     -7.095130   -8.286410    0.480140
  C     -5.490530   -8.361150   -0.168220
  N     -4.644540   -9.368990    0.295710
  O     -3.510010   -9.410720   -0.148750
  O     -5.110430  -10.139770    1.121900
  C     -5.246400   -7.393350   -1.107460
  C     -6.353080   -6.559070   -1.350640
  C     -6.333320   -5.472350   -2.303990
  C     -5.229340   -4.772900   -2.618370
  C     -5.295660   -3.594220   -3.433170
  C     -4.273240   -2.807010   -3.797580
  C     -2.824090   -3.092810   -3.568960
  C     -4.574120   -1.493350   -4.494620
  N     -4.930400   -1.646280   -5.886260
  C     -6.190870   -1.812620   -6.310600
  C     -6.579650   -1.789590   -7.617560
  C     -7.915820   -1.919160   -8.042240
  C     -8.957290   -2.513560   -7.372250
  C    -10.322010   -2.460200   -7.739130
  C    -11.152850   -3.189670   -6.943360
  C    -10.485460   -3.904510   -5.925740
  S     -8.776830   -3.559680   -5.963620
  C    -11.045740   -4.797920   -5.029020
  C    -12.413530   -5.044050   -4.803320
  C    -12.669180   -6.019120   -3.883870
  C    -11.512150   -6.619630   -3.337510
  S    -10.074720   -5.863070   -4.025320
  C    -11.368160   -7.614750   -2.405630
  C    -12.363830   -8.367240   -1.753450
  S    -14.079520   -8.228090   -2.010240
  C    -14.399550   -9.400870   -0.804430
  C    -13.262150   -9.923050   -0.248610
  C    -12.083980   -9.337670   -0.790600
  O    -10.781130   -9.662360   -0.565410
  C    -10.377150   -9.985910    0.751350
  C    -11.031640  -11.242830    1.316800
  C    -12.478460  -10.994090    1.734720
  O    -13.385730  -10.938720    0.654040
  H    -16.374890   -2.838940   -2.198200
  H    -16.471470   -6.721060    0.879380
  H    -13.934720   -2.902980   -2.240800
  H    -13.985030   -6.809310    0.858470
  H     -8.571010   -4.606310   -1.500830
  H     -9.367470   -6.912480    0.152760
  H     -4.306670   -7.322140   -1.623530
  H     -7.263770   -5.212180   -2.786220
  H     -4.283810   -5.029320   -2.163340
  H     -6.299210   -3.289420   -3.698730
  H     -2.660240   -4.092310   -3.180950
  H     -2.405480   -2.372330   -2.865000
  H     -2.273820   -2.995240   -4.504860
  H     -3.703180   -0.835720   -4.434050
  H     -5.413040   -1.007920   -3.988790
  H     -4.186540   -1.679160   -6.566830
  H     -6.931720   -1.880530   -5.527680
  H     -5.839760   -1.570970   -8.376540
  H     -8.157530   -1.509760   -9.015530
  H    -10.650410   -1.871610   -8.577790
  H    -12.215930   -3.262070   -7.082030
  H    -13.177210   -4.480260   -5.307920
  H    -13.657010   -6.323300   -3.590960
  H    -10.360520   -7.911920   -2.145320
  H    -15.405280   -9.700160   -0.592620
  H     -9.297990  -10.135710    0.666030
  H    -10.571830   -9.130420    1.412710
  H    -10.464020  -11.564460    2.190140
  H    -11.002170  -12.038160    0.569080
  H    -12.846080  -11.825070    2.341720
  H    -12.538450  -10.068170    2.326100

 Total Charge           Charge          ....    0
 Multiplicity           Mult            ....    1
 Number of Electrons    NEL             ....  464
 Basis Dimension        Dim             .... 1039

ORBITAL ENERGIES
----------------

  NO   OCC          E(Eh)            E(eV)
   0   2.0000     -88.985086     -2421.4073
   1   2.0000     -88.945926     -2420.3417
   2   2.0000     -88.937331     -2420.1078
   3   2.0000     -88.936786     -2420.0930
   4   2.0000     -24.792179      -674.6295
   5   2.0000     -24.791586      -674.6134
   6   2.0000     -19.237407      -523.4765
   7   2.0000     -19.236341      -523.4474
   8   2.0000     -19.235955      -523.4370
   9   2.0000     -19.233039      -523.3576
  10   2.0000     -19.217068      -522.9230
  11   2.0000     -14.647801      -398.5869
  12   2.0000     -14.488684      -394.2571
  13   2.0000     -14.445455      -393.0808
  14   2.0000     -14.418151      -392.3378
  15   2.0000     -14.407813      -392.0565
  16   2.0000     -10.374351      -282.3005
  17   2.0000     -10.373922      -282.2888
  18   2.0000     -10.369719      -282.1744
  19   2.0000     -10.365703      -282.0651
  20   2.0000     -10.356995      -281.8282
  21   2.0000     -10.343042      -281.4485
  22   2.0000     -10.335859      -281.2530
  23   2.0000     -10.332287      -281.1558
  24   2.0000     -10.322052      -280.8773
  25   2.0000     -10.321797      -280.8704
  26   2.0000     -10.320803      -280.8433
  27   2.0000     -10.319727      -280.8140
  28   2.0000     -10.319237      -280.8007
  29   2.0000     -10.315788      -280.7069
  30   2.0000     -10.315199      -280.6908
  31   2.0000     -10.312254      -280.6107
  32   2.0000     -10.308253      -280.5018
  33   2.0000     -10.305059      -280.4149
  34   2.0000     -10.302797      -280.3534
  35   2.0000     -10.302093      -280.3342
  36   2.0000     -10.300917      -280.3022
  37   2.0000     -10.299085      -280.2523
  38   2.0000     -10.296523      -280.1826
  39   2.0000     -10.294159      -280.1183
  40   2.0000     -10.293990      -280.1137
  41   2.0000     -10.293864      -280.1103
  42   2.0000     -10.292928      -280.0848
  43   2.0000     -10.291776      -280.0535
  44   2.0000     -10.288444      -279.9628
  45   2.0000     -10.286392      -279.9070
  46   2.0000     -10.285567      -279.8845
  47   2.0000     -10.284124      -279.8453
  48   2.0000     -10.283499      -279.8282
  49   2.0000     -10.282828      -279.8100
  50   2.0000     -10.280856      -279.7563
  51   2.0000     -10.280220      -279.7390
  52   2.0000     -10.277299      -279.6595
  53   2.0000     -10.276925      -279.6493
  54   2.0000     -10.274766      -279.5906
  55   2.0000     -10.273972      -279.5690
  56   2.0000     -10.269756      -279.4543
  57   2.0000     -10.268175      -279.4112
  58   2.0000     -10.267850      -279.4024
  59   2.0000     -10.267639      -279.3967
  60   2.0000     -10.264584      -279.3135
  61   2.0000     -10.258016      -279.1348
  62   2.0000      -8.080504      -219.8817
  63   2.0000      -8.040160      -218.7839
  64   2.0000      -8.032874      -218.5856
  65   2.0000      -8.031540      -218.5493
  66   2.0000      -6.050174      -164.6336
  67   2.0000      -6.045804      -164.5147
  68   2.0000      -6.041918      -164.4089
  69   2.0000      -6.009516      -163.5273
  70   2.0000      -6.005610      -163.4210
  71   2.0000      -6.002588      -163.3387
  72   2.0000      -6.002180      -163.3276
  73   2.0000      -6.001357      -163.3052
  74   2.0000      -5.998513      -163.2278
  75   2.0000      -5.997427      -163.1983
  76   2.0000      -5.993976      -163.1044
  77   2.0000      -5.992567      -163.0660
  78   2.0000      -1.315669       -35.8012
  79   2.0000      -1.314145       -35.7597
  80   2.0000      -1.299398       -35.3584
  81   2.0000      -1.148795       -31.2603
  82   2.0000      -1.134750       -30.8781
  83   2.0000      -1.131463       -30.7887
  84   2.0000      -1.128605       -30.7109
  85   2.0000      -1.092997       -29.7419
  86   2.0000      -1.044245       -28.4153
  87   2.0000      -1.015935       -27.6450
  88   2.0000      -1.006114       -27.3778
  89   2.0000      -0.999454       -27.1965
  90   2.0000      -0.990212       -26.9450
  91   2.0000      -0.983373       -26.7589
  92   2.0000      -0.974458       -26.5164
  93   2.0000      -0.968743       -26.3608
  94   2.0000      -0.958158       -26.0728
  95   2.0000      -0.926019       -25.1983
  96   2.0000      -0.923840       -25.1390
  97   2.0000      -0.908641       -24.7254
  98   2.0000      -0.901088       -24.5198
  99   2.0000      -0.890668       -24.2363
 100   2.0000      -0.886732       -24.1292
 101   2.0000      -0.882974       -24.0269
 102   2.0000      -0.876537       -23.8518
 103   2.0000      -0.870097       -23.6765
 104   2.0000      -0.854776       -23.2596
 105   2.0000      -0.845298       -23.0017
 106   2.0000      -0.839139       -22.8341
 107   2.0000      -0.833414       -22.6783
 108   2.0000      -0.828304       -22.5393
 109   2.0000      -0.816839       -22.2273
 110   2.0000      -0.810513       -22.0552
 111   2.0000      -0.802479       -21.8366
 112   2.0000      -0.801347       -21.8058
 113   2.0000      -0.788768       -21.4635
 114   2.0000      -0.786141       -21.3920
 115   2.0000      -0.769492       -20.9389
 116   2.0000      -0.762429       -20.7468
 117   2.0000      -0.757187       -20.6041
 118   2.0000      -0.739858       -20.1326
 119   2.0000      -0.736384       -20.0380
 120   2.0000      -0.720778       -19.6134
 121   2.0000      -0.714021       -19.4295
 122   2.0000      -0.709045       -19.2941
 123   2.0000      -0.694227       -18.8909
 124   2.0000      -0.693168       -18.8621
 125   2.0000      -0.691931       -18.8284
 126   2.0000      -0.680030       -18.5046
 127   2.0000      -0.671080       -18.2610
 128   2.0000      -0.665400       -18.1065
 129   2.0000      -0.660432       -17.9713
 130   2.0000      -0.656624       -17.8676
 131   2.0000      -0.650198       -17.6928
 132   2.0000      -0.642947       -17.4955
 133   2.0000      -0.635640       -17.2966
 134   2.0000      -0.632043       -17.1988
 135   2.0000      -0.630227       -17.1493
 136   2.0000      -0.628386       -17.0992
 137   2.0000      -0.622124       -16.9289
 138   2.0000      -0.620205       -16.8766
 139   2.0000      -0.616279       -16.7698
 140   2.0000      -0.613490       -16.6939
 141   2.0000      -0.609062       -16.5734
 142   2.0000      -0.606133       -16.4937
 143   2.0000      -0.600399       -16.3377
 144   2.0000      -0.587298       -15.9812
 145   2.0000      -0.585582       -15.9345
 146   2.0000      -0.582980       -15.8637
 147   2.0000      -0.579049       -15.7567
 148   2.0000      -0.578950       -15.7540
 149   2.0000      -0.573602       -15.6085
 150   2.0000      -0.567133       -15.4325
 151   2.0000      -0.565203       -15.3800
 152   2.0000      -0.560568       -15.2538
 153   2.0000      -0.556647       -15.1471
 154   2.0000      -0.553470       -15.0607
 155   2.0000      -0.549016       -14.9395
 156   2.0000      -0.547056       -14.8861
 157   2.0000      -0.545208       -14.8359
 158   2.0000      -0.541386       -14.7319
 159   2.0000      -0.540862       -14.7176
 160   2.0000      -0.537094       -14.6151
 161   2.0000      -0.529731       -14.4147
 162   2.0000      -0.527205       -14.3460
 163   2.0000      -0.526668       -14.3314
 164   2.0000      -0.525733       -14.3059
 165   2.0000      -0.522914       -14.2292
 166   2.0000      -0.516604       -14.0575
 167   2.0000      -0.514304       -13.9949
 168   2.0000      -0.511867       -13.9286
 169   2.0000      -0.511205       -13.9106
 170   2.0000      -0.508872       -13.8471
 171   2.0000      -0.504095       -13.7171
 172   2.0000      -0.499720       -13.5981
 173   2.0000      -0.497021       -13.5246
 174   2.0000      -0.495218       -13.4756
 175   2.0000      -0.492803       -13.4099
 176   2.0000      -0.490351       -13.3431
 177   2.0000      -0.485833       -13.2202
 178   2.0000      -0.482425       -13.1275
 179   2.0000      -0.479182       -13.0392
 180   2.0000      -0.478398       -13.0179
 181   2.0000      -0.474640       -12.9156
 182   2.0000      -0.472429       -12.8555
 183   2.0000      -0.468119       -12.7382
 184   2.0000      -0.464111       -12.6291
 185   2.0000      -0.462758       -12.5923
 186   2.0000      -0.461398       -12.5553
 187   2.0000      -0.460646       -12.5348
 188   2.0000      -0.457535       -12.4502
 189   2.0000      -0.456188       -12.4135
 190   2.0000      -0.455879       -12.4051
 191   2.0000      -0.450259       -12.2522
 192   2.0000      -0.446152       -12.1404
 193   2.0000      -0.443728       -12.0745
 194   2.0000      -0.441069       -12.0021
 195   2.0000      -0.440412       -11.9842
 196   2.0000      -0.438337       -11.9278
 197   2.0000      -0.432983       -11.7821
 198   2.0000      -0.429835       -11.6964
 199   2.0000      -0.424290       -11.5455
 200   2.0000      -0.421218       -11.4619
 201   2.0000      -0.418302       -11.3826
 202   2.0000      -0.414761       -11.2862
 203   2.0000      -0.412167       -11.2156
 204   2.0000      -0.408872       -11.1260
 205   2.0000      -0.407479       -11.0881
 206   2.0000      -0.405880       -11.0446
 207   2.0000      -0.405692       -11.0394
 208   2.0000      -0.403313       -10.9747
 209   2.0000      -0.392451       -10.6791
 210   2.0000      -0.388750       -10.5784
 211   2.0000      -0.384230       -10.4554
 212   2.0000      -0.379849       -10.3362
 213   2.0000      -0.379116       -10.3163
 214   2.0000      -0.376465       -10.2441
 215   2.0000      -0.372255       -10.1296
 216   2.0000      -0.364449        -9.9172
 217   2.0000      -0.359116        -9.7720
 218   2.0000      -0.351546        -9.5660
 219   2.0000      -0.344055        -9.3622
 220   2.0000      -0.342073        -9.3083
 221   2.0000      -0.339346        -9.2341
 222   2.0000      -0.323788        -8.8107
 223   2.0000      -0.318178        -8.6581
 224   2.0000      -0.308894        -8.4054
 225   2.0000      -0.299187        -8.1413
 226   2.0000      -0.295328        -8.0363
 227   2.0000      -0.286421        -7.7939
 228   2.0000      -0.274578        -7.4717
 229   2.0000      -0.265219        -7.2170
 230   2.0000      -0.248119        -6.7517
 231   2.0000      -0.191267        -5.2046
 232   0.0000      -0.083049        -2.2599
 233   0.0000      -0.069266        -1.8848
 234   0.0000      -0.050906        -1.3852
 235   0.0000      -0.043051        -1.1715
 236   0.0000      -0.021710        -0.5908

MULLIKEN ATOMIC CHARGES
-----------------------
   0 C :   -0.115824
   1 C :    0.240965
   2 F :   -0.175240
   3 C :    0.237403
   4 F :   -0.175408
   5 C :   -0.113063
   6 C :    0.114333
   7 C :    0.123675
   8 C :   -0.106674
   9 C :    0.066857
  10 C :    0.010535
  11 C :   -0.067328
  12 C :    0.197616
  13 O :   -0.241382
  14 C :   -0.125517
  15 C :    0.346934
  16 C :   -0.345358
  17 C :   -0.199955
  18 N :    0.153025
  19 C :   -0.201416
  20 N :    0.149631
  21 C :    0.019084
  22 N :    0.008885
  23 C :   -0.108945
  24 S :    0.177762
  25 C :   -0.001531
  26 N :    0.279595
  27 O :   -0.251026
  28 O :   -0.269657
  29 C :   -0.007742
  30 C :    0.112208
  31 C :   -0.040605
  32 C :    0.007327
  33 C :    0.017860
  34 C :   -0.189400
  35 C :    0.100548
  36 C :    0.187848
  37 N :   -0.140027
  38 C :    0.054964
  39 C :   -0.046358
  40 C :    0.021003
  41 C :   -0.062370
  42 C :    0.048999
  43 C :    0.024568
  44 C :   -0.029266
  45 S :    0.071223
  46 C :   -0.079860
  47 C :    0.011825
  48 C :    0.049035
  49 C :   -0.106420
  50 S :    0.040010
  51 C :    0.054912
  52 C :   -0.187023
  53 S :    0.087573
  54 C :   -0.152962
  55 C :    0.184325
  56 C :    0.170887
  57 O :   -0.322127
  58 C :    0.186275
  59 C :   -0.033896
  60 C :    0.212959
  61 O :   -0.310087
  62 H :    0.002812
  63 H :   -0.004467
  64 H :   -0.014127
  65 H :   -0.015526
  66 H :    0.027931
  67 H :    0.174300
  68 H :    0.011221
  69 H :    0.008724
  70 H :   -0.012868
  71 H :   -0.008605
  72 H :    0.012445
  73 H :    0.030004
  74 H :    0.014227
  75 H :    0.004208
  76 H :    0.039062
  77 H :    0.119668
  78 H :    0.045619
  79 H :   -0.026542
  80 H :   -0.006917
  81 H :   -0.015378
  82 H :   -0.016918
  83 H :   -0.014989
  84 H :   -0.012020
  85 H :   -0.021617
  86 H :    0.010018
  87 H :    0.019544
  88 H :    0.015477
  89 H :    0.020165
  90 H :    0.030854
  91 H :    0.018125
  92 H :    0.001388
Sum of atomic charges:   -0.0000000

LOEWDIN ATOMIC CHARGES
----------------------
   0 C :   -0.032208
   1 C :    0.064151
   2 F :   -0.053006
   3 C :    0.064442
   4 F :   -0.053151
   5 C :   -0.034026
   6 C :   -0.012959
   7 C :   -0.009149
   8 C :    0.012828
   9 C :   -0.012341
  10 C :   -0.052142
  11 C :    0.028387
  12 C :    0.094999
  13 O :   -0.189627
  14 C :   -0.139107
  15 C :    0.083267
  16 C :   -0.153909
  17 C :   -0.014989
  18 N :   -0.069052
  19 C :   -0.007674
  20 N :   -0.078604
  21 C :    0.105494
  22 N :    0.074633
  23 C :   -0.105831
  24 S :    0.473311
  25 C :   -0.208201
  26 N :    0.275358
  27 O :   -0.217638
  28 O :   -0.234583
  29 C :    0.004230
  30 C :   -0.086424
  31 C :   -0.035321
  32 C :   -0.008747
  33 C :   -0.037934
  34 C :   -0.042690
  35 C :   -0.049625
  36 C :    0.045891
  37 N :    0.019920
  38 C :    0.060190
  39 C :   -0.137637
  40 C :   -0.013394
  41 C :   -0.183676
  42 C :   -0.014919
  43 C :   -0.052341
  44 C :   -0.157923
  45 S :    0.390373
  46 C :   -0.214167
  47 C :   -0.021078
  48 C :   -0.070973
  49 C :   -0.151896
  50 S :    0.366327
  51 C :   -0.090877
  52 C :   -0.199643
  53 S :    0.448532
  54 C :   -0.229518
  55 C :   -0.014934
  56 C :   -0.011210
  57 O :   -0.104278
  58 C :    0.072701
  59 C :   -0.066685
  60 C :    0.081023
  61 O :   -0.112283
  62 H :    0.045677
  63 H :    0.043406
  64 H :    0.037419
  65 H :    0.037350
  66 H :    0.036298
  67 H :    0.080801
  68 H :    0.045073
  69 H :    0.026706
  70 H :    0.022865
  71 H :    0.026572
  72 H :    0.028227
  73 H :    0.036546
  74 H :    0.031360
  75 H :    0.026246
  76 H :    0.041170
  77 H :    0.080008
  78 H :    0.025470
  79 H :    0.021886
  80 H :    0.035193
  81 H :    0.032811
  82 H :    0.030878
  83 H :    0.032128
  84 H :    0.016055
  85 H :    0.026979
  86 H :    0.022776
  87 H :    0.013525
  88 H :    0.009266
  89 H :    0.038270
  90 H :    0.033963
  91 H :    0.025355
  92 H :    0.010036

  Mayer bond orders larger than 0.100000
B(  0-C ,  1-C ) :   1.4338 B(  0-C ,  5-C ) :   0.1094 B(  0-C ,  7-C ) :   1.1893
B(  0-C , 62-H ) :   1.0081 B(  1-C ,  2-F ) :   1.1311 B(  1-C ,  3-C ) :   1.1949
B(  3-C ,  4-F ) :   1.1302 B(  3-C ,  5-C ) :   1.4331 B(  5-C ,  6-C ) :   1.1922
B(  5-C , 63-H ) :   1.0098 B(  6-C ,  7-C ) :   1.2634 B(  6-C , 11-C ) :   1.1768
B(  7-C ,  8-C ) :   1.1991 B(  8-C ,  9-C ) :   1.4513 B(  8-C , 64-H ) :   0.9926
B(  9-C , 10-C ) :   1.2250 B(  9-C , 15-C ) :   0.9891 B( 10-C , 11-C ) :   1.4584
B( 10-C , 12-C ) :   0.9863 B( 11-C , 65-H ) :   1.0192 B( 12-C , 13-O ) :   1.9622
B( 12-C , 14-C ) :   1.0085 B( 13-O , 67-H ) :   0.1499 B( 14-C , 15-C ) :   1.1127
B( 14-C , 21-C ) :   1.4383 B( 15-C , 16-C ) :   1.6137 B( 16-C , 17-C ) :   1.1562
B( 16-C , 19-C ) :   1.1644 B( 17-C , 18-N ) :   2.9481 B( 19-C , 20-N ) :   2.9124
B( 21-C , 22-N ) :   1.3316 B( 21-C , 66-H ) :   0.9278 B( 22-N , 23-C ) :   1.1731
B( 22-N , 67-H ) :   0.8185 B( 23-C , 24-S ) :   1.1417 B( 23-C , 30-C ) :   1.3950
B( 24-S , 25-C ) :   1.0923 B( 25-C , 26-N ) :   0.9733 B( 25-C , 29-C ) :   1.4710
B( 26-N , 27-O ) :   1.5326 B( 26-N , 28-O ) :   1.5051 B( 27-O , 28-O ) :   0.2587
B( 29-C , 30-C ) :   1.2422 B( 29-C , 68-H ) :   1.0018 B( 30-C , 31-C ) :   1.0196
B( 31-C , 32-C ) :   1.7612 B( 31-C , 69-H ) :   0.9576 B( 32-C , 33-C ) :   1.1021
B( 32-C , 70-H ) :   0.9732 B( 33-C , 34-C ) :   1.7928 B( 33-C , 71-H ) :   0.9642
B( 34-C , 35-C ) :   1.0871 B( 34-C , 36-C ) :   1.0126 B( 35-C , 72-H ) :   0.9551
B( 35-C , 73-H ) :   0.9458 B( 35-C , 74-H ) :   0.9473 B( 36-C , 37-N ) :   1.0123
B( 36-C , 75-H ) :   0.9427 B( 36-C , 76-H ) :   0.9395 B( 37-N , 38-C ) :   1.2772
B( 37-N , 77-H ) :   0.9425 B( 38-C , 39-C ) :   1.5444 B( 38-C , 78-H ) :   0.9513
B( 39-C , 40-C ) :   1.2221 B( 39-C , 79-H ) :   0.9583 B( 40-C , 41-C ) :   1.5654
B( 40-C , 80-H ) :   0.9604 B( 41-C , 42-C ) :   1.1684 B( 41-C , 45-S ) :   1.0068
B( 42-C , 43-C ) :   1.5659 B( 42-C , 81-H ) :   0.9959 B( 43-C , 44-C ) :   1.2096
B( 43-C , 82-H ) :   0.9931 B( 44-C , 45-S ) :   1.0837 B( 44-C , 46-C ) :   1.4525
B( 46-C , 47-C ) :   1.2174 B( 46-C , 50-S ) :   1.0123 B( 47-C , 48-C ) :   1.5669
B( 47-C , 83-H ) :   0.9949 B( 48-C , 49-C ) :   1.1642 B( 48-C , 84-H ) :   0.9758
B( 49-C , 50-S ) :   1.0363 B( 49-C , 51-C ) :   1.5264 B( 51-C , 52-C ) :   1.2106
B( 51-C , 85-H ) :   0.9411 B( 52-C , 53-S ) :   1.1159 B( 52-C , 54-C ) :   0.1050
B( 52-C , 56-C ) :   1.4450 B( 53-S , 54-C ) :   1.1274 B( 54-C , 55-C ) :   1.5261
B( 54-C , 86-H ) :   0.9693 B( 55-C , 56-C ) :   1.1737 B( 55-C , 61-O ) :   1.1238
B( 56-C , 57-O ) :   1.1418 B( 57-O , 58-C ) :   0.9509 B( 58-C , 59-C ) :   1.0737
B( 58-C , 87-H ) :   0.9485 B( 58-C , 88-H ) :   0.9364 B( 59-C , 60-C ) :   1.0676
B( 59-C , 89-H ) :   0.9304 B( 59-C , 90-H ) :   0.9316 B( 60-C , 61-O ) :   0.9688
B( 60-C , 91-H ) :   0.9549 B( 60-C , 92-H ) :   0.9428

-----------------------------------------------------------------------------
         ABSORPTION SPECTRUM VIA TRANSITION ELECTRIC DIPOLE MOMENTS
-----------------------------------------------------------------------------
State   Energy  Wavelength   fosc         T2         TX        TY        TZ
        (cm-1)    (nm)                  (au**2)     (au)      (au)      (au)
-----------------------------------------------------------------------------
   0    6465.5   1546.7   0.006360920   0.32389   0.54274   0.15912  -0.06328
   1   10978.1    910.9   0.285193450   8.55244  -1.27732  -1.22109   2.33020
   2   16252.7    615.3   0.698532410  14.14933  -2.19534  -2.61172   1.58389
   3   17942.2    557.3   0.058727026   1.07755  -0.22168  -0.99197   0.21073
   4   19218.4    520.3   0.157003614   2.68948  -1.63113   0.15484  -0.07019
   5   21325.1    468.9   0.032088267   0.49537  -0.16167   0.49426  -0.47427
   6   22598.0    442.5   0.546976581   7.96845   2.77202  -0.50598  -0.16841
   7   22906.1    436.6   0.172686953   2.48189  -1.18659   1.02741   0.13537
   8   24795.6    403.3   0.071514792   0.94950   0.90322  -0.35159   0.10042
   9   25571.1    391.1   0.015702958   0.20217   0.39118  -0.13933  -0.17242
  10   25956.4    385.3   0.058619782   0.74349  -0.38739  -0.45460   0.62189
  11   26370.9    379.2   0.010386231   0.12966   0.13931  -0.23604   0.23353
  12   27213.3    367.5   0.036029452   0.43586   0.17188   0.57855  -0.26758
  13   27803.3    359.7   0.027886351   0.33020  -0.33397   0.46507   0.04866
  14   27959.0    357.7   0.089891931   1.05846   0.77815  -0.29256   0.60609
  15   28947.2    345.5   0.088916596   1.01123   0.62868  -0.68775   0.37814
  16   29469.7    339.3   0.224103094   2.50350   0.89932   0.65499  -1.12504
  17   29913.1    334.3   0.121259847   1.33454   0.22075  -0.90778   0.67951
  18   30478.9    328.1   0.103467832   1.11759   0.97519  -0.37680   0.15687
  19   30585.0    327.0   0.107496850   1.15708   1.02165   0.30141   0.14988
  20   30829.5    324.4   0.052015346   0.55545   0.22313  -0.61462   0.35763
  21   31436.4    318.1   0.148829992   1.55859   0.16325   0.63935  -1.05980
  22   31821.3    314.3   0.021007363   0.21733   0.25091  -0.39176  -0.02995
  23   32139.8    311.1   0.191828984   1.96493  -0.76488   0.71511  -0.93194
  24   32244.7    310.1   0.252576054   2.57875  -0.59159  -1.27035   0.78420
  25   32560.2    307.1   0.001177074   0.01190   0.09120   0.03279   0.05008
  26   33297.6    300.3   0.013934783   0.13777  -0.07795  -0.28565   0.22383
  27   33577.0    297.8   0.010391500   0.10189   0.16288   0.27037  -0.04747
  28   33694.3    296.8   0.279650480   2.73234  -1.62666  -0.21074   0.20468
  29   33958.8    294.5   0.010707793   0.10381   0.10318   0.16555  -0.25642
  30   34462.6    290.2   0.032986216   0.31511  -0.07488   0.01530   0.55612
  31   34739.4    287.9   0.489960386   4.64317   2.07398   0.31760  -0.49081
  32   34992.8    285.8   0.039121732   0.36806  -0.00230  -0.54491   0.26669
  33   35220.8    283.9   0.022974448   0.21474   0.27554   0.34777  -0.13370
  34   35397.5    282.5   0.017861370   0.16612  -0.30216  -0.14700   0.23068
  35   35634.4    280.6   0.029075191   0.26861  -0.19707  -0.41837   0.23397
  36   35879.0    278.7   0.004498232   0.04127   0.10464   0.16414   0.05814
  37   35990.2    277.9   0.030643549   0.28030  -0.17538  -0.48600   0.11555
  38   36319.7    275.3   0.002366663   0.02145   0.04085  -0.06086   0.12681
  39   36462.2    274.3   0.006897267   0.06227  -0.00285   0.12408  -0.21650
  40   37073.7    269.7   0.090978590   0.80788  -0.39263  -0.62009   0.51886
  41   37190.0    268.9   0.078915488   0.69857   0.79625   0.04394   0.25024
  42   37398.2    267.4   0.022496044   0.19803  -0.34850   0.27248  -0.04833
  43   37573.3    266.1   0.150243191   1.31641   0.32580  -0.84122   0.70895
  44   38031.2    262.9   0.094081380   0.81440  -0.53235   0.46579  -0.56040
  45   38900.2    257.1   0.009356752   0.07919   0.23787  -0.07718   0.12902
  46   39607.6    252.5   0.009219501   0.07663  -0.00509  -0.14429  -0.23619
  47   39719.6    251.8   0.048399606   0.40116   0.33565   0.38452  -0.37502
  48   40226.8    248.6   0.048381293   0.39595  -0.47867  -0.38588  -0.13384

FINAL SINGLE POINT ENERGY     -4209.927137203231

DIPOLE MOMENT
-------------
                                X             Y             Z
Electronic contribution:    -50.29965      -5.49993      14.53739
Nuclear contribution   :     51.50099       7.23224     -15.00409
                        -----------------------------------------
Total Dipole Moment    :      1.20134       1.73231      -0.46669
                        -----------------------------------------
Magnitude (a.u.)       :      2.15915
Magnitude (Debye)      :      5.48812

Rotational constants in cm-1:     0.001480     0.001014     0.000676
Rotational constants in MHz :    44.377081    30.405882    20.256577

                             ****ORCA TERMINATED NORMALLY****
TOTAL RUN TIME: 0 days 0 hours 10 minutes 0 seconds 974 msec
