                         Program Version 4.2.0 -  RELEASE  -
|  1> # ORCA input file
|  2> # SCF done       -221.475778427357          0.000366221535
|  3> ! CAM-B3LYP def2-SVP def2/J RIJCOSX Grid4 TightSCF
|  4> %maxcore 5000
|  5> %tddft
|  6>     Mode sTDDFT
|  7>     Ethresh 5.0
|  8>     maxcore 5000
|  9> end
| 10>
| 11> %pal
| 12>   nprocs 6
| 13>   end
| 14> * xyz 0 1
| 15>    C      -13.77579        -0.17305         6.86936
| 16>    C      -14.34780         1.05468         6.68137
| 17>    F      -15.11929         1.59066         7.63422
| 18>    C      -14.13353         1.76981         5.48620
| 19>    F      -14.70522         2.97011         5.32707
| 20>    C      -13.34965         1.24735         4.49542
| 21>    C      -12.74657        -0.01430         4.65999
| 22>    C      -12.96284        -0.73868         5.86770
| 23>    C      -12.36739        -2.00837         6.05535
| 24>    C      -11.58019        -2.53568         5.06781
| 25>    C      -11.36785        -1.80330         3.86327
| 26>    C      -11.93052        -0.57693         3.65358
| 27>    C      -10.49132        -2.58441         2.98440
| 28>    O      -10.08736        -2.27390         1.86389
| 29>    C      -10.18068        -3.81934         3.70462
| 30>    C      -10.84859        -3.79976         4.98480
| 31>    C      -10.81562        -4.77109         5.95086
| 32>    C      -11.49413        -4.68514         7.18379
| 33>    N      -12.02449        -4.66818         8.20151
| 34>    C      -10.09794        -5.97856         5.82975
| 35>    N       -9.52660        -6.97213         5.76637
| 36>    C       -9.36093        -4.78185         3.15909
| 37>    N       -8.83661        -4.59077         1.94542
| 38>    C       -8.00214        -5.40778         1.25814
| 39>    S       -7.46765        -6.92687         1.90531
| 40>    C       -6.53298        -7.17676         0.46724
| 41>    N       -5.78756        -8.36315         0.36844
| 42>    O       -5.13224        -8.53228        -0.64095
| 43>    O       -5.85858        -9.13253         1.30836
| 44>    C       -6.62822        -6.16085        -0.44268
| 45>    C       -7.47692        -5.11937        -0.01204
| 46>    C       -7.78870        -3.92030        -0.73475
| 47>    C       -7.24358        -3.58716        -1.92749
| 48>    C       -7.50165        -2.42311        -2.69983
| 49>    S       -6.83962        -2.39849        -4.30804
| 50>    C       -7.50780        -0.82129        -4.63247
| 51>    C       -8.22581        -0.36111        -3.52534
| 52>    C       -8.20123        -1.24581        -2.43827
| 53>    C       -8.83620        -0.90843        -1.12552
| 54>    C       -9.19571         0.57196        -1.04118
| 55>    C       -9.94494         1.00160        -2.30860
| 56>    N      -10.51445         2.33520        -2.26406
| 57>    C       -8.98108         0.92751        -3.49529
| 58>    C       -7.22333        -0.25860        -5.89275
| 59>    C       -7.48211         1.00947        -6.33769
| 60>    C       -7.11331         1.44360        -7.61618
| 61>    C       -7.32646         2.71629        -8.09371
| 62>    C       -6.95605         3.22231        -9.36057
| 63>    C       -7.28420         4.53070        -9.55745
| 64>    C       -7.93632         5.12738        -8.45591
| 65>    S       -8.12206         3.97584        -7.16103
| 66>    C       -8.39025         6.43332        -8.35471
| 67>    C       -8.24349         7.46869        -9.30039
| 68>    C       -8.80970         8.64966        -8.91885
| 69>    C       -9.44819         8.60176        -7.66024
| 70>    S       -9.24484         7.02117        -6.94918
| 71>    C      -10.08033         9.61468        -6.95810
| 72>    C      -10.48576        10.84847        -7.45846
| 73>    C      -10.82191        11.16854        -8.76611
| 74>    C      -11.04955        12.50000        -9.26181
| 75>    C      -10.67013        13.67447        -8.65585
| 76>    C      -10.92001        14.95647        -9.18349
| 77>    N      -11.10442        16.02944        -9.54934
| 78>    C       -9.95520        13.75444        -7.44371
| 79>    N       -9.34607        13.89766        -6.48005
| 80>    C      -11.67653        12.39048       -10.58059
| 81>    C      -11.82250        11.02705       -10.89012
| 82>    C      -11.28568        10.20430        -9.77908
| 83>    O      -11.30427         8.98947        -9.72050
| 84>    C      -12.38866        10.60620       -12.07289
| 85>    C      -12.81224        11.57661       -12.98157
| 86>    C      -12.65734        12.93442       -12.68615
| 87>    C      -12.09104        13.35296       -11.48607
| 88>    C      -13.03541        13.96004       -13.71984
| 89>    O      -12.31379        14.27600       -14.62705
| 90>    O      -14.21383        14.50852       -13.44594
| 91>    C      -14.69072        15.45188       -14.39764
| 92>    C      -13.46727        11.21488       -14.26331
| 93>    O      -14.10444        11.98975       -14.93420
| 94>    O      -13.28668         9.93192       -14.58784
| 95>    C      -13.88808         9.51237       -15.80448
| 96>    H      -13.95028        -0.70718         7.79026
| 97>    H      -13.19649         1.80836         3.58683
| 98>    H      -12.55089        -2.53090         6.98002
| 99>    H      -11.75618        -0.04176         2.73254
|100>    H       -9.11340        -5.70018         3.67501
|101>    H       -9.11846        -3.68881         1.51671
|102>    H       -6.10380        -6.18806        -1.37973
|103>    H       -8.51777        -3.26717        -0.28653
|104>    H       -6.54221        -4.27034        -2.38730
|105>    H       -8.15432        -1.16213        -0.31067
|106>    H       -9.74557        -1.50338        -0.99571
|107>    H       -8.28802         1.17274        -0.93902
|108>    H       -9.81451         0.73999        -0.15707
|109>    H      -10.77629         0.30643        -2.47857
|110>    H       -9.79512         3.02449        -2.07071
|111>    H      -11.21550         2.40387        -1.53551
|112>    H       -8.27731         1.76387        -3.42336
|113>    H       -9.54956         1.05256        -4.41821
|114>    H       -6.70093        -0.92153        -6.57312
|115>    H       -7.96395         1.73418        -5.70128
|116>    H       -6.62117         0.74330        -8.27878
|117>    H       -6.45591         2.60526       -10.08600
|118>    H       -7.08021         5.07600       -10.46075
|119>    H       -7.72013         7.32583       -10.22851
|120>    H       -8.74968         9.55849        -9.48869
|121>    H      -10.23603         9.44328        -5.90059
|122>    H      -10.62547        11.62655        -6.71693
|123>    H      -12.50231         9.55585       -12.28953
|124>    H      -11.98676        14.40699       -11.28552
|125>    H      -15.62206        15.84328       -13.99715
|126>    H      -14.86006        14.95160       -15.35271
|127>    H      -13.96104        16.25201       -14.53696
|128>    H      -13.67489         8.45063       -15.89802
|129>    H      -13.46468        10.06565       -16.64532
|130>    H      -14.96537         9.68893       -15.77544
|131> *
|132>
|133>                          ****END OF INPUT****

CARTESIAN COORDINATES (ANGSTROEM)
---------------------------------
  C    -13.775790   -0.173050    6.869360
  C    -14.347800    1.054680    6.681370
  F    -15.119290    1.590660    7.634220
  C    -14.133530    1.769810    5.486200
  F    -14.705220    2.970110    5.327070
  C    -13.349650    1.247350    4.495420
  C    -12.746570   -0.014300    4.659990
  C    -12.962840   -0.738680    5.867700
  C    -12.367390   -2.008370    6.055350
  C    -11.580190   -2.535680    5.067810
  C    -11.367850   -1.803300    3.863270
  C    -11.930520   -0.576930    3.653580
  C    -10.491320   -2.584410    2.984400
  O    -10.087360   -2.273900    1.863890
  C    -10.180680   -3.819340    3.704620
  C    -10.848590   -3.799760    4.984800
  C    -10.815620   -4.771090    5.950860
  C    -11.494130   -4.685140    7.183790
  N    -12.024490   -4.668180    8.201510
  C    -10.097940   -5.978560    5.829750
  N     -9.526600   -6.972130    5.766370
  C     -9.360930   -4.781850    3.159090
  N     -8.836610   -4.590770    1.945420
  C     -8.002140   -5.407780    1.258140
  S     -7.467650   -6.926870    1.905310
  C     -6.532980   -7.176760    0.467240
  N     -5.787560   -8.363150    0.368440
  O     -5.132240   -8.532280   -0.640950
  O     -5.858580   -9.132530    1.308360
  C     -6.628220   -6.160850   -0.442680
  C     -7.476920   -5.119370   -0.012040
  C     -7.788700   -3.920300   -0.734750
  C     -7.243580   -3.587160   -1.927490
  C     -7.501650   -2.423110   -2.699830
  S     -6.839620   -2.398490   -4.308040
  C     -7.507800   -0.821290   -4.632470
  C     -8.225810   -0.361110   -3.525340
  C     -8.201230   -1.245810   -2.438270
  C     -8.836200   -0.908430   -1.125520
  C     -9.195710    0.571960   -1.041180
  C     -9.944940    1.001600   -2.308600
  N    -10.514450    2.335200   -2.264060
  C     -8.981080    0.927510   -3.495290
  C     -7.223330   -0.258600   -5.892750
  C     -7.482110    1.009470   -6.337690
  C     -7.113310    1.443600   -7.616180
  C     -7.326460    2.716290   -8.093710
  C     -6.956050    3.222310   -9.360570
  C     -7.284200    4.530700   -9.557450
  C     -7.936320    5.127380   -8.455910
  S     -8.122060    3.975840   -7.161030
  C     -8.390250    6.433320   -8.354710
  C     -8.243490    7.468690   -9.300390
  C     -8.809700    8.649660   -8.918850
  C     -9.448190    8.601760   -7.660240
  S     -9.244840    7.021170   -6.949180
  C    -10.080330    9.614680   -6.958100
  C    -10.485760   10.848470   -7.458460
  C    -10.821910   11.168540   -8.766110
  C    -11.049550   12.500000   -9.261810
  C    -10.670130   13.674470   -8.655850
  C    -10.920010   14.956470   -9.183490
  N    -11.104420   16.029440   -9.549340
  C     -9.955200   13.754440   -7.443710
  N     -9.346070   13.897660   -6.480050
  C    -11.676530   12.390480  -10.580590
  C    -11.822500   11.027050  -10.890120
  C    -11.285680   10.204300   -9.779080
  O    -11.304270    8.989470   -9.720500
  C    -12.388660   10.606200  -12.072890
  C    -12.812240   11.576610  -12.981570
  C    -12.657340   12.934420  -12.686150
  C    -12.091040   13.352960  -11.486070
  C    -13.035410   13.960040  -13.719840
  O    -12.313790   14.276000  -14.627050
  O    -14.213830   14.508520  -13.445940
  C    -14.690720   15.451880  -14.397640
  C    -13.467270   11.214880  -14.263310
  O    -14.104440   11.989750  -14.934200
  O    -13.286680    9.931920  -14.587840
  C    -13.888080    9.512370  -15.804480
  H    -13.950280   -0.707180    7.790260
  H    -13.196490    1.808360    3.586830
  H    -12.550890   -2.530900    6.980020
  H    -11.756180   -0.041760    2.732540
  H     -9.113400   -5.700180    3.675010
  H     -9.118460   -3.688810    1.516710
  H     -6.103800   -6.188060   -1.379730
  H     -8.517770   -3.267170   -0.286530
  H     -6.542210   -4.270340   -2.387300
  H     -8.154320   -1.162130   -0.310670
  H     -9.745570   -1.503380   -0.995710
  H     -8.288020    1.172740   -0.939020
  H     -9.814510    0.739990   -0.157070
  H    -10.776290    0.306430   -2.478570
  H     -9.795120    3.024490   -2.070710
  H    -11.215500    2.403870   -1.535510
  H     -8.277310    1.763870   -3.423360
  H     -9.549560    1.052560   -4.418210
  H     -6.700930   -0.921530   -6.573120
  H     -7.963950    1.734180   -5.701280
  H     -6.621170    0.743300   -8.278780
  H     -6.455910    2.605260  -10.086000
  H     -7.080210    5.076000  -10.460750
  H     -7.720130    7.325830  -10.228510
  H     -8.749680    9.558490   -9.488690
  H    -10.236030    9.443280   -5.900590
  H    -10.625470   11.626550   -6.716930
  H    -12.502310    9.555850  -12.289530
  H    -11.986760   14.406990  -11.285520
  H    -15.622060   15.843280  -13.997150
  H    -14.860060   14.951600  -15.352710
  H    -13.961040   16.252010  -14.536960
  H    -13.674890    8.450630  -15.898020
  H    -13.464680   10.065650  -16.645320
  H    -14.965370    9.688930  -15.775440

 Total Charge           Charge          ....    0
 Multiplicity           Mult            ....    1
 Number of Electrons    NEL             ....  590
 Basis Dimension        Dim             .... 1325

ORBITAL ENERGIES
----------------

  NO   OCC          E(Eh)            E(eV)
   0   2.0000     -89.001782     -2421.8616
   1   2.0000     -88.969135     -2420.9732
   2   2.0000     -88.968269     -2420.9497
   3   2.0000     -88.960576     -2420.7403
   4   2.0000     -24.810164      -675.1189
   5   2.0000     -24.808832      -675.0826
   6   2.0000     -19.263837      -524.1956
   7   2.0000     -19.250641      -523.8366
   8   2.0000     -19.249705      -523.8111
   9   2.0000     -19.249424      -523.8035
  10   2.0000     -19.244635      -523.6732
  11   2.0000     -19.206833      -522.6445
  12   2.0000     -19.199459      -522.4438
  13   2.0000     -19.186885      -522.1017
  14   2.0000     -14.661901      -398.9706
  15   2.0000     -14.510797      -394.8588
  16   2.0000     -14.431030      -392.6883
  17   2.0000     -14.426094      -392.5540
  18   2.0000     -14.399128      -391.8202
  19   2.0000     -14.398736      -391.8095
  20   2.0000     -14.394599      -391.6969
  21   2.0000     -10.402371      -283.0629
  22   2.0000     -10.395302      -282.8706
  23   2.0000     -10.394191      -282.8403
  24   2.0000     -10.393459      -282.8204
  25   2.0000     -10.387615      -282.6614
  26   2.0000     -10.384505      -282.5767
  27   2.0000     -10.383240      -282.5423
  28   2.0000     -10.360135      -281.9136
  29   2.0000     -10.358544      -281.8703
  30   2.0000     -10.354428      -281.7583
  31   2.0000     -10.349972      -281.6371
  32   2.0000     -10.340183      -281.3707
  33   2.0000     -10.333134      -281.1789
  34   2.0000     -10.329053      -281.0678
  35   2.0000     -10.328375      -281.0494
  36   2.0000     -10.325788      -280.9790
  37   2.0000     -10.324640      -280.9477
  38   2.0000     -10.324608      -280.9469
  39   2.0000     -10.324093      -280.9329
  40   2.0000     -10.323731      -280.9230
  41   2.0000     -10.323639      -280.9205
  42   2.0000     -10.323536      -280.9177
  43   2.0000     -10.322592      -280.8920
  44   2.0000     -10.321404      -280.8597
  45   2.0000     -10.320744      -280.8417
  46   2.0000     -10.320491      -280.8348
  47   2.0000     -10.319882      -280.8183
  48   2.0000     -10.317359      -280.7496
  49   2.0000     -10.316561      -280.7279
  50   2.0000     -10.314734      -280.6782
  51   2.0000     -10.313792      -280.6525
  52   2.0000     -10.312860      -280.6272
  53   2.0000     -10.311671      -280.5948
  54   2.0000     -10.311057      -280.5781
  55   2.0000     -10.309901      -280.5467
  56   2.0000     -10.309615      -280.5389
  57   2.0000     -10.309405      -280.5332
  58   2.0000     -10.306898      -280.4649
  59   2.0000     -10.306647      -280.4581
  60   2.0000     -10.305626      -280.4303
  61   2.0000     -10.305190      -280.4185
  62   2.0000     -10.302926      -280.3569
  63   2.0000     -10.302367      -280.3417
  64   2.0000     -10.301376      -280.3147
  65   2.0000     -10.299246      -280.2567
  66   2.0000     -10.299086      -280.2524
  67   2.0000     -10.298479      -280.2359
  68   2.0000     -10.298084      -280.2251
  69   2.0000     -10.297381      -280.2060
  70   2.0000     -10.296679      -280.1869
  71   2.0000     -10.296653      -280.1862
  72   2.0000     -10.290568      -280.0206
  73   2.0000     -10.288942      -279.9763
  74   2.0000     -10.288165      -279.9552
  75   2.0000     -10.286723      -279.9160
  76   2.0000     -10.284469      -279.8546
  77   2.0000     -10.281664      -279.7783
  78   2.0000     -10.278506      -279.6924
  79   2.0000     -10.276060      -279.6258
  80   2.0000     -10.274705      -279.5889
  81   2.0000      -8.097000      -220.3306
  82   2.0000      -8.065118      -219.4630
  83   2.0000      -8.064380      -219.4429
  84   2.0000      -8.057110      -219.2451
  85   2.0000      -6.066641      -165.0817
  86   2.0000      -6.062286      -164.9632
  87   2.0000      -6.058466      -164.8592
  88   2.0000      -6.034209      -164.1992
  89   2.0000      -6.034018      -164.1940
  90   2.0000      -6.030370      -164.0947
  91   2.0000      -6.030055      -164.0861
  92   2.0000      -6.027266      -164.0103
  93   2.0000      -6.026669      -163.9940
  94   2.0000      -6.025444      -163.9607
  95   2.0000      -6.022615      -163.8837
  96   2.0000      -6.018348      -163.7676
  97   2.0000      -1.332783       -36.2669
  98   2.0000      -1.332377       -36.2558
  99   2.0000      -1.317891       -35.8616
 100   2.0000      -1.196329       -32.5538
 101   2.0000      -1.177295       -32.0358
 102   2.0000      -1.163088       -31.6492
 103   2.0000      -1.151730       -31.3402
 104   2.0000      -1.117955       -30.4211
 105   2.0000      -1.113816       -30.3085
 106   2.0000      -1.100857       -29.9558
 107   2.0000      -1.082590       -29.4588
 108   2.0000      -1.034600       -28.1529
 109   2.0000      -1.022861       -27.8335
 110   2.0000      -1.018909       -27.7259
 111   2.0000      -1.014478       -27.6053
 112   2.0000      -1.008914       -27.4540
 113   2.0000      -1.007184       -27.4069
 114   2.0000      -1.003279       -27.3006
 115   2.0000      -0.995584       -27.0912
 116   2.0000      -0.990135       -26.9430
 117   2.0000      -0.985172       -26.8079
 118   2.0000      -0.985028       -26.8040
 119   2.0000      -0.977735       -26.6055
 120   2.0000      -0.946709       -25.7613
 121   2.0000      -0.945205       -25.7203
 122   2.0000      -0.940684       -25.5973
 123   2.0000      -0.931669       -25.3520
 124   2.0000      -0.919657       -25.0251
 125   2.0000      -0.911368       -24.7996
 126   2.0000      -0.909188       -24.7403
 127   2.0000      -0.905369       -24.6363
 128   2.0000      -0.901441       -24.5295
 129   2.0000      -0.889255       -24.1979
 130   2.0000      -0.887761       -24.1572
 131   2.0000      -0.874667       -23.8009
 132   2.0000      -0.871384       -23.7116
 133   2.0000      -0.866698       -23.5840
 134   2.0000      -0.860528       -23.4162
 135   2.0000      -0.855364       -23.2756
 136   2.0000      -0.850724       -23.1494
 137   2.0000      -0.848482       -23.0884
 138   2.0000      -0.835794       -22.7431
 139   2.0000      -0.829313       -22.5667
 140   2.0000      -0.827507       -22.5176
 141   2.0000      -0.819804       -22.3080
 142   2.0000      -0.815467       -22.1900
 143   2.0000      -0.803866       -21.8743
 144   2.0000      -0.793121       -21.5819
 145   2.0000      -0.784652       -21.3515
 146   2.0000      -0.780702       -21.2440
 147   2.0000      -0.766127       -20.8474
 148   2.0000      -0.754343       -20.5267
 149   2.0000      -0.753187       -20.4952
 150   2.0000      -0.748162       -20.3585
 151   2.0000      -0.739626       -20.1263
 152   2.0000      -0.731155       -19.8957
 153   2.0000      -0.728052       -19.8113
 154   2.0000      -0.722416       -19.6579
 155   2.0000      -0.712932       -19.3999
 156   2.0000      -0.704933       -19.1822
 157   2.0000      -0.704374       -19.1670
 158   2.0000      -0.699551       -19.0358
 159   2.0000      -0.690238       -18.7823
 160   2.0000      -0.684177       -18.6174
 161   2.0000      -0.674811       -18.3625
 162   2.0000      -0.671272       -18.2662
 163   2.0000      -0.670897       -18.2560
 164   2.0000      -0.665334       -18.1047
 165   2.0000      -0.661899       -18.0112
 166   2.0000      -0.658593       -17.9212
 167   2.0000      -0.656215       -17.8565
 168   2.0000      -0.652791       -17.7634
 169   2.0000      -0.648280       -17.6406
 170   2.0000      -0.643360       -17.5067
 171   2.0000      -0.642117       -17.4729
 172   2.0000      -0.639439       -17.4000
 173   2.0000      -0.638529       -17.3752
 174   2.0000      -0.633892       -17.2491
 175   2.0000      -0.630618       -17.1600
 176   2.0000      -0.626269       -17.0416
 177   2.0000      -0.620601       -16.8874
 178   2.0000      -0.615267       -16.7423
 179   2.0000      -0.613069       -16.6825
 180   2.0000      -0.610765       -16.6198
 181   2.0000      -0.605800       -16.4846
 182   2.0000      -0.598576       -16.2881
 183   2.0000      -0.597271       -16.2526
 184   2.0000      -0.592025       -16.1098
 185   2.0000      -0.590402       -16.0657
 186   2.0000      -0.586873       -15.9696
 187   2.0000      -0.583562       -15.8795
 188   2.0000      -0.582270       -15.8444
 189   2.0000      -0.575163       -15.6510
 190   2.0000      -0.572860       -15.5883
 191   2.0000      -0.572823       -15.5873
 192   2.0000      -0.569187       -15.4884
 193   2.0000      -0.567241       -15.4354
 194   2.0000      -0.562269       -15.3001
 195   2.0000      -0.560748       -15.2587
 196   2.0000      -0.558505       -15.1977
 197   2.0000      -0.558485       -15.1971
 198   2.0000      -0.556732       -15.1494
 199   2.0000      -0.554399       -15.0860
 200   2.0000      -0.551736       -15.0135
 201   2.0000      -0.549603       -14.9555
 202   2.0000      -0.547249       -14.8914
 203   2.0000      -0.545256       -14.8372
 204   2.0000      -0.538635       -14.6570
 205   2.0000      -0.537487       -14.6258
 206   2.0000      -0.535422       -14.5696
 207   2.0000      -0.533166       -14.5082
 208   2.0000      -0.531707       -14.4685
 209   2.0000      -0.530427       -14.4336
 210   2.0000      -0.528354       -14.3772
 211   2.0000      -0.524270       -14.2661
 212   2.0000      -0.521587       -14.1931
 213   2.0000      -0.520073       -14.1519
 214   2.0000      -0.517835       -14.0910
 215   2.0000      -0.516143       -14.0450
 216   2.0000      -0.513674       -13.9778
 217   2.0000      -0.513088       -13.9618
 218   2.0000      -0.510412       -13.8890
 219   2.0000      -0.508965       -13.8496
 220   2.0000      -0.505979       -13.7684
 221   2.0000      -0.504613       -13.7312
 222   2.0000      -0.503226       -13.6935
 223   2.0000      -0.500688       -13.6244
 224   2.0000      -0.498114       -13.5544
 225   2.0000      -0.492923       -13.4131
 226   2.0000      -0.490516       -13.3476
 227   2.0000      -0.488554       -13.2942
 228   2.0000      -0.485251       -13.2044
 229   2.0000      -0.484285       -13.1781
 230   2.0000      -0.483433       -13.1549
 231   2.0000      -0.481291       -13.0966
 232   2.0000      -0.480080       -13.0636
 233   2.0000      -0.477829       -13.0024
 234   2.0000      -0.476830       -12.9752
 235   2.0000      -0.473606       -12.8875
 236   2.0000      -0.472664       -12.8618
 237   2.0000      -0.468109       -12.7379
 238   2.0000      -0.464087       -12.6284
 239   2.0000      -0.463301       -12.6071
 240   2.0000      -0.461114       -12.5476
 241   2.0000      -0.460337       -12.5264
 242   2.0000      -0.456255       -12.4153
 243   2.0000      -0.455780       -12.4024
 244   2.0000      -0.454394       -12.3647
 245   2.0000      -0.448802       -12.2125
 246   2.0000      -0.447075       -12.1655
 247   2.0000      -0.444124       -12.0852
 248   2.0000      -0.442598       -12.0437
 249   2.0000      -0.442027       -12.0282
 250   2.0000      -0.440345       -11.9824
 251   2.0000      -0.439992       -11.9728
 252   2.0000      -0.438989       -11.9455
 253   2.0000      -0.434606       -11.8262
 254   2.0000      -0.433482       -11.7956
 255   2.0000      -0.432388       -11.7659
 256   2.0000      -0.428085       -11.6488
 257   2.0000      -0.427750       -11.6397
 258   2.0000      -0.423218       -11.5164
 259   2.0000      -0.422905       -11.5078
 260   2.0000      -0.418898       -11.3988
 261   2.0000      -0.418106       -11.3772
 262   2.0000      -0.415397       -11.3035
 263   2.0000      -0.411876       -11.2077
 264   2.0000      -0.409517       -11.1435
 265   2.0000      -0.409172       -11.1341
 266   2.0000      -0.407840       -11.0979
 267   2.0000      -0.402208       -10.9446
 268   2.0000      -0.397946       -10.8286
 269   2.0000      -0.397034       -10.8039
 270   2.0000      -0.393750       -10.7145
 271   2.0000      -0.389964       -10.6115
 272   2.0000      -0.385983       -10.5031
 273   2.0000      -0.382207       -10.4004
 274   2.0000      -0.379262       -10.3203
 275   2.0000      -0.372001       -10.1227
 276   2.0000      -0.365444        -9.9442
 277   2.0000      -0.359974        -9.7954
 278   2.0000      -0.358399        -9.7525
 279   2.0000      -0.357653        -9.7322
 280   2.0000      -0.354465        -9.6455
 281   2.0000      -0.348776        -9.4907
 282   2.0000      -0.342393        -9.3170
 283   2.0000      -0.338179        -9.2023
 284   2.0000      -0.333624        -9.0784
 285   2.0000      -0.328972        -8.9518
 286   2.0000      -0.327523        -8.9124
 287   2.0000      -0.323170        -8.7939
 288   2.0000      -0.317757        -8.6466
 289   2.0000      -0.316247        -8.6055
 290   2.0000      -0.312162        -8.4944
 291   2.0000      -0.302780        -8.2391
 292   2.0000      -0.287241        -7.8162
 293   2.0000      -0.265123        -7.2144
 294   2.0000      -0.225951        -6.1484
 295   0.0000      -0.114442        -3.1141
 296   0.0000      -0.101996        -2.7755
 297   0.0000      -0.082803        -2.2532
 298   0.0000      -0.069425        -1.8892
 299   0.0000      -0.059646        -1.6231

MULLIKEN ATOMIC CHARGES
-----------------------
   0 C :   -0.107985
   1 C :    0.246005
   2 F :   -0.166892
   3 C :    0.241449
   4 F :   -0.168219
   5 C :   -0.108134
   6 C :    0.119427
   7 C :    0.113638
   8 C :   -0.082403
   9 C :    0.045611
  10 C :    0.005822
  11 C :   -0.081779
  12 C :    0.173905
  13 O :   -0.230658
  14 C :   -0.136456
  15 C :    0.337564
  16 C :   -0.343952
  17 C :   -0.179530
  18 N :    0.150172
  19 C :   -0.195201
  20 N :    0.145554
  21 C :    0.031884
  22 N :   -0.006520
  23 C :   -0.129046
  24 S :    0.183377
  25 C :    0.009624
  26 N :    0.272956
  27 O :   -0.243124
  28 O :   -0.250500
  29 C :    0.001099
  30 C :    0.145154
  31 C :   -0.056496
  32 C :    0.055669
  33 C :   -0.123437
  34 S :    0.127151
  35 C :   -0.124025
  36 C :   -0.045537
  37 C :   -0.104693
  38 C :    0.106014
  39 C :    0.095589
  40 C :   -0.066166
  41 N :   -0.161018
  42 C :    0.132133
  43 C :    0.049450
  44 C :   -0.025195
  45 C :    0.014349
  46 C :   -0.037059
  47 C :    0.055500
  48 C :    0.020517
  49 C :   -0.019627
  50 S :    0.091210
  51 C :   -0.059908
  52 C :    0.015608
  53 C :    0.087297
  54 C :   -0.030878
  55 S :    0.119024
  56 C :    0.019284
  57 C :    0.000138
  58 C :   -0.138387
  59 C :    0.298680
  60 C :   -0.349448
  61 C :   -0.181335
  62 N :    0.141075
  63 C :   -0.217885
  64 N :    0.154795
  65 C :    0.051331
  66 C :    0.010802
  67 C :    0.122098
  68 O :   -0.159150
  69 C :   -0.072345
  70 C :    0.021365
  71 C :    0.033581
  72 C :   -0.057972
  73 C :    0.183762
  74 O :   -0.215625
  75 O :   -0.292012
  76 C :    0.192085
  77 C :    0.197284
  78 O :   -0.209041
  79 O :   -0.293241
  80 C :    0.187716
  81 H :    0.010795
  82 H :   -0.002497
  83 H :   -0.004579
  84 H :   -0.017527
  85 H :    0.047991
  86 H :    0.186746
  87 H :    0.015620
  88 H :   -0.023102
  89 H :   -0.021105
  90 H :    0.021319
  91 H :    0.034570
  92 H :   -0.008844
  93 H :   -0.012905
  94 H :   -0.001546
  95 H :    0.088184
  96 H :    0.088110
  97 H :    0.016393
  98 H :    0.034854
  99 H :   -0.012465
 100 H :    0.006203
 101 H :   -0.005665
 102 H :   -0.002297
 103 H :   -0.004269
 104 H :   -0.007725
 105 H :    0.003779
 106 H :   -0.005006
 107 H :    0.030069
 108 H :   -0.002941
 109 H :    0.002850
 110 H :    0.030339
 111 H :    0.035913
 112 H :    0.033005
 113 H :    0.036033
 114 H :    0.037985
 115 H :    0.035845
Sum of atomic charges:   -0.0000000

LOEWDIN ATOMIC CHARGES
----------------------
   0 C :   -0.027252
   1 C :    0.069362
   2 F :   -0.044872
   3 C :    0.069273
   4 F :   -0.046554
   5 C :   -0.033284
   6 C :   -0.010260
   7 C :   -0.005399
   8 C :    0.021312
   9 C :   -0.019814
  10 C :   -0.053173
  11 C :    0.030578
  12 C :    0.097660
  13 O :   -0.185144
  14 C :   -0.146292
  15 C :    0.077502
  16 C :   -0.145806
  17 C :   -0.019390
  18 N :   -0.050740
  19 C :   -0.020625
  20 N :   -0.050365
  21 C :    0.114547
  22 N :    0.084366
  23 C :   -0.118665
  24 S :    0.474894
  25 C :   -0.195615
  26 N :    0.272700
  27 O :   -0.209289
  28 O :   -0.217614
  29 C :    0.001752
  30 C :   -0.079254
  31 C :   -0.036240
  32 C :   -0.029414
  33 C :   -0.168000
  34 S :    0.440770
  35 C :   -0.176949
  36 C :   -0.039245
  37 C :   -0.049257
  38 C :   -0.027965
  39 C :   -0.039776
  40 C :    0.012424
  41 N :   -0.099899
  42 C :   -0.027779
  43 C :   -0.015511
  44 C :   -0.045307
  45 C :   -0.018663
  46 C :   -0.159056
  47 C :   -0.009926
  48 C :   -0.039016
  49 C :   -0.141921
  50 S :    0.391715
  51 C :   -0.195432
  52 C :   -0.005332
  53 C :   -0.026077
  54 C :   -0.086294
  55 S :    0.408944
  56 C :   -0.089669
  57 C :    0.057358
  58 C :   -0.133291
  59 C :    0.070508
  60 C :   -0.149375
  61 C :   -0.020608
  62 N :   -0.061540
  63 C :   -0.025091
  64 N :   -0.061473
  65 C :    0.002736
  66 C :   -0.041954
  67 C :    0.069269
  68 O :   -0.152767
  69 C :    0.031024
  70 C :   -0.050347
  71 C :   -0.000608
  72 C :    0.009044
  73 C :    0.077883
  74 O :   -0.167841
  75 O :   -0.079093
  76 C :    0.083961
  77 C :    0.093998
  78 O :   -0.161358
  79 O :   -0.083403
  80 C :    0.082811
  81 H :    0.049210
  82 H :    0.043962
  83 H :    0.041572
  84 H :    0.038171
  85 H :    0.037440
  86 H :    0.083970
  87 H :    0.045486
  88 H :    0.028344
  89 H :    0.027704
  90 H :    0.033570
  91 H :    0.034117
  92 H :    0.019111
  93 H :    0.019254
  94 H :    0.020943
  95 H :    0.051297
  96 H :    0.053106
  97 H :    0.031047
  98 H :    0.038580
  99 H :    0.030852
 100 H :    0.023825
 101 H :    0.037246
 102 H :    0.038168
 103 H :    0.035591
 104 H :    0.035100
 105 H :    0.037301
 106 H :    0.033176
 107 H :    0.045510
 108 H :    0.040529
 109 H :    0.042786
 110 H :    0.024634
 111 H :    0.026103
 112 H :    0.023022
 113 H :    0.026446
 114 H :    0.026465
 115 H :    0.024853

  Mayer bond orders larger than 0.100000
B(  0-C ,  1-C ) :   1.4340 B(  0-C ,  5-C ) :   0.1076 B(  0-C ,  7-C ) :   1.1944
B(  0-C , 81-H ) :   1.0075 B(  1-C ,  2-F ) :   1.1393 B(  1-C ,  3-C ) :   1.1923
B(  3-C ,  4-F ) :   1.1372 B(  3-C ,  5-C ) :   1.4420 B(  5-C ,  6-C ) :   1.1906
B(  5-C , 82-H ) :   1.0068 B(  6-C ,  7-C ) :   1.2587 B(  6-C , 11-C ) :   1.1856
B(  7-C ,  8-C ) :   1.2059 B(  8-C ,  9-C ) :   1.4658 B(  8-C , 83-H ) :   0.9903
B(  9-C , 10-C ) :   1.2203 B(  9-C , 15-C ) :   0.9852 B( 10-C , 11-C ) :   1.4654
B( 10-C , 12-C ) :   0.9822 B( 11-C , 84-H ) :   1.0192 B( 12-C , 13-O ) :   2.0060
B( 12-C , 14-C ) :   1.0170 B( 13-O , 86-H ) :   0.1485 B( 14-C , 15-C ) :   1.0982
B( 14-C , 21-C ) :   1.4312 B( 15-C , 16-C ) :   1.6317 B( 16-C , 17-C ) :   1.1457
B( 16-C , 19-C ) :   1.1464 B( 17-C , 18-N ) :   2.9603 B( 19-C , 20-N ) :   2.9531
B( 21-C , 22-N ) :   1.3536 B( 21-C , 85-H ) :   0.9317 B( 22-N , 23-C ) :   1.1923
B( 22-N , 86-H ) :   0.8210 B( 23-C , 24-S ) :   1.1328 B( 23-C , 30-C ) :   1.3688
B( 24-S , 25-C ) :   1.0855 B( 25-C , 26-N ) :   0.9570 B( 25-C , 29-C ) :   1.5155
B( 26-N , 27-O ) :   1.5374 B( 26-N , 28-O ) :   1.5216 B( 27-O , 28-O ) :   0.2653
B( 29-C , 30-C ) :   1.2074 B( 29-C , 87-H ) :   0.9974 B( 30-C , 31-C ) :   1.0858
B( 31-C , 32-C ) :   1.7065 B( 31-C , 88-H ) :   0.9598 B( 32-C , 33-C ) :   1.1310
B( 32-C , 89-H ) :   0.9474 B( 33-C , 34-S ) :   1.1312 B( 33-C , 37-C ) :   1.4625
B( 34-S , 35-C ) :   1.1128 B( 35-C , 36-C ) :   1.4437 B( 35-C , 43-C ) :   1.1616
B( 36-C , 37-C ) :   1.3602 B( 36-C , 42-C ) :   1.0348 B( 37-C , 38-C ) :   1.0522
B( 38-C , 39-C ) :   1.0687 B( 38-C , 90-H ) :   0.9104 B( 38-C , 91-H ) :   0.8946
B( 39-C , 40-C ) :   1.0257 B( 39-C , 92-H ) :   0.9228 B( 39-C , 93-H ) :   0.9267
B( 40-C , 41-N ) :   1.1134 B( 40-C , 42-C ) :   1.0414 B( 40-C , 94-H ) :   0.9241
B( 41-N , 95-H ) :   0.9679 B( 41-N , 96-H ) :   0.9693 B( 42-C , 97-H ) :   0.8937
B( 42-C , 98-H ) :   0.9116 B( 43-C , 44-C ) :   1.6030 B( 43-C , 99-H ) :   0.9540
B( 44-C , 45-C ) :   1.1839 B( 44-C ,100-H ) :   0.9655 B( 45-C , 46-C ) :   1.5291
B( 45-C ,101-H ) :   0.9841 B( 46-C , 47-C ) :   1.1578 B( 46-C , 50-S ) :   1.0260
B( 47-C , 48-C ) :   1.5678 B( 47-C ,102-H ) :   0.9996 B( 48-C , 49-C ) :   1.2057
B( 48-C ,103-H ) :   0.9948 B( 49-C , 50-S ) :   1.0830 B( 49-C , 51-C ) :   1.4547
B( 51-C , 52-C ) :   1.2210 B( 51-C , 55-S ) :   1.0443 B( 52-C , 53-C ) :   1.5540
B( 52-C ,104-H ) :   0.9941 B( 53-C , 54-C ) :   1.2087 B( 53-C ,105-H ) :   0.9808
B( 54-C , 55-S ) :   1.1065 B( 54-C , 56-C ) :   1.4131 B( 56-C , 57-C ) :   1.3943
B( 56-C ,106-H ) :   0.9428 B( 57-C , 58-C ) :   1.4060 B( 57-C ,107-H ) :   0.9472
B( 58-C , 59-C ) :   1.1268 B( 58-C , 67-C ) :   0.9901 B( 59-C , 60-C ) :   1.6077
B( 59-C , 65-C ) :   0.9683 B( 60-C , 61-C ) :   1.1463 B( 60-C , 63-C ) :   1.1464
B( 61-C , 62-N ) :   2.9609 B( 63-C , 64-N ) :   3.0028 B( 65-C , 66-C ) :   1.3362
B( 65-C , 72-C ) :   1.3540 B( 66-C , 67-C ) :   0.9256 B( 66-C , 69-C ) :   1.3499
B( 67-C , 68-O ) :   2.1931 B( 69-C , 70-C ) :   1.2910 B( 69-C ,108-H ) :   1.0200
B( 70-C , 71-C ) :   1.4649 B( 70-C , 77-C ) :   0.9090 B( 71-C , 72-C ) :   1.3924
B( 71-C , 73-C ) :   0.8464 B( 72-C ,109-H ) :   0.9890 B( 73-C , 74-O ) :   2.1083
B( 73-C , 75-O ) :   1.2265 B( 75-O , 76-C ) :   0.9193 B( 76-C ,110-H ) :   0.9810
B( 76-C ,111-H ) :   0.9755 B( 76-C ,112-H ) :   0.9737 B( 77-C , 78-O ) :   2.0467
B( 77-C , 79-O ) :   1.2511 B( 79-O , 80-C ) :   0.9195 B( 80-C ,113-H ) :   0.9809
B( 80-C ,114-H ) :   0.9765 B( 80-C ,115-H ) :   0.9751

-----------------------------------------------------------------------------
         ABSORPTION SPECTRUM VIA TRANSITION ELECTRIC DIPOLE MOMENTS
-----------------------------------------------------------------------------
State   Energy  Wavelength   fosc         T2         TX        TY        TZ
        (cm-1)    (nm)                  (au**2)     (au)      (au)      (au)
-----------------------------------------------------------------------------
   0   11226.2    890.8   1.896798673  55.62441  -1.43601   6.62961  -3.10008
   1   17350.9    576.3   0.404098440   7.66729   1.56446  -0.93945  -2.08259
   2   19403.4    515.4   0.196279350   3.33022  -0.82962  -0.31642   1.59431
   3   20202.3    495.0   0.123154354   2.00690   0.18181   0.34562  -1.36176
   4   21919.6    456.2   0.021713413   0.32611  -0.36993   0.42143   0.10801
   5   22431.6    445.8   0.247055143   3.62585  -0.89400   1.56290   0.61965
   6   22953.8    435.7   0.428475220   6.14536  -1.53202   0.19699   1.93893
   7   24474.3    408.6   0.035492736   0.47743   0.25161   0.46695  -0.44280
   8   26592.5    376.0   0.042605368   0.52745   0.09354  -0.22390   0.68452
   9   26766.9    373.6   0.078686016   0.96778  -0.35724   0.89314  -0.20607
  10   27399.6    365.0   0.023433504   0.28156   0.28665  -0.44127   0.06830
  11   27888.0    358.6   0.080504689   0.95034   0.24461  -0.64947  -0.68461
  12   28633.0    349.2   0.043995543   0.50584  -0.12473   0.69574  -0.07894
  13   29072.5    344.0   0.100733333   1.14069  -0.45194  -0.76478   0.59291
  14   29711.7    336.6   0.030247498   0.33515   0.27884   0.05889   0.50391
  15   29806.3    335.5   0.043934050   0.48525  -0.07259  -0.45268  -0.52446
  16   29974.4    333.6   0.016192846   0.17785   0.13869  -0.00102   0.39826
  17   30141.2    331.8   0.061427663   0.67093  -0.08020   0.48074  -0.65833
  18   30378.2    329.2   0.484196239   5.24729   1.37914  -1.80501  -0.29530
  19   31272.2    319.8   0.026074679   0.27450  -0.38717  -0.29687   0.19097
  20   31906.2    313.4   0.095297200   0.98329   0.16309  -0.55203   0.80744
  21   32373.7    308.9   0.093224075   0.94801  -0.44781   0.84762  -0.17032
  22   32468.6    308.0   0.150660437   1.52761   0.39888  -1.12374   0.32512
  23   32694.0    305.9   0.066529078   0.66991  -0.68688   0.27482   0.35011
  24   33353.1    299.8   0.047394168   0.46780   0.27329  -0.54513   0.30975
  25   33539.3    298.2   0.010123878   0.09937   0.27198  -0.05804  -0.14843
  26   33561.9    298.0   0.002997021   0.02940   0.12156  -0.12082   0.00503
  27   33751.4    296.3   0.017021480   0.16603  -0.02891   0.34356   0.21717
  28   34087.2    293.4   0.161957721   1.56418   0.16395   0.35420   1.18821
  29   34377.9    290.9   0.025497777   0.24417   0.19856  -0.45045  -0.04289
  30   34505.8    289.8   0.300516745   2.86717  -0.72639   1.48349   0.37252
  31   34590.2    289.1   0.710396804   6.76120  -1.02384   1.95110  -1.38064
  32   34883.1    286.7   0.024418269   0.23045  -0.24701   0.40887   0.04754
  33   35374.0    282.7   0.023187291   0.21579   0.01257   0.40555  -0.22621
  34   35750.1    279.7   0.000408723   0.00376  -0.03698  -0.04549  -0.01809
  35   35857.6    278.9   0.155037020   1.42341   0.27154   0.87902   0.75960
  36   36285.1    275.6   0.013480469   0.12231   0.06233   0.19307  -0.28486
  37   36371.9    274.9   0.004746106   0.04296   0.04621   0.01677   0.20135
  38   36711.5    272.4   0.247701251   2.22127  -0.25431  -1.24213  -0.78340
  39   37059.9    269.8   0.149455587   1.32765   0.56039  -0.58360  -0.82038
  40   37141.2    269.2   0.000762357   0.00676  -0.02369  -0.04013   0.06772
  41   37192.0    268.9   0.236831332   2.09636  -0.42931  -0.37287   1.33155
  42   37726.9    265.1   0.207000721   1.80633  -0.47062  -0.96418  -0.80944
  43   37756.5    264.9   0.021016422   0.18325   0.13692   0.27118   0.30160
  44   38005.1    263.1   0.039563765   0.34271   0.06081  -0.42352   0.39956
  45   38047.2    262.8   0.042612488   0.36871   0.07482   0.50518   0.32850
  46   38178.4    261.9   0.058530850   0.50471  -0.06820   0.25041  -0.66133
  47   38408.1    260.4   0.027614357   0.23669   0.02495  -0.31341  -0.37128
  48   38858.1    257.3   0.070337887   0.59591  -0.47776  -0.03222  -0.60549
  49   39121.9    255.6   0.013839025   0.11646  -0.30127   0.04451   0.15399
  50   39537.4    252.9   0.030713650   0.25574  -0.10586   0.20896   0.44818
  51   39917.2    250.5   0.077188157   0.63660  -0.35621   0.05746  -0.71163
  52   40221.0    248.6   0.036285084   0.29700   0.27839   0.17434  -0.43485
  53   40258.3    248.4   0.079252222   0.64808  -0.20090  -0.66036  -0.41430

FINAL SINGLE POINT ENERGY     -5079.984162282226

DIPOLE MOMENT
-------------
                                X             Y             Z
Electronic contribution:     -3.92687     -29.52848      70.38736
Nuclear contribution   :      3.98112      26.01635     -70.99533
                        -----------------------------------------
Total Dipole Moment    :      0.05424      -3.51213      -0.60797
                        -----------------------------------------
Magnitude (a.u.)       :      3.56477
Magnitude (Debye)      :      9.06093

Rotational constants in cm-1:     0.000937     0.000161     0.000143
Rotational constants in MHz :    28.102019     4.831017     4.274625

                             ****ORCA TERMINATED NORMALLY****
TOTAL RUN TIME: 0 days 0 hours 25 minutes 40 seconds 318 msec
