                         Program Version 4.2.0 -  RELEASE  -
|  1> # ORCA input file
|  2> # SCF done       -195.982221888742          0.000617518507
|  3> ! CAM-B3LYP def2-SVP def2/J RIJCOSX Grid4 TightSCF
|  4> %maxcore 5000
|  5> %tddft
|  6>     Mode sTDDFT
|  7>     Ethresh 5.0
|  8>     maxcore 5000
|  9> end
| 10>
| 11> %pal
| 12>   nprocs 6
| 13>   end
| 14> * xyz 0 1
| 15>    C       -5.97108        -5.71327       -12.97143
| 16>    C       -6.06214        -6.53920       -14.05702
| 17>    F       -6.39153        -6.04134       -15.25486
| 18>    C       -5.81191        -7.92047       -13.93057
| 19>    F       -5.90816        -8.70561       -15.01030
| 20>    C       -5.47421        -8.45699       -12.71920
| 21>    C       -5.37236        -7.63196       -11.58278
| 22>    C       -5.62473        -6.23522       -11.70939
| 23>    C       -5.52522        -5.38676       -10.58209
| 24>    C       -5.18609        -5.91892        -9.36708
| 25>    C       -4.93712        -7.31779        -9.24931
| 26>    C       -5.02349        -8.16050       -10.31960
| 27>    C       -4.59599        -7.62254        -7.85262
| 28>    O       -4.32733        -8.71229        -7.36393
| 29>    C       -4.63088        -6.34189        -7.13838
| 30>    C       -4.99215        -5.29268        -8.06004
| 31>    C       -5.15529        -3.96011        -7.78032
| 32>    C       -5.61712        -3.00240        -8.70665
| 33>    N       -6.01512        -2.17937        -9.40070
| 34>    C       -4.90331        -3.36786        -6.52747
| 35>    N       -4.71125        -2.82731        -5.53229
| 36>    C       -4.38564        -6.26075        -5.79055
| 37>    N       -4.12718        -7.35986        -5.06975
| 38>    C       -4.01623        -7.42481        -3.70941
| 39>    S       -3.03449        -8.65959        -2.99188
| 40>    C       -3.37544        -7.99332        -1.42859
| 41>    N       -2.81703        -8.63884        -0.31131
| 42>    O       -3.05746        -8.17764         0.78514
| 43>    O       -2.13144        -9.61846        -0.53819
| 44>    C       -4.18834        -6.89278        -1.46293
| 45>    C       -4.58551        -6.55742        -2.77228
| 46>    C       -5.51985        -5.52136        -3.13554
| 47>    C       -5.70236        -4.36137        -2.48210
| 48>    C       -6.54825        -3.31763        -2.98676
| 49>    N       -6.57142        -2.18174        -2.30203
| 50>    N       -7.17489        -1.11696        -2.68985
| 51>    C       -7.78048        -1.00342        -3.88007
| 52>    C       -7.86265        -2.16862        -4.69921
| 53>    C       -7.26859        -3.38204        -4.21577
| 54>    N       -7.44585        -4.39325        -5.06264
| 55>    S       -8.26823        -3.86327        -6.34946
| 56>    N       -8.43482        -2.33067        -5.88180
| 57>    C       -8.26773         0.28928        -4.17924
| 58>    C       -8.95502         0.76855        -5.26430
| 59>    C       -9.34127         2.13527        -5.38374
| 60>    C      -10.03303         2.43051        -6.51418
| 61>    C      -10.24187         1.30683        -7.34876
| 62>    S       -9.50618        -0.12366        -6.66530
| 63>    C      -10.93845         1.26688        -8.54346
| 64>    C      -11.61045         2.33012        -9.19029
| 65>    C      -12.22332         1.97122       -10.35122
| 66>    C      -12.06013         0.60495       -10.68958
| 67>    S      -11.13371        -0.20976        -9.45190
| 68>    C      -12.60345        -0.10059       -11.74342
| 69>    C      -13.21181         0.43237       -12.88436
| 70>    C      -12.93876         1.63583       -13.50332
| 71>    C      -13.68149         2.18315       -14.61327
| 72>    C      -14.97194         1.86039       -14.95732
| 73>    C      -15.66693         2.43576       -16.03884
| 74>    N      -16.27424         2.86802       -16.91254
| 75>    C      -15.77936         0.95195       -14.24312
| 76>    N      -16.50010         0.25004       -13.68867
| 77>    C      -12.86099         3.21203       -15.24234
| 78>    C      -11.66101         3.34011       -14.50152
| 79>    C      -11.67526         2.39151       -13.36780
| 80>    O      -10.78715         2.24218       -12.55164
| 81>    C      -10.67272         4.23017       -14.84233
| 82>    C      -10.88052         5.03524       -15.96808
| 83>    C      -12.08211         4.89928       -16.70212
| 84>    C      -13.08211         3.99696       -16.35697
| 85>    S      -12.12971         5.98558       -18.05725
| 86>    C      -10.55723         6.60156       -17.62338
| 87>    C      -10.02198         6.02417       -16.52173
| 88>   Br       -9.77082         7.94843       -18.66550
| 89>    H       -6.16598        -4.65841       -13.08602
| 90>    H       -5.28568        -9.51609       -12.63919
| 91>    H       -5.71736        -4.33387       -10.71152
| 92>    H       -4.82723        -9.21565       -10.20536
| 93>    H       -4.37810        -5.31287        -5.27134
| 94>    H       -4.02915        -8.22007        -5.63309
| 95>    H       -4.50938        -6.37554        -0.57737
| 96>    H       -6.10369        -5.70167        -4.02882
| 97>    H       -5.14884        -4.10873        -1.59006
| 98>    H       -8.03905         1.00865        -3.40210
| 99>    H       -9.08739         2.84910        -4.62021
|100>    H      -10.39650         3.41064        -6.76462
|101>    H      -11.63078         3.32362        -8.78013
|102>    H      -12.82215         2.63308       -10.94933
|103>    H      -12.59854        -1.17980       -11.65829
|104>    H      -13.91602        -0.22487       -13.38212
|105>    H       -9.76813         4.30455       -14.25939
|106>    H      -13.97795         3.92431       -16.95084
|107>    H       -9.06113         6.28246       -16.11547
|108> *
|109>
|110>                          ****END OF INPUT****

CARTESIAN COORDINATES (ANGSTROEM)
---------------------------------
  C     -5.971080   -5.713270  -12.971430
  C     -6.062140   -6.539200  -14.057020
  F     -6.391530   -6.041340  -15.254860
  C     -5.811910   -7.920470  -13.930570
  F     -5.908160   -8.705610  -15.010300
  C     -5.474210   -8.456990  -12.719200
  C     -5.372360   -7.631960  -11.582780
  C     -5.624730   -6.235220  -11.709390
  C     -5.525220   -5.386760  -10.582090
  C     -5.186090   -5.918920   -9.367080
  C     -4.937120   -7.317790   -9.249310
  C     -5.023490   -8.160500  -10.319600
  C     -4.595990   -7.622540   -7.852620
  O     -4.327330   -8.712290   -7.363930
  C     -4.630880   -6.341890   -7.138380
  C     -4.992150   -5.292680   -8.060040
  C     -5.155290   -3.960110   -7.780320
  C     -5.617120   -3.002400   -8.706650
  N     -6.015120   -2.179370   -9.400700
  C     -4.903310   -3.367860   -6.527470
  N     -4.711250   -2.827310   -5.532290
  C     -4.385640   -6.260750   -5.790550
  N     -4.127180   -7.359860   -5.069750
  C     -4.016230   -7.424810   -3.709410
  S     -3.034490   -8.659590   -2.991880
  C     -3.375440   -7.993320   -1.428590
  N     -2.817030   -8.638840   -0.311310
  O     -3.057460   -8.177640    0.785140
  O     -2.131440   -9.618460   -0.538190
  C     -4.188340   -6.892780   -1.462930
  C     -4.585510   -6.557420   -2.772280
  C     -5.519850   -5.521360   -3.135540
  C     -5.702360   -4.361370   -2.482100
  C     -6.548250   -3.317630   -2.986760
  N     -6.571420   -2.181740   -2.302030
  N     -7.174890   -1.116960   -2.689850
  C     -7.780480   -1.003420   -3.880070
  C     -7.862650   -2.168620   -4.699210
  C     -7.268590   -3.382040   -4.215770
  N     -7.445850   -4.393250   -5.062640
  S     -8.268230   -3.863270   -6.349460
  N     -8.434820   -2.330670   -5.881800
  C     -8.267730    0.289280   -4.179240
  C     -8.955020    0.768550   -5.264300
  C     -9.341270    2.135270   -5.383740
  C    -10.033030    2.430510   -6.514180
  C    -10.241870    1.306830   -7.348760
  S     -9.506180   -0.123660   -6.665300
  C    -10.938450    1.266880   -8.543460
  C    -11.610450    2.330120   -9.190290
  C    -12.223320    1.971220  -10.351220
  C    -12.060130    0.604950  -10.689580
  S    -11.133710   -0.209760   -9.451900
  C    -12.603450   -0.100590  -11.743420
  C    -13.211810    0.432370  -12.884360
  C    -12.938760    1.635830  -13.503320
  C    -13.681490    2.183150  -14.613270
  C    -14.971940    1.860390  -14.957320
  C    -15.666930    2.435760  -16.038840
  N    -16.274240    2.868020  -16.912540
  C    -15.779360    0.951950  -14.243120
  N    -16.500100    0.250040  -13.688670
  C    -12.860990    3.212030  -15.242340
  C    -11.661010    3.340110  -14.501520
  C    -11.675260    2.391510  -13.367800
  O    -10.787150    2.242180  -12.551640
  C    -10.672720    4.230170  -14.842330
  C    -10.880520    5.035240  -15.968080
  C    -12.082110    4.899280  -16.702120
  C    -13.082110    3.996960  -16.356970
  S    -12.129710    5.985580  -18.057250
  C    -10.557230    6.601560  -17.623380
  C    -10.021980    6.024170  -16.521730
  Br    -9.770820    7.948430  -18.665500
  H     -6.165980   -4.658410  -13.086020
  H     -5.285680   -9.516090  -12.639190
  H     -5.717360   -4.333870  -10.711520
  H     -4.827230   -9.215650  -10.205360
  H     -4.378100   -5.312870   -5.271340
  H     -4.029150   -8.220070   -5.633090
  H     -4.509380   -6.375540   -0.577370
  H     -6.103690   -5.701670   -4.028820
  H     -5.148840   -4.108730   -1.590060
  H     -8.039050    1.008650   -3.402100
  H     -9.087390    2.849100   -4.620210
  H    -10.396500    3.410640   -6.764620
  H    -11.630780    3.323620   -8.780130
  H    -12.822150    2.633080  -10.949330
  H    -12.598540   -1.179800  -11.658290
  H    -13.916020   -0.224870  -13.382120
  H     -9.768130    4.304550  -14.259390
  H    -13.977950    3.924310  -16.950840
  H     -9.061130    6.282460  -16.115470

 Total Charge           Charge          ....    0
 Multiplicity           Mult            ....    1
 Number of Electrons    NEL             ....  566
 Basis Dimension        Dim             .... 1169

ORBITAL ENERGIES
----------------

  NO   OCC          E(Eh)            E(eV)
   0   2.0000    -482.881883    -13139.8841
   1   2.0000     -89.052111     -2423.2311
   2   2.0000     -88.999765     -2421.8067
   3   2.0000     -88.970752     -2421.0172
   4   2.0000     -88.962735     -2420.7991
   5   2.0000     -88.962533     -2420.7936
   6   2.0000     -62.559620     -1702.3338
   7   2.0000     -56.393562     -1534.5468
   8   2.0000     -56.390860     -1534.4733
   9   2.0000     -56.390823     -1534.4723
  10   2.0000     -24.807869      -675.0564
  11   2.0000     -24.806926      -675.0308
  12   2.0000     -19.248943      -523.7904
  13   2.0000     -19.248868      -523.7883
  14   2.0000     -19.241433      -523.5860
  15   2.0000     -19.206989      -522.6487
  16   2.0000     -14.660655      -398.9367
  17   2.0000     -14.507685      -394.7742
  18   2.0000     -14.468287      -393.7021
  19   2.0000     -14.465325      -393.6215
  20   2.0000     -14.443758      -393.0346
  21   2.0000     -14.441581      -392.9754
  22   2.0000     -14.435184      -392.8013
  23   2.0000     -14.427301      -392.5868
  24   2.0000     -14.406099      -392.0099
  25   2.0000     -14.404415      -391.9641
  26   2.0000     -10.392013      -282.7810
  27   2.0000     -10.391305      -282.7618
  28   2.0000     -10.389044      -282.7003
  29   2.0000     -10.380676      -282.4726
  30   2.0000     -10.380303      -282.4624
  31   2.0000     -10.359006      -281.8829
  32   2.0000     -10.358356      -281.8652
  33   2.0000     -10.357538      -281.8429
  34   2.0000     -10.354015      -281.7471
  35   2.0000     -10.353717      -281.7390
  36   2.0000     -10.349563      -281.6259
  37   2.0000     -10.347124      -281.5596
  38   2.0000     -10.338524      -281.3255
  39   2.0000     -10.338374      -281.3215
  40   2.0000     -10.333216      -281.1811
  41   2.0000     -10.333103      -281.1780
  42   2.0000     -10.333074      -281.1772
  43   2.0000     -10.330712      -281.1130
  44   2.0000     -10.330571      -281.1091
  45   2.0000     -10.330159      -281.0979
  46   2.0000     -10.329111      -281.0694
  47   2.0000     -10.327733      -281.0319
  48   2.0000     -10.322327      -280.8848
  49   2.0000     -10.322060      -280.8775
  50   2.0000     -10.320934      -280.8469
  51   2.0000     -10.320863      -280.8449
  52   2.0000     -10.319442      -280.8063
  53   2.0000     -10.317545      -280.7547
  54   2.0000     -10.316713      -280.7320
  55   2.0000     -10.315744      -280.7057
  56   2.0000     -10.311946      -280.6023
  57   2.0000     -10.311066      -280.5784
  58   2.0000     -10.309593      -280.5383
  59   2.0000     -10.308321      -280.5037
  60   2.0000     -10.308279      -280.5025
  61   2.0000     -10.308109      -280.4979
  62   2.0000     -10.307919      -280.4927
  63   2.0000     -10.305835      -280.4360
  64   2.0000     -10.305159      -280.4176
  65   2.0000     -10.304681      -280.4046
  66   2.0000     -10.301446      -280.3166
  67   2.0000     -10.300241      -280.2838
  68   2.0000     -10.300136      -280.2809
  69   2.0000     -10.299069      -280.2519
  70   2.0000     -10.298896      -280.2472
  71   2.0000     -10.295989      -280.1681
  72   2.0000     -10.294403      -280.1249
  73   2.0000     -10.294137      -280.1177
  74   2.0000     -10.292262      -280.0667
  75   2.0000     -10.287462      -279.9361
  76   2.0000     -10.285462      -279.8816
  77   2.0000     -10.285393      -279.8798
  78   2.0000      -8.789061      -239.1625
  79   2.0000      -8.142940      -221.5807
  80   2.0000      -8.095449      -220.2884
  81   2.0000      -8.066650      -219.5047
  82   2.0000      -8.059392      -219.3072
  83   2.0000      -8.057594      -219.2583
  84   2.0000      -6.625339      -180.2846
  85   2.0000      -6.610791      -179.8888
  86   2.0000      -6.610629      -179.8844
  87   2.0000      -6.114250      -166.3772
  88   2.0000      -6.106491      -166.1661
  89   2.0000      -6.105269      -166.1328
  90   2.0000      -6.065040      -165.0381
  91   2.0000      -6.060612      -164.9176
  92   2.0000      -6.057021      -164.8199
  93   2.0000      -6.036339      -164.2571
  94   2.0000      -6.032065      -164.1408
  95   2.0000      -6.028982      -164.0569
  96   2.0000      -6.027922      -164.0281
  97   2.0000      -6.027395      -164.0138
  98   2.0000      -6.024918      -163.9464
  99   2.0000      -6.023090      -163.8966
 100   2.0000      -6.020513      -163.8265
 101   2.0000      -6.018471      -163.7709
 102   2.0000      -2.741202       -74.5919
 103   2.0000      -2.737144       -74.4815
 104   2.0000      -2.736997       -74.4775
 105   2.0000      -2.725444       -74.1631
 106   2.0000      -2.725430       -74.1627
 107   2.0000      -1.331492       -36.2317
 108   2.0000      -1.330759       -36.2118
 109   2.0000      -1.315847       -35.8060
 110   2.0000      -1.156837       -31.4791
 111   2.0000      -1.153329       -31.3837
 112   2.0000      -1.150968       -31.3194
 113   2.0000      -1.122787       -30.5526
 114   2.0000      -1.121696       -30.5229
 115   2.0000      -1.111890       -30.2561
 116   2.0000      -1.035540       -28.1785
 117   2.0000      -1.021609       -27.7994
 118   2.0000      -1.019047       -27.7297
 119   2.0000      -1.015856       -27.6429
 120   2.0000      -1.014987       -27.6192
 121   2.0000      -1.009979       -27.4829
 122   2.0000      -1.006915       -27.3995
 123   2.0000      -1.004790       -27.3417
 124   2.0000      -0.993808       -27.0429
 125   2.0000      -0.990432       -26.9510
 126   2.0000      -0.984262       -26.7831
 127   2.0000      -0.981258       -26.7014
 128   2.0000      -0.951168       -25.8826
 129   2.0000      -0.944288       -25.6954
 130   2.0000      -0.937612       -25.5137
 131   2.0000      -0.934842       -25.4383
 132   2.0000      -0.923501       -25.1297
 133   2.0000      -0.913726       -24.8637
 134   2.0000      -0.912638       -24.8341
 135   2.0000      -0.905140       -24.6301
 136   2.0000      -0.901387       -24.5280
 137   2.0000      -0.899414       -24.4743
 138   2.0000      -0.887985       -24.1633
 139   2.0000      -0.879497       -23.9323
 140   2.0000      -0.871487       -23.7144
 141   2.0000      -0.867427       -23.6039
 142   2.0000      -0.862819       -23.4785
 143   2.0000      -0.854423       -23.2500
 144   2.0000      -0.853308       -23.2197
 145   2.0000      -0.845305       -23.0019
 146   2.0000      -0.832069       -22.6417
 147   2.0000      -0.823123       -22.3983
 148   2.0000      -0.819117       -22.2893
 149   2.0000      -0.809530       -22.0284
 150   2.0000      -0.792881       -21.5754
 151   2.0000      -0.783572       -21.3221
 152   2.0000      -0.782665       -21.2974
 153   2.0000      -0.762095       -20.7377
 154   2.0000      -0.756859       -20.5952
 155   2.0000      -0.750687       -20.4272
 156   2.0000      -0.746635       -20.3170
 157   2.0000      -0.740073       -20.1384
 158   2.0000      -0.733095       -19.9485
 159   2.0000      -0.728920       -19.8349
 160   2.0000      -0.722510       -19.6605
 161   2.0000      -0.707794       -19.2601
 162   2.0000      -0.700178       -19.0528
 163   2.0000      -0.695788       -18.9333
 164   2.0000      -0.693675       -18.8759
 165   2.0000      -0.682717       -18.5777
 166   2.0000      -0.680087       -18.5061
 167   2.0000      -0.672051       -18.2874
 168   2.0000      -0.669458       -18.2169
 169   2.0000      -0.667225       -18.1561
 170   2.0000      -0.664580       -18.0841
 171   2.0000      -0.654873       -17.8200
 172   2.0000      -0.651982       -17.7413
 173   2.0000      -0.651803       -17.7365
 174   2.0000      -0.644789       -17.5456
 175   2.0000      -0.642157       -17.4740
 176   2.0000      -0.638574       -17.3765
 177   2.0000      -0.634851       -17.2752
 178   2.0000      -0.631079       -17.1725
 179   2.0000      -0.621252       -16.9051
 180   2.0000      -0.620079       -16.8732
 181   2.0000      -0.616565       -16.7776
 182   2.0000      -0.615122       -16.7383
 183   2.0000      -0.611894       -16.6505
 184   2.0000      -0.603144       -16.4124
 185   2.0000      -0.598629       -16.2895
 186   2.0000      -0.596295       -16.2260
 187   2.0000      -0.595204       -16.1963
 188   2.0000      -0.587058       -15.9746
 189   2.0000      -0.585762       -15.9394
 190   2.0000      -0.583503       -15.8779
 191   2.0000      -0.579193       -15.7606
 192   2.0000      -0.574325       -15.6282
 193   2.0000      -0.570454       -15.5228
 194   2.0000      -0.566755       -15.4222
 195   2.0000      -0.563908       -15.3447
 196   2.0000      -0.560416       -15.2497
 197   2.0000      -0.558956       -15.2100
 198   2.0000      -0.556429       -15.1412
 199   2.0000      -0.550105       -14.9691
 200   2.0000      -0.548333       -14.9209
 201   2.0000      -0.544936       -14.8285
 202   2.0000      -0.541910       -14.7461
 203   2.0000      -0.540347       -14.7036
 204   2.0000      -0.536770       -14.6063
 205   2.0000      -0.534266       -14.5381
 206   2.0000      -0.530676       -14.4404
 207   2.0000      -0.528807       -14.3896
 208   2.0000      -0.527237       -14.3469
 209   2.0000      -0.525789       -14.3074
 210   2.0000      -0.522371       -14.2144
 211   2.0000      -0.517200       -14.0737
 212   2.0000      -0.515344       -14.0232
 213   2.0000      -0.513456       -13.9719
 214   2.0000      -0.513038       -13.9605
 215   2.0000      -0.509059       -13.8522
 216   2.0000      -0.507064       -13.7979
 217   2.0000      -0.506054       -13.7704
 218   2.0000      -0.504803       -13.7364
 219   2.0000      -0.501095       -13.6355
 220   2.0000      -0.500308       -13.6141
 221   2.0000      -0.497958       -13.5501
 222   2.0000      -0.492444       -13.4001
 223   2.0000      -0.487859       -13.2753
 224   2.0000      -0.484421       -13.1818
 225   2.0000      -0.483051       -13.1445
 226   2.0000      -0.481358       -13.0984
 227   2.0000      -0.478154       -13.0112
 228   2.0000      -0.476815       -12.9748
 229   2.0000      -0.475593       -12.9415
 230   2.0000      -0.472457       -12.8562
 231   2.0000      -0.470499       -12.8029
 232   2.0000      -0.468300       -12.7431
 233   2.0000      -0.462233       -12.5780
 234   2.0000      -0.461926       -12.5696
 235   2.0000      -0.457211       -12.4413
 236   2.0000      -0.455254       -12.3881
 237   2.0000      -0.453988       -12.3536
 238   2.0000      -0.451490       -12.2857
 239   2.0000      -0.446896       -12.1607
 240   2.0000      -0.445370       -12.1191
 241   2.0000      -0.442882       -12.0514
 242   2.0000      -0.440936       -11.9985
 243   2.0000      -0.439883       -11.9698
 244   2.0000      -0.438604       -11.9350
 245   2.0000      -0.435413       -11.8482
 246   2.0000      -0.433219       -11.7885
 247   2.0000      -0.432392       -11.7660
 248   2.0000      -0.424820       -11.5599
 249   2.0000      -0.422494       -11.4967
 250   2.0000      -0.419615       -11.4183
 251   2.0000      -0.416367       -11.3299
 252   2.0000      -0.412109       -11.2141
 253   2.0000      -0.407223       -11.0811
 254   2.0000      -0.404757       -11.0140
 255   2.0000      -0.402707       -10.9582
 256   2.0000      -0.399321       -10.8661
 257   2.0000      -0.398350       -10.8396
 258   2.0000      -0.395547       -10.7634
 259   2.0000      -0.393353       -10.7037
 260   2.0000      -0.388466       -10.5707
 261   2.0000      -0.384924       -10.4743
 262   2.0000      -0.379214       -10.3189
 263   2.0000      -0.377236       -10.2651
 264   2.0000      -0.375199       -10.2097
 265   2.0000      -0.371408       -10.1065
 266   2.0000      -0.370923       -10.0933
 267   2.0000      -0.365799        -9.9539
 268   2.0000      -0.362134        -9.8542
 269   2.0000      -0.355389        -9.6706
 270   2.0000      -0.351738        -9.5713
 271   2.0000      -0.347096        -9.4450
 272   2.0000      -0.338327        -9.2064
 273   2.0000      -0.332660        -9.0521
 274   2.0000      -0.331128        -9.0105
 275   2.0000      -0.321246        -8.7415
 276   2.0000      -0.313475        -8.5301
 277   2.0000      -0.309315        -8.4169
 278   2.0000      -0.300644        -8.1809
 279   2.0000      -0.296318        -8.0632
 280   2.0000      -0.288144        -7.8408
 281   2.0000      -0.280581        -7.6350
 282   2.0000      -0.234799        -6.3892
 283   0.0000      -0.121773        -3.3136
 284   0.0000      -0.098842        -2.6896
 285   0.0000      -0.082183        -2.2363
 286   0.0000      -0.077916        -2.1202
 287   0.0000      -0.061611        -1.6765

MULLIKEN ATOMIC CHARGES
-----------------------
   0 C :   -0.107840
   1 C :    0.243507
   2 F :   -0.167475
   3 C :    0.240653
   4 F :   -0.168135
   5 C :   -0.106247
   6 C :    0.114428
   7 C :    0.113158
   8 C :   -0.086637
   9 C :    0.042484
  10 C :   -0.003689
  11 C :   -0.077147
  12 C :    0.176318
  13 O :   -0.207737
  14 C :   -0.146954
  15 C :    0.347656
  16 C :   -0.382085
  17 C :   -0.192978
  18 N :    0.163313
  19 C :   -0.178018
  20 N :    0.128218
  21 C :    0.020531
  22 N :   -0.002182
  23 C :   -0.114628
  24 S :    0.207531
  25 C :   -0.004282
  26 N :    0.276148
  27 O :   -0.237178
  28 O :   -0.256191
  29 C :    0.005141
  30 C :    0.124698
  31 C :   -0.061657
  32 C :    0.002491
  33 C :   -0.023926
  34 N :   -0.042759
  35 N :   -0.065372
  36 C :   -0.026030
  37 C :    0.099566
  38 C :    0.059477
  39 N :   -0.297804
  40 S :    0.537419
  41 N :   -0.292073
  42 C :   -0.054268
  43 C :    0.011971
  44 C :    0.041025
  45 C :    0.040786
  46 C :   -0.014560
  47 S :    0.132804
  48 C :   -0.054197
  49 C :    0.014263
  50 C :    0.097007
  51 C :   -0.028841
  52 S :    0.123147
  53 C :    0.020071
  54 C :   -0.005686
  55 C :   -0.121253
  56 C :    0.282374
  57 C :   -0.343587
  58 C :   -0.184228
  59 N :    0.142514
  60 C :   -0.214958
  61 N :    0.155835
  62 C :    0.021803
  63 C :   -0.014459
  64 C :    0.123970
  65 O :   -0.155737
  66 C :   -0.077649
  67 C :    0.117967
  68 C :   -0.092762
  69 C :   -0.026159
  70 S :    0.182749
  71 C :   -0.124862
  72 C :    0.039209
  73 Br:    0.018405
  74 H :    0.011101
  75 H :    0.002345
  76 H :   -0.003591
  77 H :   -0.006892
  78 H :    0.069135
  79 H :    0.170826
  80 H :    0.020191
  81 H :    0.045583
  82 H :   -0.014190
  83 H :   -0.002514
  84 H :    0.002166
  85 H :   -0.004926
  86 H :   -0.005866
  87 H :    0.004602
  88 H :    0.000325
  89 H :    0.032810
  90 H :   -0.014637
  91 H :   -0.006789
  92 H :   -0.006087
Sum of atomic charges:   -0.0000000

LOEWDIN ATOMIC CHARGES
----------------------
   0 C :   -0.028620
   1 C :    0.068671
   2 F :   -0.045611
   3 C :    0.069393
   4 F :   -0.045957
   5 C :   -0.031909
   6 C :   -0.009329
   7 C :   -0.006760
   8 C :    0.019822
   9 C :   -0.023034
  10 C :   -0.053179
  11 C :    0.033110
  12 C :    0.092650
  13 O :   -0.171630
  14 C :   -0.153093
  15 C :    0.081050
  16 C :   -0.165717
  17 C :   -0.028541
  18 N :   -0.052532
  19 C :   -0.020945
  20 N :   -0.059458
  21 C :    0.128891
  22 N :    0.075628
  23 C :   -0.119955
  24 S :    0.478640
  25 C :   -0.197614
  26 N :    0.272728
  27 O :   -0.203355
  28 O :   -0.222012
  29 C :    0.005228
  30 C :   -0.079008
  31 C :   -0.023729
  32 C :   -0.009500
  33 C :   -0.014385
  34 N :   -0.036819
  35 N :   -0.051658
  36 C :   -0.014438
  37 C :   -0.047980
  38 C :   -0.044172
  39 N :   -0.281774
  40 S :    0.664593
  41 N :   -0.272157
  42 C :   -0.040546
  43 C :   -0.130933
  44 C :   -0.012986
  45 C :   -0.024447
  46 C :   -0.161483
  47 S :    0.438620
  48 C :   -0.175493
  49 C :   -0.008957
  50 C :   -0.015044
  51 C :   -0.088570
  52 S :    0.409794
  53 C :   -0.080710
  54 C :    0.057721
  55 C :   -0.119358
  56 C :    0.073417
  57 C :   -0.150455
  58 C :   -0.019255
  59 N :   -0.061920
  60 C :   -0.026588
  61 N :   -0.059755
  62 C :   -0.020781
  63 C :   -0.048183
  64 C :    0.072413
  65 O :   -0.147561
  66 C :    0.016511
  67 C :   -0.035173
  68 C :   -0.146468
  69 C :   -0.012023
  70 S :    0.429928
  71 C :   -0.274101
  72 C :   -0.070980
  73 Br:    0.132576
  74 H :    0.048790
  75 H :    0.045832
  76 H :    0.041060
  77 H :    0.041784
  78 H :    0.047423
  79 H :    0.087606
  80 H :    0.050113
  81 H :    0.030426
  82 H :    0.037613
  83 H :    0.047990
  84 H :    0.039187
  85 H :    0.034788
  86 H :    0.035927
  87 H :    0.037920
  88 H :    0.034996
  89 H :    0.046570
  90 H :    0.038972
  91 H :    0.040545
  92 H :    0.037710

  Mayer bond orders larger than 0.100000
B(  0-C ,  1-C ) :   1.4367 B(  0-C ,  5-C ) :   0.1072 B(  0-C ,  7-C ) :   1.1922
B(  0-C , 74-H ) :   1.0068 B(  1-C ,  2-F ) :   1.1384 B(  1-C ,  3-C ) :   1.1922
B(  3-C ,  4-F ) :   1.1370 B(  3-C ,  5-C ) :   1.4402 B(  5-C ,  6-C ) :   1.1955
B(  5-C , 75-H ) :   1.0069 B(  6-C ,  7-C ) :   1.2570 B(  6-C , 11-C ) :   1.1845
B(  7-C ,  8-C ) :   1.2102 B(  8-C ,  9-C ) :   1.4601 B(  8-C , 76-H ) :   0.9908
B(  9-C , 10-C ) :   1.2175 B(  9-C , 15-C ) :   0.9886 B( 10-C , 11-C ) :   1.4742
B( 10-C , 12-C ) :   0.9716 B( 11-C , 77-H ) :   1.0178 B( 12-C , 13-O ) :   2.0732
B( 12-C , 14-C ) :   0.9925 B( 13-O , 79-H ) :   0.1360 B( 14-C , 15-C ) :   1.1184
B( 14-C , 21-C ) :   1.4337 B( 15-C , 16-C ) :   1.6113 B( 16-C , 17-C ) :   1.1426
B( 16-C , 19-C ) :   1.1539 B( 17-C , 18-N ) :   2.9705 B( 19-C , 20-N ) :   2.8829
B( 21-C , 22-N ) :   1.3657 B( 21-C , 78-H ) :   0.9264 B( 22-N , 23-C ) :   1.1319
B( 22-N , 79-H ) :   0.8358 B( 23-C , 24-S ) :   1.1443 B( 23-C , 30-C ) :   1.4053
B( 24-S , 25-C ) :   1.1024 B( 25-C , 26-N ) :   0.9539 B( 25-C , 29-C ) :   1.4897
B( 26-N , 27-O ) :   1.5487 B( 26-N , 28-O ) :   1.5179 B( 27-O , 28-O ) :   0.2661
B( 29-C , 30-C ) :   1.2338 B( 29-C , 80-H ) :   1.0071 B( 30-C , 31-C ) :   1.0321
B( 31-C , 32-C ) :   1.6724 B( 31-C , 81-H ) :   0.9327 B( 32-C , 33-C ) :   1.1491
B( 32-C , 82-H ) :   0.9746 B( 33-C , 34-N ) :   1.6137 B( 33-C , 36-C ) :   0.1084
B( 33-C , 38-C ) :   1.1038 B( 34-N , 35-N ) :   1.2562 B( 35-N , 36-C ) :   1.5874
B( 36-C , 37-C ) :   1.0844 B( 36-C , 42-C ) :   1.1974 B( 37-C , 38-C ) :   1.2055
B( 37-C , 41-N ) :   1.5046 B( 38-C , 39-N ) :   1.5030 B( 39-N , 40-S ) :   1.2463
B( 39-N , 41-N ) :   0.1376 B( 40-S , 41-N ) :   1.2583 B( 42-C , 43-C ) :   1.5119
B( 42-C , 83-H ) :   0.9536 B( 43-C , 44-C ) :   1.1296 B( 43-C , 47-S ) :   1.0547
B( 44-C , 45-C ) :   1.5991 B( 44-C , 84-H ) :   1.0031 B( 45-C , 46-C ) :   1.1728
B( 45-C , 85-H ) :   0.9938 B( 46-C , 47-S ) :   1.0363 B( 46-C , 48-C ) :   1.4967
B( 48-C , 49-C ) :   1.1918 B( 48-C , 52-S ) :   1.0494 B( 49-C , 50-C ) :   1.5871
B( 49-C , 86-H ) :   0.9949 B( 50-C , 51-C ) :   1.1745 B( 50-C , 87-H ) :   0.9815
B( 51-C , 52-S ) :   1.0922 B( 51-C , 53-C ) :   1.4733 B( 53-C , 54-C ) :   1.3324
B( 53-C , 88-H ) :   0.9425 B( 54-C , 55-C ) :   1.4747 B( 54-C , 89-H ) :   0.9479
B( 55-C , 56-C ) :   1.0983 B( 55-C , 64-C ) :   0.9718 B( 56-C , 57-C ) :   1.6197
B( 56-C , 62-C ) :   1.0030 B( 57-C , 58-C ) :   1.1407 B( 57-C , 60-C ) :   1.1441
B( 58-C , 59-N ) :   2.9712 B( 60-C , 61-N ) :   3.0083 B( 62-C , 63-C ) :   1.2700
B( 62-C , 69-C ) :   1.4170 B( 63-C , 64-C ) :   0.9394 B( 63-C , 66-C ) :   1.4355
B( 64-C , 65-O ) :   2.1909 B( 66-C , 67-C ) :   1.2362 B( 66-C , 90-H ) :   1.0170
B( 67-C , 68-C ) :   1.3126 B( 67-C , 72-C ) :   1.1645 B( 68-C , 69-C ) :   1.3213
B( 68-C , 70-S ) :   1.0843 B( 69-C , 91-H ) :   0.9814 B( 70-S , 71-C ) :   1.0868
B( 71-C , 72-C ) :   1.6184 B( 71-C , 73-Br) :   1.0153 B( 72-C , 92-H ) :   0.9996

-----------------------------------------------------------------------------
         ABSORPTION SPECTRUM VIA TRANSITION ELECTRIC DIPOLE MOMENTS
-----------------------------------------------------------------------------
State   Energy  Wavelength   fosc         T2         TX        TY        TZ
        (cm-1)    (nm)                  (au**2)     (au)      (au)      (au)
-----------------------------------------------------------------------------
   0   10802.6    925.7   1.246777560  37.99588   3.09286  -2.82118   4.52449
   1   16659.9    600.2   0.026785974   0.52931  -0.20840   0.07582  -0.69291
   2   17012.2    587.8   0.158674773   3.07061   0.32113  -0.09336   1.72011
   3   18327.4    545.6   0.203881724   3.66229   0.52946   0.38346   1.79859
   4   19812.8    504.7   0.096266444   1.59957   0.40037  -0.87494  -0.82083
   5   21836.8    457.9   0.076040799   1.14639  -0.13182   0.46185  -0.95693
   6   22760.0    439.4   0.065003946   0.94025  -0.06143   0.45638  -0.85334
   7   22819.9    438.2   0.073588255   1.06163  -0.09766   0.05893  -1.02402
   8   24412.9    409.6   0.219664294   2.96221  -0.72000   0.86518  -1.30203
   9   24452.0    409.0   0.149701763   2.01553   0.39770   0.83455  -1.07744
  10   25783.7    387.8   0.079654758   1.01705  -0.26443  -0.50890  -0.82955
  11   27043.2    369.8   0.153813953   1.87247  -1.04074   0.88564   0.07056
  12   27704.5    361.0   0.008074623   0.09595   0.04895  -0.23388   0.19712
  13   27913.7    358.2   0.109722947   1.29406   0.00332  -0.44027  -1.04891
  14   28151.0    355.2   0.144217670   1.68655  -0.21128  -0.02665  -1.28110
  15   28286.9    353.5   0.012907184   0.15022  -0.07946   0.24819  -0.28689
  16   28467.4    351.3   0.025507291   0.29498   0.05618   0.40905   0.35285
  17   28605.7    349.6   0.000547988   0.00631   0.00550  -0.07538  -0.02439
  18   29109.2    343.5   0.066612372   0.75336   0.35029  -0.72605   0.32172
  19   29534.5    338.6   0.009138304   0.10186  -0.09418   0.06003  -0.29898
  20   29593.7    337.9   0.146229097   1.62671   0.58174   0.28781   1.09793
  21   30083.1    332.4   0.242633269   2.65524  -0.00115  -0.62872   1.50331
  22   30752.1    325.2   0.091592072   0.98053  -0.01632   0.02573   0.98975
  23   30865.7    324.0   0.111567259   1.18997  -0.83085  -0.06162   0.70418
  24   31120.3    321.3   0.127385359   1.34757  -0.80341   0.55664  -0.62630
  25   31353.4    318.9   0.280617642   2.94649  -1.20464  -1.19036  -0.27995
  26   31533.4    317.1   0.289670074   3.02419  -0.52690  -0.43598   1.59890
  27   32440.7    308.3   0.001572565   0.01596   0.02357  -0.12328  -0.01431
  28   32656.8    306.2   0.090409736   0.91142   0.17673  -0.63136   0.69395
  29   32978.6    303.2   0.215330947   2.14956   0.13264   1.39109  -0.44365
  30   33385.8    299.5   0.167990091   1.65652   0.28801   0.76243   0.99613
  31   33491.5    298.6   0.002817832   0.02770   0.01311   0.16049  -0.04207
  32   33708.0    296.7   0.085458682   0.83464  -0.29370  -0.32059  -0.80350
  33   33783.0    296.0   0.193639660   1.88700   0.27861   0.51219   1.24380
  34   34067.9    293.5   0.046921040   0.45342  -0.61636  -0.06110   0.26417
  35   34281.0    291.7   0.046232070   0.44398  -0.03936   0.64715  -0.15371
  36   34683.6    288.3   0.162980244   1.54698   0.27257   0.94467   0.76177
  37   34776.9    287.5   0.076121469   0.72060  -0.34189   0.31838   0.70876
  38   34846.8    287.0   0.137395486   1.29803   0.55495   0.50618   0.85664
  39   35166.1    284.4   0.306231243   2.86682   0.30457  -1.43041  -0.85321
  40   35372.3    282.7   0.048843649   0.45459  -0.44770  -0.24709  -0.43944
  41   35663.6    280.4   0.004719607   0.04357   0.07679   0.18832   0.04696
  42   35875.2    278.7   0.325093447   2.98325   0.82346   1.47088   0.37641
  43   35989.9    277.9   0.159149672   1.45580  -0.79153   0.79532  -0.44355
  44   36157.0    276.6   0.112895939   1.02792  -0.64753  -0.76918  -0.13032
  45   36480.9    274.1   0.014910522   0.13456  -0.17987   0.28608   0.14269
  46   36698.3    272.5   0.041704574   0.37412   0.60647  -0.07608   0.02302
  47   37411.2    267.3   0.082414152   0.72523   0.66419  -0.48847  -0.21326
  48   38068.7    262.7   0.027024745   0.23371  -0.41574   0.06084  -0.23909
  49   38129.0    262.3   0.086714928   0.74871   0.23165  -0.63138   0.54443
  50   38243.0    261.5   0.054342356   0.46780   0.13460  -0.09161   0.66430
  51   38417.5    260.3   0.005748157   0.04926   0.02187  -0.03389   0.21825
  52   38523.9    259.6   0.061545147   0.52594  -0.24102   0.59272  -0.34137
  53   38560.6    259.3   0.008867439   0.07571  -0.19089   0.13187  -0.14791
  54   38676.0    258.6   0.019768040   0.16827  -0.22246   0.05940  -0.33948
  55   38933.1    256.9   0.210377778   1.77892  -0.41050   0.68109  -1.07076
  56   39249.8    254.8   0.103648239   0.86936  -0.38448  -0.84483   0.08826
  57   39423.6    253.7   0.012898043   0.10771  -0.20979  -0.25237   0.00081
  58   39494.4    253.2   0.011404009   0.09506   0.25095  -0.17145   0.05185
  59   39715.6    251.8   0.072493961   0.60092   0.37500  -0.31676   0.59997
  60   39768.6    251.5   0.006923364   0.05731   0.07486  -0.20437  -0.09971
  61   40018.4    249.9   0.022328196   0.18368  -0.28212  -0.08551  -0.31109
  62   40194.4    248.8   0.068145451   0.55814   0.05195  -0.68156   0.30152
  63   40318.6    248.0   0.082054198   0.66999   0.28751   0.55158   0.53207

FINAL SINGLE POINT ENERGY     -7601.352491770581

DIPOLE MOMENT
-------------
                                X             Y             Z
Electronic contribution:     -8.31195      78.83390    -106.74494
Nuclear contribution   :     10.15952     -79.14471     106.66038
                        -----------------------------------------
Total Dipole Moment    :      1.84757      -0.31081      -0.08456
                        -----------------------------------------
Magnitude (a.u.)       :      1.87544
Magnitude (Debye)      :      4.76698

Rotational constants in cm-1:     0.001084     0.000253     0.000228
Rotational constants in MHz :    32.491049     7.597241     6.825825

                             ****ORCA TERMINATED NORMALLY****
TOTAL RUN TIME: 0 days 0 hours 20 minutes 34 seconds 871 msec
