                         Program Version 4.2.0 -  RELEASE  -
|  1> # ORCA input file
|  2> # SCF done       -232.876345945556          0.000770106940
|  3> ! CAM-B3LYP def2-SVP def2/J RIJCOSX Grid4 TightSCF
|  4> %maxcore 5000
|  5> %tddft
|  6>     Mode sTDDFT
|  7>     Ethresh 5.0
|  8>     maxcore 5000
|  9> end
| 10>
| 11> %pal
| 12>   nprocs 6
| 13>   end
| 14> * xyz 0 1
| 15>    C        0.54931         0.77972         4.74658
| 16>    C        1.84920         0.55533         5.10407
| 17>    F        2.64996         1.58353         5.41241
| 18>    C        2.36301        -0.75607         5.15400
| 19>    F        3.64071        -0.94710         5.50898
| 20>    C        1.56987        -1.82522         4.84426
| 21>    C        0.22642        -1.62663         4.47146
| 22>    C       -0.29533        -0.30129         4.42390
| 23>    C       -1.64363        -0.07877         4.06174
| 24>    C       -2.44278        -1.14882         3.75830
| 25>    C       -1.91096        -2.46867         3.79656
| 26>    C       -0.61375        -2.71407         4.14276
| 27>    C       -2.96210        -3.43603         3.42026
| 28>    O       -2.83914        -4.64330         3.34660
| 29>    C       -4.14894        -2.61760         3.08975
| 30>    C       -3.84870        -1.22975         3.37998
| 31>    C       -4.75529        -0.20396         3.40317
| 32>    C       -6.14038        -0.37572         3.19303
| 33>    N       -7.27981        -0.46065         3.08320
| 34>    C       -4.42352         1.13228         3.70649
| 35>    N       -4.19834         2.23358         3.93878
| 36>    C       -5.22977        -3.07136         2.38511
| 37>    C       -5.51138        -4.43292         2.07546
| 38>    C       -5.28763        -5.54671         2.89569
| 39>    O       -5.24493        -5.51576         4.23626
| 40>    C       -5.64665        -4.38943         4.97075
| 41>    C       -5.26245        -6.88069         2.34030
| 42>    O       -4.78298        -7.94254         3.00927
| 43>    C       -3.86662        -7.77573         4.07782
| 44>    C       -5.74796        -7.12149         1.06466
| 45>    C       -6.17740        -6.02498         0.28226
| 46>    C       -6.02740        -4.68738         0.77019
| 47>    N       -6.41781        -3.77975        -0.11482
| 48>    S       -6.96499        -4.54589        -1.42770
| 49>    N       -6.71050        -6.05700        -0.93467
| 50>    C       -5.84415        -8.46861         0.51122
| 51>    C       -6.51092        -9.50036         1.18169
| 52>    C       -6.62900       -10.81940         0.61663
| 53>    N       -7.31892       -11.77594         1.28933
| 54>    C       -7.83120       -11.47955         2.43195
| 55>    C       -7.72780       -10.16770         2.98376
| 56>    N       -7.10616        -9.22388         2.36913
| 57>    F       -8.30381        -9.88130         4.15113
| 58>    F       -8.48929       -12.43832         3.08568
| 59>    C       -6.09384       -11.13177        -0.63759
| 60>    C       -5.43968       -10.09812        -1.31858
| 61>    C       -5.31251        -8.77455        -0.74701
| 62>    N       -4.61429        -7.95741        -1.54539
| 63>    S       -4.19222        -8.76278        -2.85875
| 64>    N       -4.83054       -10.18204        -2.50746
| 65>    C       -6.25502       -12.44554        -1.25507
| 66>    C       -5.88634       -13.61891        -0.61714
| 67>    O       -5.27836       -13.46667         0.57841
| 68>    C       -5.41533       -14.43152         1.60570
| 69>    C       -6.04073       -14.89246        -1.26853
| 70>    O       -5.50930       -15.93025        -0.58712
| 71>    C       -5.02788       -17.09049        -1.23860
| 72>    C       -6.62941       -15.00256        -2.52902
| 73>    C       -6.98447       -13.79448        -3.18980
| 74>    C       -6.79005       -12.52335        -2.55733
| 75>    N       -7.23628       -11.51606        -3.30224
| 76>    S       -7.83168       -12.10680        -4.67153
| 77>    N       -7.56681       -13.67312        -4.37954
| 78>    C       -7.00178       -16.25588        -3.13272
| 79>    C       -7.10838       -16.54552        -4.45283
| 80>    C       -7.96326       -17.68025        -4.89715
| 81>    O       -8.39069       -18.57911        -4.21079
| 82>    C       -8.20979       -17.43241        -6.33334
| 83>    C       -9.04408       -18.09293        -7.18839
| 84>    C       -9.15051       -17.64764        -8.52546
| 85>    C       -8.38771       -16.52132        -8.95165
| 86>    C       -8.50685       -16.07776       -10.28425
| 87>    C       -9.34165       -16.72226       -11.15314
| 88>    C      -10.09434       -17.83657       -10.73115
| 89>    C      -10.00128       -18.29086        -9.44549
| 90>    F      -10.90598       -18.44840       -11.60427
| 91>    F       -9.45326       -16.29874       -12.41915
| 92>    C       -7.52415       -15.86320        -8.04688
| 93>    C       -7.43442       -16.31483        -6.75749
| 94>    C       -6.63173       -15.85245        -5.63256
| 95>    C       -5.50557       -15.07872        -5.71085
| 96>    C       -4.64738       -14.88852        -4.61060
| 97>    N       -3.91064       -14.77322        -3.73748
| 98>    C       -5.05896       -14.45043        -6.88945
| 99>    N       -4.67208       -13.90149        -7.82039
|100>    H        0.17101         1.78955         4.71518
|101>    H        1.97895        -2.82253         4.88654
|102>    H       -2.01050         0.93449         4.02806
|103>    H       -0.23314        -3.72392         4.16794
|104>    H       -5.84712        -2.35389         1.85790
|105>    H       -4.80929        -3.70638         5.15115
|106>    H       -6.00258        -4.77537         5.92685
|107>    H       -6.44739        -3.83922         4.46811
|108>    H       -3.28533        -8.69782         4.10267
|109>    H       -4.39040        -7.65151         5.02753
|110>    H       -3.20428        -6.92609         3.91029
|111>    H       -5.24959       -13.88515         2.53469
|112>    H       -4.67116       -15.22479         1.51588
|113>    H       -6.41556       -14.86532         1.61685
|114>    H       -4.77114       -16.88820        -2.27931
|115>    H       -5.75151       -17.90581        -1.18124
|116>    H       -4.12700       -17.38275        -0.69544
|117>    H       -7.39204       -17.01671        -2.46554
|118>    H       -9.61898       -18.94151        -6.85000
|119>    H       -7.93561       -15.22805       -10.62407
|120>    H      -10.58472       -19.14468        -9.13842
|121>    H       -6.96283       -15.00861        -8.38969
|122> *
|123>
|124>                          ****END OF INPUT****

CARTESIAN COORDINATES (ANGSTROEM)
---------------------------------
  C      0.549310    0.779720    4.746580
  C      1.849200    0.555330    5.104070
  F      2.649960    1.583530    5.412410
  C      2.363010   -0.756070    5.154000
  F      3.640710   -0.947100    5.508980
  C      1.569870   -1.825220    4.844260
  C      0.226420   -1.626630    4.471460
  C     -0.295330   -0.301290    4.423900
  C     -1.643630   -0.078770    4.061740
  C     -2.442780   -1.148820    3.758300
  C     -1.910960   -2.468670    3.796560
  C     -0.613750   -2.714070    4.142760
  C     -2.962100   -3.436030    3.420260
  O     -2.839140   -4.643300    3.346600
  C     -4.148940   -2.617600    3.089750
  C     -3.848700   -1.229750    3.379980
  C     -4.755290   -0.203960    3.403170
  C     -6.140380   -0.375720    3.193030
  N     -7.279810   -0.460650    3.083200
  C     -4.423520    1.132280    3.706490
  N     -4.198340    2.233580    3.938780
  C     -5.229770   -3.071360    2.385110
  C     -5.511380   -4.432920    2.075460
  C     -5.287630   -5.546710    2.895690
  O     -5.244930   -5.515760    4.236260
  C     -5.646650   -4.389430    4.970750
  C     -5.262450   -6.880690    2.340300
  O     -4.782980   -7.942540    3.009270
  C     -3.866620   -7.775730    4.077820
  C     -5.747960   -7.121490    1.064660
  C     -6.177400   -6.024980    0.282260
  C     -6.027400   -4.687380    0.770190
  N     -6.417810   -3.779750   -0.114820
  S     -6.964990   -4.545890   -1.427700
  N     -6.710500   -6.057000   -0.934670
  C     -5.844150   -8.468610    0.511220
  C     -6.510920   -9.500360    1.181690
  C     -6.629000  -10.819400    0.616630
  N     -7.318920  -11.775940    1.289330
  C     -7.831200  -11.479550    2.431950
  C     -7.727800  -10.167700    2.983760
  N     -7.106160   -9.223880    2.369130
  F     -8.303810   -9.881300    4.151130
  F     -8.489290  -12.438320    3.085680
  C     -6.093840  -11.131770   -0.637590
  C     -5.439680  -10.098120   -1.318580
  C     -5.312510   -8.774550   -0.747010
  N     -4.614290   -7.957410   -1.545390
  S     -4.192220   -8.762780   -2.858750
  N     -4.830540  -10.182040   -2.507460
  C     -6.255020  -12.445540   -1.255070
  C     -5.886340  -13.618910   -0.617140
  O     -5.278360  -13.466670    0.578410
  C     -5.415330  -14.431520    1.605700
  C     -6.040730  -14.892460   -1.268530
  O     -5.509300  -15.930250   -0.587120
  C     -5.027880  -17.090490   -1.238600
  C     -6.629410  -15.002560   -2.529020
  C     -6.984470  -13.794480   -3.189800
  C     -6.790050  -12.523350   -2.557330
  N     -7.236280  -11.516060   -3.302240
  S     -7.831680  -12.106800   -4.671530
  N     -7.566810  -13.673120   -4.379540
  C     -7.001780  -16.255880   -3.132720
  C     -7.108380  -16.545520   -4.452830
  C     -7.963260  -17.680250   -4.897150
  O     -8.390690  -18.579110   -4.210790
  C     -8.209790  -17.432410   -6.333340
  C     -9.044080  -18.092930   -7.188390
  C     -9.150510  -17.647640   -8.525460
  C     -8.387710  -16.521320   -8.951650
  C     -8.506850  -16.077760  -10.284250
  C     -9.341650  -16.722260  -11.153140
  C    -10.094340  -17.836570  -10.731150
  C    -10.001280  -18.290860   -9.445490
  F    -10.905980  -18.448400  -11.604270
  F     -9.453260  -16.298740  -12.419150
  C     -7.524150  -15.863200   -8.046880
  C     -7.434420  -16.314830   -6.757490
  C     -6.631730  -15.852450   -5.632560
  C     -5.505570  -15.078720   -5.710850
  C     -4.647380  -14.888520   -4.610600
  N     -3.910640  -14.773220   -3.737480
  C     -5.058960  -14.450430   -6.889450
  N     -4.672080  -13.901490   -7.820390
  H      0.171010    1.789550    4.715180
  H      1.978950   -2.822530    4.886540
  H     -2.010500    0.934490    4.028060
  H     -0.233140   -3.723920    4.167940
  H     -5.847120   -2.353890    1.857900
  H     -4.809290   -3.706380    5.151150
  H     -6.002580   -4.775370    5.926850
  H     -6.447390   -3.839220    4.468110
  H     -3.285330   -8.697820    4.102670
  H     -4.390400   -7.651510    5.027530
  H     -3.204280   -6.926090    3.910290
  H     -5.249590  -13.885150    2.534690
  H     -4.671160  -15.224790    1.515880
  H     -6.415560  -14.865320    1.616850
  H     -4.771140  -16.888200   -2.279310
  H     -5.751510  -17.905810   -1.181240
  H     -4.127000  -17.382750   -0.695440
  H     -7.392040  -17.016710   -2.465540
  H     -9.618980  -18.941510   -6.850000
  H     -7.935610  -15.228050  -10.624070
  H    -10.584720  -19.144680   -9.138420
  H     -6.962830  -15.008610   -8.389690

 Total Charge           Charge          ....    0
 Multiplicity           Mult            ....    1
 Number of Electrons    NEL             ....  604
 Basis Dimension        Dim             .... 1312

ORBITAL ENERGIES
----------------

  NO   OCC          E(Eh)            E(eV)
   0   2.0000     -89.028615     -2422.5918
   1   2.0000     -89.016517     -2422.2626
   2   2.0000     -89.009689     -2422.0768
   3   2.0000     -24.807987      -675.0596
   4   2.0000     -24.805986      -675.0052
   5   2.0000     -24.801324      -674.8783
   6   2.0000     -24.800388      -674.8529
   7   2.0000     -24.797521      -674.7748
   8   2.0000     -24.796973      -674.7599
   9   2.0000     -19.283130      -524.7206
  10   2.0000     -19.272088      -524.4202
  11   2.0000     -19.253139      -523.9046
  12   2.0000     -19.249458      -523.8044
  13   2.0000     -19.226422      -523.1775
  14   2.0000     -19.216869      -522.9176
  15   2.0000     -14.443776      -393.0351
  16   2.0000     -14.442011      -392.9871
  17   2.0000     -14.432992      -392.7417
  18   2.0000     -14.432601      -392.7311
  19   2.0000     -14.432481      -392.7278
  20   2.0000     -14.431611      -392.7041
  21   2.0000     -14.429302      -392.6413
  22   2.0000     -14.427782      -392.5999
  23   2.0000     -14.418765      -392.3545
  24   2.0000     -14.416678      -392.2978
  25   2.0000     -14.415369      -392.2621
  26   2.0000     -14.414554      -392.2399
  27   2.0000     -10.421279      -283.5774
  28   2.0000     -10.420084      -283.5449
  29   2.0000     -10.384828      -282.5855
  30   2.0000     -10.383987      -282.5626
  31   2.0000     -10.380466      -282.4668
  32   2.0000     -10.380073      -282.4562
  33   2.0000     -10.379826      -282.4494
  34   2.0000     -10.375535      -282.3327
  35   2.0000     -10.371357      -282.2190
  36   2.0000     -10.367730      -282.1203
  37   2.0000     -10.357205      -281.8339
  38   2.0000     -10.354972      -281.7731
  39   2.0000     -10.345914      -281.5266
  40   2.0000     -10.343903      -281.4719
  41   2.0000     -10.340062      -281.3674
  42   2.0000     -10.338730      -281.3311
  43   2.0000     -10.337796      -281.3057
  44   2.0000     -10.334769      -281.2233
  45   2.0000     -10.333608      -281.1918
  46   2.0000     -10.332967      -281.1743
  47   2.0000     -10.323382      -280.9135
  48   2.0000     -10.323219      -280.9091
  49   2.0000     -10.322914      -280.9008
  50   2.0000     -10.322052      -280.8773
  51   2.0000     -10.321652      -280.8664
  52   2.0000     -10.321294      -280.8567
  53   2.0000     -10.319940      -280.8199
  54   2.0000     -10.319288      -280.8021
  55   2.0000     -10.318436      -280.7789
  56   2.0000     -10.318069      -280.7689
  57   2.0000     -10.317775      -280.7609
  58   2.0000     -10.317547      -280.7547
  59   2.0000     -10.317283      -280.7475
  60   2.0000     -10.314993      -280.6852
  61   2.0000     -10.314234      -280.6646
  62   2.0000     -10.313837      -280.6538
  63   2.0000     -10.310955      -280.5754
  64   2.0000     -10.309761      -280.5429
  65   2.0000     -10.309439      -280.5341
  66   2.0000     -10.306819      -280.4628
  67   2.0000     -10.306164      -280.4450
  68   2.0000     -10.305773      -280.4343
  69   2.0000     -10.304602      -280.4025
  70   2.0000     -10.303586      -280.3748
  71   2.0000     -10.303564      -280.3742
  72   2.0000     -10.303039      -280.3600
  73   2.0000     -10.302414      -280.3429
  74   2.0000     -10.302121      -280.3350
  75   2.0000     -10.301254      -280.3114
  76   2.0000     -10.301240      -280.3110
  77   2.0000     -10.300637      -280.2946
  78   2.0000     -10.300446      -280.2894
  79   2.0000     -10.299449      -280.2623
  80   2.0000     -10.298354      -280.2325
  81   2.0000     -10.298291      -280.2307
  82   2.0000     -10.297335      -280.2047
  83   2.0000     -10.296167      -280.1729
  84   2.0000     -10.293033      -280.0877
  85   2.0000      -8.119878      -220.9531
  86   2.0000      -8.108113      -220.6330
  87   2.0000      -8.101688      -220.4581
  88   2.0000      -6.090716      -165.7368
  89   2.0000      -6.083168      -165.5314
  90   2.0000      -6.082979      -165.5263
  91   2.0000      -6.079461      -165.4305
  92   2.0000      -6.073096      -165.2573
  93   2.0000      -6.071817      -165.2225
  94   2.0000      -6.070202      -165.1786
  95   2.0000      -6.065461      -165.0496
  96   2.0000      -6.063542      -164.9974
  97   2.0000      -1.334510       -36.3139
  98   2.0000      -1.323858       -36.0240
  99   2.0000      -1.320245       -35.9257
 100   2.0000      -1.320119       -35.9223
 101   2.0000      -1.308985       -35.6193
 102   2.0000      -1.305283       -35.5186
 103   2.0000      -1.192841       -32.4588
 104   2.0000      -1.181242       -32.1432
 105   2.0000      -1.155588       -31.4451
 106   2.0000      -1.149466       -31.2785
 107   2.0000      -1.139368       -31.0038
 108   2.0000      -1.131966       -30.8024
 109   2.0000      -1.124346       -30.5950
 110   2.0000      -1.118823       -30.4447
 111   2.0000      -1.114454       -30.3258
 112   2.0000      -1.101052       -29.9611
 113   2.0000      -1.027382       -27.9565
 114   2.0000      -1.022830       -27.8326
 115   2.0000      -1.019049       -27.7297
 116   2.0000      -1.007246       -27.4086
 117   2.0000      -1.003148       -27.2970
 118   2.0000      -0.996416       -27.1139
 119   2.0000      -0.994456       -27.0605
 120   2.0000      -0.985828       -26.8257
 121   2.0000      -0.984739       -26.7961
 122   2.0000      -0.981495       -26.7078
 123   2.0000      -0.977771       -26.6065
 124   2.0000      -0.971619       -26.4391
 125   2.0000      -0.970339       -26.4043
 126   2.0000      -0.960153       -26.1271
 127   2.0000      -0.948904       -25.8210
 128   2.0000      -0.934781       -25.4367
 129   2.0000      -0.929092       -25.2819
 130   2.0000      -0.910123       -24.7657
 131   2.0000      -0.905523       -24.6405
 132   2.0000      -0.897451       -24.4209
 133   2.0000      -0.893894       -24.3241
 134   2.0000      -0.890825       -24.2406
 135   2.0000      -0.884601       -24.0712
 136   2.0000      -0.875502       -23.8236
 137   2.0000      -0.870726       -23.6937
 138   2.0000      -0.867094       -23.5948
 139   2.0000      -0.862599       -23.4725
 140   2.0000      -0.852140       -23.1879
 141   2.0000      -0.844225       -22.9725
 142   2.0000      -0.839589       -22.8464
 143   2.0000      -0.833371       -22.6772
 144   2.0000      -0.822536       -22.3823
 145   2.0000      -0.820451       -22.3256
 146   2.0000      -0.800893       -21.7934
 147   2.0000      -0.791053       -21.5256
 148   2.0000      -0.788931       -21.4679
 149   2.0000      -0.788366       -21.4525
 150   2.0000      -0.781775       -21.2732
 151   2.0000      -0.770661       -20.9708
 152   2.0000      -0.764646       -20.8071
 153   2.0000      -0.755674       -20.5629
 154   2.0000      -0.753572       -20.5057
 155   2.0000      -0.738812       -20.1041
 156   2.0000      -0.735374       -20.0105
 157   2.0000      -0.727404       -19.7937
 158   2.0000      -0.721215       -19.6253
 159   2.0000      -0.718032       -19.5386
 160   2.0000      -0.716657       -19.5012
 161   2.0000      -0.705915       -19.2089
 162   2.0000      -0.704867       -19.1804
 163   2.0000      -0.698950       -19.0194
 164   2.0000      -0.695623       -18.9289
 165   2.0000      -0.691839       -18.8259
 166   2.0000      -0.685859       -18.6632
 167   2.0000      -0.681252       -18.5378
 168   2.0000      -0.676682       -18.4135
 169   2.0000      -0.668470       -18.1900
 170   2.0000      -0.667566       -18.1654
 171   2.0000      -0.661744       -18.0070
 172   2.0000      -0.655836       -17.8462
 173   2.0000      -0.652076       -17.7439
 174   2.0000      -0.649195       -17.6655
 175   2.0000      -0.646591       -17.5946
 176   2.0000      -0.643054       -17.4984
 177   2.0000      -0.641064       -17.4442
 178   2.0000      -0.633656       -17.2427
 179   2.0000      -0.632169       -17.2022
 180   2.0000      -0.629487       -17.1292
 181   2.0000      -0.626799       -17.0561
 182   2.0000      -0.621957       -16.9243
 183   2.0000      -0.616975       -16.7887
 184   2.0000      -0.615901       -16.7595
 185   2.0000      -0.613015       -16.6810
 186   2.0000      -0.612852       -16.6766
 187   2.0000      -0.608757       -16.5651
 188   2.0000      -0.606989       -16.5170
 189   2.0000      -0.596759       -16.2386
 190   2.0000      -0.591003       -16.0820
 191   2.0000      -0.589305       -16.0358
 192   2.0000      -0.588434       -16.0121
 193   2.0000      -0.585120       -15.9219
 194   2.0000      -0.584693       -15.9103
 195   2.0000      -0.584588       -15.9075
 196   2.0000      -0.579366       -15.7654
 197   2.0000      -0.574009       -15.6196
 198   2.0000      -0.571862       -15.5612
 199   2.0000      -0.569852       -15.5065
 200   2.0000      -0.562876       -15.3166
 201   2.0000      -0.558168       -15.1885
 202   2.0000      -0.557145       -15.1607
 203   2.0000      -0.555245       -15.1090
 204   2.0000      -0.553675       -15.0663
 205   2.0000      -0.552757       -15.0413
 206   2.0000      -0.550720       -14.9858
 207   2.0000      -0.549978       -14.9657
 208   2.0000      -0.549692       -14.9579
 209   2.0000      -0.548016       -14.9123
 210   2.0000      -0.546354       -14.8671
 211   2.0000      -0.542509       -14.7624
 212   2.0000      -0.541032       -14.7222
 213   2.0000      -0.538861       -14.6632
 214   2.0000      -0.537802       -14.6343
 215   2.0000      -0.537024       -14.6132
 216   2.0000      -0.535093       -14.5606
 217   2.0000      -0.534551       -14.5459
 218   2.0000      -0.532880       -14.5004
 219   2.0000      -0.532058       -14.4780
 220   2.0000      -0.529899       -14.4193
 221   2.0000      -0.525215       -14.2918
 222   2.0000      -0.521962       -14.2033
 223   2.0000      -0.519533       -14.1372
 224   2.0000      -0.518304       -14.1038
 225   2.0000      -0.516829       -14.0636
 226   2.0000      -0.514401       -13.9976
 227   2.0000      -0.510625       -13.8948
 228   2.0000      -0.509737       -13.8706
 229   2.0000      -0.505532       -13.7562
 230   2.0000      -0.504633       -13.7318
 231   2.0000      -0.503631       -13.7045
 232   2.0000      -0.501385       -13.6434
 233   2.0000      -0.498976       -13.5778
 234   2.0000      -0.498431       -13.5630
 235   2.0000      -0.495727       -13.4894
 236   2.0000      -0.494468       -13.4552
 237   2.0000      -0.489500       -13.3200
 238   2.0000      -0.489025       -13.3071
 239   2.0000      -0.484158       -13.1746
 240   2.0000      -0.473941       -12.8966
 241   2.0000      -0.470341       -12.7986
 242   2.0000      -0.467673       -12.7260
 243   2.0000      -0.467041       -12.7088
 244   2.0000      -0.466354       -12.6901
 245   2.0000      -0.464798       -12.6478
 246   2.0000      -0.463056       -12.6004
 247   2.0000      -0.462507       -12.5855
 248   2.0000      -0.458970       -12.4892
 249   2.0000      -0.452563       -12.3149
 250   2.0000      -0.451881       -12.2963
 251   2.0000      -0.450405       -12.2561
 252   2.0000      -0.449458       -12.2304
 253   2.0000      -0.447801       -12.1853
 254   2.0000      -0.445591       -12.1251
 255   2.0000      -0.443921       -12.0797
 256   2.0000      -0.443278       -12.0622
 257   2.0000      -0.441064       -12.0020
 258   2.0000      -0.439643       -11.9633
 259   2.0000      -0.434909       -11.8345
 260   2.0000      -0.432086       -11.7577
 261   2.0000      -0.428904       -11.6711
 262   2.0000      -0.428501       -11.6601
 263   2.0000      -0.426844       -11.6150
 264   2.0000      -0.425745       -11.5851
 265   2.0000      -0.421022       -11.4566
 266   2.0000      -0.415250       -11.2995
 267   2.0000      -0.414388       -11.2761
 268   2.0000      -0.411472       -11.1967
 269   2.0000      -0.408989       -11.1292
 270   2.0000      -0.407820       -11.0973
 271   2.0000      -0.405709       -11.0399
 272   2.0000      -0.405192       -11.0258
 273   2.0000      -0.402882       -10.9630
 274   2.0000      -0.402207       -10.9446
 275   2.0000      -0.399467       -10.8701
 276   2.0000      -0.397766       -10.8238
 277   2.0000      -0.394424       -10.7328
 278   2.0000      -0.391465       -10.6523
 279   2.0000      -0.387624       -10.5478
 280   2.0000      -0.385924       -10.5015
 281   2.0000      -0.382166       -10.3993
 282   2.0000      -0.381336       -10.3767
 283   2.0000      -0.374572       -10.1926
 284   2.0000      -0.365400        -9.9430
 285   2.0000      -0.361476        -9.8363
 286   2.0000      -0.358963        -9.7679
 287   2.0000      -0.352601        -9.5948
 288   2.0000      -0.348377        -9.4798
 289   2.0000      -0.343738        -9.3536
 290   2.0000      -0.340805        -9.2738
 291   2.0000      -0.332340        -9.0434
 292   2.0000      -0.325486        -8.8569
 293   2.0000      -0.321409        -8.7460
 294   2.0000      -0.313891        -8.5414
 295   2.0000      -0.307096        -8.3565
 296   2.0000      -0.303093        -8.2476
 297   2.0000      -0.296734        -8.0745
 298   2.0000      -0.295135        -8.0310
 299   2.0000      -0.289879        -7.8880
 300   2.0000      -0.285595        -7.7714
 301   2.0000      -0.265121        -7.2143
 302   0.0000      -0.100304        -2.7294
 303   0.0000      -0.091694        -2.4951
 304   0.0000      -0.082765        -2.2521
 305   0.0000      -0.064153        -1.7457
 306   0.0000      -0.057462        -1.5636

MULLIKEN ATOMIC CHARGES
-----------------------
   0 C :   -0.111858
   1 C :    0.244814
   2 F :   -0.169761
   3 C :    0.242175
   4 F :   -0.171067
   5 C :   -0.109136
   6 C :    0.119049
   7 C :    0.116797
   8 C :   -0.090062
   9 C :    0.055296
  10 C :    0.000297
  11 C :   -0.086038
  12 C :    0.154563
  13 O :   -0.153919
  14 C :   -0.133100
  15 C :    0.300780
  16 C :   -0.331465
  17 C :   -0.210748
  18 N :    0.167110
  19 C :   -0.181198
  20 N :    0.149880
  21 C :   -0.059770
  22 C :   -0.011576
  23 C :    0.114973
  24 O :   -0.288136
  25 C :    0.177658
  26 C :    0.162167
  27 O :   -0.297550
  28 C :    0.191445
  29 C :   -0.077344
  30 C :    0.041883
  31 C :   -0.004373
  32 N :   -0.280001
  33 S :    0.483640
  34 N :   -0.256070
  35 C :    0.067049
  36 C :   -0.055496
  37 C :   -0.059007
  38 N :    0.032077
  39 C :    0.118717
  40 C :    0.121483
  41 N :    0.045025
  42 F :   -0.146535
  43 F :   -0.149840
  44 C :    0.081710
  45 C :    0.003331
  46 C :    0.005044
  47 N :   -0.267471
  48 S :    0.537878
  49 N :   -0.269217
  50 C :   -0.090410
  51 C :    0.166381
  52 O :   -0.303552
  53 C :    0.214062
  54 C :    0.140016
  55 O :   -0.317995
  56 C :    0.177729
  57 C :   -0.014194
  58 C :   -0.000849
  59 C :    0.057280
  60 N :   -0.259560
  61 S :    0.496080
  62 N :   -0.299834
  63 C :   -0.080691
  64 C :   -0.095471
  65 C :    0.133137
  66 O :   -0.141846
  67 C :    0.014400
  68 C :   -0.086713
  69 C :    0.113758
  70 C :    0.114132
  71 C :   -0.109100
  72 C :    0.243349
  73 C :    0.240442
  74 C :   -0.107469
  75 F :   -0.172482
  76 F :   -0.171930
  77 C :   -0.086003
  78 C :    0.031258
  79 C :    0.342968
  80 C :   -0.332766
  81 C :   -0.172278
  82 N :    0.137821
  83 C :   -0.187369
  84 N :    0.152287
  85 H :    0.007730
  86 H :   -0.001477
  87 H :   -0.003852
  88 H :   -0.013832
  89 H :    0.052712
  90 H :    0.042910
  91 H :    0.043040
  92 H :    0.053451
  93 H :    0.026267
  94 H :    0.023254
  95 H :    0.037960
  96 H :    0.023264
  97 H :    0.028781
  98 H :    0.020641
  99 H :    0.061006
 100 H :    0.036387
 101 H :    0.039694
 102 H :    0.026092
 103 H :   -0.010076
 104 H :    0.005401
 105 H :   -0.001330
 106 H :   -0.006713
Sum of atomic charges:   -0.0000000

LOEWDIN ATOMIC CHARGES
----------------------
   0 C :   -0.028851
   1 C :    0.066881
   2 F :   -0.048128
   3 C :    0.067985
   4 F :   -0.048968
   5 C :   -0.033629
   6 C :   -0.008995
   7 C :   -0.006837
   8 C :    0.018229
   9 C :   -0.023205
  10 C :   -0.051789
  11 C :    0.027809
  12 C :    0.080855
  13 O :   -0.147476
  14 C :   -0.110751
  15 C :    0.073821
  16 C :   -0.137165
  17 C :   -0.027100
  18 N :   -0.047227
  19 C :   -0.017917
  20 N :   -0.051855
  21 C :    0.086615
  22 C :   -0.098544
  23 C :    0.089572
  24 O :   -0.041989
  25 C :    0.086556
  26 C :    0.064314
  27 O :   -0.081088
  28 C :    0.077729
  29 C :   -0.039666
  30 C :   -0.046704
  31 C :   -0.041180
  32 N :   -0.295180
  33 S :    0.618427
  34 N :   -0.277916
  35 C :   -0.005929
  36 C :   -0.002983
  37 C :   -0.002847
  38 N :   -0.035311
  39 C :    0.051489
  40 C :    0.051639
  41 N :   -0.028858
  42 F :   -0.036406
  43 F :   -0.038349
  44 C :   -0.004224
  45 C :   -0.036754
  46 C :   -0.037191
  47 N :   -0.285868
  48 S :    0.684542
  49 N :   -0.280692
  50 C :   -0.030830
  51 C :    0.061850
  52 O :   -0.089666
  53 C :    0.080457
  54 C :    0.081774
  55 O :   -0.077075
  56 C :    0.087165
  57 C :   -0.095340
  58 C :   -0.042669
  59 C :   -0.039416
  60 N :   -0.274868
  61 S :    0.625503
  62 N :   -0.291114
  63 C :    0.068819
  64 C :   -0.082774
  65 C :    0.085364
  66 O :   -0.143804
  67 C :   -0.052911
  68 C :    0.029706
  69 C :   -0.009881
  70 C :   -0.005556
  71 C :   -0.030787
  72 C :    0.066765
  73 C :    0.066298
  74 C :   -0.033141
  75 F :   -0.050104
  76 F :   -0.049450
  77 C :    0.014003
  78 C :   -0.014799
  79 C :    0.083899
  80 C :   -0.139282
  81 C :   -0.010852
  82 N :   -0.060173
  83 C :   -0.019472
  84 N :   -0.056263
  85 H :    0.047985
  86 H :    0.044535
  87 H :    0.040515
  88 H :    0.039036
  89 H :    0.050891
  90 H :    0.021690
  91 H :    0.030683
  92 H :    0.029280
  93 H :    0.021789
  94 H :    0.015652
  95 H :    0.019287
  96 H :    0.019954
  97 H :    0.015440
  98 H :    0.017717
  99 H :    0.029001
 100 H :    0.021354
 101 H :    0.029534
 102 H :    0.044431
 103 H :    0.040124
 104 H :    0.046996
 105 H :    0.044530
 106 H :    0.039306

  Mayer bond orders larger than 0.100000
B(  0-C ,  1-C ) :   1.4382 B(  0-C ,  5-C ) :   0.1089 B(  0-C ,  7-C ) :   1.1873
B(  0-C , 85-H ) :   1.0084 B(  1-C ,  2-F ) :   1.1367 B(  1-C ,  3-C ) :   1.1919
B(  3-C ,  4-F ) :   1.1344 B(  3-C ,  5-C ) :   1.4417 B(  5-C ,  6-C ) :   1.1890
B(  5-C , 86-H ) :   1.0083 B(  6-C ,  7-C ) :   1.2608 B(  6-C , 11-C ) :   1.1850
B(  7-C ,  8-C ) :   1.2092 B(  8-C ,  9-C ) :   1.4499 B(  8-C , 87-H ) :   0.9928
B(  9-C , 10-C ) :   1.2217 B(  9-C , 15-C ) :   0.9904 B( 10-C , 11-C ) :   1.4691
B( 10-C , 12-C ) :   0.9500 B( 11-C , 88-H ) :   1.0185 B( 12-C , 13-O ) :   2.1445
B( 12-C , 14-C ) :   0.9649 B( 14-C , 15-C ) :   1.0555 B( 14-C , 21-C ) :   1.5369
B( 15-C , 16-C ) :   1.6600 B( 16-C , 17-C ) :   1.1434 B( 16-C , 19-C ) :   1.1380
B( 17-C , 18-N ) :   2.9965 B( 19-C , 20-N ) :   2.9698 B( 21-C , 22-C ) :   1.1895
B( 21-C , 89-H ) :   0.9463 B( 22-C , 23-C ) :   1.2971 B( 22-C , 31-C ) :   1.1297
B( 23-C , 24-O ) :   1.2206 B( 23-C , 26-C ) :   1.0640 B( 24-O , 25-C ) :   0.9383
B( 25-C , 90-H ) :   0.9583 B( 25-C , 91-H ) :   0.9733 B( 25-C , 92-H ) :   0.9597
B( 26-C , 27-O ) :   1.2489 B( 26-C , 29-C ) :   1.5676 B( 27-O , 28-C ) :   0.9193
B( 28-C , 93-H ) :   0.9761 B( 28-C , 94-H ) :   0.9744 B( 28-C , 95-H ) :   0.9662
B( 29-C , 30-C ) :   1.2500 B( 29-C , 35-C ) :   0.8956 B( 30-C , 31-C ) :   1.1643
B( 30-C , 34-N ) :   1.5592 B( 31-C , 32-N ) :   1.6003 B( 32-N , 33-S ) :   1.2247
B( 32-N , 34-N ) :   0.1384 B( 33-S , 34-N ) :   1.2481 B( 35-C , 36-C ) :   1.4057
B( 35-C , 44-C ) :   0.1460 B( 35-C , 46-C ) :   1.3070 B( 36-C , 37-C ) :   1.0883
B( 36-C , 41-N ) :   1.3937 B( 37-C , 38-N ) :   1.4012 B( 37-C , 44-C ) :   1.4140
B( 38-N , 39-C ) :   1.7182 B( 39-C , 40-C ) :   1.0769 B( 39-C , 43-F ) :   1.1619
B( 40-C , 41-N ) :   1.7275 B( 40-C , 42-F ) :   1.1707 B( 44-C , 45-C ) :   1.3003
B( 44-C , 50-C ) :   0.8958 B( 45-C , 46-C ) :   1.1001 B( 45-C , 49-N ) :   1.4751
B( 46-C , 47-N ) :   1.4819 B( 47-N , 48-S ) :   1.3051 B( 47-N , 49-N ) :   0.1638
B( 48-S , 49-N ) :   1.3101 B( 50-C , 51-C ) :   1.5563 B( 50-C , 57-C ) :   0.1153
B( 50-C , 59-C ) :   1.2670 B( 51-C , 52-O ) :   1.2299 B( 51-C , 54-C ) :   1.0950
B( 52-O , 53-C ) :   0.9188 B( 53-C , 96-H ) :   0.9778 B( 53-C , 97-H ) :   0.9754
B( 53-C , 98-H ) :   0.9723 B( 54-C , 55-O ) :   1.2174 B( 54-C , 57-C ) :   1.3436
B( 55-O , 56-C ) :   0.9140 B( 56-C , 99-H ) :   0.9529 B( 56-C ,100-H ) :   0.9773
B( 56-C ,101-H ) :   0.9721 B( 57-C , 58-C ) :   1.1706 B( 57-C , 63-C ) :   1.0345
B( 58-C , 59-C ) :   1.1630 B( 58-C , 62-N ) :   1.5426 B( 59-C , 60-N ) :   1.5465
B( 60-N , 61-S ) :   1.2595 B( 60-N , 62-N ) :   0.1397 B( 61-S , 62-N ) :   1.2278
B( 63-C , 64-C ) :   1.6980 B( 63-C ,102-H ) :   0.9424 B( 64-C , 65-C ) :   0.9393
B( 64-C , 79-C ) :   1.0238 B( 65-C , 66-O ) :   2.2762 B( 65-C , 67-C ) :   0.9131
B( 67-C , 68-C ) :   1.4686 B( 67-C , 78-C ) :   1.2201 B( 68-C , 69-C ) :   1.1942
B( 68-C ,103-H ) :   1.0171 B( 69-C , 70-C ) :   1.2574 B( 69-C , 74-C ) :   1.1911
B( 70-C , 71-C ) :   1.1864 B( 70-C , 77-C ) :   1.2105 B( 71-C , 72-C ) :   1.4400
B( 71-C , 74-C ) :   0.1091 B( 71-C ,104-H ) :   1.0086 B( 72-C , 73-C ) :   1.1912
B( 72-C , 76-F ) :   1.1336 B( 73-C , 74-C ) :   1.4437 B( 73-C , 75-F ) :   1.1319
B( 74-C ,105-H ) :   1.0081 B( 77-C , 78-C ) :   1.4569 B( 77-C ,106-H ) :   0.9960
B( 78-C , 79-C ) :   1.0061 B( 79-C , 80-C ) :   1.6491 B( 80-C , 81-C ) :   1.1720
B( 80-C , 83-C ) :   1.1385 B( 81-C , 82-N ) :   2.9485 B( 83-C , 84-N ) :   2.9849

-----------------------------------------------------------------------------
         ABSORPTION SPECTRUM VIA TRANSITION ELECTRIC DIPOLE MOMENTS
-----------------------------------------------------------------------------
State   Energy  Wavelength   fosc         T2         TX        TY        TZ
        (cm-1)    (nm)                  (au**2)     (au)      (au)      (au)
-----------------------------------------------------------------------------
   0   18566.2    538.6   0.866177665  15.35890  -0.81873  -3.25597  -2.02169
   1   21822.6    458.2   0.052048241   0.78519   0.65297   0.33322  -0.49778
   2   22279.5    448.8   0.380076217   5.61617   0.66979   1.82441   1.35613
   3   23173.8    431.5   0.028544903   0.40551   0.01409  -0.22624   0.59509
   4   24172.8    413.7   0.047952282   0.65307   0.20116   0.74065  -0.25305
   5   25288.6    395.4   0.119229423   1.55215  -0.42069   0.08237  -1.16978
   6   26401.5    378.8   0.033681733   0.41999   0.25197  -0.03761   0.59589
   7   27156.7    368.2   0.032345151   0.39211  -0.61909  -0.08756  -0.03416
   8   27344.8    365.7   0.018448890   0.22211   0.10204  -0.40265   0.22265
   9   27532.9    363.2   0.010341530   0.12365   0.32258  -0.11049  -0.08596
  10   27826.0    359.4   0.005947642   0.07037   0.23489  -0.09312   0.08076
  11   28100.7    355.9   0.024135549   0.28276   0.24365   0.45209   0.13787
  12   29118.2    343.4   0.143052339   1.61736   1.21040   0.22848   0.31637
  13   29405.6    340.1   0.002437822   0.02729   0.01238   0.09620   0.13374
  14   29577.7    338.1   0.008883672   0.09888   0.02684   0.27545  -0.14929
  15   30101.7    332.2   0.150032733   1.64086   0.69564   0.73505   0.78527
  16   30155.6    331.6   0.062681655   0.68430   0.57465  -0.55330  -0.21896
  17   30498.1    327.9   0.003856230   0.04163   0.16415   0.06157   0.10435
  18   30572.4    327.1   0.020145663   0.21693  -0.12438  -0.42410  -0.14699
  19   31325.7    319.2   0.033973070   0.35703   0.32664   0.25050  -0.43311
  20   31479.4    317.7   0.249300441   2.60718   0.80035   0.34498  -1.35927
  21   31850.9    314.0   0.078809235   0.81457   0.03532  -0.14715  -0.88976
  22   31858.3    313.9   0.006362749   0.06575  -0.02141   0.06719   0.24653
  23   31995.9    312.5   0.330269080   3.39820  -1.61499  -0.85705  -0.23552
  24   32949.6    303.5   0.007608272   0.07602   0.21904  -0.14184   0.08900
  25   33217.4    301.0   0.006762832   0.06703  -0.23060  -0.11710  -0.01183
  26   33367.6    299.7   0.066087787   0.65204   0.40655   0.56234   0.41296
  27   33568.9    297.9   0.189300467   1.85648  -1.01388  -0.70210  -0.57929
  28   34249.1    292.0   0.043408165   0.41725  -0.61378  -0.09550  -0.17722
  29   34307.8    291.5   0.115058089   1.10408  -0.35747   0.53413  -0.83126
  30   34469.1    290.1   0.457860516   4.37300   1.96142  -0.69326   0.21262
  31   34595.9    289.1   0.553094658   5.26321   1.85229   0.76350   1.11772
  32   34673.6    288.4   0.006948592   0.06597  -0.08917  -0.19698  -0.13864
  33   34825.0    287.1   0.020588754   0.19463   0.41591   0.13605  -0.05603
  34   35076.0    285.1   0.058839963   0.55225  -0.18044  -0.46652  -0.54959
  35   35333.7    283.0   0.051230786   0.47733  -0.19555  -0.65233  -0.11642
  36   35360.3    282.8   0.110175378   1.02576   0.69114  -0.23635   0.70158
  37   35481.5    281.8   0.065154842   0.60453  -0.60618  -0.35788  -0.33016
  38   35561.5    281.2   0.100335765   0.92886   0.40494  -0.10932   0.86772
  39   35825.0    279.1   0.012649570   0.11624   0.31906   0.11102  -0.04599
  40   36098.3    277.0   0.294219335   2.68324  -1.08015   0.01502  -1.23138
  41   36394.4    274.8   0.006602535   0.05972  -0.21547  -0.10030  -0.05692
  42   36527.8    273.8   0.051362291   0.46291   0.22618  -0.50804   0.39198
  43   36941.9    270.7   0.072290937   0.64423   0.64661   0.01653   0.47524
  44   37032.8    270.0   0.243780951   2.16715   0.63238  -0.34786   1.28306
  45   37175.6    269.0   0.092394275   0.81821  -0.00548  -0.46655  -0.77493
  46   37351.4    267.7   0.074539640   0.65699   0.20402   0.44792   0.64400
  47   37402.9    267.4   0.078237418   0.68863   0.82640   0.04995  -0.05647
  48   37583.9    266.1   0.080990292   0.70943   0.75621  -0.22711   0.29325
  49   37873.3    264.0   0.040063548   0.34825  -0.30849  -0.31066   0.39570
  50   38249.2    261.4   0.070460668   0.60646   0.52645   0.51082  -0.26148
  51   39096.8    255.8   0.063002295   0.53051   0.18348  -0.70403   0.03451
  52   39184.0    255.2   0.071413602   0.59999   0.20582   0.13978  -0.73355
  53   39402.5    253.8   0.048245741   0.40310   0.33111   0.16436   0.51619
  54   39433.7    253.6   0.285254809   2.38145  -0.00477   1.53967   0.10410
  55   39805.4    251.2   0.024282177   0.20083  -0.24630   0.37272   0.03526
  56   40151.2    249.1   0.024705483   0.20257   0.04821   0.20329   0.39864
  57   40322.9    248.0   0.023287385   0.19013  -0.39163  -0.19138  -0.01128

FINAL SINGLE POINT ENERGY     -5120.118317349284

DIPOLE MOMENT
-------------
                                X             Y             Z
Electronic contribution:     -9.36203      14.99136     -28.41624
Nuclear contribution   :     10.08876     -17.09606      29.86859
                        -----------------------------------------
Total Dipole Moment    :      0.72673      -2.10470       1.45234
                        -----------------------------------------
Magnitude (a.u.)       :      2.65842
Magnitude (Debye)      :      6.75718

Rotational constants in cm-1:     0.001519     0.000220     0.000215
Rotational constants in MHz :    45.524231     6.587442     6.441293

                             ****ORCA TERMINATED NORMALLY****
TOTAL RUN TIME: 0 days 0 hours 13 minutes 25 seconds 241 msec
